Protein in water
79358
    1DC     O5'    1   3.014   4.329   3.338
    1DC     H5T    2   3.006   4.425   3.362
    1DC     C5'    3   2.886   4.275   3.322
    1DC    H5'1    4   2.839   4.328   3.250
    1DC    H5'2    5   2.837   4.288   3.408
    1DC     C4'    6   2.895   4.131   3.284
    1DC     H4'    7   2.799   4.100   3.276
    1DC     O4'    8   2.965   4.117   3.162
    1DC     C1'    9   3.039   3.995   3.163
    1DC     H1'   10   3.011   3.940   3.085
    1DC      N1   11   3.185   4.024   3.150
    1DC      C6   12   3.237   4.146   3.176
    1DC      H6   13   3.179   4.219   3.209
    1DC      C5   14   3.368   4.170   3.158
    1DC      H5   15   3.407   4.260   3.177
    1DC      C4   16   3.449   4.065   3.109
    1DC      N4   17   3.578   4.082   3.086
    1DC     H41   18   3.619   4.172   3.104
    1DC     H42   19   3.633   4.007   3.051
    1DC      N3   20   3.395   3.945   3.083
    1DC      C2   21   3.264   3.922   3.103
    1DC      O2   22   3.214   3.812   3.081
    1DC     C3'   23   2.972   4.045   3.383
    1DC     H3'   24   3.048   4.090   3.430
    1DC     C2'   25   3.011   3.927   3.294
    1DC    H2'1   26   3.092   3.881   3.330
    1DC    H2'2   27   2.935   3.863   3.286
    1DC     O3'   28   2.892   4.004   3.493
    2DG       P   29   2.964   3.960   3.627
    2DG     O1P   30   2.850   3.950   3.720
    2DG     O2P   31   3.067   4.054   3.657
    2DG     O5'   32   3.031   3.819   3.603
    2DG     C5'   33   2.953   3.705   3.584
    2DG    H5'1   34   2.885   3.726   3.514
    2DG    H5'2   35   2.906   3.687   3.671
    2DG     C4'   36   3.039   3.589   3.544
    2DG     H4'   37   2.977   3.512   3.534
    2DG     O4'   38   3.106   3.619   3.422
    2DG     C1'   39   3.234   3.557   3.421
    2DG     H1'   40   3.238   3.498   3.341
    2DG      N9   41   3.344   3.661   3.413
    2DG      C8   42   3.339   3.796   3.434
    2DG      H8   43   3.257   3.844   3.464
    2DG      N7   44   3.454   3.856   3.413
    2DG      C5   45   3.539   3.754   3.373
    2DG      C6   46   3.675   3.757   3.336
    2DG      O6   47   3.750   3.854   3.329
    2DG      N1   48   3.723   3.632   3.305
    2DG      H1   49   3.819   3.624   3.279
    2DG      C2   50   3.650   3.517   3.309
    2DG      N2   51   3.711   3.405   3.277
    2DG     H21   52   3.808   3.405   3.251
    2DG     H22   53   3.661   3.318   3.279
    2DG      N3   54   3.522   3.513   3.343
    2DG      C4   55   3.474   3.634   3.374
    2DG     C3'   56   3.152   3.557   3.641
    2DG     H3'   57   3.191   3.634   3.690
    2DG     C2'   58   3.247   3.481   3.551
    2DG    H2'1   59   3.340   3.486   3.586
    2DG    H2'2   60   3.219   3.386   3.540
    2DG     O3'   61   3.106   3.477   3.750
    3DA       P   62   3.191   3.475   3.884
    3DA     O1P   63   3.101   3.403   3.975
    3DA     O2P   64   3.227   3.610   3.917
    3DA     O5'   65   3.324   3.393   3.857
    3DA     C5'   66   3.320   3.257   3.835
    3DA    H5'1   67   3.253   3.239   3.764
    3DA    H5'2   68   3.291   3.213   3.920
    3DA     C4'   69   3.456   3.207   3.793
    3DA     H4'   70   3.444   3.108   3.781
    3DA     O4'   71   3.495   3.271   3.673
    3DA     C1'   72   3.636   3.289   3.672
    3DA     H1'   73   3.669   3.243   3.589
    3DA      N9   74   3.675   3.436   3.672
    3DA      C8   75   3.599   3.544   3.700
    3DA      H8   76   3.506   3.536   3.737
    3DA      N7   77   3.656   3.659   3.677
    3DA      C5   78   3.782   3.623   3.629
    3DA      C6   79   3.891   3.698   3.588
    3DA      N6   80   3.894   3.830   3.584
    3DA     H61   81   3.814   3.883   3.613
    3DA     H62   82   3.976   3.878   3.553
    3DA      N1   83   3.999   3.629   3.548
    3DA      C2   84   3.999   3.495   3.550
    3DA      H2   85   4.082   3.450   3.519
    3DA      N3   86   3.901   3.415   3.587
    3DA      C4   87   3.794   3.487   3.625
    3DA     C3'   88   3.567   3.238   3.891
    3DA     H3'   89   3.558   3.323   3.941
    3DA     C2'   90   3.689   3.229   3.800
    3DA    H2'1   91   3.765   3.282   3.836
    3DA    H2'2   92   3.717   3.134   3.787
    3DA     O3'   93   3.573   3.143   3.997
    4DC       P   94   3.646   3.184   4.131
    4DC     O1P   95   3.610   3.073   4.220
    4DC     O2P   96   3.603   3.316   4.168
    4DC     O5'   97   3.802   3.190   4.104
    4DC     C5'   98   3.874   3.073   4.079
    4DC    H5'1   99   3.825   3.022   4.007
    4DC    H5'2  100   3.873   3.018   4.163
    4DC     C4'  101   4.013   3.105   4.038
    4DC     H4'  102   4.058   3.017   4.023
    4DC     O4'  103   4.011   3.183   3.919
    4DC     C1'  104   4.120   3.274   3.921
    4DC     H1'  105   4.176   3.259   3.839
    4DC      N1  106   4.069   3.414   3.917
    4DC      C6  107   3.943   3.448   3.950
    4DC      H6  108   3.880   3.376   3.982
    4DC      C5  109   3.898   3.573   3.940
    4DC      H5  110   3.804   3.597   3.965
    4DC      C4  111   3.989   3.671   3.892
    4DC      N4  112   3.950   3.797   3.878
    4DC     H41  113   3.857   3.824   3.901
    4DC     H42  114   4.016   3.865   3.845
    4DC      N3  115   4.114   3.638   3.860
    4DC      C2  116   4.157   3.512   3.871
    4DC      O2  117   4.272   3.480   3.843
    4DC     C3'  118   4.091   3.190   4.137
    4DC     H3'  119   4.036   3.255   4.190
    4DC     C2'  120   4.197   3.249   4.048
    4DC    H2'1  121   4.233   3.335   4.086
    4DC    H2'2  122   4.272   3.186   4.033
    4DC     O3'  123   4.147   3.110   4.241
    5DT       P  124   4.186   3.181   4.378
    5DT     O1P  125   4.217   3.066   4.464
    5DT     O2P  126   4.079   3.267   4.417
    5DT     O5'  127   4.315   3.271   4.353
    5DT     C5'  128   4.438   3.211   4.326
    5DT    H5'1  129   4.424   3.145   4.252
    5DT    H5'2  130   4.467   3.163   4.409
    5DT     C4'  131   4.538   3.316   4.287
    5DT     H4'  132   4.623   3.266   4.270
    5DT     O4'  133   4.494   3.383   4.171
    5DT     C1'  134   4.535   3.520   4.174
    5DT     H1'  135   4.586   3.532   4.090
    5DT      N1  136   4.419   3.619   4.186
    5DT      C6  137   4.293   3.574   4.217
    5DT      H6  138   4.280   3.478   4.242
    5DT      C5  139   4.185   3.655   4.214
    5DT      C7  140   4.050   3.606   4.253
    5DT     H71  141   3.984   3.681   4.244
    5DT     H72  142   4.024   3.531   4.192
    5DT     H73  143   4.052   3.573   4.347
    5DT      C4  144   4.203   3.792   4.175
    5DT      O4  145   4.110   3.874   4.167
    5DT      N3  146   4.330   3.830   4.145
    5DT      H3  147   4.344   3.925   4.116
    5DT      C2  148   4.440   3.750   4.149
    5DT      O2  149   4.550   3.792   4.122
    5DT     C3'  150   4.557   3.426   4.389
    5DT     H3'  151   4.476   3.451   4.443
    5DT     C2'  152   4.614   3.537   4.303
    5DT    H2'1  153   4.597   3.627   4.343
    5DT    H2'2  154   4.711   3.525   4.287
    5DT     O3'  155   4.648   3.388   4.491
    6DC       P  156   4.643   3.465   4.631
    6DC     O1P  157   4.732   3.383   4.714
    6DC     O2P  158   4.506   3.478   4.670
    6DC     O5'  159   4.702   3.611   4.608
    6DC     C5'  160   4.838   3.629   4.583
    6DC    H5'1  161   4.861   3.568   4.506
    6DC    H5'2  162   4.889   3.602   4.664
    6DC     C4'  163   4.865   3.772   4.546
    6DC     H4'  164   4.963   3.776   4.529
    6DC     O4'  165   4.790   3.807   4.431
    6DC     C1'  166   4.751   3.944   4.439
    6DC     H1'  167   4.787   3.992   4.358
    6DC      N1  168   4.603   3.955   4.439
    6DC      C6  169   4.521   3.852   4.468
    6DC      H6  170   4.562   3.764   4.496
    6DC      C5  171   4.389   3.863   4.461
    6DC      H5  172   4.329   3.787   4.485
    6DC      C4  173   4.336   3.987   4.420
    6DC      N4  174   4.205   4.006   4.409
    6DC     H41  175   4.142   3.930   4.429
    6DC     H42  176   4.169   4.094   4.380
    6DC      N3  177   4.416   4.090   4.391
    6DC      C2  178   4.550   4.076   4.400
    6DC      O2  179   4.626   4.170   4.373
    6DC     C3'  180   4.820   3.873   4.651
    6DC     H3'  181   4.740   3.848   4.705
    6DC     C2'  182   4.808   3.997   4.568
    6DC    H2'1  183   4.746   4.064   4.610
    6DC    H2'2  184   4.897   4.041   4.553
    6DC     O3'  185   4.919   3.887   4.754
    7DT       P  186   4.873   3.945   4.895
    7DT     O1P  187   4.992   3.922   4.978
    7DT     O2P  188   4.750   3.881   4.932
    7DT     O5'  189   4.843   4.100   4.877
    7DT     C5'  190   4.947   4.189   4.852
    7DT    H5'1  191   5.000   4.153   4.776
    7DT    H5'2  192   5.004   4.192   4.934
    7DT     C4'  193   4.892   4.324   4.820
    7DT     H4'  194   4.973   4.382   4.805
    7DT     O4'  195   4.811   4.317   4.704
    7DT     C1'  196   4.703   4.411   4.716
    7DT     H1'  197   4.712   4.466   4.632
    7DT      N1  198   4.566   4.345   4.725
    7DT      C6  199   4.555   4.211   4.750
    7DT      H6  200   4.638   4.159   4.773
    7DT      C5  201   4.438   4.146   4.747
    7DT      C7  202   4.427   4.001   4.780
    7DT     H71  203   4.332   3.971   4.771
    7DT     H72  204   4.484   3.949   4.715
    7DT     H73  205   4.459   3.985   4.873
    7DT      C4  206   4.319   4.220   4.715
    7DT      O4  207   4.206   4.170   4.707
    7DT      N3  208   4.336   4.352   4.689
    7DT      H3  209   4.255   4.406   4.665
    7DT      C2  210   4.454   4.419   4.694
    7DT      O2  211   4.460   4.538   4.672
    7DT     C3'  212   4.801   4.383   4.926
    7DT     H3'  213   4.747   4.317   4.978
    7DT     C2'  214   4.722   4.484   4.846
    7DT    H2'1  215   4.634   4.504   4.889
    7DT    H2'2  216   4.773   4.568   4.833
    7DT     O3'  217   4.875   4.446   5.030
    8DA       P  218   4.806   4.466   5.172
    8DA     O1P  219   4.918   4.509   5.255
    8DA     O2P  220   4.739   4.345   5.208
    8DA     O5'  221   4.696   4.581   5.157
    8DA     C5'  222   4.736   4.713   5.136
    8DA    H5'1  223   4.800   4.713   5.059
    8DA    H5'2  224   4.782   4.745   5.218
    8DA     C4'  225   4.616   4.798   5.106
    8DA     H4'  226   4.652   4.890   5.092
    8DA     O4'  227   4.552   4.750   4.990
    8DA     C1'  228   4.411   4.770   5.002
    8DA     H1'  229   4.385   4.825   4.922
    8DA      N9  230   4.333   4.638   5.003
    8DA      C8  231   4.381   4.513   5.025
    8DA      H8  232   4.475   4.495   5.053
    8DA      N7  233   4.293   4.418   5.006
    8DA      C5  234   4.178   4.489   4.970
    8DA      C6  235   4.049   4.445   4.938
    8DA      N6  236   4.011   4.319   4.935
    8DA     H61  237   4.077   4.246   4.956
    8DA     H62  238   3.917   4.295   4.910
    8DA      N1  239   3.960   4.543   4.908
    8DA      C2  240   3.998   4.672   4.911
    8DA      H2  241   3.926   4.737   4.888
    8DA      N3  242   4.116   4.720   4.940
    8DA      C4  243   4.202   4.622   4.968
    8DA     C3'  244   4.508   4.794   5.213
    8DA     H3'  245   4.499   4.708   5.263
    8DA     C2'  246   4.388   4.838   5.133
    8DA    H2'1  247   4.303   4.806   5.176
    8DA    H2'2  248   4.384   4.938   5.123
    8DA     O3'  249   4.537   4.884   5.320
    9DC       P  250   4.467   4.860   5.460
    9DC     O1P  251   4.540   4.956   5.546
    9DC     O2P  252   4.477   4.721   5.492
    9DC     O5'  253   4.314   4.898   5.446
    9DC     C5'  254   4.275   5.030   5.429
    9DC    H5'1  255   4.329   5.067   5.352
    9DC    H5'2  256   4.297   5.080   5.512
    9DC     C4'  257   4.128   5.038   5.399
    9DC     H4'  258   4.108   5.135   5.388
    9DC     O4'  259   4.099   4.965   5.282
    9DC     C1'  260   3.970   4.905   5.292
    9DC     H1'  261   3.914   4.937   5.215
    9DC      N1  262   3.981   4.757   5.283
    9DC      C6  263   4.097   4.691   5.304
    9DC      H6  264   4.179   4.742   5.331
    9DC      C5  265   4.105   4.559   5.290
    9DC      H5  266   4.191   4.510   5.307
    9DC      C4  267   3.988   4.490   5.250
    9DC      N4  268   3.990   4.358   5.231
    9DC     H41  269   4.074   4.307   5.247
    9DC     H42  270   3.907   4.311   5.204
    9DC      N3  271   3.875   4.555   5.229
    9DC      C2  272   3.868   4.688   5.245
    9DC      O2  273   3.764   4.750   5.227
    9DC     C3'  274   4.040   4.973   5.505
    9DC     H3'  275   4.078   4.895   5.553
    9DC     C2'  276   3.915   4.947   5.426
    9DC    H2'1  277   3.860   4.873   5.466
    9DC    H2'2  278   3.858   5.028   5.417
    9DC     O3'  279   4.016   5.062   5.614
   10DG       P  280   3.970   5.001   5.753
   10DG     O1P  281   3.979   5.118   5.842
   10DG     O2P  282   4.054   4.888   5.782
   10DG     O5'  283   3.821   4.949   5.739
   10DG     C5'  284   3.717   5.039   5.723
   10DG    H5'1  285   3.741   5.101   5.649
   10DG    H5'2  286   3.708   5.092   5.808
   10DG     C4'  287   3.589   4.967   5.693
   10DG     H4'  288   3.519   5.038   5.684
   10DG     O4'  289   3.604   4.893   5.573
   10DG     C1'  290   3.528   4.773   5.581
   10DG     H1'  291   3.464   4.773   5.503
   10DG      N9  292   3.618   4.650   5.571
   10DG      C8  293   3.754   4.640   5.585
   10DG      H8  294   3.812   4.718   5.608
   10DG      N7  295   3.798   4.519   5.565
   10DG      C5  296   3.685   4.445   5.534
   10DG      C6  297   3.670   4.309   5.503
   10DG      O6  298   3.757   4.222   5.493
   10DG      N1  299   3.538   4.275   5.481
   10DG      H1  300   3.518   4.179   5.458
   10DG      C2  301   3.434   4.361   5.488
   10DG      N2  302   3.313   4.313   5.465
   10DG     H21  303   3.301   4.216   5.442
   10DG     H22  304   3.233   4.373   5.468
   10DG      N3  305   3.446   4.490   5.516
   10DG      C4  306   3.574   4.525   5.538
   10DG     C3'  307   3.550   4.862   5.796
   10DG     H3'  308   3.626   4.816   5.842
   10DG     C2'  309   3.459   4.773   5.714
   10DG    H2'1  310   3.454   4.682   5.753
   10DG    H2'2  311   3.366   4.812   5.707
   10DG     O3'  312   3.482   4.921   5.906
   11DG       P  313   3.477   4.841   6.044
   11DG     O1P  314   3.422   4.942   6.136
   11DG     O2P  315   3.609   4.791   6.071
   11DG     O5'  316   3.380   4.717   6.027
   11DG     C5'  317   3.243   4.737   6.012
   11DG    H5'1  318   3.230   4.805   5.939
   11DG    H5'2  319   3.208   4.774   6.098
   11DG     C4'  320   3.176   4.607   5.979
   11DG     H4'  321   3.079   4.629   5.970
   11DG     O4'  322   3.228   4.557   5.857
   11DG     C1'  323   3.228   4.414   5.861
   11DG     H1'  324   3.174   4.382   5.784
   11DG      N9  325   3.371   4.360   5.850
   11DG      C8  326   3.490   4.425   5.865
   11DG      H8  327   3.497   4.521   5.891
   11DG      N7  328   3.593   4.349   5.842
   11DG      C5  329   3.538   4.225   5.810
   11DG      C6  330   3.599   4.104   5.774
   11DG      O6  331   3.719   4.079   5.765
   11DG      N1  332   3.508   4.004   5.750
   11DG      H1  333   3.543   3.914   5.725
   11DG      C2  334   3.373   4.020   5.758
   11DG      N2  335   3.297   3.914   5.732
   11DG     H21  336   3.341   3.827   5.707
   11DG     H22  337   3.198   3.921   5.737
   11DG      N3  338   3.313   4.134   5.789
   11DG      C4  339   3.402   4.232   5.814
   11DG     C3'  340   3.199   4.496   6.079
   11DG     H3'  341   3.288   4.497   6.124
   11DG     C2'  342   3.171   4.374   5.994
   11DG    H2'1  343   3.217   4.293   6.030
   11DG    H2'2  344   3.073   4.357   5.987
   11DG     O3'  345   3.111   4.506   6.189
   12DA       P  346   3.150   4.433   6.325
   12DA     O1P  347   3.049   4.485   6.419
   12DA     O2P  348   3.288   4.461   6.353
   12DA     O5'  349   3.136   4.276   6.305
   12DA     C5'  350   3.010   4.219   6.289
   12DA    H5'1  351   2.962   4.269   6.217
   12DA    H5'2  352   2.961   4.229   6.375
   12DA     C4'  353   3.024   4.074   6.251
   12DA     H4'  354   2.931   4.040   6.242
   12DA     O4'  355   3.094   4.063   6.129
   12DA     C1'  356   3.173   3.944   6.130
   12DA     H1'  357   3.144   3.892   6.049
   12DA      N9  358   3.324   3.974   6.124
   12DA      C8  359   3.387   4.091   6.146
   12DA      H8  360   3.339   4.172   6.181
   12DA      N7  361   3.515   4.090   6.119
   12DA      C5  362   3.535   3.959   6.074
   12DA      C6  363   3.651   3.893   6.032
   12DA      N6  364   3.770   3.948   6.023
   12DA     H61  365   3.782   4.045   6.048
   12DA     H62  366   3.848   3.895   5.991
   12DA      N1  367   3.634   3.763   5.997
   12DA      C2  368   3.514   3.705   6.005
   12DA      H2  369   3.510   3.609   5.978
   12DA      N3  370   3.401   3.760   6.044
   12DA      C4  371   3.420   3.888   6.078
   12DA     C3'  372   3.105   3.991   6.349
   12DA     H3'  373   3.179   4.039   6.396
   12DA     C2'  374   3.147   3.875   6.261
   12DA    H2'1  375   3.230   3.831   6.296
   12DA    H2'2  376   3.073   3.807   6.252
   12DA     O3'  377   3.025   3.948   6.460
   13DA       P  378   3.099   3.905   6.593
   13DA     O1P  379   2.986   3.892   6.687
   13DA     O2P  380   3.199   4.003   6.623
   13DA     O5'  381   3.171   3.766   6.569
   13DA     C5'  382   3.097   3.651   6.550
   13DA    H5'1  383   3.029   3.669   6.480
   13DA    H5'2  384   3.051   3.630   6.637
   13DA     C4'  385   3.186   3.538   6.510
   13DA     H4'  386   3.126   3.458   6.500
   13DA     O4'  387   3.252   3.570   6.388
   13DA     C1'  388   3.382   3.512   6.387
   13DA     H1'  389   3.386   3.454   6.306
   13DA      N9  390   3.492   3.619   6.383
   13DA      C8  391   3.482   3.751   6.410
   13DA      H8  392   3.399   3.794   6.446
   13DA      N7  393   3.590   3.819   6.383
   13DA      C5  394   3.679   3.722   6.337
   13DA      C6  395   3.811   3.731   6.294
   13DA      N6  396   3.881   3.842   6.288
   13DA     H61  397   3.839   3.929   6.315
   13DA     H62  398   3.976   3.840   6.255
   13DA      N1  399   3.867   3.614   6.256
   13DA      C2  400   3.798   3.499   6.260
   13DA      H2  401   3.846   3.417   6.232
   13DA      N3  402   3.673   3.484   6.300
   13DA      C4  403   3.619   3.600   6.337
   13DA     C3'  404   3.300   3.509   6.607
   13DA     H3'  405   3.336   3.588   6.655
   13DA     C2'  406   3.397   3.437   6.517
   13DA    H2'1  407   3.491   3.444   6.552
   13DA    H2'2  408   3.373   3.340   6.506
   13DA     O3'  409   3.257   3.427   6.715
   14DG       P  410   3.342   3.427   6.850
   14DG     O1P  411   3.254   3.353   6.941
   14DG     O2P  412   3.373   3.564   6.882
   14DG     O5'  413   3.479   3.351   6.822
   14DG     C5'  414   3.478   3.214   6.800
   14DG    H5'1  415   3.411   3.194   6.729
   14DG    H5'2  416   3.451   3.169   6.886
   14DG     C4'  417   3.616   3.169   6.759
   14DG     H4'  418   3.608   3.070   6.745
   14DG     O4'  419   3.652   3.233   6.638
   14DG     C1'  420   3.793   3.256   6.637
   14DG     H1'  421   3.830   3.212   6.556
   14DG      N9  422   3.825   3.405   6.632
   14DG      C8  423   3.743   3.512   6.657
   14DG      H8  424   3.648   3.503   6.687
   14DG      N7  425   3.803   3.627   6.638
   14DG      C5  426   3.931   3.593   6.598
   14DG      C6  427   4.041   3.674   6.562
   14DG      O6  428   4.047   3.797   6.559
   14DG      N1  429   4.152   3.600   6.529
   14DG      H1  430   4.235   3.648   6.503
   14DG      C2  431   4.157   3.463   6.530
   14DG      N2  432   4.272   3.407   6.496
   14DG     H21  433   4.350   3.463   6.470
   14DG     H22  434   4.279   3.307   6.494
   14DG      N3  435   4.055   3.386   6.561
   14DG      C4  436   3.945   3.457   6.595
   14DG     C3'  437   3.726   3.204   6.856
   14DG     H3'  438   3.715   3.289   6.907
   14DG     C2'  439   3.847   3.198   6.765
   14DG    H2'1  440   3.922   3.254   6.802
   14DG    H2'2  441   3.878   3.104   6.752
   14DG     O3'  442   3.735   3.108   6.962
   15DG       P  443   3.806   3.152   7.097
   15DG     O1P  444   3.774   3.039   7.185
   15DG     O2P  445   3.758   3.282   7.134
   15DG     O5'  446   3.962   3.163   7.070
   15DG     C5'  447   4.037   3.048   7.045
   15DG    H5'1  448   3.991   2.996   6.973
   15DG    H5'2  449   4.038   2.993   7.129
   15DG     C4'  450   4.176   3.085   7.004
   15DG     H4'  451   4.223   2.998   6.988
   15DG     O4'  452   4.171   3.163   6.885
   15DG     C1'  453   4.277   3.258   6.887
   15DG     H1'  454   4.332   3.242   6.805
   15DG      N9  455   4.223   3.400   6.885
   15DG      C8  456   4.097   3.446   6.911
   15DG      H8  457   4.022   3.387   6.940
   15DG      N7  458   4.085   3.575   6.896
   15DG      C5  459   4.210   3.617   6.856
   15DG      C6  460   4.259   3.745   6.823
   15DG      O6  461   4.198   3.852   6.823
   15DG      N1  462   4.393   3.744   6.790
   15DG      H1  463   4.436   3.831   6.766
   15DG      C2  464   4.470   3.633   6.788
   15DG      N2  465   4.598   3.648   6.753
   15DG     H21  466   4.632   3.739   6.731
   15DG     H22  467   4.658   3.568   6.750
   15DG      N3  468   4.426   3.511   6.816
   15DG      C4  469   4.296   3.511   6.850
   15DG     C3'  470   4.250   3.172   7.103
   15DG     H3'  471   4.195   3.236   7.156
   15DG     C2'  472   4.354   3.236   7.014
   15DG    H2'1  473   4.388   3.322   7.052
   15DG    H2'2  474   4.432   3.175   6.999
   15DG     O3'  475   4.310   3.094   7.207
   16DG       P  476   4.346   3.166   7.344
   16DG     O1P  477   4.381   3.052   7.429
   16DG     O2P  478   4.236   3.248   7.382
   16DG     O5'  479   4.472   3.260   7.318
   16DG     C5'  480   4.597   3.205   7.291
   16DG    H5'1  481   4.586   3.139   7.218
   16DG    H5'2  482   4.627   3.158   7.374
   16DG     C4'  483   4.693   3.313   7.253
   16DG     H4'  484   4.780   3.266   7.236
   16DG     O4'  485   4.647   3.379   7.136
   16DG     C1'  486   4.684   3.516   7.141
   16DG     H1'  487   4.738   3.535   7.059
   16DG      N9  488   4.561   3.606   7.143
   16DG      C8  489   4.431   3.576   7.168
   16DG      H8  490   4.400   3.484   7.193
   16DG      N7  491   4.350   3.677   7.156
   16DG      C5  492   4.433   3.782   7.118
   16DG      C6  493   4.404   3.917   7.089
   16DG      O6  494   4.294   3.973   7.090
   16DG      N1  495   4.517   3.989   7.057
   16DG      H1  496   4.506   4.086   7.035
   16DG      C2  497   4.643   3.937   7.053
   16DG      N2  498   4.741   4.020   7.020
   16DG     H21  499   4.721   4.116   7.001
   16DG     H22  500   4.835   3.987   7.016
   16DG      N3  501   4.672   3.811   7.078
   16DG      C4  502   4.563   3.739   7.110
   16DG     C3'  503   4.708   3.424   7.355
   16DG     H3'  504   4.627   3.446   7.410
   16DG     C2'  505   4.761   3.537   7.269
   16DG    H2'1  506   4.743   3.626   7.309
   16DG    H2'2  507   4.860   3.527   7.253
   16DG     O3'  508   4.800   3.389   7.458
   17DC       P  509   4.793   3.465   7.597
   17DC     O1P  510   4.884   3.385   7.679
   17DC     O2P  511   4.655   3.473   7.636
   17DC     O5'  512   4.847   3.613   7.574
   17DC     C5'  513   4.982   3.635   7.548
   17DC    H5'1  514   5.008   3.575   7.473
   17DC    H5'2  515   5.033   3.610   7.631
   17DC     C4'  516   5.005   3.779   7.513
   17DC     H4'  517   5.103   3.787   7.497
   17DC     O4'  518   4.929   3.812   7.397
   17DC     C1'  519   4.885   3.948   7.406
   17DC     H1'  520   4.920   3.997   7.326
   17DC      N1  521   4.737   3.954   7.406
   17DC      C6  522   4.660   3.847   7.434
   17DC      H6  523   4.702   3.761   7.462
   17DC      C5  524   4.526   3.855   7.428
   17DC      H5  525   4.468   3.776   7.451
   17DC      C4  526   4.469   3.977   7.387
   17DC      N4  527   4.338   3.990   7.376
   17DC     H41  528   4.277   3.913   7.396
   17DC     H42  529   4.299   4.078   7.346
   17DC      N3  530   4.546   4.082   7.358
   17DC      C2  531   4.681   4.073   7.366
   17DC      O2  532   4.752   4.168   7.341
   17DC     C3'  533   4.957   3.878   7.618
   17DC     H3'  534   4.877   3.851   7.671
   17DC     C2'  535   4.940   4.003   7.535
   17DC    H2'1  536   4.876   4.067   7.577
   17DC    H2'2  537   5.028   4.049   7.521
   17DC     O3'  538   5.054   3.895   7.721
   18DA       P  539   5.007   3.952   7.862
   18DA     O1P  540   5.126   3.932   7.944
   18DA     O2P  541   4.886   3.884   7.900
   18DA     O5'  542   4.972   4.106   7.844
   18DA     C5'  543   5.073   4.198   7.819
   18DA    H5'1  544   5.128   4.164   7.742
   18DA    H5'2  545   5.131   4.203   7.901
   18DA     C4'  546   5.014   4.332   7.788
   18DA     H4'  547   5.092   4.393   7.771
   18DA     O4'  548   4.932   4.323   7.672
   18DA     C1'  549   4.823   4.412   7.683
   18DA     H1'  550   4.827   4.471   7.602
   18DA      N9  551   4.688   4.339   7.688
   18DA      C8  552   4.664   4.207   7.713
   18DA      H8  553   4.736   4.144   7.741
   18DA      N7  554   4.541   4.171   7.696
   18DA      C5  555   4.477   4.290   7.657
   18DA      C6  556   4.345   4.319   7.627
   18DA      N6  557   4.247   4.229   7.626
   18DA     H61  558   4.267   4.134   7.649
   18DA     H62  559   4.154   4.258   7.602
   18DA      N1  560   4.319   4.447   7.594
   18DA      C2  561   4.415   4.538   7.593
   18DA      H2  562   4.389   4.632   7.569
   18DA      N3  563   4.544   4.520   7.622
   18DA      C4  564   4.567   4.392   7.653
   18DA     C3'  565   4.921   4.387   7.894
   18DA     H3'  566   4.869   4.319   7.946
   18DA     C2'  567   4.838   4.485   7.813
   18DA    H2'1  568   4.749   4.503   7.856
   18DA    H2'2  569   4.887   4.572   7.800
   18DA     O3'  570   4.992   4.452   7.998
   19DT       P  571   4.922   4.470   8.140
   19DT     O1P  572   5.034   4.517   8.223
   19DT     O2P  573   4.859   4.346   8.175
   19DT     O5'  574   4.810   4.581   8.125
   19DT     C5'  575   4.845   4.714   8.104
   19DT    H5'1  576   4.908   4.717   8.026
   19DT    H5'2  577   4.890   4.747   8.187
   19DT     C4'  578   4.722   4.795   8.074
   19DT     H4'  579   4.755   4.889   8.061
   19DT     O4'  580   4.658   4.745   7.958
   19DT     C1'  581   4.518   4.761   7.969
   19DT     H1'  582   4.492   4.813   7.888
   19DT      N1  583   4.442   4.628   7.976
   19DT      C6  584   4.510   4.511   7.998
   19DT      H6  585   4.607   4.515   8.019
   19DT      C5  586   4.450   4.391   7.992
   19DT      C7  587   4.524   4.265   8.020
   19DT     H71  588   4.463   4.187   8.010
   19DT     H72  589   4.601   4.256   7.955
   19DT     H73  590   4.561   4.267   8.114
   19DT      C4  591   4.311   4.384   7.959
   19DT      O4  592   4.246   4.279   7.948
   19DT      N3  593   4.249   4.505   7.937
   19DT      H3  594   4.152   4.502   7.913
   19DT      C2  595   4.308   4.627   7.945
   19DT      O2  596   4.245   4.727   7.927
   19DT     C3'  597   4.614   4.788   8.181
   19DT     H3'  598   4.607   4.702   8.231
   19DT     C2'  599   4.492   4.828   8.101
   19DT    H2'1  600   4.408   4.794   8.144
   19DT    H2'2  601   4.485   4.927   8.092
   19DT     O3'  602   4.640   4.879   8.288
   20DC       P  603   4.572   4.853   8.428
   20DC     O1P  604   4.640   4.950   8.514
   20DC     O2P  605   4.586   4.713   8.459
   20DC     O5'  606   4.417   4.885   8.414
   20DC     C5'  607   4.373   5.016   8.397
   20DC    H5'1  608   4.426   5.055   8.321
   20DC    H5'2  609   4.394   5.066   8.481
   20DC     C4'  610   4.226   5.018   8.368
   20DC     H4'  611   4.203   5.115   8.357
   20DC     O4'  612   4.200   4.945   8.249
   20DC     C1'  613   4.073   4.881   8.259
   20DC     H1'  614   4.016   4.911   8.183
   20DC      N1  615   4.089   4.733   8.251
   20DC      C6  616   4.207   4.671   8.272
   20DC      H6  617   4.287   4.725   8.299
   20DC      C5  618   4.220   4.538   8.258
   20DC      H5  619   4.307   4.493   8.275
   20DC      C4  620   4.105   4.466   8.217
   20DC      N4  621   4.110   4.335   8.199
   20DC     H41  622   4.197   4.287   8.213
   20DC     H42  623   4.029   4.285   8.170
   20DC      N3  624   3.989   4.528   8.196
   20DC      C2  625   3.977   4.662   8.212
   20DC      O2  626   3.872   4.720   8.194
   20DC     C3'  627   4.140   4.951   8.473
   20DC     H3'  628   4.181   4.873   8.521
   20DC     C2'  629   4.015   4.920   8.393
   20DC    H2'1  630   3.964   4.845   8.434
   20DC    H2'2  631   3.957   5.000   8.386
   20DC     O3'  632   4.113   5.039   8.582
   21DT       P  633   4.070   4.976   8.722
   21DT     O1P  634   4.075   5.093   8.810
   21DT     O2P  635   4.157   4.866   8.750
   21DT     O5'  636   3.922   4.919   8.707
   21DT     C5'  637   3.815   5.007   8.692
   21DT    H5'1  638   3.837   5.069   8.617
   21DT    H5'2  639   3.804   5.058   8.777
   21DT     C4'  640   3.690   4.930   8.661
   21DT     H4'  641   3.618   4.998   8.652
   21DT     O4'  642   3.707   4.856   8.541
   21DT     C1'  643   3.636   4.734   8.548
   21DT     H1'  644   3.575   4.735   8.467
   21DT      N1  645   3.725   4.610   8.548
   21DT      C6  646   3.861   4.622   8.568
   21DT      H6  647   3.897   4.712   8.593
   21DT      C5  648   3.945   4.519   8.556
   21DT      C7  649   4.091   4.535   8.582
   21DT     H71  650   4.136   4.447   8.567
   21DT     H72  651   4.129   4.603   8.520
   21DT     H73  652   4.105   4.564   8.676
   21DT      C4  653   3.893   4.391   8.518
   21DT      O4  654   3.962   4.289   8.501
   21DT      N3  655   3.758   4.385   8.498
   21DT      H3  656   3.719   4.296   8.471
   21DT      C2  657   3.671   4.488   8.513
   21DT      O2  658   3.553   4.474   8.496
   21DT     C3'  659   3.654   4.823   8.764
   21DT     H3'  660   3.731   4.780   8.811
   21DT     C2'  661   3.566   4.732   8.682
   21DT    H2'1  662   3.564   4.640   8.720
   21DT    H2'2  663   3.473   4.767   8.675
   21DT     O3'  664   3.584   4.879   8.874
   22DG       P  665   3.583   4.800   9.012
   22DG     O1P  666   3.523   4.898   9.103
   22DG     O2P  667   3.716   4.754   9.039
   22DG     O5'  668   3.489   4.673   8.995
   22DG     C5'  669   3.351   4.688   8.980
   22DG    H5'1  670   3.336   4.754   8.907
   22DG    H5'2  671   3.315   4.724   9.066
   22DG     C4'  672   3.289   4.556   8.946
   22DG     H4'  673   3.191   4.575   8.938
   22DG     O4'  674   3.342   4.508   8.824
   22DG     C1'  675   3.348   4.365   8.828
   22DG     H1'  676   3.295   4.331   8.750
   22DG      N9  677   3.492   4.316   8.817
   22DG      C8  678   3.609   4.385   8.832
   22DG      H8  679   3.613   4.481   8.858
   22DG      N7  680   3.715   4.311   8.810
   22DG      C5  681   3.664   4.187   8.777
   22DG      C6  682   3.729   4.066   8.741
   22DG      O6  683   3.850   4.046   8.732
   22DG      N1  684   3.640   3.965   8.717
   22DG      H1  685   3.678   3.875   8.691
   22DG      C2  686   3.505   3.976   8.724
   22DG      N2  687   3.434   3.867   8.698
   22DG     H21  688   3.479   3.782   8.674
   22DG     H22  689   3.334   3.871   8.703
   22DG      N3  690   3.442   4.087   8.756
   22DG      C4  691   3.527   4.189   8.781
   22DG     C3'  692   3.316   4.446   9.046
   22DG     H3'  693   3.404   4.449   9.092
   22DG     C2'  694   3.291   4.322   8.961
   22DG    H2'1  695   3.339   4.243   8.997
   22DG    H2'2  696   3.194   4.302   8.954
   22DG     O3'  697   3.227   4.452   9.157
   23DC       P  698   3.269   4.381   9.293
   23DC     O1P  699   3.166   4.429   9.385
   23DC     O2P  700   3.406   4.413   9.320
   23DC     O5'  701   3.260   4.223   9.271
   23DC     C5'  702   3.136   4.161   9.255
   23DC    H5'1  703   3.086   4.211   9.184
   23DC    H5'2  704   3.087   4.170   9.342
   23DC     C4'  705   3.154   4.017   9.218
   23DC     H4'  706   3.062   3.981   9.208
   23DC     O4'  707   3.225   4.009   9.095
   23DC     C1'  708   3.308   3.893   9.096
   23DC     H1'  709   3.283   3.836   9.018
   23DC      N1  710   3.451   3.931   9.083
   23DC      C6  711   3.497   4.056   9.109
   23DC      H6  712   3.432   4.126   9.142
   23DC      C5  713   3.624   4.089   9.090
   23DC      H5  714   3.658   4.181   9.111
   23DC      C4  715   3.712   3.990   9.041
   23DC      N4  716   3.839   4.016   9.019
   23DC     H41  717   3.876   4.107   9.037
   23DC     H42  718   3.899   3.944   8.984
   23DC      N3  719   3.667   3.866   9.016
   23DC      C2  720   3.538   3.834   9.037
   23DC      O2  721   3.495   3.721   9.013
   23DC     C3'  722   3.238   3.937   9.315
   23DC     H3'  723   3.310   3.986   9.363
   23DC     C2'  724   3.284   3.823   9.227
   23DC    H2'1  725   3.367   3.781   9.262
   23DC    H2'2  726   3.213   3.753   9.218
   23DC     O3'  727   3.160   3.891   9.425
   24DG       P  728   3.235   3.851   9.560
   24DG     O1P  729   3.122   3.833   9.653
   24DG     O2P  730   3.331   3.952   9.591
   24DG     O5'  731   3.312   3.715   9.535
   24DG     C5'  732   3.241   3.597   9.517
   24DG    H5'1  733   3.173   3.613   9.446
   24DG    H5'2  734   3.196   3.574   9.602
   24DG     C4'  735   3.335   3.487   9.476
   24DG     H4'  736   3.277   3.405   9.465
   24DG     O4'  737   3.399   3.521   9.354
   24DG     C1'  738   3.531   3.468   9.353
   24DG     H1'  739   3.539   3.408   9.273
   24DG      N9  740   3.635   3.579   9.344
   24DG      C8  741   3.620   3.713   9.366
   24DG      H8  742   3.535   3.755   9.396
   24DG      N7  743   3.730   3.780   9.346
   24DG      C5  744   3.823   3.684   9.306
   24DG      C6  745   3.958   3.696   9.268
   24DG      O6  746   4.027   3.799   9.262
   24DG      N1  747   4.014   3.574   9.237
   24DG      H1  748   4.111   3.574   9.210
   24DG      C2  749   3.948   3.456   9.242
   24DG      N2  750   4.017   3.347   9.208
   24DG     H21  751   4.113   3.355   9.183
   24DG     H22  752   3.973   3.258   9.210
   24DG      N3  753   3.821   3.442   9.274
   24DG      C4  754   3.764   3.560   9.306
   24DG     C3'  755   3.449   3.461   9.573
   24DG     H3'  756   3.483   3.542   9.622
   24DG     C2'  757   3.549   3.393   9.482
   24DG    H2'1  758   3.642   3.402   9.518
   24DG    H2'2  759   3.528   3.296   9.471
   24DG     O3'  760   3.409   3.378   9.681
   25DC       P  761   3.494   3.381   9.815
   25DC     O1P  762   3.409   3.303   9.906
   25DC     O2P  763   3.520   3.518   9.848
   25DC     O5'  764   3.632   3.309   9.788
   25DC     C5'  765   3.637   3.172   9.765
   25DC    H5'1  766   3.571   3.150   9.695
   25DC    H5'2  767   3.611   3.127   9.851
   25DC     C4'  768   3.776   3.131   9.723
   25DC     H4'  769   3.771   3.032   9.711
   25DC     O4'  770   3.810   3.198   9.604
   25DC     C1'  771   3.951   3.225   9.603
   25DC     H1'  772   3.991   3.183   9.523
   25DC      N1  773   3.974   3.373   9.596
   25DC      C6  774   3.879   3.463   9.628
   25DC      H6  775   3.790   3.432   9.662
   25DC      C5  776   3.901   3.595   9.616
   25DC      H5  777   3.831   3.662   9.640
   25DC      C4  778   4.028   3.635   9.565
   25DC      N4  779   4.055   3.763   9.548
   25DC     H41  780   3.986   3.833   9.570
   25DC     H42  781   4.145   3.790   9.513
   25DC      N3  782   4.121   3.545   9.534
   25DC      C2  783   4.096   3.413   9.548
   25DC      O2  784   4.181   3.330   9.521
   25DC     C3'  785   3.885   3.170   9.821
   25DC     H3'  786   3.870   3.254   9.873
   25DC     C2'  787   4.006   3.169   9.731
   25DC    H2'1  788   4.079   3.227   9.767
   25DC    H2'2  789   4.041   3.076   9.718
   25DC     O3'  790   3.897   3.076   9.927
   25DC     H3T  791   3.970   3.104   9.989
   26G      O5'  792   5.019   3.956   9.161
   26G      H5T  793   5.060   4.044   9.136
   26G      C5'  794   5.118   3.862   9.180
   26G     H5'1  795   5.180   3.895   9.253
   26G     H5'2  796   5.170   3.854   9.095
   26G      C4'  797   5.058   3.730   9.219
   26G      H4'  798   5.135   3.668   9.230
   26G      O4'  799   4.985   3.744   9.340
   26G      C1'  800   4.873   3.657   9.338
   26G      H1'  801   4.879   3.598   9.419
   26G       N9  802   4.746   3.733   9.348
   26G       C8  803   4.722   3.865   9.328
   26G       H8  804   4.792   3.930   9.300
   26G       N7  805   4.598   3.899   9.350
   26G       C5  806   4.536   3.781   9.388
   26G       C6  807   4.403   3.753   9.424
   26G       O6  808   4.308   3.832   9.431
   26G       N1  809   4.382   3.620   9.453
   26G       H1  810   4.290   3.591   9.480
   26G       C2  811   4.479   3.525   9.448
   26G       N2  812   4.444   3.400   9.479
   26G      H21  813   4.349   3.380   9.504
   26G      H22  814   4.512   3.327   9.476
   26G       N3  815   4.605   3.548   9.416
   26G       C4  816   4.626   3.677   9.386
   26G      C3'  817   4.956   3.676   9.120
   26G      H3'  818   4.903   3.745   9.071
   26G      C2'  819   4.878   3.582   9.208
   26G     H2'1  820   4.789   3.554   9.172
   26G      O2'  821   4.945   3.456   9.223
   26G     HO'2  822   4.946   3.409   9.136
   26G      O3'  823   5.019   3.607   9.012
   27C        P  824   4.935   3.599   8.870
   27C      O1P  825   5.038   3.547   8.779
   27C      O2P  826   4.872   3.723   8.837
   27C      O5'  827   4.821   3.492   8.896
   27C      C5'  828   4.854   3.359   8.918
   27C     H5'1  829   4.923   3.355   8.989
   27C     H5'2  830   4.891   3.323   8.832
   27C      C4'  831   4.732   3.282   8.959
   27C      H4'  832   4.763   3.188   8.972
   27C      O4'  833   4.679   3.335   9.079
   27C      C1'  834   4.538   3.324   9.080
   27C      H1'  835   4.508   3.273   9.161
   27C       N1  836   4.476   3.454   9.090
   27C       C6  837   4.541   3.568   9.059
   27C       H6  838   4.634   3.564   9.025
   27C       C5  839   4.483   3.687   9.075
   27C       H5  840   4.531   3.772   9.050
   27C       C4  841   4.350   3.690   9.125
   27C       N4  842   4.288   3.805   9.144
   27C      H41  843   4.334   3.892   9.123
   27C      H42  844   4.194   3.806   9.180
   27C       N3  845   4.287   3.577   9.155
   27C       C2  846   4.346   3.458   9.139
   27C       O2  847   4.289   3.353   9.164
   27C      C3'  848   4.615   3.290   8.862
   27C      H3'  849   4.607   3.375   8.811
   27C      C2'  850   4.499   3.254   8.951
   27C     H2'1  851   4.409   3.278   8.916
   27C      O2'  852   4.488   3.114   8.970
   27C     HO'2  853   4.462   3.070   8.884
   27C      O3'  854   4.630   3.195   8.755
   28G        P  855   4.552   3.231   8.613
   28G      O1P  856   4.610   3.129   8.524
   28G      O2P  857   4.567   3.369   8.577
   28G      O5'  858   4.399   3.203   8.643
   28G      C5'  859   4.355   3.074   8.667
   28G     H5'1  860   4.412   3.034   8.739
   28G     H5'2  861   4.365   3.021   8.583
   28G      C4'  862   4.210   3.076   8.710
   28G      H4'  863   4.185   2.980   8.725
   28G      O4'  864   4.197   3.152   8.829
   28G      C1'  865   4.072   3.220   8.829
   28G      H1'  866   4.023   3.192   8.912
   28G       N9  867   4.088   3.366   8.833
   28G       C8  868   4.199   3.443   8.808
   28G       H8  869   4.286   3.404   8.777
   28G       N7  870   4.180   3.570   8.825
   28G       C5  871   4.047   3.578   8.867
   28G       C6  872   3.969   3.690   8.902
   28G       O6  873   4.002   3.809   8.905
   28G       N1  874   3.841   3.655   8.937
   28G       H1  875   3.777   3.729   8.962
   28G       C2  876   3.793   3.528   8.938
   28G       N2  877   3.666   3.511   8.973
   28G      H21  878   3.610   3.589   8.998
   28G      H22  879   3.627   3.418   8.975
   28G       N3  880   3.865   3.422   8.906
   28G       C4  881   3.991   3.455   8.872
   28G      C3'  882   4.117   3.143   8.612
   28G      H3'  883   4.155   3.219   8.559
   28G      C2'  884   4.001   3.179   8.702
   28G     H2'1  885   3.938   3.248   8.666
   28G      O2'  886   3.915   3.068   8.725
   28G     HO'2  887   3.869   3.043   8.639
   28G      O3'  888   4.076   3.054   8.509
   29C        P  889   4.029   3.122   8.365
   29C      O1P  890   4.021   3.005   8.278
   29C      O2P  891   4.115   3.230   8.325
   29C      O5'  892   3.885   3.184   8.395
   29C      C5'  893   3.778   3.099   8.423
   29C     H5'1  894   3.806   3.037   8.495
   29C     H5'2  895   3.757   3.047   8.340
   29C      C4'  896   3.659   3.181   8.465
   29C      H4'  897   3.586   3.114   8.483
   29C      O4'  898   3.691   3.254   8.582
   29C      C1'  899   3.621   3.380   8.580
   29C      H1'  900   3.567   3.388   8.664
   29C       N1  901   3.715   3.489   8.583
   29C       C6  902   3.845   3.476   8.549
   29C       H6  903   3.878   3.388   8.516
   29C       C5  904   3.930   3.578   8.557
   29C       H5  905   4.027   3.568   8.530
   29C       C4  906   3.880   3.701   8.606
   29C       N4  907   3.960   3.806   8.618
   29C      H41  908   4.057   3.800   8.593
   29C      H42  909   3.924   3.893   8.652
   29C       N3  910   3.752   3.715   8.640
   29C       C2  911   3.667   3.611   8.629
   29C       O2  912   3.549   3.621   8.660
   29C      C3'  913   3.614   3.286   8.365
   29C      H3'  914   3.687   3.327   8.310
   29C      C2'  915   3.538   3.382   8.454
   29C     H2'1  916   3.522   3.472   8.417
   29C      O2'  917   3.406   3.334   8.479
   29C     HO'2  918   3.353   3.337   8.394
   29C      O3'  919   3.532   3.231   8.263
   30A        P  920   3.527   3.311   8.119
   30A      O1P  921   3.456   3.214   8.035
   30A      O2P  922   3.657   3.353   8.077
   30A      O5'  923   3.440   3.441   8.146
   30A      C5'  924   3.304   3.430   8.176
   30A     H5'1  925   3.295   3.363   8.250
   30A     H5'2  926   3.258   3.394   8.095
   30A      C4'  927   3.249   3.563   8.216
   30A      H4'  928   3.153   3.547   8.235
   30A      O4'  929   3.317   3.610   8.331
   30A      C1'  930   3.327   3.753   8.325
   30A      H1'  931   3.286   3.786   8.411
   30A       N9  932   3.468   3.801   8.319
   30A       C8  933   3.579   3.729   8.288
   30A       H8  934   3.576   3.635   8.253
   30A       N7  935   3.690   3.795   8.304
   30A       C5  936   3.648   3.920   8.349
   30A       C6  937   3.718   4.035   8.385
   30A       N6  938   3.849   4.046   8.381
   30A      H61  939   3.905   3.969   8.353
   30A      H62  940   3.893   4.132   8.407
   30A       N1  941   3.642   4.140   8.425
   30A       C2  942   3.510   4.130   8.429
   30A       H2  943   3.460   4.212   8.460
   30A       N3  944   3.435   4.025   8.398
   30A       C4  945   3.512   3.922   8.359
   30A      C3'  946   3.268   3.673   8.113
   30A      H3'  947   3.351   3.667   8.057
   30A      C2'  948   3.258   3.796   8.200
   30A     H2'1  949   3.292   3.880   8.159
   30A      O2'  950   3.120   3.826   8.226
   30A     HO'2  951   3.075   3.855   8.141
   30A      O3'  952   3.168   3.669   8.013
   31G        P  953   3.206   3.736   7.867
   31G      O1P  954   3.092   3.691   7.784
   31G      O2P  955   3.338   3.699   7.823
   31G      O5'  956   3.203   3.893   7.890
   31G      C5'  957   3.084   3.957   7.920
   31G     H5'1  958   3.041   3.908   7.995
   31G     H5'2  959   3.024   3.951   7.839
   31G      C4'  960   3.110   4.100   7.956
   31G      H4'  961   3.020   4.139   7.976
   31G      O4'  962   3.194   4.105   8.070
   31G      C1'  963   3.280   4.219   8.062
   31G      H1'  964   3.265   4.274   8.143
   31G       N9  965   3.421   4.181   8.059
   31G       C8  966   3.478   4.059   8.033
   31G       H8  967   3.425   3.978   8.010
   31G       N7  968   3.609   4.060   8.043
   31G       C5  969   3.639   4.191   8.080
   31G       C6  970   3.764   4.253   8.105
   31G       O6  971   3.875   4.202   8.103
   31G       N1  972   3.750   4.386   8.135
   31G       H1  973   3.833   4.437   8.156
   31G       C2  974   3.631   4.453   8.142
   31G       N2  975   3.635   4.581   8.172
   31G      H21  976   3.723   4.626   8.190
   31G      H22  977   3.551   4.634   8.178
   31G       N3  978   3.514   4.396   8.119
   31G       C4  979   3.526   4.266   8.089
   31G      C3'  980   3.184   4.180   7.851
   31G      H3'  981   3.250   4.129   7.795
   31G      C2'  982   3.242   4.291   7.934
   31G     H2'1  983   3.318   4.342   7.891
   31G      O2'  984   3.146   4.394   7.958
   31G     HO'2  985   3.124   4.440   7.873
   31G      O3'  986   3.096   4.229   7.750
   32A        P  987   3.163   4.261   7.602
   32A      O1P  988   3.043   4.284   7.521
   32A      O2P  989   3.254   4.157   7.560
   32A      O5'  990   3.246   4.395   7.621
   32A      C5'  991   3.181   4.515   7.650
   32A     H5'1  992   3.119   4.498   7.727
   32A     H5'2  993   3.128   4.539   7.568
   32A      C4'  994   3.281   4.621   7.683
   32A      H4'  995   3.227   4.703   7.701
   32A      O4'  996   3.355   4.582   7.797
   32A      C1'  997   3.490   4.632   7.785
   32A      H1'  998   3.506   4.686   7.868
   32A       N9  999   3.591   4.523   7.779
   32A       C8 1000   3.571   4.391   7.752
   32A       H8 1001   3.482   4.354   7.723
   32A       N7 1002   3.677   4.318   7.768
   32A       C5 1003   3.774   4.409   7.808
   32A       C6 1004   3.909   4.394   7.838
   32A       N6 1005   3.974   4.278   7.837
   32A      H61 1006   3.925   4.194   7.813
   32A      H62 1007   4.071   4.275   7.860
   32A       N1 1008   3.975   4.506   7.872
   32A       C2 1009   3.912   4.624   7.874
   32A       H2 1010   3.967   4.704   7.901
   32A       N3 1011   3.786   4.647   7.848
   32A       C4 1012   3.722   4.534   7.814
   32A      C3' 1013   3.386   4.645   7.576
   32A      H3' 1014   3.412   4.565   7.522
   32A      C2' 1015   3.496   4.708   7.657
   32A     H2'1 1016   3.586   4.710   7.613
   32A      O2' 1017   3.471   4.848   7.677
   32A     HO'2 1018   3.476   4.896   7.591
   32A      O3' 1019   3.338   4.732   7.473
   33U        P 1020   3.409   4.720   7.324
   33U      O1P 1021   3.319   4.802   7.243
   33U      O2P 1022   3.428   4.582   7.286
   33U      O5' 1023   3.551   4.786   7.341
   33U      C5' 1024   3.562   4.923   7.366
   33U     H5'1 1025   3.502   4.945   7.443
   33U     H5'2 1026   3.530   4.972   7.284
   33U      C4' 1027   3.704   4.959   7.397
   33U      H4' 1028   3.704   5.057   7.412
   33U      O4' 1029   3.748   4.889   7.511
   33U      C1' 1030   3.887   4.858   7.499
   33U      H1' 1031   3.928   4.894   7.583
   33U       N1 1032   3.916   4.712   7.491
   33U       C6 1033   3.815   4.622   7.467
   33U       H6 1034   3.723   4.658   7.446
   33U       C5 1035   3.832   4.490   7.471
   33U       H5 1036   3.757   4.427   7.452
   33U       C4 1037   3.962   4.439   7.505
   33U       O4 1038   3.990   4.319   7.514
   33U       N3 1039   4.059   4.533   7.529
   33U       H3 1040   4.150   4.500   7.552
   33U       C2 1041   4.042   4.667   7.523
   33U       O2 1042   4.134   4.743   7.543
   33U      C3' 1043   3.805   4.920   7.289
   33U      H3' 1044   3.782   4.837   7.237
   33U      C2' 1045   3.933   4.916   7.369
   33U     H2'1 1046   4.009   4.867   7.325
   33U      O2' 1047   3.987   5.047   7.386
   33U     HO'2 1048   4.017   5.082   7.298
   33U      O3' 1049   3.810   5.017   7.185
   34G        P 1050   3.860   4.964   7.036
   34G      O1P 1051   3.829   5.080   6.953
   34G      O2P 1052   3.803   4.838   7.001
   34G      O5' 1053   4.018   4.943   7.052
   34G      C5' 1054   4.101   5.054   7.073
   34G     H5'1 1055   4.064   5.106   7.150
   34G     H5'2 1056   4.099   5.110   6.990
   34G      C4' 1057   4.240   5.007   7.103
   34G      H4' 1058   4.294   5.090   7.117
   34G      O4' 1059   4.240   4.926   7.220
   34G      C1' 1060   4.339   4.825   7.209
   34G      H1' 1061   4.400   4.833   7.288
   34G       N9 1062   4.280   4.690   7.215
   34G       C8 1063   4.151   4.652   7.198
   34G       H8 1064   4.076   4.715   7.176
   34G       N7 1065   4.132   4.523   7.213
   34G       C5 1066   4.258   4.474   7.243
   34G       C6 1067   4.302   4.343   7.271
   34G       O6 1068   4.235   4.240   7.276
   34G       N1 1069   4.438   4.337   7.295
   34G       H1 1070   4.478   4.248   7.315
   34G       C2 1071   4.521   4.445   7.292
   34G       N2 1072   4.650   4.423   7.315
   34G      H21 1073   4.682   4.329   7.335
   34G      H22 1074   4.715   4.499   7.315
   34G       N3 1075   4.482   4.569   7.267
   34G       C4 1076   4.349   4.575   7.244
   34G      C3' 1077   4.301   4.917   6.997
   34G      H3' 1078   4.238   4.858   6.947
   34G      C2' 1079   4.408   4.846   7.077
   34G     H2'1 1080   4.445   4.763   7.035
   34G      O2' 1081   4.525   4.926   7.091
   34G     HO'2 1082   4.569   4.938   7.002
   34G      O3' 1083   4.357   4.993   6.890
   35C        P 1084   4.371   4.918   6.744
   35C      O1P 1085   4.406   5.030   6.657
   35C      O2P 1086   4.253   4.842   6.711
   35C      O5' 1087   4.491   4.816   6.759
   35C      C5' 1088   4.621   4.864   6.778
   35C     H5'1 1089   4.619   4.929   6.854
   35C     H5'2 1090   4.648   4.910   6.694
   35C      C4' 1091   4.713   4.750   6.810
   35C      H4' 1092   4.803   4.791   6.821
   35C      O4' 1093   4.670   4.685   6.928
   35C      C1' 1094   4.699   4.546   6.921
   35C      H1' 1095   4.755   4.519   6.999
   35C       N1 1096   4.577   4.468   6.932
   35C       C6 1097   4.455   4.521   6.909
   35C       H6 1098   4.447   4.616   6.879
   35C       C5 1099   4.343   4.449   6.925
   35C       H5 1100   4.254   4.488   6.907
   35C       C4 1101   4.358   4.314   6.968
   35C       N4 1102   4.252   4.238   6.987
   35C      H41 1103   4.160   4.275   6.971
   35C      H42 1104   4.263   4.144   7.018
   35C       N3 1105   4.479   4.263   6.990
   35C       C2 1106   4.591   4.337   6.972
   35C       O2 1107   4.702   4.292   6.993
   35C      C3' 1108   4.715   4.638   6.706
   35C      H3' 1109   4.629   4.623   6.657
   35C      C2' 1110   4.767   4.523   6.788
   35C     H2'1 1111   4.752   4.432   6.748
   35C      O2' 1112   4.908   4.530   6.802
   35C     HO'2 1113   4.951   4.514   6.713
   35C      O3' 1114   4.802   4.670   6.598
   36C        P 1115   4.770   4.596   6.453
   36C      O1P 1116   4.861   4.670   6.363
   36C      O2P 1117   4.630   4.596   6.422
   36C      O5' 1118   4.816   4.445   6.472
   36C      C5' 1119   4.952   4.415   6.490
   36C     H5'1 1120   4.986   4.473   6.563
   36C     H5'2 1121   4.999   4.437   6.404
   36C      C4' 1122   4.967   4.271   6.524
   36C      H4' 1123   5.066   4.256   6.535
   36C      O4' 1124   4.898   4.242   6.645
   36C      C1' 1125   4.845   4.109   6.640
   36C      H1' 1126   4.880   4.058   6.719
   36C       N1 1127   4.702   4.110   6.653
   36C       C6 1128   4.627   4.221   6.628
   36C       H6 1129   4.672   4.304   6.597
   36C       C5 1130   4.495   4.221   6.646
   36C       H5 1131   4.440   4.302   6.627
   36C       C4 1132   4.435   4.101   6.692
   36C       N4 1133   4.305   4.095   6.714
   36C      H41 1134   4.247   4.174   6.697
   36C      H42 1135   4.264   4.009   6.747
   36C       N3 1136   4.509   3.993   6.717
   36C       C2 1137   4.642   3.995   6.697
   36C       O2 1138   4.711   3.895   6.719
   36C      C3' 1139   4.908   4.174   6.424
   36C      H3' 1140   4.826   4.206   6.376
   36C      C2' 1141   4.888   4.050   6.509
   36C     H2'1 1142   4.827   3.981   6.471
   36C      O2' 1143   5.011   3.977   6.522
   36C     HO'2 1144   5.036   3.939   6.433
   36C      O3' 1145   4.995   4.150   6.315
   37C        P 1146   4.928   4.103   6.172
   37C      O1P 1147   5.042   4.113   6.080
   37C      O2P 1148   4.810   4.178   6.141
   37C      O5' 1149   4.885   3.951   6.195
   37C      C5' 1150   4.982   3.853   6.214
   37C     H5'1 1151   5.044   3.885   6.286
   37C     H5'2 1152   5.033   3.844   6.128
   37C      C4' 1153   4.917   3.724   6.252
   37C      H4' 1154   4.992   3.659   6.263
   37C      O4' 1155   4.845   3.740   6.373
   37C      C1' 1156   4.729   3.658   6.372
   37C      H1' 1157   4.731   3.597   6.452
   37C       N1 1158   4.609   3.737   6.384
   37C       C6 1159   4.606   3.869   6.357
   37C       H6 1160   4.689   3.914   6.323
   37C       C5 1161   4.496   3.942   6.373
   37C       H5 1162   4.493   4.038   6.352
   37C       C4 1163   4.381   3.874   6.423
   37C       N4 1164   4.267   3.941   6.444
   37C      H41 1165   4.262   4.038   6.424
   37C      H42 1166   4.187   3.892   6.478
   37C       N3 1167   4.384   3.744   6.449
   37C       C2 1168   4.496   3.672   6.431
   37C       O2 1169   4.502   3.552   6.455
   37C      C3' 1170   4.814   3.673   6.154
   37C      H3' 1171   4.762   3.743   6.104
   37C      C2' 1172   4.731   3.581   6.242
   37C     H2'1 1173   4.642   3.556   6.206
   37C      O2' 1174   4.794   3.454   6.257
   37C     HO'2 1175   4.794   3.406   6.169
   37C      O3' 1176   4.874   3.602   6.045
   38U        P 1177   4.789   3.597   5.904
   38U      O1P 1178   4.890   3.541   5.812
   38U      O2P 1179   4.730   3.723   5.871
   38U      O5' 1180   4.671   3.493   5.931
   38U      C5' 1181   4.700   3.359   5.951
   38U     H5'1 1182   4.770   3.353   6.024
   38U     H5'2 1183   4.737   3.321   5.867
   38U      C4' 1184   4.576   3.285   5.994
   38U      H4' 1185   4.604   3.190   6.007
   38U      O4' 1186   4.525   3.341   6.113
   38U      C1' 1187   4.383   3.335   6.114
   38U      H1' 1188   4.360   3.287   6.199
   38U       N1 1189   4.316   3.466   6.112
   38U       C6 1190   4.387   3.580   6.083
   38U       H6 1191   4.482   3.571   6.052
   38U       C5 1192   4.334   3.703   6.092
   38U       H5 1193   4.388   3.784   6.068
   38U       C4 1194   4.200   3.717   6.137
   38U       O4 1195   4.141   3.826   6.152
   38U       N3 1196   4.133   3.601   6.166
   38U       H3 1197   4.039   3.608   6.200
   38U       C2 1198   4.185   3.476   6.156
   38U       O2 1199   4.119   3.378   6.181
   38U      C3' 1200   4.461   3.297   5.896
   38U      H3' 1201   4.455   3.383   5.845
   38U      C2' 1202   4.343   3.267   5.986
   38U     H2'1 1203   4.253   3.293   5.950
   38U      O2' 1204   4.326   3.126   6.005
   38U     HO'2 1205   4.299   3.084   5.919
   38U      O3' 1206   4.471   3.202   5.789
   39U        P 1207   4.395   3.240   5.648
   39U      O1P 1208   4.449   3.137   5.558
   39U      O2P 1209   4.414   3.377   5.612
   39U      O5' 1210   4.240   3.218   5.677
   39U      C5' 1211   4.192   3.090   5.702
   39U     H5'1 1212   4.248   3.049   5.773
   39U     H5'2 1213   4.201   3.037   5.618
   39U      C4' 1214   4.048   3.097   5.746
   39U      H4' 1215   4.021   3.003   5.760
   39U      O4' 1216   4.038   3.174   5.863
   39U      C1' 1217   3.915   3.246   5.864
   39U      H1' 1218   3.871   3.220   5.950
   39U       N1 1219   3.930   3.393   5.859
   39U       C6 1220   4.051   3.449   5.826
   39U       H6 1221   4.125   3.389   5.797
   39U       C5 1222   4.073   3.581   5.832
   39U       H5 1223   4.162   3.619   5.807
   39U       C4 1224   3.968   3.667   5.877
   39U       O4 1225   3.978   3.790   5.889
   39U       N3 1226   3.849   3.606   5.909
   39U       H3 1227   3.775   3.664   5.941
   39U       C2 1228   3.825   3.473   5.901
   39U       O2 1229   3.717   3.428   5.929
   39U      C3' 1230   3.956   3.167   5.647
   39U      H3' 1231   3.997   3.242   5.593
   39U      C2' 1232   3.841   3.207   5.737
   39U     H2'1 1233   3.781   3.278   5.700
   39U      O2' 1234   3.752   3.098   5.759
   39U     HO'2 1235   3.705   3.076   5.673
   39U      O3' 1236   3.913   3.080   5.543
   40C        P 1237   3.868   3.150   5.400
   40C      O1P 1238   3.856   3.031   5.313
   40C      O2P 1239   3.958   3.254   5.360
   40C      O5' 1240   3.726   3.215   5.430
   40C      C5' 1241   3.617   3.135   5.457
   40C     H5'1 1242   3.642   3.071   5.530
   40C     H5'2 1243   3.594   3.084   5.374
   40C      C4' 1244   3.500   3.220   5.500
   40C      H4' 1245   3.425   3.156   5.518
   40C      O4' 1246   3.534   3.293   5.617
   40C      C1' 1247   3.469   3.420   5.614
   40C      H1' 1248   3.415   3.430   5.697
   40C       N1 1249   3.567   3.527   5.617
   40C       C6 1250   3.696   3.509   5.582
   40C       H6 1251   3.726   3.419   5.551
   40C       C5 1252   3.784   3.608   5.591
   40C       H5 1253   3.880   3.594   5.565
   40C       C4 1254   3.739   3.733   5.639
   40C       N4 1255   3.822   3.836   5.652
   40C      H41 1256   3.919   3.825   5.627
   40C      H42 1257   3.788   3.923   5.685
   40C       N3 1258   3.611   3.751   5.673
   40C       C2 1259   3.522   3.649   5.663
   40C       O2 1260   3.405   3.664   5.693
   40C      C3' 1261   3.460   3.326   5.400
   40C      H3' 1262   3.534   3.365   5.344
   40C      C2' 1263   3.387   3.424   5.489
   40C     H2'1 1264   3.373   3.516   5.450
   40C      O2' 1265   3.253   3.382   5.513
   40C     HO'2 1266   3.199   3.386   5.428
   40C      O3' 1267   3.375   3.274   5.298
   41C        P 1268   3.373   3.353   5.153
   41C      O1P 1269   3.298   3.259   5.069
   41C      O2P 1270   3.505   3.391   5.111
   41C      O5' 1271   3.290   3.486   5.180
   41C      C5' 1272   3.154   3.480   5.210
   41C     H5'1 1273   3.143   3.413   5.285
   41C     H5'2 1274   3.107   3.446   5.128
   41C      C4' 1275   3.103   3.615   5.250
   41C      H4' 1276   3.006   3.601   5.269
   41C      O4' 1277   3.173   3.660   5.365
   41C      C1' 1278   3.187   3.802   5.360
   41C      H1' 1279   3.148   3.842   5.442
   41C       N1 1280   3.327   3.840   5.360
   41C       C6 1281   3.426   3.753   5.326
   41C       H6 1282   3.401   3.660   5.296
   41C       C5 1283   3.555   3.788   5.333
   41C       H5 1284   3.627   3.724   5.307
   41C       C4 1285   3.584   3.920   5.377
   41C       N4 1286   3.709   3.961   5.387
   41C      H41 1287   3.784   3.899   5.364
   41C      H42 1288   3.729   4.053   5.419
   41C       N3 1289   3.487   4.004   5.410
   41C       C2 1290   3.357   3.967   5.402
   41C       O2 1291   3.266   4.043   5.433
   41C      C3' 1292   3.126   3.724   5.148
   41C      H3' 1293   3.209   3.715   5.091
   41C      C2' 1294   3.118   3.847   5.234
   41C     H2'1 1295   3.157   3.931   5.193
   41C      O2' 1296   2.984   3.886   5.259
   41C     HO'2 1297   2.941   3.915   5.174
   41C      O3' 1298   3.025   3.723   5.047
   42G        P 1299   3.065   3.789   4.900
   42G      O1P 1300   2.950   3.748   4.818
   42G      O2P 1301   3.196   3.747   4.857
   42G      O5' 1302   3.069   3.945   4.923
   42G      C5' 1303   2.951   4.014   4.953
   42G     H5'1 1304   2.906   3.966   5.029
   42G     H5'2 1305   2.892   4.010   4.872
   42G      C4' 1306   2.982   4.156   4.990
   42G      H4' 1307   2.893   4.198   5.009
   42G      O4' 1308   3.066   4.159   5.103
   42G      C1' 1309   3.154   4.270   5.094
   42G      H1' 1310   3.142   4.326   5.177
   42G       N9 1311   3.296   4.226   5.092
   42G       C8 1312   3.349   4.104   5.067
   42G       H8 1313   3.293   4.023   5.043
   42G       N7 1314   3.479   4.100   5.077
   42G       C5 1315   3.514   4.229   5.112
   42G       C6 1316   3.640   4.287   5.138
   42G       O6 1317   3.750   4.233   5.136
   42G       N1 1318   3.631   4.421   5.169
   42G       H1 1319   3.716   4.470   5.188
   42G       C2 1320   3.514   4.491   5.174
   42G       N2 1321   3.523   4.620   5.205
   42G      H21 1322   3.612   4.661   5.223
   42G      H22 1323   3.439   4.675   5.211
   42G       N3 1324   3.395   4.438   5.152
   42G       C4 1325   3.403   4.308   5.122
   42G      C3' 1326   3.059   4.233   4.884
   42G      H3' 1327   3.122   4.180   4.829
   42G      C2' 1328   3.121   4.343   4.968
   42G     H2'1 1329   3.197   4.392   4.925
   42G      O2' 1330   3.026   4.447   4.993
   42G     HO'2 1331   3.004   4.494   4.907
   42G      O3' 1332   2.972   4.285   4.784
   43U        P 1333   3.040   4.315   4.635
   43U      O1P 1334   2.920   4.340   4.554
   43U      O2P 1335   3.127   4.208   4.594
   43U      O5' 1336   3.127   4.445   4.655
   43U      C5' 1337   3.066   4.567   4.682
   43U     H5'1 1338   3.004   4.554   4.760
   43U     H5'2 1339   3.014   4.594   4.602
   43U      C4' 1340   3.170   4.670   4.715
   43U      H4' 1341   3.119   4.754   4.733
   43U      O4' 1342   3.244   4.630   4.829
   43U      C1' 1343   3.379   4.675   4.818
   43U      H1' 1344   3.395   4.726   4.902
   43U       N1 1345   3.478   4.565   4.807
   43U       C6 1346   3.437   4.437   4.780
   43U       H6 1347   3.342   4.421   4.758
   43U       C5 1348   3.521   4.332   4.782
   43U       H5 1349   3.489   4.240   4.760
   43U       C4 1350   3.658   4.355   4.815
   43U       O4 1351   3.744   4.266   4.822
   43U       N3 1352   3.694   4.485   4.842
   43U       H3 1353   3.790   4.502   4.866
   43U       C2 1354   3.610   4.590   4.838
   43U       O2 1355   3.650   4.703   4.861
   43U      C3' 1356   3.276   4.691   4.608
   43U      H3' 1357   3.299   4.610   4.554
   43U      C2' 1358   3.388   4.751   4.689
   43U     H2'1 1359   3.478   4.750   4.645
   43U      O2' 1360   3.365   4.890   4.711
   43U     HO'2 1361   3.372   4.939   4.625
   43U      O3' 1362   3.230   4.779   4.506
   44A        P 1363   3.300   4.764   4.357
   44A      O1P 1364   3.214   4.850   4.275
   44A      O2P 1365   3.316   4.627   4.318
   44A      O5' 1366   3.445   4.827   4.373
   44A      C5' 1367   3.460   4.963   4.398
   44A     H5'1 1368   3.402   4.987   4.475
   44A     H5'2 1369   3.430   5.012   4.317
   44A      C4' 1370   3.604   4.994   4.428
   44A      H4' 1371   3.607   5.093   4.444
   44A      O4' 1372   3.645   4.922   4.544
   44A      C1' 1373   3.783   4.887   4.532
   44A      H1' 1374   3.828   4.924   4.612
   44A       N9 1375   3.804   4.739   4.528
   44A       C8 1376   3.712   4.642   4.505
   44A       H8 1377   3.619   4.661   4.477
   44A       N7 1378   3.758   4.522   4.523
   44A       C5 1379   3.891   4.542   4.561
   44A       C6 1380   3.993   4.453   4.592
   44A       N6 1381   3.980   4.321   4.594
   44A      H61 1382   3.892   4.280   4.572
   44A      H62 1383   4.058   4.264   4.618
   44A       N1 1384   4.111   4.509   4.623
   44A       C2 1385   4.127   4.642   4.622
   44A       H2 1386   4.218   4.676   4.647
   44A       N3 1387   4.036   4.733   4.594
   44A       C4 1388   3.919   4.675   4.564
   44A      C3' 1389   3.702   4.952   4.321
   44A      H3' 1390   3.679   4.870   4.269
   44A      C2' 1391   3.831   4.943   4.401
   44A     H2'1 1392   3.905   4.892   4.357
   44A      O2' 1393   3.890   5.071   4.418
   44A     HO'2 1394   3.920   5.107   4.329
   44A      O3' 1395   3.712   5.048   4.216
   45G        P 1396   3.761   4.993   4.068
   45G      O1P 1397   3.733   5.111   3.984
   45G      O2P 1398   3.699   4.869   4.033
   45G      O5' 1399   3.917   4.968   4.084
   45G      C5' 1400   4.004   5.075   4.105
   45G     H5'1 1401   3.968   5.129   4.181
   45G     H5'2 1402   4.003   5.130   4.022
   45G      C4' 1403   4.141   5.024   4.135
   45G      H4' 1404   4.197   5.106   4.148
   45G      O4' 1405   4.138   4.944   4.252
   45G      C1' 1406   4.235   4.839   4.241
   45G      H1' 1407   4.296   4.845   4.319
   45G       N9 1408   4.170   4.706   4.246
   45G       C8 1409   4.040   4.672   4.230
   45G       H8 1410   3.968   4.737   4.208
   45G       N7 1411   4.018   4.544   4.246
   45G       C5 1412   4.142   4.492   4.276
   45G       C6 1413   4.182   4.359   4.304
   45G       O6 1414   4.111   4.258   4.309
   45G       N1 1415   4.316   4.348   4.327
   45G       H1 1416   4.354   4.258   4.348
   45G       C2 1417   4.404   4.453   4.324
   45G       N2 1418   4.532   4.427   4.348
   45G      H21 1419   4.560   4.333   4.368
   45G      H22 1420   4.598   4.500   4.347
   45G       N3 1421   4.368   4.578   4.300
   45G       C4 1422   4.237   4.589   4.276
   45G      C3' 1423   4.200   4.932   4.029
   45G      H3' 1424   4.135   4.875   3.979
   45G      C2' 1425   4.304   4.857   4.109
   45G     H2'1 1426   4.338   4.773   4.067
   45G      O2' 1427   4.424   4.934   4.124
   45G     HO'2 1428   4.468   4.945   4.034
   45G      O3' 1429   4.258   5.006   3.922
   46A        P 1430   4.268   4.930   3.775
   46A      O1P 1431   4.307   5.041   3.688
   46A      O2P 1432   4.148   4.858   3.744
   46A      O5' 1433   4.385   4.824   3.792
   46A      C5' 1434   4.516   4.867   3.810
   46A     H5'1 1435   4.517   4.934   3.885
   46A     H5'2 1436   4.546   4.913   3.726
   46A      C4' 1437   4.605   4.750   3.842
   46A      H4' 1438   4.697   4.788   3.853
   46A      O4' 1439   4.560   4.688   3.961
   46A      C1' 1440   4.584   4.547   3.953
   46A      H1' 1441   4.639   4.523   4.033
   46A       N9 1442   4.459   4.467   3.957
   46A       C8 1443   4.331   4.510   3.937
   46A       H8 1444   4.310   4.603   3.906
   46A       N7 1445   4.241   4.420   3.960
   46A       C5 1446   4.315   4.309   4.000
   46A       C6 1447   4.277   4.180   4.037
   46A       N6 1448   4.153   4.138   4.045
   46A      H61 1449   4.077   4.200   4.023
   46A      H62 1450   4.133   4.044   4.073
   46A       N1 1451   4.379   4.096   4.068
   46A       C2 1452   4.506   4.137   4.062
   46A       H2 1453   4.574   4.069   4.085
   46A       N3 1454   4.549   4.255   4.027
   46A       C4 1455   4.448   4.338   3.997
   46A      C3' 1456   4.604   4.640   3.739
   46A      H3' 1457   4.517   4.626   3.690
   46A      C2' 1458   4.651   4.521   3.821
   46A     H2'1 1459   4.633   4.432   3.781
   46A      O2' 1460   4.793   4.524   3.835
   46A     HO'2 1461   4.836   4.507   3.746
   46A      O3' 1462   4.691   4.668   3.630
   47G        P 1463   4.657   4.595   3.485
   47G      O1P 1464   4.749   4.665   3.395
   47G      O2P 1465   4.517   4.599   3.455
   47G      O5' 1466   4.698   4.443   3.505
   47G      C5' 1467   4.832   4.408   3.522
   47G     H5'1 1468   4.868   4.465   3.596
   47G     H5'2 1469   4.880   4.428   3.437
   47G      C4' 1470   4.843   4.262   3.557
   47G      H4' 1471   4.941   4.245   3.568
   47G      O4' 1472   4.773   4.237   3.678
   47G      C1' 1473   4.716   4.106   3.673
   47G      H1' 1474   4.750   4.056   3.753
   47G       N9 1475   4.570   4.109   3.684
   47G       C8 1476   4.484   4.215   3.666
   47G       H8 1477   4.513   4.306   3.640
   47G       N7 1478   4.359   4.184   3.688
   47G       C5 1479   4.363   4.049   3.722
   47G       C6 1480   4.259   3.960   3.758
   47G       O6 1481   4.138   3.982   3.765
   47G       N1 1482   4.307   3.832   3.783
   47G       H1 1483   4.240   3.763   3.808
   47G       C2 1484   4.437   3.796   3.777
   47G       N2 1485   4.466   3.670   3.805
   47G      H21 1486   4.394   3.606   3.829
   47G      H22 1487   4.561   3.639   3.801
   47G       N3 1488   4.536   3.879   3.746
   47G       C4 1489   4.492   4.003   3.720
   47G      C3' 1490   4.780   4.168   3.456
   47G      H3' 1491   4.700   4.203   3.408
   47G      C2' 1492   4.757   4.046   3.542
   47G     H2'1 1493   4.693   3.978   3.504
   47G      O2' 1494   4.876   3.968   3.555
   47G     HO'2 1495   4.901   3.929   3.466
   47G      O3' 1496   4.868   4.141   3.348
   48U        P 1497   4.798   4.096   3.205
   48U      O1P 1498   4.913   4.103   3.113
   48U      O2P 1499   4.683   4.175   3.173
   48U      O5' 1500   4.751   3.946   3.228
   48U      C5' 1501   4.844   3.845   3.247
   48U     H5'1 1502   4.907   3.875   3.319
   48U     H5'2 1503   4.895   3.834   3.161
   48U      C4' 1504   4.775   3.717   3.286
   48U      H4' 1505   4.848   3.651   3.297
   48U      O4' 1506   4.704   3.737   3.406
   48U      C1' 1507   4.585   3.657   3.406
   48U      H1' 1508   4.590   3.603   3.489
   48U       N1 1509   4.459   3.736   3.406
   48U       C6 1510   4.462   3.871   3.380
   48U       H6 1511   4.548   3.912   3.350
   48U       C5 1512   4.353   3.949   3.391
   48U       H5 1513   4.358   4.047   3.369
   48U       C4 1514   4.231   3.891   3.435
   48U       O4 1515   4.125   3.954   3.452
   48U       N3 1516   4.234   3.756   3.461
   48U       H3 1517   4.149   3.714   3.493
   48U       C2 1518   4.343   3.676   3.448
   48U       O2 1519   4.336   3.557   3.471
   48U      C3' 1520   4.670   3.670   3.187
   48U      H3' 1521   4.621   3.741   3.137
   48U      C2' 1522   4.585   3.581   3.275
   48U     H2'1 1523   4.495   3.559   3.239
   48U      O2' 1524   4.644   3.452   3.291
   48U     HO'2 1525   4.642   3.404   3.203
   48U      O3' 1526   4.727   3.597   3.079
   49C        P 1527   4.642   3.594   2.937
   49C      O1P 1528   4.741   3.535   2.846
   49C      O2P 1529   4.588   3.723   2.904
   49C      O5' 1530   4.522   3.495   2.964
   49C      C5' 1531   4.546   3.359   2.986
   49C     H5'1 1532   4.615   3.352   3.057
   49C     H5'2 1533   4.581   3.320   2.901
   49C      C4' 1534   4.419   3.291   3.027
   49C      H4' 1535   4.444   3.195   3.041
   49C      O4' 1536   4.371   3.348   3.148
   49C      C1' 1537   4.228   3.346   3.148
   49C      H1' 1538   4.196   3.298   3.230
   49C       N1 1539   4.175   3.480   3.158
   49C       C6 1540   4.248   3.590   3.127
   49C       H6 1541   4.341   3.579   3.092
   49C       C5 1542   4.198   3.713   3.142
   49C       H5 1543   4.252   3.793   3.118
   49C       C4 1544   4.067   3.724   3.193
   49C       N4 1545   4.011   3.844   3.211
   49C      H41 1546   4.063   3.926   3.190
   49C      H42 1547   3.918   3.851   3.247
   49C       N3 1548   3.995   3.617   3.223
   49C       C2 1549   4.046   3.493   3.206
   49C       O2 1550   3.982   3.391   3.234
   49C      C3' 1551   4.305   3.306   2.930
   49C      H3' 1552   4.301   3.392   2.879
   49C      C2' 1553   4.185   3.280   3.020
   49C     H2'1 1554   4.097   3.309   2.985
   49C      O2' 1555   4.165   3.139   3.039
   49C     HO'2 1556   4.136   3.097   2.953
   49C      O3' 1557   4.312   3.211   2.824
   50G        P 1558   4.237   3.251   2.682
   50G      O1P 1559   4.287   3.146   2.593
   50G      O2P 1560   4.260   3.387   2.645
   50G      O5' 1561   4.082   3.234   2.711
   50G      C5' 1562   4.029   3.108   2.737
   50G     H5'1 1563   4.084   3.065   2.809
   50G     H5'2 1564   4.036   3.053   2.652
   50G      C4' 1565   3.885   3.120   2.780
   50G      H4' 1566   3.855   3.026   2.795
   50G      O4' 1567   3.878   3.196   2.898
   50G      C1' 1568   3.757   3.272   2.898
   50G      H1' 1569   3.707   3.249   2.982
   50G       N9 1570   3.783   3.418   2.902
   50G       C8 1571   3.899   3.486   2.875
   50G       H8 1572   3.983   3.441   2.846
   50G       N7 1573   3.887   3.614   2.893
   50G       C5 1574   3.756   3.632   2.935
   50G       C6 1575   3.685   3.749   2.970
   50G       O6 1576   3.726   3.865   2.972
   50G       N1 1577   3.555   3.723   3.005
   50G       H1 1578   3.496   3.800   3.030
   50G       C2 1579   3.498   3.598   3.006
   50G       N2 1580   3.371   3.590   3.041
   50G      H21 1581   3.321   3.672   3.066
   50G      H22 1582   3.326   3.501   3.044
   50G       N3 1583   3.564   3.488   2.975
   50G       C4 1584   3.692   3.512   2.940
   50G      C3' 1585   3.796   3.193   2.681
   50G      H3' 1586   3.840   3.264   2.627
   50G      C2' 1587   3.683   3.236   2.771
   50G     H2'1 1588   3.624   3.308   2.735
   50G      O2' 1589   3.592   3.129   2.795
   50G     HO'2 1590   3.544   3.107   2.710
   50G      O3' 1591   3.750   3.105   2.578
   50G      H3T 1592   3.691   3.157   2.515
   51SOL     OW 1593   0.230   0.628   0.113
   51SOL    HW1 1594   0.137   0.626   0.150
   51SOL    HW2 1595   0.231   0.589   0.021
   52SOL     OW 1596   0.225   0.275   0.996
   52SOL    HW1 1597   0.260   0.258   1.088
   52SOL    HW2 1598   0.137   0.230   0.984
   53SOL     OW 1599   0.019   0.368   0.647
   53SOL    HW1 1600  -0.063   0.411   0.686
   53SOL    HW2 1601  -0.009   0.295   0.584
   54SOL     OW 1602   0.569   1.275   1.165
   54SOL    HW1 1603   0.476   1.268   1.128
   54SOL    HW2 1604   0.580   1.364   1.209
   55SOL     OW 1605   1.555   1.511   0.703
   55SOL    HW1 1606   1.498   1.495   0.784
   55SOL    HW2 1607   1.496   1.521   0.623
   56SOL     OW 1608   1.135   0.703   0.717
   56SOL    HW1 1609   1.192   0.781   0.692
   56SOL    HW2 1610   1.075   0.729   0.793
   57SOL     OW 1611   1.755   0.607   0.231
   57SOL    HW1 1612   1.743   0.594   0.132
   57SOL    HW2 1613   1.725   0.526   0.280
   58SOL     OW 1614   0.768   1.144   1.023
   58SOL    HW1 1615   0.690   1.161   1.083
   58SOL    HW2 1616   0.802   1.231   0.987
   59SOL     OW 1617   0.850   0.798   1.823
   59SOL    HW1 1618   0.846   0.874   1.888
   59SOL    HW2 1619   0.872   0.834   1.732
   60SOL     OW 1620   0.685   1.012   0.665
   60SOL    HW1 1621   0.754   0.996   0.735
   60SOL    HW2 1622   0.612   1.069   0.703
   61SOL     OW 1623   0.686   1.161   1.803
   61SOL    HW1 1624   0.746   1.240   1.817
   61SOL    HW2 1625   0.600   1.192   1.762
   62SOL     OW 1626   0.335   1.435   1.061
   62SOL    HW1 1627   0.257   1.404   1.008
   62SOL    HW2 1628   0.393   1.493   1.004
   63SOL     OW 1629   1.460   1.505   1.339
   63SOL    HW1 1630   1.484   1.599   1.365
   63SOL    HW2 1631   1.444   1.451   1.421
   64SOL     OW 1632   0.438   0.392   1.499
   64SOL    HW1 1633   0.520   0.336   1.508
   64SOL    HW2 1634   0.357   0.334   1.503
   65SOL     OW 1635   1.603   0.447   0.737
   65SOL    HW1 1636   1.529   0.493   0.687
   65SOL    HW2 1637   1.654   0.515   0.790
   66SOL     OW 1638   0.231   1.713   0.483
   66SOL    HW1 1639   0.265   1.790   0.537
   66SOL    HW2 1640   0.275   1.713   0.393
   67SOL     OW 1641   1.127   1.341   1.690
   67SOL    HW1 1642   1.174   1.341   1.778
   67SOL    HW2 1643   1.079   1.254   1.679
   68SOL     OW 1644   0.230   1.434   0.538
   68SOL    HW1 1645   0.204   1.530   0.538
   68SOL    HW2 1646   0.159   1.380   0.583
   69SOL     OW 1647   0.240   1.091   0.886
   69SOL    HW1 1648   0.254   1.007   0.938
   69SOL    HW2 1649   0.185   1.155   0.941
   70SOL     OW 1650   0.620   1.786   1.439
   70SOL    HW1 1651   0.528   1.769   1.474
   70SOL    HW2 1652   0.648   1.878   1.465
   71SOL     OW 1653   0.606   0.964   0.123
   71SOL    HW1 1654   0.613   1.048   0.069
   71SOL    HW2 1655   0.652   0.977   0.211
   72SOL     OW 1656   1.594   0.114   1.480
   72SOL    HW1 1657   1.576   0.181   1.408
   72SOL    HW2 1658   1.591   0.160   1.569
   73SOL     OW 1659   0.122   0.643   0.563
   73SOL    HW1 1660   0.077   0.555   0.580
   73SOL    HW2 1661   0.121   0.697   0.647
   74SOL     OW 1662   1.842   1.767   0.359
   74SOL    HW1 1663   1.896   1.738   0.439
   74SOL    HW2 1664   1.872   1.857   0.330
   75SOL     OW 1665   0.027   1.596   0.117
   75SOL    HW1 1666   0.008   1.500   0.138
   75SOL    HW2 1667  -0.006   1.654   0.192
   76SOL     OW 1668   1.689   0.922   0.612
   76SOL    HW1 1669   1.784   0.893   0.620
   76SOL    HW2 1670   1.681   0.987   0.537
   77SOL     OW 1671   1.641   1.108   0.432
   77SOL    HW1 1672   1.727   1.110   0.380
   77SOL    HW2 1673   1.655   1.155   0.520
   78SOL     OW 1674   0.113   0.737   1.597
   78SOL    HW1 1675   0.201   0.724   1.642
   78SOL    HW2 1676   0.100   0.834   1.575
   79SOL     OW 1677   0.613   1.365   0.726
   79SOL    HW1 1678   0.564   1.278   0.735
   79SOL    HW2 1679   0.590   1.408   0.639
   80SOL     OW 1680   1.293   1.228   1.423
   80SOL    HW1 1681   1.330   1.155   1.365
   80SOL    HW2 1682   1.345   1.233   1.508
   81SOL     OW 1683   0.809   0.004   0.502
   81SOL    HW1 1684   0.849   0.095   0.493
   81SOL    HW2 1685   0.709   0.012   0.508
   82SOL     OW 1686   0.197   0.976   1.264
   82SOL    HW1 1687   0.286   0.931   1.250
   82SOL    HW2 1688   0.124   0.911   1.245
   83SOL     OW 1689   1.525   0.999   0.190
   83SOL    HW1 1690   1.462   0.923   0.203
   83SOL    HW2 1691   1.573   1.017   0.276
   84SOL     OW 1692   1.187   1.792   1.616
   84SOL    HW1 1693   1.211   1.852   1.540
   84SOL    HW2 1694   1.194   1.697   1.586
   85SOL     OW 1695   0.317   0.251   1.801
   85SOL    HW1 1696   0.388   0.322   1.807
   85SOL    HW2 1697   0.229   0.290   1.829
   86SOL     OW 1698   1.466   1.417   0.953
   86SOL    HW1 1699   1.407   1.423   1.033
   86SOL    HW2 1700   1.451   1.329   0.907
   87SOL     OW 1701   1.667   1.714   0.572
   87SOL    HW1 1702   1.626   1.691   0.484
   87SOL    HW2 1703   1.649   1.640   0.637
   88SOL     OW 1704   0.598   0.729   0.270
   88SOL    HW1 1705   0.622   0.798   0.202
   88SOL    HW2 1706   0.520   0.762   0.324
   89SOL     OW 1707   1.281   0.345   0.944
   89SOL    HW1 1708   1.195   0.295   0.931
   89SOL    HW2 1709   1.343   0.291   1.000
   90SOL     OW 1710   1.576   1.662   0.307
   90SOL    HW1 1711   1.665   1.708   0.310
   90SOL    HW2 1712   1.555   1.638   0.212
   91SOL     OW 1713   0.807   0.605   1.465
   91SOL    HW1 1714   0.760   0.602   1.554
   91SOL    HW2 1715   0.756   0.550   1.399
   92SOL     OW 1716   1.394   0.469   1.674
   92SOL    HW1 1717   1.374   0.512   1.762
   92SOL    HW2 1718   1.472   0.407   1.683
   93SOL     OW 1719   0.973   0.890   1.572
   93SOL    HW1 1720   1.019   0.806   1.543
   93SOL    HW2 1721   0.917   0.924   1.497
   94SOL     OW 1722   0.991   0.410   1.242
   94SOL    HW1 1723   0.914   0.444   1.296
   94SOL    HW2 1724   0.957   0.359   1.163
   95SOL     OW 1725   1.041   0.701   0.429
   95SOL    HW1 1726   1.067   0.697   0.525
   95SOL    HW2 1727   0.956   0.650   0.415
   96SOL     OW 1728   0.076   0.811   0.789
   96SOL    HW1 1729   0.175   0.799   0.798
   96SOL    HW2 1730   0.052   0.906   0.810
   97SOL     OW 1731   0.130   1.821   1.571
   97SOL    HW1 1732   0.120   1.806   1.670
   97SOL    HW2 1733   0.044   1.857   1.535
   98SOL     OW 1734   0.865   0.348   0.195
   98SOL    HW1 1735   0.924   0.411   0.146
   98SOL    HW2 1736   0.884   0.254   0.166
   99SOL     OW 1737   1.719   0.585   1.831
   99SOL    HW1 1738   1.693   0.674   1.795
   99SOL    HW2 1739   1.717   0.517   1.758
  100SOL     OW 1740   1.362   1.144   0.545
  100SOL    HW1 1741   1.445   1.115   0.497
  100SOL    HW2 1742   1.313   1.211   0.489
  101SOL     OW 1743   0.550   0.196   0.885
  101SOL    HW1 1744   0.545   0.191   0.985
  101SOL    HW2 1745   0.552   0.292   0.856
  102SOL     OW 1746   1.008   1.456   0.477
  102SOL    HW1 1747   0.962   1.528   0.425
  102SOL    HW2 1748   1.004   1.476   0.575
  103SOL     OW 1749   0.351   1.801   0.853
  103SOL    HW1 1750   0.401   1.715   0.859
  103SOL    HW2 1751   0.416   1.878   0.850
  104SOL     OW 1752   1.795   1.066   0.873
  104SOL    HW1 1753   1.733   1.051   0.797
  104SOL    HW2 1754   1.743   1.077   0.958
  105SOL     OW 1755   1.227   1.550   1.506
  105SOL    HW1 1756   1.233   1.473   1.570
  105SOL    HW2 1757   1.175   1.524   1.426
  106SOL     OW 1758   0.321   0.943   0.242
  106SOL    HW1 1759   0.403   0.982   0.200
  106SOL    HW2 1760   0.294   0.861   0.193
  107SOL     OW 1761   1.458   0.735   0.728
  107SOL    HW1 1762   1.453   0.670   0.803
  107SOL    HW2 1763   1.538   0.794   0.741
  108SOL     OW 1764   0.461   1.266   1.727
  108SOL    HW1 1765   0.411   1.267   1.641
  108SOL    HW2 1766   0.398   1.248   1.803
  109SOL     OW 1767   1.111   1.776   0.237
  109SOL    HW1 1768   1.051   1.714   0.287
  109SOL    HW2 1769   1.142   1.732   0.152
  110SOL     OW 1770   0.202   0.285   1.498
  110SOL    HW1 1771   0.122   0.345   1.485
  110SOL    HW2 1772   0.192   0.236   1.584
  111SOL     OW 1773   1.632   1.377   0.081
  111SOL    HW1 1774   1.600   1.471   0.071
  111SOL    HW2 1775   1.556   1.314   0.069
  112SOL     OW 1776   0.464   1.743   0.323
  112SOL    HW1 1777   0.497   1.782   0.409
  112SOL    HW2 1778   0.540   1.736   0.258
  113SOL     OW 1779   1.400   0.107   0.426
  113SOL    HW1 1780   1.376   0.070   0.336
  113SOL    HW2 1781   1.499   0.123   0.430
  114SOL     OW 1782   0.249   1.785   1.241
  114SOL    HW1 1783   0.306   1.720   1.291
  114SOL    HW2 1784   0.233   1.752   1.148
  115SOL     OW 1785   0.940   1.698   0.904
  115SOL    HW1 1786   1.020   1.641   0.925
  115SOL    HW2 1787   0.891   1.658   0.827
  116SOL     OW 1788   0.382   0.700   0.480
  116SOL    HW1 1789   0.427   0.610   0.477
  116SOL    HW2 1790   0.288   0.689   0.513
  117SOL     OW 1791   1.547   0.222   1.729
  117SOL    HW1 1792   1.542   0.259   1.821
  117SOL    HW2 1793   1.475   0.153   1.717
  118SOL     OW 1794   0.614   0.122   0.117
  118SOL    HW1 1795   0.712   0.100   0.124
  118SOL    HW2 1796   0.583   0.105   0.024
  119SOL     OW 1797   0.781   0.264   1.749
  119SOL    HW1 1798   0.848   0.203   1.792
  119SOL    HW2 1799   0.708   0.283   1.814
  120SOL     OW 1800   0.888   1.514   1.195
  120SOL    HW1 1801   0.865   1.489   1.101
  120SOL    HW2 1802   0.949   1.445   1.234
  121SOL     OW 1803   1.351   0.590   1.433
  121SOL    HW1 1804   1.379   0.547   1.518
  121SOL    HW2 1805   1.376   0.686   1.434
  122SOL     OW 1806   0.803   1.402   0.924
  122SOL    HW1 1807   0.893   1.416   0.882
  122SOL    HW2 1808   0.732   1.404   0.853
  123SOL     OW 1809   0.922   0.503   0.899
  123SOL    HW1 1810   0.897   0.494   0.803
  123SOL    HW2 1811   0.970   0.421   0.930
  124SOL     OW 1812   0.539   0.064   0.512
  124SOL    HW1 1813   0.458   0.065   0.570
  124SOL    HW2 1814   0.542   0.147   0.457
  125SOL     OW 1815   1.434   1.188   0.041
  125SOL    HW1 1816   1.466   1.112   0.098
  125SOL    HW2 1817   1.342   1.215   0.071
  126SOL     OW 1818   0.297   0.035   0.171
  126SOL    HW1 1819   0.346   0.119   0.150
  126SOL    HW2 1820   0.359  -0.030   0.216
  127SOL     OW 1821   0.935   0.236   0.480
  127SOL    HW1 1822   0.887   0.277   0.402
  127SOL    HW2 1823   1.034   0.234   0.461
  128SOL     OW 1824   1.076   0.683   1.464
  128SOL    HW1 1825   0.996   0.622   1.467
  128SOL    HW2 1826   1.157   0.630   1.440
  129SOL     OW 1827   1.227   1.570   0.793
  129SOL    HW1 1828   1.248   1.644   0.728
  129SOL    HW2 1829   1.295   1.570   0.866
  130SOL     OW 1830   0.459   1.152   0.741
  130SOL    HW1 1831   0.388   1.125   0.806
  130SOL    HW2 1832   0.433   1.124   0.648
  131SOL     OW 1833   1.271   1.797   0.591
  131SOL    HW1 1834   1.315   1.861   0.527
  131SOL    HW2 1835   1.221   1.849   0.661
  132SOL     OW 1836   1.032   0.549   0.016
  132SOL    HW1 1837   0.991   0.631  -0.023
  132SOL    HW2 1838   1.096   0.575   0.089
  133SOL     OW 1839   0.078   0.556   1.386
  133SOL    HW1 1840   0.170   0.555   1.345
  133SOL    HW2 1841   0.072   0.630   1.453
  134SOL     OW 1842   0.561   0.222   1.147
  134SOL    HW1 1843   0.599   0.138   1.184
  134SOL    HW2 1844   0.473   0.241   1.191
  135SOL     OW 1845   0.866   0.454   0.642
  135SOL    HW1 1846   0.834   0.526   0.580
  135SOL    HW2 1847   0.890   0.373   0.589
  136SOL     OW 1848   1.017   0.039   0.753
  136SOL    HW1 1849   0.945   0.044   0.684
  136SOL    HW2 1850   0.993  -0.030   0.822
  137SOL     OW 1851   1.429   1.173   0.867
  137SOL    HW1 1852   1.374   1.089   0.860
  137SOL    HW2 1853   1.455   1.202   0.775
  138SOL     OW 1854   1.466   0.590   0.992
  138SOL    HW1 1855   1.436   0.495   0.999
  138SOL    HW2 1856   1.539   0.606   1.058
  139SOL     OW 1857   1.857   0.833   0.377
  139SOL    HW1 1858   1.899   0.769   0.441
  139SOL    HW2 1859   1.819   0.782   0.299
  140SOL     OW 1860   0.488   1.385   0.174
  140SOL    HW1 1861   0.401   1.370   0.221
  140SOL    HW2 1862   0.471   1.411   0.079
  141SOL     OW 1863   1.664   1.280   0.657
  141SOL    HW1 1864   1.763   1.288   0.671
  141SOL    HW2 1865   1.619   1.364   0.688
  142SOL     OW 1866   1.390   0.575   0.078
  142SOL    HW1 1867   1.336   0.554   0.159
  142SOL    HW2 1868   1.481   0.534   0.087
  143SOL     OW 1869   0.527   0.256   0.328
  143SOL    HW1 1870   0.554   0.197   0.253
  143SOL    HW2 1871   0.527   0.351   0.297
  144SOL     OW 1872   1.754   1.223   1.588
  144SOL    HW1 1873   1.845   1.184   1.575
  144SOL    HW2 1874   1.762   1.319   1.612
  145SOL     OW 1875   1.064   1.347   1.340
  145SOL    HW1 1876   0.984   1.324   1.395
  145SOL    HW2 1877   1.147   1.321   1.389
  146SOL     OW 1878   1.592   1.629   1.625
  146SOL    HW1 1879   1.619   1.663   1.535
  146SOL    HW2 1880   1.671   1.591   1.671
  147SOL     OW 1881   1.111   1.195   1.100
  147SOL    HW1 1882   1.071   1.239   1.181
  147SOL    HW2 1883   1.070   1.232   1.017
  148SOL     OW 1884   1.638   1.099   1.079
  148SOL    HW1 1885   1.643   1.180   1.138
  148SOL    HW2 1886   1.552   1.101   1.028
  149SOL     OW 1887   0.915   0.089   1.402
  149SOL    HW1 1888   0.940   0.069   1.307
  149SOL    HW2 1889   0.987   0.145   1.444
  150SOL     OW 1890   0.980   1.116   1.719
  150SOL    HW1 1891   0.881   1.122   1.729
  150SOL    HW2 1892   1.003   1.036   1.663
  151SOL     OW 1893   0.705   1.050   0.368
  151SOL    HW1 1894   0.691   1.057   0.467
  151SOL    HW2 1895   0.789   0.999   0.350
  152SOL     OW 1896   0.410   0.813   1.251
  152SOL    HW1 1897   0.496   0.825   1.301
  152SOL    HW2 1898   0.368   0.726   1.278
  153SOL     OW 1899   1.274   0.386   1.262
  153SOL    HW1 1900   1.295   0.460   1.326
  153SOL    HW2 1901   1.185   0.403   1.219
  154SOL     OW 1902   0.064   1.564   1.331
  154SOL    HW1 1903   0.018   1.646   1.297
  154SOL    HW2 1904   0.162   1.583   1.340
  155SOL     OW 1905   0.367   1.100   0.501
  155SOL    HW1 1906   0.360   1.183   0.445
  155SOL    HW2 1907   0.371   1.020   0.441
  156SOL     OW 1908   0.566   0.537   0.865
  156SOL    HW1 1909   0.578   0.603   0.791
  156SOL    HW2 1910   0.612   0.571   0.948
  157SOL     OW 1911   1.252   1.348   0.388
  157SOL    HW1 1912   1.302   1.425   0.428
  157SOL    HW2 1913   1.157   1.350   0.420
  158SOL     OW 1914   1.272   1.445   1.142
  158SOL    HW1 1915   1.319   1.458   1.229
  158SOL    HW2 1916   1.206   1.371   1.151
  159SOL     OW 1917   1.582   0.639   0.472
  159SOL    HW1 1918   1.551   0.700   0.545
  159SOL    HW2 1919   1.632   0.691   0.403
  160SOL     OW 1920   0.354   1.510   1.329
  160SOL    HW1 1921   0.333   1.466   1.242
  160SOL    HW2 1922   0.451   1.536   1.332
  161SOL     OW 1923   0.402   0.751   1.598
  161SOL    HW1 1924   0.470   0.806   1.551
  161SOL    HW2 1925   0.442   0.663   1.625
  162SOL     OW 1926   1.587   0.779   1.670
  162SOL    HW1 1927   1.495   0.817   1.665
  162SOL    HW2 1928   1.647   0.826   1.605
  163SOL     OW 1929   1.013   0.105   1.770
  163SOL    HW1 1930   1.019   0.190   1.718
  163SOL    HW2 1931   1.045   0.029   1.713
  164SOL     OW 1932   0.504   0.050   1.740
  164SOL    HW1 1933   0.462  -0.007   1.670
  164SOL    HW2 1934   0.438   0.119   1.772
  165SOL     OW 1935   0.573   0.870   1.029
  165SOL    HW1 1936   0.617   0.959   1.020
  165SOL    HW2 1937   0.510   0.870   1.106
  166SOL     OW 1938   1.360   0.862   1.045
  166SOL    HW1 1939   1.285   0.862   0.979
  166SOL    HW2 1940   1.397   0.770   1.054
  167SOL     OW 1941   1.209   0.525   0.275
  167SOL    HW1 1942   1.222   0.441   0.329
  167SOL    HW2 1943   1.180   0.599   0.335
  168SOL     OW 1944   0.307   0.213   1.231
  168SOL    HW1 1945   0.284   0.250   1.321
  168SOL    HW2 1946   0.277   0.118   1.225
  169SOL     OW 1947   0.037   1.310   1.282
  169SOL    HW1 1948   0.090   1.261   1.350
  169SOL    HW2 1949   0.059   1.408   1.287
  170SOL     OW 1950   0.732   0.634   1.064
  170SOL    HW1 1951   0.791   0.608   0.988
  170SOL    HW2 1952   0.704   0.730   1.053
  171SOL     OW 1953   1.728   0.935   1.854
  171SOL    HW1 1954   1.682   0.928   1.765
  171SOL    HW2 1955   1.666   0.979   1.920
  172SOL     OW 1956   0.307   0.063   0.618
  172SOL    HW1 1957   0.296   0.157   0.651
  172SOL    HW2 1958   0.302   0.000   0.695
  173SOL     OW 1959   1.622   0.367   0.374
  173SOL    HW1 1960   1.624   0.291   0.438
  173SOL    HW2 1961   1.574   0.444   0.414
  174SOL     OW 1962   1.023   0.766   0.966
  174SOL    HW1 1963   1.038   0.787   1.062
  174SOL    HW2 1964   0.993   0.671   0.957
  175SOL     OW 1965   0.980   1.573   1.700
  175SOL    HW1 1966   0.960   1.617   1.612
  175SOL    HW2 1967   1.019   1.482   1.684
  176SOL     OW 1968   1.859   1.518   1.605
  176SOL    HW1 1969   1.873   1.545   1.510
  176SOL    HW2 1970   1.942   1.540   1.658
  177SOL     OW 1971   0.350   0.898   1.804
  177SOL    HW1 1972   0.426   0.942   1.852
  177SOL    HW2 1973   0.385   0.851   1.722
  178SOL     OW 1974   1.540   0.274   0.125
  178SOL    HW1 1975   1.479   0.199   0.148
  178SOL    HW2 1976   1.562   0.326   0.208
  179SOL     OW 1977   1.303   0.838   0.042
  179SOL    HW1 1978   1.337   0.745   0.057
  179SOL    HW2 1979   1.321   0.865  -0.053
  180SOL     OW 1980   1.068   1.333   0.849
  180SOL    HW1 1981   1.075   1.249   0.794
  180SOL    HW2 1982   1.130   1.402   0.813
  181SOL     OW 1983   0.319   0.810   0.949
  181SOL    HW1 1984   0.412   0.846   0.954
  181SOL    HW2 1985   0.313   0.725   1.001
  182SOL     OW 1986   0.339   0.509   1.006
  182SOL    HW1 1987   0.287   0.426   0.989
  182SOL    HW2 1988   0.416   0.514   0.942
  183SOL     OW 1989   1.138   0.380   1.678
  183SOL    HW1 1990   1.093   0.443   1.742
  183SOL    HW2 1991   1.231   0.411   1.661
  184SOL     OW 1992   1.160   0.207   1.477
  184SOL    HW1 1993   1.160   0.271   1.554
  184SOL    HW2 1994   1.188   0.255   1.394
  185SOL     OW 1995   0.008   1.326   0.200
  185SOL    HW1 1996  -0.085   1.347   0.169
  185SOL    HW2 1997   0.018   1.227   0.213
  186SOL     OW 1998   0.088   1.801   0.927
  186SOL    HW1 1999   0.046   1.715   0.900
  186SOL    HW2 2000   0.182   1.804   0.893
  187SOL     OW 2001   0.504   1.568   0.910
  187SOL    HW1 2002   0.570   1.642   0.919
  187SOL    HW2 2003   0.548   1.489   0.868
  188SOL     OW 2004   1.002   0.796   1.238
  188SOL    HW1 2005   1.043   0.764   1.324
  188SOL    HW2 2006   0.906   0.769   1.235
  189SOL     OW 2007   0.040   0.544   1.114
  189SOL    HW1 2008   0.125   0.511   1.073
  189SOL    HW2 2009   0.053   0.559   1.212
  190SOL     OW 2010   0.189   0.520   1.722
  190SOL    HW1 2011   0.248   0.480   1.652
  190SOL    HW2 2012   0.131   0.591   1.681
  191SOL     OW 2013   1.369   0.950   1.660
  191SOL    HW1 2014   1.408   1.039   1.680
  191SOL    HW2 2015   1.379   0.930   1.563
  192SOL     OW 2016   0.815   0.572   0.325
  192SOL    HW1 2017   0.822   0.483   0.279
  192SOL    HW2 2018   0.721   0.606   0.317
  193SOL     OW 2019   1.657   0.604   1.206
  193SOL    HW1 2020   1.619   0.535   1.268
  193SOL    HW2 2021   1.739   0.568   1.162
  194SOL     OW 2022   0.252   1.564   1.744
  194SOL    HW1 2023   0.222   1.621   1.820
  194SOL    HW2 2024   0.245   1.467   1.770
  195SOL     OW 2025   0.671   0.464   1.269
  195SOL    HW1 2026   0.637   0.375   1.239
  195SOL    HW2 2027   0.697   0.518   1.189
  196SOL     OW 2028   0.930   1.678   1.465
  196SOL    HW1 2029   0.906   1.660   1.370
  196SOL    HW2 2030   0.960   1.772   1.475
  197SOL     OW 2031   0.473   0.500   0.191
  197SOL    HW1 2032   0.534   0.580   0.195
  197SOL    HW2 2033   0.378   0.531   0.198
  198SOL     OW 2034   0.159   1.137   1.466
  198SOL    HW1 2035   0.181   1.076   1.542
  198SOL    HW2 2036   0.169   1.088   1.380
  199SOL     OW 2037   1.347   1.059   1.234
  199SOL    HW1 2038   1.371   0.996   1.160
  199SOL    HW2 2039   1.257   1.099   1.216
  200SOL     OW 2040   1.302   0.855   0.309
  200SOL    HW1 2041   1.216   0.824   0.351
  200SOL    HW2 2042   1.298   0.841   0.210
  201SOL     OW 2043   1.759   1.747   1.154
  201SOL    HW1 2044   1.820   1.777   1.081
  201SOL    HW2 2045   1.721   1.658   1.132
  202SOL     OW 2046   1.252   1.731   1.128
  202SOL    HW1 2047   1.336   1.736   1.074
  202SOL    HW2 2048   1.229   1.635   1.146
  203SOL     OW 2049   0.083   1.258   1.022
  203SOL    HW1 2050   0.078   1.257   1.122
  203SOL    HW2 2051   0.000   1.217   0.984
  204SOL     OW 2052   0.688   1.662   1.716
  204SOL    HW1 2053   0.632   1.743   1.725
  204SOL    HW2 2054   0.740   1.666   1.630
  205SOL     OW 2055   0.903   0.086   0.133
  205SOL    HW1 2056   0.954   0.087   0.047
  205SOL    HW2 2057   0.959   0.044   0.204
  206SOL     OW 2058   1.726   0.135   0.523
  206SOL    HW1 2059   1.799   0.118   0.456
  206SOL    HW2 2060   1.695   0.048   0.561
  207SOL     OW 2061   1.388   1.573   0.477
  207SOL    HW1 2062   1.455   1.585   0.403
  207SOL    HW2 2063   1.348   1.662   0.500
  208SOL     OW 2064   0.130   1.794   1.851
  208SOL    HW1 2065   0.089   1.720   1.904
  208SOL    HW2 2066   0.194   1.845   1.909
  209SOL     OW 2067   1.280   0.927   0.672
  209SOL    HW1 2068   1.340   0.846   0.674
  209SOL    HW2 2069   1.320   0.996   0.612
  210SOL     OW 2070   0.830   1.273   1.422
  210SOL    HW1 2071   0.825   1.306   1.517
  210SOL    HW2 2072   0.744   1.292   1.376
  211SOL     OW 2073   0.672   1.616   0.154
  211SOL    HW1 2074   0.681   1.626   0.055
  211SOL    HW2 2075   0.632   1.527   0.175
  212SOL     OW 2076   1.650   1.720   1.394
  212SOL    HW1 2077   1.703   1.730   1.310
  212SOL    HW2 2078   1.623   1.810   1.428
  213SOL     OW 2079   1.841   0.175   0.963
  213SOL    HW1 2080   1.880   0.090   0.927
  213SOL    HW2 2081   1.743   0.177   0.944
  214SOL     OW 2082   0.263   0.326   0.720
  214SOL    HW1 2083   0.184   0.377   0.686
  214SOL    HW2 2084   0.254   0.311   0.818
  215SOL     OW 2085   1.194   1.612   0.031
  215SOL    HW1 2086   1.200   1.519   0.068
  215SOL    HW2 2087   1.135   1.612  -0.049
  216SOL     OW 2088   0.822   1.002   1.372
  216SOL    HW1 2089   0.862   1.001   1.280
  216SOL    HW2 2090   0.832   1.094   1.412
  217SOL     OW 2091   0.916   0.910   0.291
  217SOL    HW1 2092   0.979   0.948   0.223
  217SOL    HW2 2093   0.956   0.827   0.330
  218SOL     OW 2094   1.504   1.607   0.044
  218SOL    HW1 2095   1.412   1.644   0.051
  218SOL    HW2 2096   1.542   1.627  -0.046
  219SOL     OW 2097   0.372   1.288   1.490
  219SOL    HW1 2098   0.359   1.381   1.456
  219SOL    HW2 2099   0.288   1.236   1.477
  220SOL     OW 2100   1.614   1.292   1.289
  220SOL    HW1 2101   1.674   1.295   1.369
  220SOL    HW2 2102   1.539   1.356   1.302
  221SOL     OW 2103   1.039   1.098   0.696
  221SOL    HW1 2104   0.969   1.051   0.750
  221SOL    HW2 2105   1.098   1.030   0.653
  222SOL     OW 2106   1.014   0.236   0.971
  222SOL    HW1 2107   1.006   0.200   0.878
  222SOL    HW2 2108   1.012   0.160   1.036
  223SOL     OW 2109   0.590   1.487   0.491
  223SOL    HW1 2110   0.632   1.429   0.421
  223SOL    HW2 2111   0.546   1.566   0.447
  224SOL     OW 2112   1.709   0.385   1.381
  224SOL    HW1 2113   1.782   0.454   1.385
  224SOL    HW2 2114   1.737   0.310   1.322
  225SOL     OW 2115   0.255   1.348   0.290
  225SOL    HW1 2116   0.159   1.349   0.263
  225SOL    HW2 2117   0.267   1.401   0.374
  226SOL     OW 2118   0.105   1.013   1.726
  226SOL    HW1 2119   0.028   0.980   1.780
  226SOL    HW2 2120   0.190   0.983   1.768
  227SOL     OW 2121   0.672   0.203   1.489
  227SOL    HW1 2122   0.762   0.187   1.449
  227SOL    HW2 2123   0.680   0.208   1.588
  228SOL     OW 2124   0.075   0.345   0.033
  228SOL    HW1 2125  -0.017   0.317   0.004
  228SOL    HW2 2126   0.106   0.422  -0.023
  229SOL     OW 2127   1.440   0.856   1.398
  229SOL    HW1 2128   1.383   0.908   1.335
  229SOL    HW2 2129   1.536   0.868   1.374
  230SOL     OW 2130   0.072   0.166   0.318
  230SOL    HW1 2131   0.055   0.249   0.264
  230SOL    HW2 2132   0.162   0.129   0.296
  231SOL     OW 2133   1.183   1.335   0.119
  231SOL    HW1 2134   1.084   1.324   0.121
  231SOL    HW2 2135   1.217   1.350   0.212
  232SOL     OW 2136   0.613   0.842   1.431
  232SOL    HW1 2137   0.669   0.923   1.414
  232SOL    HW2 2138   0.672   0.762   1.434
  233SOL     OW 2139   1.493   1.767   0.959
  233SOL    HW1 2140   1.526   1.831   0.890
  233SOL    HW2 2141   1.559   1.761   1.034
  234SOL     OW 2142   0.716   0.565   1.708
  234SOL    HW1 2143   0.735   0.630   1.782
  234SOL    HW2 2144   0.776   0.485   1.717
  235SOL     OW 2145   1.450   1.220   1.633
  235SOL    HW1 2146   1.441   1.210   1.732
  235SOL    HW2 2147   1.546   1.213   1.607
  236SOL     OW 2148   0.390   1.741   1.560
  236SOL    HW1 2149   0.299   1.782   1.558
  236SOL    HW2 2150   0.383   1.647   1.592
  237SOL     OW 2151   1.674   0.883   1.254
  237SOL    HW1 2152   1.647   0.794   1.217
  237SOL    HW2 2153   1.675   0.951   1.181
  238SOL     OW 2154   1.225   0.325   0.449
  238SOL    HW1 2155   1.290   0.251   0.438
  238SOL    HW2 2156   1.245   0.375   0.533
  239SOL     OW 2157   0.594   0.745   0.652
  239SOL    HW1 2158   0.644   0.830   0.633
  239SOL    HW2 2159   0.506   0.747   0.604
  240SOL     OW 2160   1.777   0.342   1.642
  240SOL    HW1 2161   1.760   0.373   1.548
  240SOL    HW2 2162   1.693   0.305   1.680
  241SOL     OW 2163   1.730   0.934   1.517
  241SOL    HW1 2164   1.768   1.025   1.532
  241SOL    HW2 2165   1.722   0.917   1.418
  242SOL     OW 2166   0.859   1.374   0.016
  242SOL    HW1 2167   0.813   1.389   0.104
  242SOL    HW2 2168   0.903   1.459  -0.014
  243SOL     OW 2169   0.661   1.790   0.953
  243SOL    HW1 2170   0.615   1.878   0.940
  243SOL    HW2 2171   0.760   1.802   0.946
  244SOL     OW 2172   0.859   0.956   0.861
  244SOL    HW1 2173   0.913   0.887   0.909
  244SOL    HW2 2174   0.827   1.025   0.927
  245SOL     OW 2175   1.083   0.984   0.087
  245SOL    HW1 2176   1.060   1.037   0.005
  245SOL    HW2 2177   1.164   0.928   0.068
  246SOL     OW 2178   1.861   1.569   0.851
  246SOL    HW1 2179   1.790   1.557   0.781
  246SOL    HW2 2180   1.862   1.490   0.911
  247SOL     OW 2181   0.221   1.314   1.844
  247SOL    HW1 2182   0.156   1.241   1.823
  247SOL    HW2 2183   0.225   1.328   1.942
  248SOL     OW 2184   0.079   1.240   0.653
  248SOL    HW1 2185   0.078   1.193   0.741
  248SOL    HW2 2186   0.161   1.212   0.602
  249SOL     OW 2187   0.672   1.391   1.624
  249SOL    HW1 2188   0.594   1.341   1.662
  249SOL    HW2 2189   0.669   1.486   1.655
  250SOL     OW 2190   1.824   0.192   1.227
  250SOL    HW1 2191   1.820   0.102   1.271
  250SOL    HW2 2192   1.827   0.181   1.128
  251SOL     OW 2193   0.428   0.424   0.520
  251SOL    HW1 2194   0.458   0.352   0.458
  251SOL    HW2 2195   0.389   0.384   0.603
  252SOL     OW 2196   1.705   1.487   1.104
  252SOL    HW1 2197   1.612   1.462   1.077
  252SOL    HW2 2198   1.731   1.437   1.186
  253SOL     OW 2199   0.317   0.547   1.280
  253SOL    HW1 2200   0.355   0.488   1.352
  253SOL    HW2 2201   0.357   0.521   1.192
  254SOL     OW 2202   0.812   1.586   0.687
  254SOL    HW1 2203   0.844   1.596   0.593
  254SOL    HW2 2204   0.733   1.524   0.689
  255SOL     OW 2205   1.424   0.214   1.112
  255SOL    HW1 2206   1.476   0.149   1.167
  255SOL    HW2 2207   1.375   0.277   1.173
  256SOL     OW 2208   1.001   0.034   1.154
  256SOL    HW1 2209   0.938  -0.038   1.123
  256SOL    HW2 2210   1.094  -0.002   1.154
  257SOL     OW 2211   0.770   1.330   0.301
  257SOL    HW1 2212   0.724   1.243   0.318
  257SOL    HW2 2213   0.861   1.327   0.342
  258SOL     OW 2214   0.618   1.567   1.284
  258SOL    HW1 2215   0.613   1.649   1.341
  258SOL    HW2 2216   0.707   1.564   1.239
  259SOL     OW 2217   1.352   0.052   0.168
  259SOL    HW1 2218   1.387   0.011   0.084
  259SOL    HW2 2219   1.262   0.014   0.188
  260SOL     OW 2220   1.300   0.453   0.691
  260SOL    HW1 2221   1.241   0.533   0.695
  260SOL    HW2 2222   1.315   0.418   0.784
  261SOL     OW 2223   1.593   0.221   0.882
  261SOL    HW1 2224   1.509   0.220   0.936
  261SOL    HW2 2225   1.595   0.304   0.826
  262SOL     OW 2226   0.039   1.077   0.300
  262SOL    HW1 2227   0.138   1.066   0.291
  262SOL    HW2 2228  -0.001   0.991   0.332
  263SOL     OW 2229   0.875   1.646   0.337
  263SOL    HW1 2230   0.798   1.611   0.283
  263SOL    HW2 2231   0.843   1.717   0.399
  264SOL     OW 2232   0.230   0.628   1.975
  264SOL    HW1 2233   0.137   0.626   2.012
  264SOL    HW2 2234   0.231   0.589   1.883
  265SOL     OW 2235   0.225   0.275   2.858
  265SOL    HW1 2236   0.260   0.258   2.950
  265SOL    HW2 2237   0.137   0.230   2.846
  266SOL     OW 2238   0.019   0.368   2.509
  266SOL    HW1 2239  -0.063   0.411   2.548
  266SOL    HW2 2240  -0.009   0.295   2.446
  267SOL     OW 2241   0.569   1.275   3.027
  267SOL    HW1 2242   0.476   1.268   2.990
  267SOL    HW2 2243   0.580   1.364   3.071
  268SOL     OW 2244   1.555   1.511   2.565
  268SOL    HW1 2245   1.498   1.495   2.646
  268SOL    HW2 2246   1.496   1.521   2.485
  269SOL     OW 2247   1.135   0.703   2.579
  269SOL    HW1 2248   1.192   0.781   2.554
  269SOL    HW2 2249   1.075   0.729   2.655
  270SOL     OW 2250   1.755   0.607   2.093
  270SOL    HW1 2251   1.743   0.594   1.994
  270SOL    HW2 2252   1.725   0.526   2.142
  271SOL     OW 2253   0.768   1.144   2.885
  271SOL    HW1 2254   0.690   1.161   2.945
  271SOL    HW2 2255   0.802   1.231   2.849
  272SOL     OW 2256   0.850   0.798   3.685
  272SOL    HW1 2257   0.846   0.874   3.750
  272SOL    HW2 2258   0.872   0.834   3.594
  273SOL     OW 2259   0.685   1.012   2.527
  273SOL    HW1 2260   0.754   0.996   2.597
  273SOL    HW2 2261   0.612   1.069   2.565
  274SOL     OW 2262   0.686   1.161   3.665
  274SOL    HW1 2263   0.746   1.240   3.679
  274SOL    HW2 2264   0.600   1.192   3.624
  275SOL     OW 2265   0.335   1.435   2.923
  275SOL    HW1 2266   0.257   1.404   2.870
  275SOL    HW2 2267   0.393   1.493   2.866
  276SOL     OW 2268   1.460   1.505   3.201
  276SOL    HW1 2269   1.484   1.599   3.227
  276SOL    HW2 2270   1.444   1.451   3.283
  277SOL     OW 2271   0.438   0.392   3.361
  277SOL    HW1 2272   0.520   0.336   3.370
  277SOL    HW2 2273   0.357   0.334   3.365
  278SOL     OW 2274   1.603   0.447   2.599
  278SOL    HW1 2275   1.529   0.493   2.549
  278SOL    HW2 2276   1.654   0.515   2.652
  279SOL     OW 2277   0.231   1.713   2.345
  279SOL    HW1 2278   0.265   1.790   2.399
  279SOL    HW2 2279   0.275   1.713   2.255
  280SOL     OW 2280   1.127   1.341   3.552
  280SOL    HW1 2281   1.174   1.341   3.640
  280SOL    HW2 2282   1.079   1.254   3.541
  281SOL     OW 2283   0.230   1.434   2.400
  281SOL    HW1 2284   0.204   1.530   2.400
  281SOL    HW2 2285   0.159   1.380   2.445
  282SOL     OW 2286   0.240   1.091   2.748
  282SOL    HW1 2287   0.254   1.007   2.800
  282SOL    HW2 2288   0.185   1.155   2.803
  283SOL     OW 2289   0.606   0.964   1.985
  283SOL    HW1 2290   0.613   1.048   1.931
  283SOL    HW2 2291   0.652   0.977   2.073
  284SOL     OW 2292   1.594   0.114   3.342
  284SOL    HW1 2293   1.576   0.181   3.270
  284SOL    HW2 2294   1.591   0.160   3.431
  285SOL     OW 2295   0.122   0.643   2.425
  285SOL    HW1 2296   0.077   0.555   2.442
  285SOL    HW2 2297   0.121   0.697   2.509
  286SOL     OW 2298   1.842   1.767   2.221
  286SOL    HW1 2299   1.896   1.738   2.301
  286SOL    HW2 2300   1.872   1.857   2.192
  287SOL     OW 2301   0.027   1.596   1.979
  287SOL    HW1 2302   0.008   1.500   2.000
  287SOL    HW2 2303  -0.006   1.654   2.054
  288SOL     OW 2304   1.689   0.922   2.474
  288SOL    HW1 2305   1.784   0.893   2.482
  288SOL    HW2 2306   1.681   0.987   2.399
  289SOL     OW 2307   1.641   1.108   2.294
  289SOL    HW1 2308   1.727   1.110   2.242
  289SOL    HW2 2309   1.655   1.155   2.382
  290SOL     OW 2310   0.113   0.737   3.459
  290SOL    HW1 2311   0.201   0.724   3.504
  290SOL    HW2 2312   0.100   0.834   3.437
  291SOL     OW 2313   0.613   1.365   2.588
  291SOL    HW1 2314   0.564   1.278   2.597
  291SOL    HW2 2315   0.590   1.408   2.501
  292SOL     OW 2316   1.293   1.228   3.285
  292SOL    HW1 2317   1.330   1.155   3.227
  292SOL    HW2 2318   1.345   1.233   3.370
  293SOL     OW 2319   0.809   0.004   2.364
  293SOL    HW1 2320   0.849   0.095   2.355
  293SOL    HW2 2321   0.709   0.012   2.370
  294SOL     OW 2322   0.197   0.976   3.126
  294SOL    HW1 2323   0.286   0.931   3.112
  294SOL    HW2 2324   0.124   0.911   3.107
  295SOL     OW 2325   1.525   0.999   2.052
  295SOL    HW1 2326   1.462   0.923   2.065
  295SOL    HW2 2327   1.573   1.017   2.138
  296SOL     OW 2328   1.187   1.792   3.478
  296SOL    HW1 2329   1.211   1.852   3.402
  296SOL    HW2 2330   1.194   1.697   3.448
  297SOL     OW 2331   0.317   0.251   3.663
  297SOL    HW1 2332   0.388   0.322   3.669
  297SOL    HW2 2333   0.229   0.290   3.691
  298SOL     OW 2334   1.466   1.417   2.815
  298SOL    HW1 2335   1.407   1.423   2.895
  298SOL    HW2 2336   1.451   1.329   2.769
  299SOL     OW 2337   1.667   1.714   2.434
  299SOL    HW1 2338   1.626   1.691   2.346
  299SOL    HW2 2339   1.649   1.640   2.499
  300SOL     OW 2340   0.598   0.729   2.132
  300SOL    HW1 2341   0.622   0.798   2.064
  300SOL    HW2 2342   0.520   0.762   2.186
  301SOL     OW 2343   1.281   0.345   2.806
  301SOL    HW1 2344   1.195   0.295   2.793
  301SOL    HW2 2345   1.343   0.291   2.862
  302SOL     OW 2346   1.576   1.662   2.169
  302SOL    HW1 2347   1.665   1.708   2.172
  302SOL    HW2 2348   1.555   1.638   2.074
  303SOL     OW 2349   0.807   0.605   3.327
  303SOL    HW1 2350   0.760   0.602   3.416
  303SOL    HW2 2351   0.756   0.550   3.261
  304SOL     OW 2352   1.394   0.469   3.536
  304SOL    HW1 2353   1.374   0.512   3.624
  304SOL    HW2 2354   1.472   0.407   3.545
  305SOL     OW 2355   0.973   0.890   3.434
  305SOL    HW1 2356   1.019   0.806   3.405
  305SOL    HW2 2357   0.917   0.924   3.359
  306SOL     OW 2358   0.991   0.410   3.104
  306SOL    HW1 2359   0.914   0.444   3.158
  306SOL    HW2 2360   0.957   0.359   3.025
  307SOL     OW 2361   1.041   0.701   2.291
  307SOL    HW1 2362   1.067   0.697   2.387
  307SOL    HW2 2363   0.956   0.650   2.277
  308SOL     OW 2364   0.076   0.811   2.651
  308SOL    HW1 2365   0.175   0.799   2.660
  308SOL    HW2 2366   0.052   0.906   2.672
  309SOL     OW 2367   0.130   1.821   3.433
  309SOL    HW1 2368   0.120   1.806   3.532
  309SOL    HW2 2369   0.044   1.857   3.397
  310SOL     OW 2370   0.865   0.348   2.057
  310SOL    HW1 2371   0.924   0.411   2.008
  310SOL    HW2 2372   0.884   0.254   2.028
  311SOL     OW 2373   1.719   0.585   3.693
  311SOL    HW1 2374   1.693   0.674   3.657
  311SOL    HW2 2375   1.717   0.517   3.620
  312SOL     OW 2376   1.362   1.144   2.407
  312SOL    HW1 2377   1.445   1.115   2.359
  312SOL    HW2 2378   1.313   1.211   2.351
  313SOL     OW 2379   0.550   0.196   2.747
  313SOL    HW1 2380   0.545   0.191   2.847
  313SOL    HW2 2381   0.552   0.292   2.718
  314SOL     OW 2382   1.008   1.456   2.339
  314SOL    HW1 2383   0.962   1.528   2.287
  314SOL    HW2 2384   1.004   1.476   2.437
  315SOL     OW 2385   0.351   1.801   2.715
  315SOL    HW1 2386   0.401   1.715   2.721
  315SOL    HW2 2387   0.416   1.878   2.712
  316SOL     OW 2388   1.795   1.066   2.735
  316SOL    HW1 2389   1.733   1.051   2.659
  316SOL    HW2 2390   1.743   1.077   2.820
  317SOL     OW 2391   1.227   1.550   3.368
  317SOL    HW1 2392   1.233   1.473   3.432
  317SOL    HW2 2393   1.175   1.524   3.288
  318SOL     OW 2394   0.321   0.943   2.104
  318SOL    HW1 2395   0.403   0.982   2.062
  318SOL    HW2 2396   0.294   0.861   2.055
  319SOL     OW 2397   1.458   0.735   2.590
  319SOL    HW1 2398   1.453   0.670   2.665
  319SOL    HW2 2399   1.538   0.794   2.603
  320SOL     OW 2400   0.461   1.266   3.589
  320SOL    HW1 2401   0.411   1.267   3.503
  320SOL    HW2 2402   0.398   1.248   3.665
  321SOL     OW 2403   1.111   1.776   2.099
  321SOL    HW1 2404   1.051   1.714   2.149
  321SOL    HW2 2405   1.142   1.732   2.014
  322SOL     OW 2406   0.202   0.285   3.360
  322SOL    HW1 2407   0.122   0.345   3.347
  322SOL    HW2 2408   0.192   0.236   3.446
  323SOL     OW 2409   1.632   1.377   1.943
  323SOL    HW1 2410   1.600   1.471   1.933
  323SOL    HW2 2411   1.556   1.314   1.931
  324SOL     OW 2412   0.464   1.743   2.185
  324SOL    HW1 2413   0.497   1.782   2.271
  324SOL    HW2 2414   0.540   1.736   2.120
  325SOL     OW 2415   1.400   0.107   2.288
  325SOL    HW1 2416   1.376   0.070   2.198
  325SOL    HW2 2417   1.499   0.123   2.292
  326SOL     OW 2418   0.249   1.785   3.103
  326SOL    HW1 2419   0.306   1.720   3.153
  326SOL    HW2 2420   0.233   1.752   3.010
  327SOL     OW 2421   0.940   1.698   2.766
  327SOL    HW1 2422   1.020   1.641   2.787
  327SOL    HW2 2423   0.891   1.658   2.689
  328SOL     OW 2424   0.382   0.700   2.342
  328SOL    HW1 2425   0.427   0.610   2.339
  328SOL    HW2 2426   0.288   0.689   2.375
  329SOL     OW 2427   1.547   0.222   3.591
  329SOL    HW1 2428   1.542   0.259   3.683
  329SOL    HW2 2429   1.475   0.153   3.579
  330SOL     OW 2430   0.614   0.122   1.979
  330SOL    HW1 2431   0.712   0.100   1.986
  330SOL    HW2 2432   0.583   0.105   1.886
  331SOL     OW 2433   0.781   0.264   3.611
  331SOL    HW1 2434   0.848   0.203   3.654
  331SOL    HW2 2435   0.708   0.283   3.676
  332SOL     OW 2436   0.888   1.514   3.057
  332SOL    HW1 2437   0.865   1.489   2.963
  332SOL    HW2 2438   0.949   1.445   3.096
  333SOL     OW 2439   1.351   0.590   3.295
  333SOL    HW1 2440   1.379   0.547   3.380
  333SOL    HW2 2441   1.376   0.686   3.296
  334SOL     OW 2442   0.803   1.402   2.786
  334SOL    HW1 2443   0.893   1.416   2.744
  334SOL    HW2 2444   0.732   1.404   2.715
  335SOL     OW 2445   0.922   0.503   2.761
  335SOL    HW1 2446   0.897   0.494   2.665
  335SOL    HW2 2447   0.970   0.421   2.792
  336SOL     OW 2448   0.539   0.064   2.374
  336SOL    HW1 2449   0.458   0.065   2.432
  336SOL    HW2 2450   0.542   0.147   2.319
  337SOL     OW 2451   1.434   1.188   1.903
  337SOL    HW1 2452   1.466   1.112   1.960
  337SOL    HW2 2453   1.342   1.215   1.933
  338SOL     OW 2454   0.297   0.035   2.033
  338SOL    HW1 2455   0.346   0.119   2.012
  338SOL    HW2 2456   0.359  -0.030   2.078
  339SOL     OW 2457   0.935   0.236   2.342
  339SOL    HW1 2458   0.887   0.277   2.264
  339SOL    HW2 2459   1.034   0.234   2.323
  340SOL     OW 2460   1.076   0.683   3.326
  340SOL    HW1 2461   0.996   0.622   3.329
  340SOL    HW2 2462   1.157   0.630   3.302
  341SOL     OW 2463   1.227   1.570   2.655
  341SOL    HW1 2464   1.248   1.644   2.590
  341SOL    HW2 2465   1.295   1.570   2.728
  342SOL     OW 2466   0.459   1.152   2.603
  342SOL    HW1 2467   0.388   1.125   2.668
  342SOL    HW2 2468   0.433   1.124   2.510
  343SOL     OW 2469   1.271   1.797   2.453
  343SOL    HW1 2470   1.315   1.861   2.389
  343SOL    HW2 2471   1.221   1.849   2.523
  344SOL     OW 2472   1.032   0.549   1.878
  344SOL    HW1 2473   0.991   0.631   1.839
  344SOL    HW2 2474   1.096   0.575   1.951
  345SOL     OW 2475   0.078   0.556   3.248
  345SOL    HW1 2476   0.170   0.555   3.207
  345SOL    HW2 2477   0.072   0.630   3.315
  346SOL     OW 2478   0.561   0.222   3.009
  346SOL    HW1 2479   0.599   0.138   3.046
  346SOL    HW2 2480   0.473   0.241   3.053
  347SOL     OW 2481   0.866   0.454   2.504
  347SOL    HW1 2482   0.834   0.526   2.442
  347SOL    HW2 2483   0.890   0.373   2.451
  348SOL     OW 2484   1.017   0.039   2.615
  348SOL    HW1 2485   0.945   0.044   2.546
  348SOL    HW2 2486   0.993  -0.030   2.684
  349SOL     OW 2487   1.429   1.173   2.729
  349SOL    HW1 2488   1.374   1.089   2.722
  349SOL    HW2 2489   1.455   1.202   2.637
  350SOL     OW 2490   1.466   0.590   2.854
  350SOL    HW1 2491   1.436   0.495   2.861
  350SOL    HW2 2492   1.539   0.606   2.920
  351SOL     OW 2493   1.857   0.833   2.239
  351SOL    HW1 2494   1.899   0.769   2.303
  351SOL    HW2 2495   1.819   0.782   2.161
  352SOL     OW 2496   0.488   1.385   2.036
  352SOL    HW1 2497   0.401   1.370   2.083
  352SOL    HW2 2498   0.471   1.411   1.941
  353SOL     OW 2499   1.664   1.280   2.519
  353SOL    HW1 2500   1.763   1.288   2.533
  353SOL    HW2 2501   1.619   1.364   2.550
  354SOL     OW 2502   1.390   0.575   1.940
  354SOL    HW1 2503   1.336   0.554   2.021
  354SOL    HW2 2504   1.481   0.534   1.949
  355SOL     OW 2505   0.527   0.256   2.190
  355SOL    HW1 2506   0.554   0.197   2.115
  355SOL    HW2 2507   0.527   0.351   2.159
  356SOL     OW 2508   1.754   1.223   3.450
  356SOL    HW1 2509   1.845   1.184   3.437
  356SOL    HW2 2510   1.762   1.319   3.474
  357SOL     OW 2511   1.064   1.347   3.202
  357SOL    HW1 2512   0.984   1.324   3.257
  357SOL    HW2 2513   1.147   1.321   3.251
  358SOL     OW 2514   1.592   1.629   3.487
  358SOL    HW1 2515   1.619   1.663   3.397
  358SOL    HW2 2516   1.671   1.591   3.533
  359SOL     OW 2517   1.111   1.195   2.962
  359SOL    HW1 2518   1.071   1.239   3.043
  359SOL    HW2 2519   1.070   1.232   2.879
  360SOL     OW 2520   1.638   1.099   2.941
  360SOL    HW1 2521   1.643   1.180   3.000
  360SOL    HW2 2522   1.552   1.101   2.890
  361SOL     OW 2523   0.915   0.089   3.264
  361SOL    HW1 2524   0.940   0.069   3.169
  361SOL    HW2 2525   0.987   0.145   3.306
  362SOL     OW 2526   0.980   1.116   3.581
  362SOL    HW1 2527   0.881   1.122   3.591
  362SOL    HW2 2528   1.003   1.036   3.525
  363SOL     OW 2529   0.705   1.050   2.230
  363SOL    HW1 2530   0.691   1.057   2.329
  363SOL    HW2 2531   0.789   0.999   2.212
  364SOL     OW 2532   0.410   0.813   3.113
  364SOL    HW1 2533   0.496   0.825   3.163
  364SOL    HW2 2534   0.368   0.726   3.140
  365SOL     OW 2535   1.274   0.386   3.124
  365SOL    HW1 2536   1.295   0.460   3.188
  365SOL    HW2 2537   1.185   0.403   3.081
  366SOL     OW 2538   0.064   1.564   3.193
  366SOL    HW1 2539   0.018   1.646   3.159
  366SOL    HW2 2540   0.162   1.583   3.202
  367SOL     OW 2541   0.367   1.100   2.363
  367SOL    HW1 2542   0.360   1.183   2.307
  367SOL    HW2 2543   0.371   1.020   2.303
  368SOL     OW 2544   0.566   0.537   2.727
  368SOL    HW1 2545   0.578   0.603   2.653
  368SOL    HW2 2546   0.612   0.571   2.810
  369SOL     OW 2547   1.252   1.348   2.250
  369SOL    HW1 2548   1.302   1.425   2.290
  369SOL    HW2 2549   1.157   1.350   2.282
  370SOL     OW 2550   1.272   1.445   3.004
  370SOL    HW1 2551   1.319   1.458   3.091
  370SOL    HW2 2552   1.206   1.371   3.013
  371SOL     OW 2553   1.582   0.639   2.334
  371SOL    HW1 2554   1.551   0.700   2.407
  371SOL    HW2 2555   1.632   0.691   2.265
  372SOL     OW 2556   0.354   1.510   3.191
  372SOL    HW1 2557   0.333   1.466   3.104
  372SOL    HW2 2558   0.451   1.536   3.194
  373SOL     OW 2559   0.402   0.751   3.460
  373SOL    HW1 2560   0.470   0.806   3.413
  373SOL    HW2 2561   0.442   0.663   3.487
  374SOL     OW 2562   1.587   0.779   3.532
  374SOL    HW1 2563   1.495   0.817   3.527
  374SOL    HW2 2564   1.647   0.826   3.467
  375SOL     OW 2565   1.013   0.105   3.632
  375SOL    HW1 2566   1.019   0.190   3.580
  375SOL    HW2 2567   1.045   0.029   3.575
  376SOL     OW 2568   0.504   0.050   3.602
  376SOL    HW1 2569   0.462  -0.007   3.532
  376SOL    HW2 2570   0.438   0.119   3.634
  377SOL     OW 2571   0.573   0.870   2.891
  377SOL    HW1 2572   0.617   0.959   2.882
  377SOL    HW2 2573   0.510   0.870   2.968
  378SOL     OW 2574   1.360   0.862   2.907
  378SOL    HW1 2575   1.285   0.862   2.841
  378SOL    HW2 2576   1.397   0.770   2.916
  379SOL     OW 2577   1.209   0.525   2.137
  379SOL    HW1 2578   1.222   0.441   2.191
  379SOL    HW2 2579   1.180   0.599   2.197
  380SOL     OW 2580   0.307   0.213   3.093
  380SOL    HW1 2581   0.284   0.250   3.183
  380SOL    HW2 2582   0.277   0.118   3.087
  381SOL     OW 2583   0.037   1.310   3.144
  381SOL    HW1 2584   0.090   1.261   3.212
  381SOL    HW2 2585   0.059   1.408   3.149
  382SOL     OW 2586   0.732   0.634   2.926
  382SOL    HW1 2587   0.791   0.608   2.850
  382SOL    HW2 2588   0.704   0.730   2.915
  383SOL     OW 2589   1.728   0.935   3.716
  383SOL    HW1 2590   1.682   0.928   3.627
  383SOL    HW2 2591   1.666   0.979   3.782
  384SOL     OW 2592   0.307   0.063   2.480
  384SOL    HW1 2593   0.296   0.157   2.513
  384SOL    HW2 2594   0.302   0.000   2.557
  385SOL     OW 2595   1.622   0.367   2.236
  385SOL    HW1 2596   1.624   0.291   2.300
  385SOL    HW2 2597   1.574   0.444   2.276
  386SOL     OW 2598   1.023   0.766   2.828
  386SOL    HW1 2599   1.038   0.787   2.924
  386SOL    HW2 2600   0.993   0.671   2.819
  387SOL     OW 2601   0.980   1.573   3.562
  387SOL    HW1 2602   0.960   1.617   3.474
  387SOL    HW2 2603   1.019   1.482   3.546
  388SOL     OW 2604   1.859   1.518   3.467
  388SOL    HW1 2605   1.873   1.545   3.372
  388SOL    HW2 2606   1.942   1.540   3.520
  389SOL     OW 2607   0.350   0.898   3.666
  389SOL    HW1 2608   0.426   0.942   3.714
  389SOL    HW2 2609   0.385   0.851   3.584
  390SOL     OW 2610   1.540   0.274   1.987
  390SOL    HW1 2611   1.479   0.199   2.010
  390SOL    HW2 2612   1.562   0.326   2.070
  391SOL     OW 2613   1.303   0.838   1.904
  391SOL    HW1 2614   1.337   0.745   1.919
  391SOL    HW2 2615   1.321   0.865   1.809
  392SOL     OW 2616   1.068   1.333   2.711
  392SOL    HW1 2617   1.075   1.249   2.656
  392SOL    HW2 2618   1.130   1.402   2.675
  393SOL     OW 2619   0.319   0.810   2.811
  393SOL    HW1 2620   0.412   0.846   2.816
  393SOL    HW2 2621   0.313   0.725   2.863
  394SOL     OW 2622   0.339   0.509   2.868
  394SOL    HW1 2623   0.287   0.426   2.851
  394SOL    HW2 2624   0.416   0.514   2.804
  395SOL     OW 2625   1.138   0.380   3.540
  395SOL    HW1 2626   1.093   0.443   3.604
  395SOL    HW2 2627   1.231   0.411   3.523
  396SOL     OW 2628   1.160   0.207   3.339
  396SOL    HW1 2629   1.160   0.271   3.416
  396SOL    HW2 2630   1.188   0.255   3.256
  397SOL     OW 2631   0.008   1.326   2.062
  397SOL    HW1 2632  -0.085   1.347   2.031
  397SOL    HW2 2633   0.018   1.227   2.075
  398SOL     OW 2634   0.088   1.801   2.789
  398SOL    HW1 2635   0.046   1.715   2.762
  398SOL    HW2 2636   0.182   1.804   2.755
  399SOL     OW 2637   0.504   1.568   2.772
  399SOL    HW1 2638   0.570   1.642   2.781
  399SOL    HW2 2639   0.548   1.489   2.730
  400SOL     OW 2640   1.002   0.796   3.100
  400SOL    HW1 2641   1.043   0.764   3.186
  400SOL    HW2 2642   0.906   0.769   3.097
  401SOL     OW 2643   0.040   0.544   2.976
  401SOL    HW1 2644   0.125   0.511   2.935
  401SOL    HW2 2645   0.053   0.559   3.074
  402SOL     OW 2646   0.189   0.520   3.584
  402SOL    HW1 2647   0.248   0.480   3.514
  402SOL    HW2 2648   0.131   0.591   3.543
  403SOL     OW 2649   1.369   0.950   3.522
  403SOL    HW1 2650   1.408   1.039   3.542
  403SOL    HW2 2651   1.379   0.930   3.425
  404SOL     OW 2652   0.815   0.572   2.187
  404SOL    HW1 2653   0.822   0.483   2.141
  404SOL    HW2 2654   0.721   0.606   2.179
  405SOL     OW 2655   1.657   0.604   3.068
  405SOL    HW1 2656   1.619   0.535   3.130
  405SOL    HW2 2657   1.739   0.568   3.024
  406SOL     OW 2658   0.252   1.564   3.606
  406SOL    HW1 2659   0.222   1.621   3.682
  406SOL    HW2 2660   0.245   1.467   3.632
  407SOL     OW 2661   0.671   0.464   3.131
  407SOL    HW1 2662   0.637   0.375   3.101
  407SOL    HW2 2663   0.697   0.518   3.051
  408SOL     OW 2664   0.930   1.678   3.327
  408SOL    HW1 2665   0.906   1.660   3.232
  408SOL    HW2 2666   0.960   1.772   3.337
  409SOL     OW 2667   0.473   0.500   2.053
  409SOL    HW1 2668   0.534   0.580   2.057
  409SOL    HW2 2669   0.378   0.531   2.060
  410SOL     OW 2670   0.159   1.137   3.328
  410SOL    HW1 2671   0.181   1.076   3.404
  410SOL    HW2 2672   0.169   1.088   3.242
  411SOL     OW 2673   1.347   1.059   3.096
  411SOL    HW1 2674   1.371   0.996   3.022
  411SOL    HW2 2675   1.257   1.099   3.078
  412SOL     OW 2676   1.302   0.855   2.171
  412SOL    HW1 2677   1.216   0.824   2.213
  412SOL    HW2 2678   1.298   0.841   2.072
  413SOL     OW 2679   1.759   1.747   3.016
  413SOL    HW1 2680   1.820   1.777   2.943
  413SOL    HW2 2681   1.721   1.658   2.994
  414SOL     OW 2682   1.252   1.731   2.990
  414SOL    HW1 2683   1.336   1.736   2.936
  414SOL    HW2 2684   1.229   1.635   3.008
  415SOL     OW 2685   0.083   1.258   2.884
  415SOL    HW1 2686   0.078   1.257   2.984
  415SOL    HW2 2687   0.000   1.217   2.846
  416SOL     OW 2688   0.688   1.662   3.578
  416SOL    HW1 2689   0.632   1.743   3.587
  416SOL    HW2 2690   0.740   1.666   3.492
  417SOL     OW 2691   1.726   0.135   2.385
  417SOL    HW1 2692   1.799   0.118   2.318
  417SOL    HW2 2693   1.695   0.048   2.423
  418SOL     OW 2694   1.388   1.573   2.339
  418SOL    HW1 2695   1.455   1.585   2.265
  418SOL    HW2 2696   1.348   1.662   2.362
  419SOL     OW 2697   0.130   1.794   3.713
  419SOL    HW1 2698   0.089   1.720   3.766
  419SOL    HW2 2699   0.194   1.845   3.771
  420SOL     OW 2700   1.280   0.927   2.534
  420SOL    HW1 2701   1.340   0.846   2.536
  420SOL    HW2 2702   1.320   0.996   2.474
  421SOL     OW 2703   0.830   1.273   3.284
  421SOL    HW1 2704   0.825   1.306   3.379
  421SOL    HW2 2705   0.744   1.292   3.238
  422SOL     OW 2706   0.672   1.616   2.016
  422SOL    HW1 2707   0.681   1.626   1.917
  422SOL    HW2 2708   0.632   1.527   2.037
  423SOL     OW 2709   1.650   1.720   3.256
  423SOL    HW1 2710   1.703   1.730   3.172
  423SOL    HW2 2711   1.623   1.810   3.290
  424SOL     OW 2712   1.841   0.175   2.825
  424SOL    HW1 2713   1.880   0.090   2.789
  424SOL    HW2 2714   1.743   0.177   2.806
  425SOL     OW 2715   0.263   0.326   2.582
  425SOL    HW1 2716   0.184   0.377   2.548
  425SOL    HW2 2717   0.254   0.311   2.680
  426SOL     OW 2718   1.194   1.612   1.893
  426SOL    HW1 2719   1.200   1.519   1.930
  426SOL    HW2 2720   1.135   1.612   1.813
  427SOL     OW 2721   0.822   1.002   3.234
  427SOL    HW1 2722   0.862   1.001   3.142
  427SOL    HW2 2723   0.832   1.094   3.274
  428SOL     OW 2724   0.916   0.910   2.153
  428SOL    HW1 2725   0.979   0.948   2.085
  428SOL    HW2 2726   0.956   0.827   2.192
  429SOL     OW 2727   1.504   1.607   1.906
  429SOL    HW1 2728   1.412   1.644   1.913
  429SOL    HW2 2729   1.542   1.627   1.816
  430SOL     OW 2730   0.372   1.288   3.352
  430SOL    HW1 2731   0.359   1.381   3.318
  430SOL    HW2 2732   0.288   1.236   3.339
  431SOL     OW 2733   1.614   1.292   3.151
  431SOL    HW1 2734   1.674   1.295   3.231
  431SOL    HW2 2735   1.539   1.356   3.164
  432SOL     OW 2736   1.039   1.098   2.558
  432SOL    HW1 2737   0.969   1.051   2.612
  432SOL    HW2 2738   1.098   1.030   2.515
  433SOL     OW 2739   1.014   0.236   2.833
  433SOL    HW1 2740   1.006   0.200   2.740
  433SOL    HW2 2741   1.012   0.160   2.898
  434SOL     OW 2742   0.590   1.487   2.353
  434SOL    HW1 2743   0.632   1.429   2.283
  434SOL    HW2 2744   0.546   1.566   2.309
  435SOL     OW 2745   1.709   0.385   3.243
  435SOL    HW1 2746   1.782   0.454   3.247
  435SOL    HW2 2747   1.737   0.310   3.184
  436SOL     OW 2748   0.255   1.348   2.152
  436SOL    HW1 2749   0.159   1.349   2.125
  436SOL    HW2 2750   0.267   1.401   2.236
  437SOL     OW 2751   0.105   1.013   3.588
  437SOL    HW1 2752   0.028   0.980   3.642
  437SOL    HW2 2753   0.190   0.983   3.630
  438SOL     OW 2754   0.672   0.203   3.351
  438SOL    HW1 2755   0.762   0.187   3.311
  438SOL    HW2 2756   0.680   0.208   3.450
  439SOL     OW 2757   0.075   0.345   1.895
  439SOL    HW1 2758  -0.017   0.317   1.866
  439SOL    HW2 2759   0.106   0.422   1.839
  440SOL     OW 2760   1.440   0.856   3.260
  440SOL    HW1 2761   1.383   0.908   3.197
  440SOL    HW2 2762   1.536   0.868   3.236
  441SOL     OW 2763   0.072   0.166   2.180
  441SOL    HW1 2764   0.055   0.249   2.126
  441SOL    HW2 2765   0.162   0.129   2.158
  442SOL     OW 2766   1.183   1.335   1.981
  442SOL    HW1 2767   1.084   1.324   1.983
  442SOL    HW2 2768   1.217   1.350   2.074
  443SOL     OW 2769   0.613   0.842   3.293
  443SOL    HW1 2770   0.669   0.923   3.276
  443SOL    HW2 2771   0.672   0.762   3.296
  444SOL     OW 2772   1.493   1.767   2.821
  444SOL    HW1 2773   1.526   1.831   2.752
  444SOL    HW2 2774   1.559   1.761   2.896
  445SOL     OW 2775   0.716   0.565   3.570
  445SOL    HW1 2776   0.735   0.630   3.644
  445SOL    HW2 2777   0.776   0.485   3.579
  446SOL     OW 2778   1.450   1.220   3.495
  446SOL    HW1 2779   1.441   1.210   3.594
  446SOL    HW2 2780   1.546   1.213   3.469
  447SOL     OW 2781   0.390   1.741   3.422
  447SOL    HW1 2782   0.299   1.782   3.420
  447SOL    HW2 2783   0.383   1.647   3.454
  448SOL     OW 2784   1.674   0.883   3.116
  448SOL    HW1 2785   1.647   0.794   3.079
  448SOL    HW2 2786   1.675   0.951   3.043
  449SOL     OW 2787   1.225   0.325   2.311
  449SOL    HW1 2788   1.290   0.251   2.300
  449SOL    HW2 2789   1.245   0.375   2.395
  450SOL     OW 2790   0.594   0.745   2.514
  450SOL    HW1 2791   0.644   0.830   2.495
  450SOL    HW2 2792   0.506   0.747   2.466
  451SOL     OW 2793   1.777   0.342   3.504
  451SOL    HW1 2794   1.760   0.373   3.410
  451SOL    HW2 2795   1.693   0.305   3.542
  452SOL     OW 2796   1.730   0.934   3.379
  452SOL    HW1 2797   1.768   1.025   3.394
  452SOL    HW2 2798   1.722   0.917   3.280
  453SOL     OW 2799   0.859   1.374   1.878
  453SOL    HW1 2800   0.813   1.389   1.966
  453SOL    HW2 2801   0.903   1.459   1.848
  454SOL     OW 2802   0.661   1.790   2.815
  454SOL    HW1 2803   0.615   1.878   2.802
  454SOL    HW2 2804   0.760   1.802   2.808
  455SOL     OW 2805   0.859   0.956   2.723
  455SOL    HW1 2806   0.913   0.887   2.771
  455SOL    HW2 2807   0.827   1.025   2.789
  456SOL     OW 2808   1.083   0.984   1.949
  456SOL    HW1 2809   1.060   1.037   1.867
  456SOL    HW2 2810   1.164   0.928   1.930
  457SOL     OW 2811   1.861   1.569   2.713
  457SOL    HW1 2812   1.790   1.557   2.643
  457SOL    HW2 2813   1.862   1.490   2.773
  458SOL     OW 2814   0.221   1.314   3.706
  458SOL    HW1 2815   0.156   1.241   3.685
  458SOL    HW2 2816   0.225   1.328   3.804
  459SOL     OW 2817   0.079   1.240   2.515
  459SOL    HW1 2818   0.078   1.193   2.603
  459SOL    HW2 2819   0.161   1.212   2.464
  460SOL     OW 2820   0.672   1.391   3.486
  460SOL    HW1 2821   0.594   1.341   3.524
  460SOL    HW2 2822   0.669   1.486   3.517
  461SOL     OW 2823   1.824   0.192   3.089
  461SOL    HW1 2824   1.820   0.102   3.133
  461SOL    HW2 2825   1.827   0.181   2.990
  462SOL     OW 2826   0.428   0.424   2.382
  462SOL    HW1 2827   0.458   0.352   2.320
  462SOL    HW2 2828   0.389   0.384   2.465
  463SOL     OW 2829   1.705   1.487   2.966
  463SOL    HW1 2830   1.612   1.462   2.939
  463SOL    HW2 2831   1.731   1.437   3.048
  464SOL     OW 2832   0.317   0.547   3.142
  464SOL    HW1 2833   0.355   0.488   3.214
  464SOL    HW2 2834   0.357   0.521   3.054
  465SOL     OW 2835   0.812   1.586   2.549
  465SOL    HW1 2836   0.844   1.596   2.455
  465SOL    HW2 2837   0.733   1.524   2.551
  466SOL     OW 2838   1.424   0.214   2.974
  466SOL    HW1 2839   1.476   0.149   3.029
  466SOL    HW2 2840   1.375   0.277   3.035
  467SOL     OW 2841   1.001   0.034   3.016
  467SOL    HW1 2842   0.938  -0.038   2.985
  467SOL    HW2 2843   1.094  -0.002   3.016
  468SOL     OW 2844   0.770   1.330   2.163
  468SOL    HW1 2845   0.724   1.243   2.180
  468SOL    HW2 2846   0.861   1.327   2.204
  469SOL     OW 2847   0.618   1.567   3.146
  469SOL    HW1 2848   0.613   1.649   3.203
  469SOL    HW2 2849   0.707   1.564   3.101
  470SOL     OW 2850   1.352   0.052   2.030
  470SOL    HW1 2851   1.387   0.011   1.946
  470SOL    HW2 2852   1.262   0.014   2.050
  471SOL     OW 2853   1.300   0.453   2.553
  471SOL    HW1 2854   1.241   0.533   2.557
  471SOL    HW2 2855   1.315   0.418   2.646
  472SOL     OW 2856   1.593   0.221   2.744
  472SOL    HW1 2857   1.509   0.220   2.798
  472SOL    HW2 2858   1.595   0.304   2.688
  473SOL     OW 2859   0.039   1.077   2.162
  473SOL    HW1 2860   0.138   1.066   2.153
  473SOL    HW2 2861  -0.001   0.991   2.194
  474SOL     OW 2862   0.875   1.646   2.199
  474SOL    HW1 2863   0.798   1.611   2.145
  474SOL    HW2 2864   0.843   1.717   2.261
  475SOL     OW 2865   0.230   0.628   3.837
  475SOL    HW1 2866   0.137   0.626   3.874
  475SOL    HW2 2867   0.231   0.589   3.745
  476SOL     OW 2868   0.225   0.275   4.720
  476SOL    HW1 2869   0.260   0.258   4.812
  476SOL    HW2 2870   0.137   0.230   4.708
  477SOL     OW 2871   0.019   0.368   4.371
  477SOL    HW1 2872  -0.063   0.411   4.410
  477SOL    HW2 2873  -0.009   0.295   4.308
  478SOL     OW 2874   0.569   1.275   4.889
  478SOL    HW1 2875   0.476   1.268   4.852
  478SOL    HW2 2876   0.580   1.364   4.933
  479SOL     OW 2877   1.555   1.511   4.427
  479SOL    HW1 2878   1.498   1.495   4.508
  479SOL    HW2 2879   1.496   1.521   4.347
  480SOL     OW 2880   1.135   0.703   4.441
  480SOL    HW1 2881   1.192   0.781   4.416
  480SOL    HW2 2882   1.075   0.729   4.517
  481SOL     OW 2883   1.755   0.607   3.955
  481SOL    HW1 2884   1.743   0.594   3.856
  481SOL    HW2 2885   1.725   0.526   4.004
  482SOL     OW 2886   0.768   1.144   4.747
  482SOL    HW1 2887   0.690   1.161   4.807
  482SOL    HW2 2888   0.802   1.231   4.711
  483SOL     OW 2889   0.850   0.798   5.547
  483SOL    HW1 2890   0.846   0.874   5.612
  483SOL    HW2 2891   0.872   0.834   5.456
  484SOL     OW 2892   0.685   1.012   4.389
  484SOL    HW1 2893   0.754   0.996   4.459
  484SOL    HW2 2894   0.612   1.069   4.427
  485SOL     OW 2895   0.686   1.161   5.527
  485SOL    HW1 2896   0.746   1.240   5.541
  485SOL    HW2 2897   0.600   1.192   5.486
  486SOL     OW 2898   0.335   1.435   4.785
  486SOL    HW1 2899   0.257   1.404   4.732
  486SOL    HW2 2900   0.393   1.493   4.728
  487SOL     OW 2901   1.460   1.505   5.063
  487SOL    HW1 2902   1.484   1.599   5.089
  487SOL    HW2 2903   1.444   1.451   5.145
  488SOL     OW 2904   0.438   0.392   5.223
  488SOL    HW1 2905   0.520   0.336   5.232
  488SOL    HW2 2906   0.357   0.334   5.227
  489SOL     OW 2907   1.603   0.447   4.461
  489SOL    HW1 2908   1.529   0.493   4.411
  489SOL    HW2 2909   1.654   0.515   4.514
  490SOL     OW 2910   0.231   1.713   4.207
  490SOL    HW1 2911   0.265   1.790   4.261
  490SOL    HW2 2912   0.275   1.713   4.117
  491SOL     OW 2913   1.127   1.341   5.414
  491SOL    HW1 2914   1.174   1.341   5.502
  491SOL    HW2 2915   1.079   1.254   5.403
  492SOL     OW 2916   0.230   1.434   4.262
  492SOL    HW1 2917   0.204   1.530   4.262
  492SOL    HW2 2918   0.159   1.380   4.307
  493SOL     OW 2919   0.240   1.091   4.610
  493SOL    HW1 2920   0.254   1.007   4.662
  493SOL    HW2 2921   0.185   1.155   4.665
  494SOL     OW 2922   0.620   1.786   5.163
  494SOL    HW1 2923   0.528   1.769   5.198
  494SOL    HW2 2924   0.648   1.878   5.189
  495SOL     OW 2925   0.606   0.964   3.847
  495SOL    HW1 2926   0.613   1.048   3.793
  495SOL    HW2 2927   0.652   0.977   3.935
  496SOL     OW 2928   1.594   0.114   5.204
  496SOL    HW1 2929   1.576   0.181   5.132
  496SOL    HW2 2930   1.591   0.160   5.293
  497SOL     OW 2931   0.122   0.643   4.287
  497SOL    HW1 2932   0.077   0.555   4.304
  497SOL    HW2 2933   0.121   0.697   4.371
  498SOL     OW 2934   1.842   1.767   4.083
  498SOL    HW1 2935   1.896   1.738   4.163
  498SOL    HW2 2936   1.872   1.857   4.054
  499SOL     OW 2937   0.027   1.596   3.841
  499SOL    HW1 2938   0.008   1.500   3.862
  499SOL    HW2 2939  -0.006   1.654   3.916
  500SOL     OW 2940   1.689   0.922   4.336
  500SOL    HW1 2941   1.784   0.893   4.344
  500SOL    HW2 2942   1.681   0.987   4.261
  501SOL     OW 2943   1.641   1.108   4.156
  501SOL    HW1 2944   1.727   1.110   4.104
  501SOL    HW2 2945   1.655   1.155   4.244
  502SOL     OW 2946   0.113   0.737   5.321
  502SOL    HW1 2947   0.201   0.724   5.366
  502SOL    HW2 2948   0.100   0.834   5.299
  503SOL     OW 2949   0.613   1.365   4.450
  503SOL    HW1 2950   0.564   1.278   4.459
  503SOL    HW2 2951   0.590   1.408   4.363
  504SOL     OW 2952   1.293   1.228   5.147
  504SOL    HW1 2953   1.330   1.155   5.089
  504SOL    HW2 2954   1.345   1.233   5.232
  505SOL     OW 2955   0.809   0.004   4.226
  505SOL    HW1 2956   0.849   0.095   4.217
  505SOL    HW2 2957   0.709   0.012   4.232
  506SOL     OW 2958   0.197   0.976   4.988
  506SOL    HW1 2959   0.286   0.931   4.974
  506SOL    HW2 2960   0.124   0.911   4.969
  507SOL     OW 2961   1.525   0.999   3.914
  507SOL    HW1 2962   1.462   0.923   3.927
  507SOL    HW2 2963   1.573   1.017   4.000
  508SOL     OW 2964   1.187   1.792   5.340
  508SOL    HW1 2965   1.211   1.852   5.264
  508SOL    HW2 2966   1.194   1.697   5.310
  509SOL     OW 2967   0.317   0.251   5.525
  509SOL    HW1 2968   0.388   0.322   5.531
  509SOL    HW2 2969   0.229   0.290   5.553
  510SOL     OW 2970   1.466   1.417   4.677
  510SOL    HW1 2971   1.407   1.423   4.757
  510SOL    HW2 2972   1.451   1.329   4.631
  511SOL     OW 2973   1.667   1.714   4.296
  511SOL    HW1 2974   1.626   1.691   4.208
  511SOL    HW2 2975   1.649   1.640   4.361
  512SOL     OW 2976   0.598   0.729   3.994
  512SOL    HW1 2977   0.622   0.798   3.926
  512SOL    HW2 2978   0.520   0.762   4.048
  513SOL     OW 2979   1.281   0.345   4.668
  513SOL    HW1 2980   1.195   0.295   4.655
  513SOL    HW2 2981   1.343   0.291   4.724
  514SOL     OW 2982   1.576   1.662   4.031
  514SOL    HW1 2983   1.665   1.708   4.034
  514SOL    HW2 2984   1.555   1.638   3.936
  515SOL     OW 2985   0.807   0.605   5.189
  515SOL    HW1 2986   0.760   0.602   5.278
  515SOL    HW2 2987   0.756   0.550   5.123
  516SOL     OW 2988   1.394   0.469   5.398
  516SOL    HW1 2989   1.374   0.512   5.486
  516SOL    HW2 2990   1.472   0.407   5.407
  517SOL     OW 2991   0.973   0.890   5.296
  517SOL    HW1 2992   1.019   0.806   5.267
  517SOL    HW2 2993   0.917   0.924   5.221
  518SOL     OW 2994   0.991   0.410   4.966
  518SOL    HW1 2995   0.914   0.444   5.020
  518SOL    HW2 2996   0.957   0.359   4.887
  519SOL     OW 2997   1.041   0.701   4.153
  519SOL    HW1 2998   1.067   0.697   4.249
  519SOL    HW2 2999   0.956   0.650   4.139
  520SOL     OW 3000   0.076   0.811   4.513
  520SOL    HW1 3001   0.175   0.799   4.522
  520SOL    HW2 3002   0.052   0.906   4.534
  521SOL     OW 3003   0.130   1.821   5.295
  521SOL    HW1 3004   0.120   1.806   5.394
  521SOL    HW2 3005   0.044   1.857   5.259
  522SOL     OW 3006   0.865   0.348   3.919
  522SOL    HW1 3007   0.924   0.411   3.870
  522SOL    HW2 3008   0.884   0.254   3.890
  523SOL     OW 3009   1.719   0.585   5.555
  523SOL    HW1 3010   1.693   0.674   5.519
  523SOL    HW2 3011   1.717   0.517   5.482
  524SOL     OW 3012   1.362   1.144   4.269
  524SOL    HW1 3013   1.445   1.115   4.221
  524SOL    HW2 3014   1.313   1.211   4.213
  525SOL     OW 3015   0.550   0.196   4.609
  525SOL    HW1 3016   0.545   0.191   4.709
  525SOL    HW2 3017   0.552   0.292   4.580
  526SOL     OW 3018   1.008   1.456   4.201
  526SOL    HW1 3019   0.962   1.528   4.149
  526SOL    HW2 3020   1.004   1.476   4.299
  527SOL     OW 3021   0.351   1.801   4.577
  527SOL    HW1 3022   0.401   1.715   4.583
  527SOL    HW2 3023   0.416   1.878   4.574
  528SOL     OW 3024   1.795   1.066   4.597
  528SOL    HW1 3025   1.733   1.051   4.521
  528SOL    HW2 3026   1.743   1.077   4.682
  529SOL     OW 3027   1.227   1.550   5.230
  529SOL    HW1 3028   1.233   1.473   5.294
  529SOL    HW2 3029   1.175   1.524   5.150
  530SOL     OW 3030   0.321   0.943   3.966
  530SOL    HW1 3031   0.403   0.982   3.924
  530SOL    HW2 3032   0.294   0.861   3.917
  531SOL     OW 3033   1.458   0.735   4.452
  531SOL    HW1 3034   1.453   0.670   4.527
  531SOL    HW2 3035   1.538   0.794   4.465
  532SOL     OW 3036   0.461   1.266   5.451
  532SOL    HW1 3037   0.411   1.267   5.365
  532SOL    HW2 3038   0.398   1.248   5.527
  533SOL     OW 3039   1.111   1.776   3.961
  533SOL    HW1 3040   1.051   1.714   4.011
  533SOL    HW2 3041   1.142   1.732   3.876
  534SOL     OW 3042   0.202   0.285   5.222
  534SOL    HW1 3043   0.122   0.345   5.209
  534SOL    HW2 3044   0.192   0.236   5.308
  535SOL     OW 3045   1.632   1.377   3.805
  535SOL    HW1 3046   1.600   1.471   3.795
  535SOL    HW2 3047   1.556   1.314   3.793
  536SOL     OW 3048   0.464   1.743   4.047
  536SOL    HW1 3049   0.497   1.782   4.133
  536SOL    HW2 3050   0.540   1.736   3.982
  537SOL     OW 3051   1.400   0.107   4.150
  537SOL    HW1 3052   1.376   0.070   4.060
  537SOL    HW2 3053   1.499   0.123   4.154
  538SOL     OW 3054   0.249   1.785   4.965
  538SOL    HW1 3055   0.306   1.720   5.015
  538SOL    HW2 3056   0.233   1.752   4.872
  539SOL     OW 3057   0.940   1.698   4.628
  539SOL    HW1 3058   1.020   1.641   4.649
  539SOL    HW2 3059   0.891   1.658   4.551
  540SOL     OW 3060   0.382   0.700   4.204
  540SOL    HW1 3061   0.427   0.610   4.201
  540SOL    HW2 3062   0.288   0.689   4.237
  541SOL     OW 3063   1.547   0.222   5.453
  541SOL    HW1 3064   1.542   0.259   5.545
  541SOL    HW2 3065   1.475   0.153   5.441
  542SOL     OW 3066   0.614   0.122   3.841
  542SOL    HW1 3067   0.712   0.100   3.848
  542SOL    HW2 3068   0.583   0.105   3.748
  543SOL     OW 3069   0.781   0.264   5.473
  543SOL    HW1 3070   0.848   0.203   5.516
  543SOL    HW2 3071   0.708   0.283   5.538
  544SOL     OW 3072   0.888   1.514   4.919
  544SOL    HW1 3073   0.865   1.489   4.825
  544SOL    HW2 3074   0.949   1.445   4.958
  545SOL     OW 3075   1.351   0.590   5.157
  545SOL    HW1 3076   1.379   0.547   5.242
  545SOL    HW2 3077   1.376   0.686   5.158
  546SOL     OW 3078   0.803   1.402   4.648
  546SOL    HW1 3079   0.893   1.416   4.606
  546SOL    HW2 3080   0.732   1.404   4.577
  547SOL     OW 3081   0.922   0.503   4.623
  547SOL    HW1 3082   0.897   0.494   4.527
  547SOL    HW2 3083   0.970   0.421   4.654
  548SOL     OW 3084   0.539   0.064   4.236
  548SOL    HW1 3085   0.458   0.065   4.294
  548SOL    HW2 3086   0.542   0.147   4.181
  549SOL     OW 3087   1.434   1.188   3.765
  549SOL    HW1 3088   1.466   1.112   3.822
  549SOL    HW2 3089   1.342   1.215   3.795
  550SOL     OW 3090   0.297   0.035   3.895
  550SOL    HW1 3091   0.346   0.119   3.874
  550SOL    HW2 3092   0.359  -0.030   3.940
  551SOL     OW 3093   0.935   0.236   4.204
  551SOL    HW1 3094   0.887   0.277   4.126
  551SOL    HW2 3095   1.034   0.234   4.185
  552SOL     OW 3096   1.076   0.683   5.188
  552SOL    HW1 3097   0.996   0.622   5.191
  552SOL    HW2 3098   1.157   0.630   5.164
  553SOL     OW 3099   1.227   1.570   4.517
  553SOL    HW1 3100   1.248   1.644   4.452
  553SOL    HW2 3101   1.295   1.570   4.590
  554SOL     OW 3102   0.459   1.152   4.465
  554SOL    HW1 3103   0.388   1.125   4.530
  554SOL    HW2 3104   0.433   1.124   4.372
  555SOL     OW 3105   1.271   1.797   4.315
  555SOL    HW1 3106   1.315   1.861   4.251
  555SOL    HW2 3107   1.221   1.849   4.385
  556SOL     OW 3108   1.032   0.549   3.740
  556SOL    HW1 3109   0.991   0.631   3.701
  556SOL    HW2 3110   1.096   0.575   3.813
  557SOL     OW 3111   0.078   0.556   5.110
  557SOL    HW1 3112   0.170   0.555   5.069
  557SOL    HW2 3113   0.072   0.630   5.177
  558SOL     OW 3114   0.561   0.222   4.871
  558SOL    HW1 3115   0.599   0.138   4.908
  558SOL    HW2 3116   0.473   0.241   4.915
  559SOL     OW 3117   0.866   0.454   4.366
  559SOL    HW1 3118   0.834   0.526   4.304
  559SOL    HW2 3119   0.890   0.373   4.313
  560SOL     OW 3120   1.017   0.039   4.477
  560SOL    HW1 3121   0.945   0.044   4.408
  560SOL    HW2 3122   0.993  -0.030   4.546
  561SOL     OW 3123   1.429   1.173   4.591
  561SOL    HW1 3124   1.374   1.089   4.584
  561SOL    HW2 3125   1.455   1.202   4.499
  562SOL     OW 3126   1.466   0.590   4.716
  562SOL    HW1 3127   1.436   0.495   4.723
  562SOL    HW2 3128   1.539   0.606   4.782
  563SOL     OW 3129   1.857   0.833   4.101
  563SOL    HW1 3130   1.899   0.769   4.165
  563SOL    HW2 3131   1.819   0.782   4.023
  564SOL     OW 3132   0.488   1.385   3.898
  564SOL    HW1 3133   0.401   1.370   3.945
  564SOL    HW2 3134   0.471   1.411   3.803
  565SOL     OW 3135   1.664   1.280   4.381
  565SOL    HW1 3136   1.763   1.288   4.395
  565SOL    HW2 3137   1.619   1.364   4.412
  566SOL     OW 3138   1.390   0.575   3.802
  566SOL    HW1 3139   1.336   0.554   3.883
  566SOL    HW2 3140   1.481   0.534   3.811
  567SOL     OW 3141   0.527   0.256   4.052
  567SOL    HW1 3142   0.554   0.197   3.977
  567SOL    HW2 3143   0.527   0.351   4.021
  568SOL     OW 3144   1.754   1.223   5.312
  568SOL    HW1 3145   1.845   1.184   5.299
  568SOL    HW2 3146   1.762   1.319   5.336
  569SOL     OW 3147   1.064   1.347   5.064
  569SOL    HW1 3148   0.984   1.324   5.119
  569SOL    HW2 3149   1.147   1.321   5.113
  570SOL     OW 3150   1.592   1.629   5.349
  570SOL    HW1 3151   1.619   1.663   5.259
  570SOL    HW2 3152   1.671   1.591   5.395
  571SOL     OW 3153   1.111   1.195   4.824
  571SOL    HW1 3154   1.071   1.239   4.905
  571SOL    HW2 3155   1.070   1.232   4.741
  572SOL     OW 3156   1.638   1.099   4.803
  572SOL    HW1 3157   1.643   1.180   4.862
  572SOL    HW2 3158   1.552   1.101   4.752
  573SOL     OW 3159   0.915   0.089   5.126
  573SOL    HW1 3160   0.940   0.069   5.031
  573SOL    HW2 3161   0.987   0.145   5.168
  574SOL     OW 3162   0.980   1.116   5.443
  574SOL    HW1 3163   0.881   1.122   5.453
  574SOL    HW2 3164   1.003   1.036   5.387
  575SOL     OW 3165   0.705   1.050   4.092
  575SOL    HW1 3166   0.691   1.057   4.191
  575SOL    HW2 3167   0.789   0.999   4.074
  576SOL     OW 3168   0.410   0.813   4.975
  576SOL    HW1 3169   0.496   0.825   5.025
  576SOL    HW2 3170   0.368   0.726   5.002
  577SOL     OW 3171   1.274   0.386   4.986
  577SOL    HW1 3172   1.295   0.460   5.050
  577SOL    HW2 3173   1.185   0.403   4.943
  578SOL     OW 3174   0.064   1.564   5.055
  578SOL    HW1 3175   0.018   1.646   5.021
  578SOL    HW2 3176   0.162   1.583   5.064
  579SOL     OW 3177   0.367   1.100   4.225
  579SOL    HW1 3178   0.360   1.183   4.169
  579SOL    HW2 3179   0.371   1.020   4.165
  580SOL     OW 3180   0.566   0.537   4.589
  580SOL    HW1 3181   0.578   0.603   4.515
  580SOL    HW2 3182   0.612   0.571   4.672
  581SOL     OW 3183   1.252   1.348   4.112
  581SOL    HW1 3184   1.302   1.425   4.152
  581SOL    HW2 3185   1.157   1.350   4.144
  582SOL     OW 3186   1.272   1.445   4.866
  582SOL    HW1 3187   1.319   1.458   4.953
  582SOL    HW2 3188   1.206   1.371   4.875
  583SOL     OW 3189   1.582   0.639   4.196
  583SOL    HW1 3190   1.551   0.700   4.269
  583SOL    HW2 3191   1.632   0.691   4.127
  584SOL     OW 3192   0.354   1.510   5.053
  584SOL    HW1 3193   0.333   1.466   4.966
  584SOL    HW2 3194   0.451   1.536   5.056
  585SOL     OW 3195   0.402   0.751   5.322
  585SOL    HW1 3196   0.470   0.806   5.275
  585SOL    HW2 3197   0.442   0.663   5.349
  586SOL     OW 3198   1.587   0.779   5.394
  586SOL    HW1 3199   1.495   0.817   5.389
  586SOL    HW2 3200   1.647   0.826   5.329
  587SOL     OW 3201   1.013   0.105   5.494
  587SOL    HW1 3202   1.019   0.190   5.442
  587SOL    HW2 3203   1.045   0.029   5.437
  588SOL     OW 3204   0.504   0.050   5.464
  588SOL    HW1 3205   0.462  -0.007   5.394
  588SOL    HW2 3206   0.438   0.119   5.496
  589SOL     OW 3207   0.573   0.870   4.753
  589SOL    HW1 3208   0.617   0.959   4.744
  589SOL    HW2 3209   0.510   0.870   4.830
  590SOL     OW 3210   1.360   0.862   4.769
  590SOL    HW1 3211   1.285   0.862   4.703
  590SOL    HW2 3212   1.397   0.770   4.778
  591SOL     OW 3213   1.209   0.525   3.999
  591SOL    HW1 3214   1.222   0.441   4.053
  591SOL    HW2 3215   1.180   0.599   4.059
  592SOL     OW 3216   0.307   0.213   4.955
  592SOL    HW1 3217   0.284   0.250   5.045
  592SOL    HW2 3218   0.277   0.118   4.949
  593SOL     OW 3219   0.037   1.310   5.006
  593SOL    HW1 3220   0.090   1.261   5.074
  593SOL    HW2 3221   0.059   1.408   5.011
  594SOL     OW 3222   0.732   0.634   4.788
  594SOL    HW1 3223   0.791   0.608   4.712
  594SOL    HW2 3224   0.704   0.730   4.777
  595SOL     OW 3225   1.728   0.935   5.578
  595SOL    HW1 3226   1.682   0.928   5.489
  595SOL    HW2 3227   1.666   0.979   5.644
  596SOL     OW 3228   0.307   0.063   4.342
  596SOL    HW1 3229   0.296   0.157   4.375
  596SOL    HW2 3230   0.302   0.000   4.419
  597SOL     OW 3231   1.622   0.367   4.098
  597SOL    HW1 3232   1.624   0.291   4.162
  597SOL    HW2 3233   1.574   0.444   4.138
  598SOL     OW 3234   1.023   0.766   4.690
  598SOL    HW1 3235   1.038   0.787   4.786
  598SOL    HW2 3236   0.993   0.671   4.681
  599SOL     OW 3237   0.980   1.573   5.424
  599SOL    HW1 3238   0.960   1.617   5.336
  599SOL    HW2 3239   1.019   1.482   5.408
  600SOL     OW 3240   1.859   1.518   5.329
  600SOL    HW1 3241   1.873   1.545   5.234
  600SOL    HW2 3242   1.942   1.540   5.382
  601SOL     OW 3243   0.350   0.898   5.528
  601SOL    HW1 3244   0.426   0.942   5.576
  601SOL    HW2 3245   0.385   0.851   5.446
  602SOL     OW 3246   1.540   0.274   3.849
  602SOL    HW1 3247   1.479   0.199   3.872
  602SOL    HW2 3248   1.562   0.326   3.932
  603SOL     OW 3249   1.303   0.838   3.766
  603SOL    HW1 3250   1.337   0.745   3.781
  603SOL    HW2 3251   1.321   0.865   3.671
  604SOL     OW 3252   1.068   1.333   4.573
  604SOL    HW1 3253   1.075   1.249   4.518
  604SOL    HW2 3254   1.130   1.402   4.537
  605SOL     OW 3255   0.319   0.810   4.673
  605SOL    HW1 3256   0.412   0.846   4.678
  605SOL    HW2 3257   0.313   0.725   4.725
  606SOL     OW 3258   0.339   0.509   4.730
  606SOL    HW1 3259   0.287   0.426   4.713
  606SOL    HW2 3260   0.416   0.514   4.666
  607SOL     OW 3261   1.138   0.380   5.402
  607SOL    HW1 3262   1.093   0.443   5.466
  607SOL    HW2 3263   1.231   0.411   5.385
  608SOL     OW 3264   1.160   0.207   5.201
  608SOL    HW1 3265   1.160   0.271   5.278
  608SOL    HW2 3266   1.188   0.255   5.118
  609SOL     OW 3267   0.008   1.326   3.924
  609SOL    HW1 3268  -0.085   1.347   3.893
  609SOL    HW2 3269   0.018   1.227   3.937
  610SOL     OW 3270   0.088   1.801   4.651
  610SOL    HW1 3271   0.046   1.715   4.624
  610SOL    HW2 3272   0.182   1.804   4.617
  611SOL     OW 3273   0.504   1.568   4.634
  611SOL    HW1 3274   0.570   1.642   4.643
  611SOL    HW2 3275   0.548   1.489   4.592
  612SOL     OW 3276   1.002   0.796   4.962
  612SOL    HW1 3277   1.043   0.764   5.048
  612SOL    HW2 3278   0.906   0.769   4.959
  613SOL     OW 3279   0.040   0.544   4.838
  613SOL    HW1 3280   0.125   0.511   4.797
  613SOL    HW2 3281   0.053   0.559   4.936
  614SOL     OW 3282   0.189   0.520   5.446
  614SOL    HW1 3283   0.248   0.480   5.376
  614SOL    HW2 3284   0.131   0.591   5.405
  615SOL     OW 3285   1.369   0.950   5.384
  615SOL    HW1 3286   1.408   1.039   5.404
  615SOL    HW2 3287   1.379   0.930   5.287
  616SOL     OW 3288   0.815   0.572   4.049
  616SOL    HW1 3289   0.822   0.483   4.003
  616SOL    HW2 3290   0.721   0.606   4.041
  617SOL     OW 3291   1.657   0.604   4.930
  617SOL    HW1 3292   1.619   0.535   4.992
  617SOL    HW2 3293   1.739   0.568   4.886
  618SOL     OW 3294   0.252   1.564   5.468
  618SOL    HW1 3295   0.222   1.621   5.544
  618SOL    HW2 3296   0.245   1.467   5.494
  619SOL     OW 3297   0.671   0.464   4.993
  619SOL    HW1 3298   0.637   0.375   4.963
  619SOL    HW2 3299   0.697   0.518   4.913
  620SOL     OW 3300   0.930   1.678   5.189
  620SOL    HW1 3301   0.906   1.660   5.094
  620SOL    HW2 3302   0.960   1.772   5.199
  621SOL     OW 3303   0.473   0.500   3.915
  621SOL    HW1 3304   0.534   0.580   3.919
  621SOL    HW2 3305   0.378   0.531   3.922
  622SOL     OW 3306   0.159   1.137   5.190
  622SOL    HW1 3307   0.181   1.076   5.266
  622SOL    HW2 3308   0.169   1.088   5.104
  623SOL     OW 3309   1.347   1.059   4.958
  623SOL    HW1 3310   1.371   0.996   4.884
  623SOL    HW2 3311   1.257   1.099   4.940
  624SOL     OW 3312   1.302   0.855   4.033
  624SOL    HW1 3313   1.216   0.824   4.075
  624SOL    HW2 3314   1.298   0.841   3.934
  625SOL     OW 3315   1.759   1.747   4.878
  625SOL    HW1 3316   1.820   1.777   4.805
  625SOL    HW2 3317   1.721   1.658   4.856
  626SOL     OW 3318   1.252   1.731   4.852
  626SOL    HW1 3319   1.336   1.736   4.798
  626SOL    HW2 3320   1.229   1.635   4.870
  627SOL     OW 3321   0.083   1.258   4.746
  627SOL    HW1 3322   0.078   1.257   4.846
  627SOL    HW2 3323   0.000   1.217   4.708
  628SOL     OW 3324   0.688   1.662   5.440
  628SOL    HW1 3325   0.632   1.743   5.449
  628SOL    HW2 3326   0.740   1.666   5.354
  629SOL     OW 3327   1.726   0.135   4.247
  629SOL    HW1 3328   1.799   0.118   4.180
  629SOL    HW2 3329   1.695   0.048   4.285
  630SOL     OW 3330   1.388   1.573   4.201
  630SOL    HW1 3331   1.455   1.585   4.127
  630SOL    HW2 3332   1.348   1.662   4.224
  631SOL     OW 3333   0.130   1.794   5.575
  631SOL    HW1 3334   0.089   1.720   5.628
  631SOL    HW2 3335   0.194   1.845   5.633
  632SOL     OW 3336   1.280   0.927   4.396
  632SOL    HW1 3337   1.340   0.846   4.398
  632SOL    HW2 3338   1.320   0.996   4.336
  633SOL     OW 3339   0.830   1.273   5.146
  633SOL    HW1 3340   0.825   1.306   5.241
  633SOL    HW2 3341   0.744   1.292   5.100
  634SOL     OW 3342   0.672   1.616   3.878
  634SOL    HW1 3343   0.681   1.626   3.779
  634SOL    HW2 3344   0.632   1.527   3.899
  635SOL     OW 3345   1.650   1.720   5.118
  635SOL    HW1 3346   1.703   1.730   5.034
  635SOL    HW2 3347   1.623   1.810   5.152
  636SOL     OW 3348   1.841   0.175   4.687
  636SOL    HW1 3349   1.880   0.090   4.651
  636SOL    HW2 3350   1.743   0.177   4.668
  637SOL     OW 3351   0.263   0.326   4.444
  637SOL    HW1 3352   0.184   0.377   4.410
  637SOL    HW2 3353   0.254   0.311   4.542
  638SOL     OW 3354   1.194   1.612   3.755
  638SOL    HW1 3355   1.200   1.519   3.792
  638SOL    HW2 3356   1.135   1.612   3.675
  639SOL     OW 3357   0.822   1.002   5.096
  639SOL    HW1 3358   0.862   1.001   5.004
  639SOL    HW2 3359   0.832   1.094   5.136
  640SOL     OW 3360   0.916   0.910   4.015
  640SOL    HW1 3361   0.979   0.948   3.947
  640SOL    HW2 3362   0.956   0.827   4.054
  641SOL     OW 3363   1.504   1.607   3.768
  641SOL    HW1 3364   1.412   1.644   3.775
  641SOL    HW2 3365   1.542   1.627   3.678
  642SOL     OW 3366   0.372   1.288   5.214
  642SOL    HW1 3367   0.359   1.381   5.180
  642SOL    HW2 3368   0.288   1.236   5.201
  643SOL     OW 3369   1.614   1.292   5.013
  643SOL    HW1 3370   1.674   1.295   5.093
  643SOL    HW2 3371   1.539   1.356   5.026
  644SOL     OW 3372   1.039   1.098   4.420
  644SOL    HW1 3373   0.969   1.051   4.474
  644SOL    HW2 3374   1.098   1.030   4.377
  645SOL     OW 3375   1.014   0.236   4.695
  645SOL    HW1 3376   1.006   0.200   4.602
  645SOL    HW2 3377   1.012   0.160   4.760
  646SOL     OW 3378   0.590   1.487   4.215
  646SOL    HW1 3379   0.632   1.429   4.145
  646SOL    HW2 3380   0.546   1.566   4.171
  647SOL     OW 3381   1.709   0.385   5.105
  647SOL    HW1 3382   1.782   0.454   5.109
  647SOL    HW2 3383   1.737   0.310   5.046
  648SOL     OW 3384   0.255   1.348   4.014
  648SOL    HW1 3385   0.159   1.349   3.987
  648SOL    HW2 3386   0.267   1.401   4.098
  649SOL     OW 3387   0.105   1.013   5.450
  649SOL    HW1 3388   0.028   0.980   5.504
  649SOL    HW2 3389   0.190   0.983   5.492
  650SOL     OW 3390   0.672   0.203   5.213
  650SOL    HW1 3391   0.762   0.187   5.173
  650SOL    HW2 3392   0.680   0.208   5.312
  651SOL     OW 3393   0.075   0.345   3.757
  651SOL    HW1 3394  -0.017   0.317   3.728
  651SOL    HW2 3395   0.106   0.422   3.701
  652SOL     OW 3396   1.440   0.856   5.122
  652SOL    HW1 3397   1.383   0.908   5.059
  652SOL    HW2 3398   1.536   0.868   5.098
  653SOL     OW 3399   0.072   0.166   4.042
  653SOL    HW1 3400   0.055   0.249   3.988
  653SOL    HW2 3401   0.162   0.129   4.020
  654SOL     OW 3402   1.183   1.335   3.843
  654SOL    HW1 3403   1.084   1.324   3.845
  654SOL    HW2 3404   1.217   1.350   3.936
  655SOL     OW 3405   0.613   0.842   5.155
  655SOL    HW1 3406   0.669   0.923   5.138
  655SOL    HW2 3407   0.672   0.762   5.158
  656SOL     OW 3408   1.493   1.767   4.683
  656SOL    HW1 3409   1.526   1.831   4.614
  656SOL    HW2 3410   1.559   1.761   4.758
  657SOL     OW 3411   0.716   0.565   5.432
  657SOL    HW1 3412   0.735   0.630   5.506
  657SOL    HW2 3413   0.776   0.485   5.441
  658SOL     OW 3414   1.450   1.220   5.357
  658SOL    HW1 3415   1.441   1.210   5.456
  658SOL    HW2 3416   1.546   1.213   5.331
  659SOL     OW 3417   0.390   1.741   5.284
  659SOL    HW1 3418   0.299   1.782   5.282
  659SOL    HW2 3419   0.383   1.647   5.316
  660SOL     OW 3420   1.674   0.883   4.978
  660SOL    HW1 3421   1.647   0.794   4.941
  660SOL    HW2 3422   1.675   0.951   4.905
  661SOL     OW 3423   1.225   0.325   4.173
  661SOL    HW1 3424   1.290   0.251   4.162
  661SOL    HW2 3425   1.245   0.375   4.257
  662SOL     OW 3426   0.594   0.745   4.376
  662SOL    HW1 3427   0.644   0.830   4.357
  662SOL    HW2 3428   0.506   0.747   4.328
  663SOL     OW 3429   1.777   0.342   5.366
  663SOL    HW1 3430   1.760   0.373   5.272
  663SOL    HW2 3431   1.693   0.305   5.404
  664SOL     OW 3432   1.730   0.934   5.241
  664SOL    HW1 3433   1.768   1.025   5.256
  664SOL    HW2 3434   1.722   0.917   5.142
  665SOL     OW 3435   0.859   1.374   3.740
  665SOL    HW1 3436   0.813   1.389   3.828
  665SOL    HW2 3437   0.903   1.459   3.710
  666SOL     OW 3438   0.661   1.790   4.677
  666SOL    HW1 3439   0.615   1.878   4.664
  666SOL    HW2 3440   0.760   1.802   4.670
  667SOL     OW 3441   0.859   0.956   4.585
  667SOL    HW1 3442   0.913   0.887   4.633
  667SOL    HW2 3443   0.827   1.025   4.651
  668SOL     OW 3444   1.083   0.984   3.811
  668SOL    HW1 3445   1.060   1.037   3.729
  668SOL    HW2 3446   1.164   0.928   3.792
  669SOL     OW 3447   1.861   1.569   4.575
  669SOL    HW1 3448   1.790   1.557   4.505
  669SOL    HW2 3449   1.862   1.490   4.635
  670SOL     OW 3450   0.221   1.314   5.568
  670SOL    HW1 3451   0.156   1.241   5.547
  670SOL    HW2 3452   0.225   1.328   5.666
  671SOL     OW 3453   0.079   1.240   4.377
  671SOL    HW1 3454   0.078   1.193   4.465
  671SOL    HW2 3455   0.161   1.212   4.326
  672SOL     OW 3456   0.672   1.391   5.348
  672SOL    HW1 3457   0.594   1.341   5.386
  672SOL    HW2 3458   0.669   1.486   5.379
  673SOL     OW 3459   1.824   0.192   4.951
  673SOL    HW1 3460   1.820   0.102   4.995
  673SOL    HW2 3461   1.827   0.181   4.852
  674SOL     OW 3462   0.428   0.424   4.244
  674SOL    HW1 3463   0.458   0.352   4.182
  674SOL    HW2 3464   0.389   0.384   4.327
  675SOL     OW 3465   1.705   1.487   4.828
  675SOL    HW1 3466   1.612   1.462   4.801
  675SOL    HW2 3467   1.731   1.437   4.910
  676SOL     OW 3468   0.317   0.547   5.004
  676SOL    HW1 3469   0.355   0.488   5.076
  676SOL    HW2 3470   0.357   0.521   4.916
  677SOL     OW 3471   0.812   1.586   4.411
  677SOL    HW1 3472   0.844   1.596   4.317
  677SOL    HW2 3473   0.733   1.524   4.413
  678SOL     OW 3474   1.424   0.214   4.836
  678SOL    HW1 3475   1.476   0.149   4.891
  678SOL    HW2 3476   1.375   0.277   4.897
  679SOL     OW 3477   1.001   0.034   4.878
  679SOL    HW1 3478   0.938  -0.038   4.847
  679SOL    HW2 3479   1.094  -0.002   4.878
  680SOL     OW 3480   0.770   1.330   4.025
  680SOL    HW1 3481   0.724   1.243   4.042
  680SOL    HW2 3482   0.861   1.327   4.066
  681SOL     OW 3483   0.618   1.567   5.008
  681SOL    HW1 3484   0.613   1.649   5.065
  681SOL    HW2 3485   0.707   1.564   4.963
  682SOL     OW 3486   1.352   0.052   3.892
  682SOL    HW1 3487   1.387   0.011   3.808
  682SOL    HW2 3488   1.262   0.014   3.912
  683SOL     OW 3489   1.300   0.453   4.415
  683SOL    HW1 3490   1.241   0.533   4.419
  683SOL    HW2 3491   1.315   0.418   4.508
  684SOL     OW 3492   1.593   0.221   4.606
  684SOL    HW1 3493   1.509   0.220   4.660
  684SOL    HW2 3494   1.595   0.304   4.550
  685SOL     OW 3495   0.039   1.077   4.024
  685SOL    HW1 3496   0.138   1.066   4.015
  685SOL    HW2 3497  -0.001   0.991   4.056
  686SOL     OW 3498   0.875   1.646   4.061
  686SOL    HW1 3499   0.798   1.611   4.007
  686SOL    HW2 3500   0.843   1.717   4.123
  687SOL     OW 3501   0.230   0.628   5.699
  687SOL    HW1 3502   0.137   0.626   5.736
  687SOL    HW2 3503   0.231   0.589   5.607
  688SOL     OW 3504   0.225   0.275   6.582
  688SOL    HW1 3505   0.260   0.258   6.674
  688SOL    HW2 3506   0.137   0.230   6.570
  689SOL     OW 3507   0.019   0.368   6.233
  689SOL    HW1 3508  -0.063   0.411   6.272
  689SOL    HW2 3509  -0.009   0.295   6.170
  690SOL     OW 3510   0.569   1.275   6.751
  690SOL    HW1 3511   0.476   1.268   6.714
  690SOL    HW2 3512   0.580   1.364   6.795
  691SOL     OW 3513   1.555   1.511   6.289
  691SOL    HW1 3514   1.498   1.495   6.370
  691SOL    HW2 3515   1.496   1.521   6.209
  692SOL     OW 3516   1.135   0.703   6.303
  692SOL    HW1 3517   1.192   0.781   6.278
  692SOL    HW2 3518   1.075   0.729   6.379
  693SOL     OW 3519   1.755   0.607   5.817
  693SOL    HW1 3520   1.743   0.594   5.718
  693SOL    HW2 3521   1.725   0.526   5.866
  694SOL     OW 3522   0.768   1.144   6.609
  694SOL    HW1 3523   0.690   1.161   6.669
  694SOL    HW2 3524   0.802   1.231   6.573
  695SOL     OW 3525   0.850   0.798   7.409
  695SOL    HW1 3526   0.846   0.874   7.474
  695SOL    HW2 3527   0.872   0.834   7.318
  696SOL     OW 3528   0.685   1.012   6.251
  696SOL    HW1 3529   0.754   0.996   6.321
  696SOL    HW2 3530   0.612   1.069   6.289
  697SOL     OW 3531   0.686   1.161   7.389
  697SOL    HW1 3532   0.746   1.240   7.403
  697SOL    HW2 3533   0.600   1.192   7.348
  698SOL     OW 3534   0.335   1.435   6.647
  698SOL    HW1 3535   0.257   1.404   6.594
  698SOL    HW2 3536   0.393   1.493   6.590
  699SOL     OW 3537   1.460   1.505   6.925
  699SOL    HW1 3538   1.484   1.599   6.951
  699SOL    HW2 3539   1.444   1.451   7.007
  700SOL     OW 3540   0.438   0.392   7.085
  700SOL    HW1 3541   0.520   0.336   7.094
  700SOL    HW2 3542   0.357   0.334   7.089
  701SOL     OW 3543   1.603   0.447   6.323
  701SOL    HW1 3544   1.529   0.493   6.273
  701SOL    HW2 3545   1.654   0.515   6.376
  702SOL     OW 3546   0.231   1.713   6.069
  702SOL    HW1 3547   0.265   1.790   6.123
  702SOL    HW2 3548   0.275   1.713   5.979
  703SOL     OW 3549   1.127   1.341   7.276
  703SOL    HW1 3550   1.174   1.341   7.364
  703SOL    HW2 3551   1.079   1.254   7.265
  704SOL     OW 3552   0.230   1.434   6.124
  704SOL    HW1 3553   0.204   1.530   6.124
  704SOL    HW2 3554   0.159   1.380   6.169
  705SOL     OW 3555   0.240   1.091   6.472
  705SOL    HW1 3556   0.254   1.007   6.524
  705SOL    HW2 3557   0.185   1.155   6.527
  706SOL     OW 3558   0.620   1.786   7.025
  706SOL    HW1 3559   0.528   1.769   7.060
  706SOL    HW2 3560   0.648   1.878   7.051
  707SOL     OW 3561   0.606   0.964   5.709
  707SOL    HW1 3562   0.613   1.048   5.655
  707SOL    HW2 3563   0.652   0.977   5.797
  708SOL     OW 3564   1.594   0.114   7.066
  708SOL    HW1 3565   1.576   0.181   6.994
  708SOL    HW2 3566   1.591   0.160   7.155
  709SOL     OW 3567   0.122   0.643   6.149
  709SOL    HW1 3568   0.077   0.555   6.166
  709SOL    HW2 3569   0.121   0.697   6.233
  710SOL     OW 3570   1.842   1.767   5.945
  710SOL    HW1 3571   1.896   1.738   6.025
  710SOL    HW2 3572   1.872   1.857   5.916
  711SOL     OW 3573   0.027   1.596   5.703
  711SOL    HW1 3574   0.008   1.500   5.724
  711SOL    HW2 3575  -0.006   1.654   5.778
  712SOL     OW 3576   1.689   0.922   6.198
  712SOL    HW1 3577   1.784   0.893   6.206
  712SOL    HW2 3578   1.681   0.987   6.123
  713SOL     OW 3579   1.641   1.108   6.018
  713SOL    HW1 3580   1.727   1.110   5.966
  713SOL    HW2 3581   1.655   1.155   6.106
  714SOL     OW 3582   0.113   0.737   7.183
  714SOL    HW1 3583   0.201   0.724   7.228
  714SOL    HW2 3584   0.100   0.834   7.161
  715SOL     OW 3585   0.613   1.365   6.312
  715SOL    HW1 3586   0.564   1.278   6.321
  715SOL    HW2 3587   0.590   1.408   6.225
  716SOL     OW 3588   1.293   1.228   7.009
  716SOL    HW1 3589   1.330   1.155   6.951
  716SOL    HW2 3590   1.345   1.233   7.094
  717SOL     OW 3591   0.809   0.004   6.088
  717SOL    HW1 3592   0.849   0.095   6.079
  717SOL    HW2 3593   0.709   0.012   6.094
  718SOL     OW 3594   0.197   0.976   6.850
  718SOL    HW1 3595   0.286   0.931   6.836
  718SOL    HW2 3596   0.124   0.911   6.831
  719SOL     OW 3597   1.525   0.999   5.776
  719SOL    HW1 3598   1.462   0.923   5.789
  719SOL    HW2 3599   1.573   1.017   5.862
  720SOL     OW 3600   1.187   1.792   7.202
  720SOL    HW1 3601   1.211   1.852   7.126
  720SOL    HW2 3602   1.194   1.697   7.172
  721SOL     OW 3603   0.317   0.251   7.387
  721SOL    HW1 3604   0.388   0.322   7.393
  721SOL    HW2 3605   0.229   0.290   7.415
  722SOL     OW 3606   1.466   1.417   6.539
  722SOL    HW1 3607   1.407   1.423   6.619
  722SOL    HW2 3608   1.451   1.329   6.493
  723SOL     OW 3609   1.667   1.714   6.158
  723SOL    HW1 3610   1.626   1.691   6.070
  723SOL    HW2 3611   1.649   1.640   6.223
  724SOL     OW 3612   0.598   0.729   5.856
  724SOL    HW1 3613   0.622   0.798   5.788
  724SOL    HW2 3614   0.520   0.762   5.910
  725SOL     OW 3615   1.281   0.345   6.530
  725SOL    HW1 3616   1.195   0.295   6.517
  725SOL    HW2 3617   1.343   0.291   6.586
  726SOL     OW 3618   1.576   1.662   5.893
  726SOL    HW1 3619   1.665   1.708   5.896
  726SOL    HW2 3620   1.555   1.638   5.798
  727SOL     OW 3621   0.807   0.605   7.051
  727SOL    HW1 3622   0.760   0.602   7.140
  727SOL    HW2 3623   0.756   0.550   6.985
  728SOL     OW 3624   1.394   0.469   7.260
  728SOL    HW1 3625   1.374   0.512   7.348
  728SOL    HW2 3626   1.472   0.407   7.269
  729SOL     OW 3627   0.973   0.890   7.158
  729SOL    HW1 3628   1.019   0.806   7.129
  729SOL    HW2 3629   0.917   0.924   7.083
  730SOL     OW 3630   0.991   0.410   6.828
  730SOL    HW1 3631   0.914   0.444   6.882
  730SOL    HW2 3632   0.957   0.359   6.749
  731SOL     OW 3633   1.041   0.701   6.015
  731SOL    HW1 3634   1.067   0.697   6.111
  731SOL    HW2 3635   0.956   0.650   6.001
  732SOL     OW 3636   0.076   0.811   6.375
  732SOL    HW1 3637   0.175   0.799   6.384
  732SOL    HW2 3638   0.052   0.906   6.396
  733SOL     OW 3639   0.130   1.821   7.157
  733SOL    HW1 3640   0.120   1.806   7.256
  733SOL    HW2 3641   0.044   1.857   7.121
  734SOL     OW 3642   0.865   0.348   5.781
  734SOL    HW1 3643   0.924   0.411   5.732
  734SOL    HW2 3644   0.884   0.254   5.752
  735SOL     OW 3645   1.719   0.585   7.417
  735SOL    HW1 3646   1.693   0.674   7.381
  735SOL    HW2 3647   1.717   0.517   7.344
  736SOL     OW 3648   1.362   1.144   6.131
  736SOL    HW1 3649   1.445   1.115   6.083
  736SOL    HW2 3650   1.313   1.211   6.075
  737SOL     OW 3651   0.550   0.196   6.471
  737SOL    HW1 3652   0.545   0.191   6.571
  737SOL    HW2 3653   0.552   0.292   6.442
  738SOL     OW 3654   1.008   1.456   6.063
  738SOL    HW1 3655   0.962   1.528   6.011
  738SOL    HW2 3656   1.004   1.476   6.161
  739SOL     OW 3657   0.351   1.801   6.439
  739SOL    HW1 3658   0.401   1.715   6.445
  739SOL    HW2 3659   0.416   1.878   6.436
  740SOL     OW 3660   1.795   1.066   6.459
  740SOL    HW1 3661   1.733   1.051   6.383
  740SOL    HW2 3662   1.743   1.077   6.544
  741SOL     OW 3663   1.227   1.550   7.092
  741SOL    HW1 3664   1.233   1.473   7.156
  741SOL    HW2 3665   1.175   1.524   7.012
  742SOL     OW 3666   0.321   0.943   5.828
  742SOL    HW1 3667   0.403   0.982   5.786
  742SOL    HW2 3668   0.294   0.861   5.779
  743SOL     OW 3669   1.458   0.735   6.314
  743SOL    HW1 3670   1.453   0.670   6.389
  743SOL    HW2 3671   1.538   0.794   6.327
  744SOL     OW 3672   0.461   1.266   7.313
  744SOL    HW1 3673   0.411   1.267   7.227
  744SOL    HW2 3674   0.398   1.248   7.389
  745SOL     OW 3675   1.111   1.776   5.823
  745SOL    HW1 3676   1.051   1.714   5.873
  745SOL    HW2 3677   1.142   1.732   5.738
  746SOL     OW 3678   0.202   0.285   7.084
  746SOL    HW1 3679   0.122   0.345   7.071
  746SOL    HW2 3680   0.192   0.236   7.170
  747SOL     OW 3681   1.632   1.377   5.667
  747SOL    HW1 3682   1.600   1.471   5.657
  747SOL    HW2 3683   1.556   1.314   5.655
  748SOL     OW 3684   0.464   1.743   5.909
  748SOL    HW1 3685   0.497   1.782   5.995
  748SOL    HW2 3686   0.540   1.736   5.844
  749SOL     OW 3687   1.400   0.107   6.012
  749SOL    HW1 3688   1.376   0.070   5.922
  749SOL    HW2 3689   1.499   0.123   6.016
  750SOL     OW 3690   0.249   1.785   6.827
  750SOL    HW1 3691   0.306   1.720   6.877
  750SOL    HW2 3692   0.233   1.752   6.734
  751SOL     OW 3693   0.940   1.698   6.490
  751SOL    HW1 3694   1.020   1.641   6.511
  751SOL    HW2 3695   0.891   1.658   6.413
  752SOL     OW 3696   0.382   0.700   6.066
  752SOL    HW1 3697   0.427   0.610   6.063
  752SOL    HW2 3698   0.288   0.689   6.099
  753SOL     OW 3699   1.547   0.222   7.315
  753SOL    HW1 3700   1.542   0.259   7.407
  753SOL    HW2 3701   1.475   0.153   7.303
  754SOL     OW 3702   0.614   0.122   5.703
  754SOL    HW1 3703   0.712   0.100   5.710
  754SOL    HW2 3704   0.583   0.105   5.610
  755SOL     OW 3705   0.781   0.264   7.335
  755SOL    HW1 3706   0.848   0.203   7.378
  755SOL    HW2 3707   0.708   0.283   7.400
  756SOL     OW 3708   0.888   1.514   6.781
  756SOL    HW1 3709   0.865   1.489   6.687
  756SOL    HW2 3710   0.949   1.445   6.820
  757SOL     OW 3711   1.351   0.590   7.019
  757SOL    HW1 3712   1.379   0.547   7.104
  757SOL    HW2 3713   1.376   0.686   7.020
  758SOL     OW 3714   0.803   1.402   6.510
  758SOL    HW1 3715   0.893   1.416   6.468
  758SOL    HW2 3716   0.732   1.404   6.439
  759SOL     OW 3717   0.922   0.503   6.485
  759SOL    HW1 3718   0.897   0.494   6.389
  759SOL    HW2 3719   0.970   0.421   6.516
  760SOL     OW 3720   0.539   0.064   6.098
  760SOL    HW1 3721   0.458   0.065   6.156
  760SOL    HW2 3722   0.542   0.147   6.043
  761SOL     OW 3723   1.434   1.188   5.627
  761SOL    HW1 3724   1.466   1.112   5.684
  761SOL    HW2 3725   1.342   1.215   5.657
  762SOL     OW 3726   0.297   0.035   5.757
  762SOL    HW1 3727   0.346   0.119   5.736
  762SOL    HW2 3728   0.359  -0.030   5.802
  763SOL     OW 3729   0.935   0.236   6.066
  763SOL    HW1 3730   0.887   0.277   5.988
  763SOL    HW2 3731   1.034   0.234   6.047
  764SOL     OW 3732   1.076   0.683   7.050
  764SOL    HW1 3733   0.996   0.622   7.053
  764SOL    HW2 3734   1.157   0.630   7.026
  765SOL     OW 3735   1.227   1.570   6.379
  765SOL    HW1 3736   1.248   1.644   6.314
  765SOL    HW2 3737   1.295   1.570   6.452
  766SOL     OW 3738   0.459   1.152   6.327
  766SOL    HW1 3739   0.388   1.125   6.392
  766SOL    HW2 3740   0.433   1.124   6.234
  767SOL     OW 3741   1.271   1.797   6.177
  767SOL    HW1 3742   1.315   1.861   6.113
  767SOL    HW2 3743   1.221   1.849   6.247
  768SOL     OW 3744   1.032   0.549   5.602
  768SOL    HW1 3745   0.991   0.631   5.563
  768SOL    HW2 3746   1.096   0.575   5.675
  769SOL     OW 3747   0.078   0.556   6.972
  769SOL    HW1 3748   0.170   0.555   6.931
  769SOL    HW2 3749   0.072   0.630   7.039
  770SOL     OW 3750   0.561   0.222   6.733
  770SOL    HW1 3751   0.599   0.138   6.770
  770SOL    HW2 3752   0.473   0.241   6.777
  771SOL     OW 3753   0.866   0.454   6.228
  771SOL    HW1 3754   0.834   0.526   6.166
  771SOL    HW2 3755   0.890   0.373   6.175
  772SOL     OW 3756   1.017   0.039   6.339
  772SOL    HW1 3757   0.945   0.044   6.270
  772SOL    HW2 3758   0.993  -0.030   6.408
  773SOL     OW 3759   1.429   1.173   6.453
  773SOL    HW1 3760   1.374   1.089   6.446
  773SOL    HW2 3761   1.455   1.202   6.361
  774SOL     OW 3762   1.466   0.590   6.578
  774SOL    HW1 3763   1.436   0.495   6.585
  774SOL    HW2 3764   1.539   0.606   6.644
  775SOL     OW 3765   1.857   0.833   5.963
  775SOL    HW1 3766   1.899   0.769   6.027
  775SOL    HW2 3767   1.819   0.782   5.885
  776SOL     OW 3768   0.488   1.385   5.760
  776SOL    HW1 3769   0.401   1.370   5.807
  776SOL    HW2 3770   0.471   1.411   5.665
  777SOL     OW 3771   1.664   1.280   6.243
  777SOL    HW1 3772   1.763   1.288   6.257
  777SOL    HW2 3773   1.619   1.364   6.274
  778SOL     OW 3774   1.390   0.575   5.664
  778SOL    HW1 3775   1.336   0.554   5.745
  778SOL    HW2 3776   1.481   0.534   5.673
  779SOL     OW 3777   0.527   0.256   5.914
  779SOL    HW1 3778   0.554   0.197   5.839
  779SOL    HW2 3779   0.527   0.351   5.883
  780SOL     OW 3780   1.754   1.223   7.174
  780SOL    HW1 3781   1.845   1.184   7.161
  780SOL    HW2 3782   1.762   1.319   7.198
  781SOL     OW 3783   1.064   1.347   6.926
  781SOL    HW1 3784   0.984   1.324   6.981
  781SOL    HW2 3785   1.147   1.321   6.975
  782SOL     OW 3786   1.592   1.629   7.211
  782SOL    HW1 3787   1.619   1.663   7.121
  782SOL    HW2 3788   1.671   1.591   7.257
  783SOL     OW 3789   1.111   1.195   6.686
  783SOL    HW1 3790   1.071   1.239   6.767
  783SOL    HW2 3791   1.070   1.232   6.603
  784SOL     OW 3792   1.638   1.099   6.665
  784SOL    HW1 3793   1.643   1.180   6.724
  784SOL    HW2 3794   1.552   1.101   6.614
  785SOL     OW 3795   0.915   0.089   6.988
  785SOL    HW1 3796   0.940   0.069   6.893
  785SOL    HW2 3797   0.987   0.145   7.030
  786SOL     OW 3798   0.980   1.116   7.305
  786SOL    HW1 3799   0.881   1.122   7.315
  786SOL    HW2 3800   1.003   1.036   7.249
  787SOL     OW 3801   0.705   1.050   5.954
  787SOL    HW1 3802   0.691   1.057   6.053
  787SOL    HW2 3803   0.789   0.999   5.936
  788SOL     OW 3804   0.410   0.813   6.837
  788SOL    HW1 3805   0.496   0.825   6.887
  788SOL    HW2 3806   0.368   0.726   6.864
  789SOL     OW 3807   1.274   0.386   6.848
  789SOL    HW1 3808   1.295   0.460   6.912
  789SOL    HW2 3809   1.185   0.403   6.805
  790SOL     OW 3810   0.064   1.564   6.917
  790SOL    HW1 3811   0.018   1.646   6.883
  790SOL    HW2 3812   0.162   1.583   6.926
  791SOL     OW 3813   0.367   1.100   6.087
  791SOL    HW1 3814   0.360   1.183   6.031
  791SOL    HW2 3815   0.371   1.020   6.027
  792SOL     OW 3816   0.566   0.537   6.451
  792SOL    HW1 3817   0.578   0.603   6.377
  792SOL    HW2 3818   0.612   0.571   6.534
  793SOL     OW 3819   1.252   1.348   5.974
  793SOL    HW1 3820   1.302   1.425   6.014
  793SOL    HW2 3821   1.157   1.350   6.006
  794SOL     OW 3822   1.272   1.445   6.728
  794SOL    HW1 3823   1.319   1.458   6.815
  794SOL    HW2 3824   1.206   1.371   6.737
  795SOL     OW 3825   1.582   0.639   6.058
  795SOL    HW1 3826   1.551   0.700   6.131
  795SOL    HW2 3827   1.632   0.691   5.989
  796SOL     OW 3828   0.354   1.510   6.915
  796SOL    HW1 3829   0.333   1.466   6.828
  796SOL    HW2 3830   0.451   1.536   6.918
  797SOL     OW 3831   0.402   0.751   7.184
  797SOL    HW1 3832   0.470   0.806   7.137
  797SOL    HW2 3833   0.442   0.663   7.211
  798SOL     OW 3834   1.587   0.779   7.256
  798SOL    HW1 3835   1.495   0.817   7.251
  798SOL    HW2 3836   1.647   0.826   7.191
  799SOL     OW 3837   1.013   0.105   7.356
  799SOL    HW1 3838   1.019   0.190   7.304
  799SOL    HW2 3839   1.045   0.029   7.299
  800SOL     OW 3840   0.504   0.050   7.326
  800SOL    HW1 3841   0.462  -0.007   7.256
  800SOL    HW2 3842   0.438   0.119   7.358
  801SOL     OW 3843   0.573   0.870   6.615
  801SOL    HW1 3844   0.617   0.959   6.606
  801SOL    HW2 3845   0.510   0.870   6.692
  802SOL     OW 3846   1.360   0.862   6.631
  802SOL    HW1 3847   1.285   0.862   6.565
  802SOL    HW2 3848   1.397   0.770   6.640
  803SOL     OW 3849   1.209   0.525   5.861
  803SOL    HW1 3850   1.222   0.441   5.915
  803SOL    HW2 3851   1.180   0.599   5.921
  804SOL     OW 3852   0.307   0.213   6.817
  804SOL    HW1 3853   0.284   0.250   6.907
  804SOL    HW2 3854   0.277   0.118   6.811
  805SOL     OW 3855   0.037   1.310   6.868
  805SOL    HW1 3856   0.090   1.261   6.936
  805SOL    HW2 3857   0.059   1.408   6.873
  806SOL     OW 3858   0.732   0.634   6.650
  806SOL    HW1 3859   0.791   0.608   6.574
  806SOL    HW2 3860   0.704   0.730   6.639
  807SOL     OW 3861   1.728   0.935   7.440
  807SOL    HW1 3862   1.682   0.928   7.351
  807SOL    HW2 3863   1.666   0.979   7.506
  808SOL     OW 3864   0.307   0.063   6.204
  808SOL    HW1 3865   0.296   0.157   6.237
  808SOL    HW2 3866   0.302   0.000   6.281
  809SOL     OW 3867   1.622   0.367   5.960
  809SOL    HW1 3868   1.624   0.291   6.024
  809SOL    HW2 3869   1.574   0.444   6.000
  810SOL     OW 3870   1.023   0.766   6.552
  810SOL    HW1 3871   1.038   0.787   6.648
  810SOL    HW2 3872   0.993   0.671   6.543
  811SOL     OW 3873   0.980   1.573   7.286
  811SOL    HW1 3874   0.960   1.617   7.198
  811SOL    HW2 3875   1.019   1.482   7.270
  812SOL     OW 3876   1.859   1.518   7.191
  812SOL    HW1 3877   1.873   1.545   7.096
  812SOL    HW2 3878   1.942   1.540   7.244
  813SOL     OW 3879   0.350   0.898   7.390
  813SOL    HW1 3880   0.426   0.942   7.438
  813SOL    HW2 3881   0.385   0.851   7.308
  814SOL     OW 3882   1.540   0.274   5.711
  814SOL    HW1 3883   1.479   0.199   5.734
  814SOL    HW2 3884   1.562   0.326   5.794
  815SOL     OW 3885   1.303   0.838   5.628
  815SOL    HW1 3886   1.337   0.745   5.643
  815SOL    HW2 3887   1.321   0.865   5.533
  816SOL     OW 3888   1.068   1.333   6.435
  816SOL    HW1 3889   1.075   1.249   6.380
  816SOL    HW2 3890   1.130   1.402   6.399
  817SOL     OW 3891   0.319   0.810   6.535
  817SOL    HW1 3892   0.412   0.846   6.540
  817SOL    HW2 3893   0.313   0.725   6.587
  818SOL     OW 3894   0.339   0.509   6.592
  818SOL    HW1 3895   0.287   0.426   6.575
  818SOL    HW2 3896   0.416   0.514   6.528
  819SOL     OW 3897   1.138   0.380   7.264
  819SOL    HW1 3898   1.093   0.443   7.328
  819SOL    HW2 3899   1.231   0.411   7.247
  820SOL     OW 3900   1.160   0.207   7.063
  820SOL    HW1 3901   1.160   0.271   7.140
  820SOL    HW2 3902   1.188   0.255   6.980
  821SOL     OW 3903   0.008   1.326   5.786
  821SOL    HW1 3904  -0.085   1.347   5.755
  821SOL    HW2 3905   0.018   1.227   5.799
  822SOL     OW 3906   0.088   1.801   6.513
  822SOL    HW1 3907   0.046   1.715   6.486
  822SOL    HW2 3908   0.182   1.804   6.479
  823SOL     OW 3909   0.504   1.568   6.496
  823SOL    HW1 3910   0.570   1.642   6.505
  823SOL    HW2 3911   0.548   1.489   6.454
  824SOL     OW 3912   1.002   0.796   6.824
  824SOL    HW1 3913   1.043   0.764   6.910
  824SOL    HW2 3914   0.906   0.769   6.821
  825SOL     OW 3915   0.040   0.544   6.700
  825SOL    HW1 3916   0.125   0.511   6.659
  825SOL    HW2 3917   0.053   0.559   6.798
  826SOL     OW 3918   0.189   0.520   7.308
  826SOL    HW1 3919   0.248   0.480   7.238
  826SOL    HW2 3920   0.131   0.591   7.267
  827SOL     OW 3921   1.369   0.950   7.246
  827SOL    HW1 3922   1.408   1.039   7.266
  827SOL    HW2 3923   1.379   0.930   7.149
  828SOL     OW 3924   0.815   0.572   5.911
  828SOL    HW1 3925   0.822   0.483   5.865
  828SOL    HW2 3926   0.721   0.606   5.903
  829SOL     OW 3927   1.657   0.604   6.792
  829SOL    HW1 3928   1.619   0.535   6.854
  829SOL    HW2 3929   1.739   0.568   6.748
  830SOL     OW 3930   0.252   1.564   7.330
  830SOL    HW1 3931   0.222   1.621   7.406
  830SOL    HW2 3932   0.245   1.467   7.356
  831SOL     OW 3933   0.671   0.464   6.855
  831SOL    HW1 3934   0.637   0.375   6.825
  831SOL    HW2 3935   0.697   0.518   6.775
  832SOL     OW 3936   0.930   1.678   7.051
  832SOL    HW1 3937   0.906   1.660   6.956
  832SOL    HW2 3938   0.960   1.772   7.061
  833SOL     OW 3939   0.473   0.500   5.777
  833SOL    HW1 3940   0.534   0.580   5.781
  833SOL    HW2 3941   0.378   0.531   5.784
  834SOL     OW 3942   0.159   1.137   7.052
  834SOL    HW1 3943   0.181   1.076   7.128
  834SOL    HW2 3944   0.169   1.088   6.966
  835SOL     OW 3945   1.347   1.059   6.820
  835SOL    HW1 3946   1.371   0.996   6.746
  835SOL    HW2 3947   1.257   1.099   6.802
  836SOL     OW 3948   1.302   0.855   5.895
  836SOL    HW1 3949   1.216   0.824   5.937
  836SOL    HW2 3950   1.298   0.841   5.796
  837SOL     OW 3951   1.759   1.747   6.740
  837SOL    HW1 3952   1.820   1.777   6.667
  837SOL    HW2 3953   1.721   1.658   6.718
  838SOL     OW 3954   1.252   1.731   6.714
  838SOL    HW1 3955   1.336   1.736   6.660
  838SOL    HW2 3956   1.229   1.635   6.732
  839SOL     OW 3957   0.083   1.258   6.608
  839SOL    HW1 3958   0.078   1.257   6.708
  839SOL    HW2 3959   0.000   1.217   6.570
  840SOL     OW 3960   0.688   1.662   7.302
  840SOL    HW1 3961   0.632   1.743   7.311
  840SOL    HW2 3962   0.740   1.666   7.216
  841SOL     OW 3963   1.726   0.135   6.109
  841SOL    HW1 3964   1.799   0.118   6.042
  841SOL    HW2 3965   1.695   0.048   6.147
  842SOL     OW 3966   1.388   1.573   6.063
  842SOL    HW1 3967   1.455   1.585   5.989
  842SOL    HW2 3968   1.348   1.662   6.086
  843SOL     OW 3969   0.130   1.794   7.437
  843SOL    HW1 3970   0.089   1.720   7.490
  843SOL    HW2 3971   0.194   1.845   7.495
  844SOL     OW 3972   1.280   0.927   6.258
  844SOL    HW1 3973   1.340   0.846   6.260
  844SOL    HW2 3974   1.320   0.996   6.198
  845SOL     OW 3975   0.830   1.273   7.008
  845SOL    HW1 3976   0.825   1.306   7.103
  845SOL    HW2 3977   0.744   1.292   6.962
  846SOL     OW 3978   0.672   1.616   5.740
  846SOL    HW1 3979   0.681   1.626   5.641
  846SOL    HW2 3980   0.632   1.527   5.761
  847SOL     OW 3981   1.650   1.720   6.980
  847SOL    HW1 3982   1.703   1.730   6.896
  847SOL    HW2 3983   1.623   1.810   7.014
  848SOL     OW 3984   1.841   0.175   6.549
  848SOL    HW1 3985   1.880   0.090   6.513
  848SOL    HW2 3986   1.743   0.177   6.530
  849SOL     OW 3987   0.263   0.326   6.306
  849SOL    HW1 3988   0.184   0.377   6.272
  849SOL    HW2 3989   0.254   0.311   6.404
  850SOL     OW 3990   1.194   1.612   5.617
  850SOL    HW1 3991   1.200   1.519   5.654
  850SOL    HW2 3992   1.135   1.612   5.537
  851SOL     OW 3993   0.822   1.002   6.958
  851SOL    HW1 3994   0.862   1.001   6.866
  851SOL    HW2 3995   0.832   1.094   6.998
  852SOL     OW 3996   0.916   0.910   5.877
  852SOL    HW1 3997   0.979   0.948   5.809
  852SOL    HW2 3998   0.956   0.827   5.916
  853SOL     OW 3999   1.504   1.607   5.630
  853SOL    HW1 4000   1.412   1.644   5.637
  853SOL    HW2 4001   1.542   1.627   5.540
  854SOL     OW 4002   0.372   1.288   7.076
  854SOL    HW1 4003   0.359   1.381   7.042
  854SOL    HW2 4004   0.288   1.236   7.063
  855SOL     OW 4005   1.614   1.292   6.875
  855SOL    HW1 4006   1.674   1.295   6.955
  855SOL    HW2 4007   1.539   1.356   6.888
  856SOL     OW 4008   1.039   1.098   6.282
  856SOL    HW1 4009   0.969   1.051   6.336
  856SOL    HW2 4010   1.098   1.030   6.239
  857SOL     OW 4011   1.014   0.236   6.557
  857SOL    HW1 4012   1.006   0.200   6.464
  857SOL    HW2 4013   1.012   0.160   6.622
  858SOL     OW 4014   0.590   1.487   6.077
  858SOL    HW1 4015   0.632   1.429   6.007
  858SOL    HW2 4016   0.546   1.566   6.033
  859SOL     OW 4017   1.709   0.385   6.967
  859SOL    HW1 4018   1.782   0.454   6.971
  859SOL    HW2 4019   1.737   0.310   6.908
  860SOL     OW 4020   0.255   1.348   5.876
  860SOL    HW1 4021   0.159   1.349   5.849
  860SOL    HW2 4022   0.267   1.401   5.960
  861SOL     OW 4023   0.105   1.013   7.312
  861SOL    HW1 4024   0.028   0.980   7.366
  861SOL    HW2 4025   0.190   0.983   7.354
  862SOL     OW 4026   0.672   0.203   7.075
  862SOL    HW1 4027   0.762   0.187   7.035
  862SOL    HW2 4028   0.680   0.208   7.174
  863SOL     OW 4029   0.075   0.345   5.619
  863SOL    HW1 4030  -0.017   0.317   5.590
  863SOL    HW2 4031   0.106   0.422   5.563
  864SOL     OW 4032   1.440   0.856   6.984
  864SOL    HW1 4033   1.383   0.908   6.921
  864SOL    HW2 4034   1.536   0.868   6.960
  865SOL     OW 4035   0.072   0.166   5.904
  865SOL    HW1 4036   0.055   0.249   5.850
  865SOL    HW2 4037   0.162   0.129   5.882
  866SOL     OW 4038   1.183   1.335   5.705
  866SOL    HW1 4039   1.084   1.324   5.707
  866SOL    HW2 4040   1.217   1.350   5.798
  867SOL     OW 4041   0.613   0.842   7.017
  867SOL    HW1 4042   0.669   0.923   7.000
  867SOL    HW2 4043   0.672   0.762   7.020
  868SOL     OW 4044   1.493   1.767   6.545
  868SOL    HW1 4045   1.526   1.831   6.476
  868SOL    HW2 4046   1.559   1.761   6.620
  869SOL     OW 4047   0.716   0.565   7.294
  869SOL    HW1 4048   0.735   0.630   7.368
  869SOL    HW2 4049   0.776   0.485   7.303
  870SOL     OW 4050   1.450   1.220   7.219
  870SOL    HW1 4051   1.441   1.210   7.318
  870SOL    HW2 4052   1.546   1.213   7.193
  871SOL     OW 4053   0.390   1.741   7.146
  871SOL    HW1 4054   0.299   1.782   7.144
  871SOL    HW2 4055   0.383   1.647   7.178
  872SOL     OW 4056   1.674   0.883   6.840
  872SOL    HW1 4057   1.647   0.794   6.803
  872SOL    HW2 4058   1.675   0.951   6.767
  873SOL     OW 4059   1.225   0.325   6.035
  873SOL    HW1 4060   1.290   0.251   6.024
  873SOL    HW2 4061   1.245   0.375   6.119
  874SOL     OW 4062   0.594   0.745   6.238
  874SOL    HW1 4063   0.644   0.830   6.219
  874SOL    HW2 4064   0.506   0.747   6.190
  875SOL     OW 4065   1.777   0.342   7.228
  875SOL    HW1 4066   1.760   0.373   7.134
  875SOL    HW2 4067   1.693   0.305   7.266
  876SOL     OW 4068   1.730   0.934   7.103
  876SOL    HW1 4069   1.768   1.025   7.118
  876SOL    HW2 4070   1.722   0.917   7.004
  877SOL     OW 4071   0.859   1.374   5.602
  877SOL    HW1 4072   0.813   1.389   5.690
  877SOL    HW2 4073   0.903   1.459   5.572
  878SOL     OW 4074   0.661   1.790   6.539
  878SOL    HW1 4075   0.615   1.878   6.526
  878SOL    HW2 4076   0.760   1.802   6.532
  879SOL     OW 4077   0.859   0.956   6.447
  879SOL    HW1 4078   0.913   0.887   6.495
  879SOL    HW2 4079   0.827   1.025   6.513
  880SOL     OW 4080   1.083   0.984   5.673
  880SOL    HW1 4081   1.060   1.037   5.591
  880SOL    HW2 4082   1.164   0.928   5.654
  881SOL     OW 4083   1.861   1.569   6.437
  881SOL    HW1 4084   1.790   1.557   6.367
  881SOL    HW2 4085   1.862   1.490   6.497
  882SOL     OW 4086   0.221   1.314   7.430
  882SOL    HW1 4087   0.156   1.241   7.409
  882SOL    HW2 4088   0.225   1.328   7.528
  883SOL     OW 4089   0.079   1.240   6.239
  883SOL    HW1 4090   0.078   1.193   6.327
  883SOL    HW2 4091   0.161   1.212   6.188
  884SOL     OW 4092   0.672   1.391   7.210
  884SOL    HW1 4093   0.594   1.341   7.248
  884SOL    HW2 4094   0.669   1.486   7.241
  885SOL     OW 4095   1.824   0.192   6.813
  885SOL    HW1 4096   1.820   0.102   6.857
  885SOL    HW2 4097   1.827   0.181   6.714
  886SOL     OW 4098   0.428   0.424   6.106
  886SOL    HW1 4099   0.458   0.352   6.044
  886SOL    HW2 4100   0.389   0.384   6.189
  887SOL     OW 4101   1.705   1.487   6.690
  887SOL    HW1 4102   1.612   1.462   6.663
  887SOL    HW2 4103   1.731   1.437   6.772
  888SOL     OW 4104   0.317   0.547   6.866
  888SOL    HW1 4105   0.355   0.488   6.938
  888SOL    HW2 4106   0.357   0.521   6.778
  889SOL     OW 4107   0.812   1.586   6.273
  889SOL    HW1 4108   0.844   1.596   6.179
  889SOL    HW2 4109   0.733   1.524   6.275
  890SOL     OW 4110   1.424   0.214   6.698
  890SOL    HW1 4111   1.476   0.149   6.753
  890SOL    HW2 4112   1.375   0.277   6.759
  891SOL     OW 4113   1.001   0.034   6.740
  891SOL    HW1 4114   0.938  -0.038   6.709
  891SOL    HW2 4115   1.094  -0.002   6.740
  892SOL     OW 4116   0.770   1.330   5.887
  892SOL    HW1 4117   0.724   1.243   5.904
  892SOL    HW2 4118   0.861   1.327   5.928
  893SOL     OW 4119   0.618   1.567   6.870
  893SOL    HW1 4120   0.613   1.649   6.927
  893SOL    HW2 4121   0.707   1.564   6.825
  894SOL     OW 4122   1.352   0.052   5.754
  894SOL    HW1 4123   1.387   0.011   5.670
  894SOL    HW2 4124   1.262   0.014   5.774
  895SOL     OW 4125   1.300   0.453   6.277
  895SOL    HW1 4126   1.241   0.533   6.281
  895SOL    HW2 4127   1.315   0.418   6.370
  896SOL     OW 4128   1.593   0.221   6.468
  896SOL    HW1 4129   1.509   0.220   6.522
  896SOL    HW2 4130   1.595   0.304   6.412
  897SOL     OW 4131   0.039   1.077   5.886
  897SOL    HW1 4132   0.138   1.066   5.877
  897SOL    HW2 4133  -0.001   0.991   5.918
  898SOL     OW 4134   0.875   1.646   5.923
  898SOL    HW1 4135   0.798   1.611   5.869
  898SOL    HW2 4136   0.843   1.717   5.985
  899SOL     OW 4137   0.230   0.628   7.561
  899SOL    HW1 4138   0.137   0.626   7.598
  899SOL    HW2 4139   0.231   0.589   7.469
  900SOL     OW 4140   0.225   0.275   8.444
  900SOL    HW1 4141   0.260   0.258   8.536
  900SOL    HW2 4142   0.137   0.230   8.432
  901SOL     OW 4143   0.019   0.368   8.095
  901SOL    HW1 4144  -0.063   0.411   8.134
  901SOL    HW2 4145  -0.009   0.295   8.032
  902SOL     OW 4146   0.569   1.275   8.613
  902SOL    HW1 4147   0.476   1.268   8.576
  902SOL    HW2 4148   0.580   1.364   8.657
  903SOL     OW 4149   1.555   1.511   8.151
  903SOL    HW1 4150   1.498   1.495   8.232
  903SOL    HW2 4151   1.496   1.521   8.071
  904SOL     OW 4152   1.135   0.703   8.165
  904SOL    HW1 4153   1.192   0.781   8.140
  904SOL    HW2 4154   1.075   0.729   8.241
  905SOL     OW 4155   1.755   0.607   7.679
  905SOL    HW1 4156   1.743   0.594   7.580
  905SOL    HW2 4157   1.725   0.526   7.728
  906SOL     OW 4158   0.768   1.144   8.471
  906SOL    HW1 4159   0.690   1.161   8.531
  906SOL    HW2 4160   0.802   1.231   8.435
  907SOL     OW 4161   0.850   0.798   9.271
  907SOL    HW1 4162   0.846   0.874   9.336
  907SOL    HW2 4163   0.872   0.834   9.180
  908SOL     OW 4164   0.685   1.012   8.113
  908SOL    HW1 4165   0.754   0.996   8.183
  908SOL    HW2 4166   0.612   1.069   8.151
  909SOL     OW 4167   0.686   1.161   9.251
  909SOL    HW1 4168   0.746   1.240   9.265
  909SOL    HW2 4169   0.600   1.192   9.210
  910SOL     OW 4170   0.335   1.435   8.509
  910SOL    HW1 4171   0.257   1.404   8.456
  910SOL    HW2 4172   0.393   1.493   8.452
  911SOL     OW 4173   1.460   1.505   8.787
  911SOL    HW1 4174   1.484   1.599   8.813
  911SOL    HW2 4175   1.444   1.451   8.869
  912SOL     OW 4176   0.438   0.392   8.947
  912SOL    HW1 4177   0.520   0.336   8.956
  912SOL    HW2 4178   0.357   0.334   8.951
  913SOL     OW 4179   1.603   0.447   8.185
  913SOL    HW1 4180   1.529   0.493   8.135
  913SOL    HW2 4181   1.654   0.515   8.238
  914SOL     OW 4182   0.231   1.713   7.931
  914SOL    HW1 4183   0.265   1.790   7.985
  914SOL    HW2 4184   0.275   1.713   7.841
  915SOL     OW 4185   1.127   1.341   9.138
  915SOL    HW1 4186   1.174   1.341   9.226
  915SOL    HW2 4187   1.079   1.254   9.127
  916SOL     OW 4188   0.230   1.434   7.986
  916SOL    HW1 4189   0.204   1.530   7.986
  916SOL    HW2 4190   0.159   1.380   8.031
  917SOL     OW 4191   0.240   1.091   8.334
  917SOL    HW1 4192   0.254   1.007   8.386
  917SOL    HW2 4193   0.185   1.155   8.389
  918SOL     OW 4194   0.620   1.786   8.887
  918SOL    HW1 4195   0.528   1.769   8.922
  918SOL    HW2 4196   0.648   1.878   8.913
  919SOL     OW 4197   0.606   0.964   7.571
  919SOL    HW1 4198   0.613   1.048   7.517
  919SOL    HW2 4199   0.652   0.977   7.659
  920SOL     OW 4200   1.594   0.114   8.928
  920SOL    HW1 4201   1.576   0.181   8.856
  920SOL    HW2 4202   1.591   0.160   9.017
  921SOL     OW 4203   0.122   0.643   8.011
  921SOL    HW1 4204   0.077   0.555   8.028
  921SOL    HW2 4205   0.121   0.697   8.095
  922SOL     OW 4206   1.842   1.767   7.807
  922SOL    HW1 4207   1.896   1.738   7.887
  922SOL    HW2 4208   1.872   1.857   7.778
  923SOL     OW 4209   0.027   1.596   7.565
  923SOL    HW1 4210   0.008   1.500   7.586
  923SOL    HW2 4211  -0.006   1.654   7.640
  924SOL     OW 4212   1.689   0.922   8.060
  924SOL    HW1 4213   1.784   0.893   8.068
  924SOL    HW2 4214   1.681   0.987   7.985
  925SOL     OW 4215   1.641   1.108   7.880
  925SOL    HW1 4216   1.727   1.110   7.828
  925SOL    HW2 4217   1.655   1.155   7.968
  926SOL     OW 4218   0.113   0.737   9.045
  926SOL    HW1 4219   0.201   0.724   9.090
  926SOL    HW2 4220   0.100   0.834   9.023
  927SOL     OW 4221   0.613   1.365   8.174
  927SOL    HW1 4222   0.564   1.278   8.183
  927SOL    HW2 4223   0.590   1.408   8.087
  928SOL     OW 4224   1.293   1.228   8.871
  928SOL    HW1 4225   1.330   1.155   8.813
  928SOL    HW2 4226   1.345   1.233   8.956
  929SOL     OW 4227   0.809   0.004   7.950
  929SOL    HW1 4228   0.849   0.095   7.941
  929SOL    HW2 4229   0.709   0.012   7.956
  930SOL     OW 4230   0.197   0.976   8.712
  930SOL    HW1 4231   0.286   0.931   8.698
  930SOL    HW2 4232   0.124   0.911   8.693
  931SOL     OW 4233   1.525   0.999   7.638
  931SOL    HW1 4234   1.462   0.923   7.651
  931SOL    HW2 4235   1.573   1.017   7.724
  932SOL     OW 4236   1.187   1.792   9.064
  932SOL    HW1 4237   1.211   1.852   8.988
  932SOL    HW2 4238   1.194   1.697   9.034
  933SOL     OW 4239   0.317   0.251   9.249
  933SOL    HW1 4240   0.388   0.322   9.255
  933SOL    HW2 4241   0.229   0.290   9.277
  934SOL     OW 4242   1.466   1.417   8.401
  934SOL    HW1 4243   1.407   1.423   8.481
  934SOL    HW2 4244   1.451   1.329   8.355
  935SOL     OW 4245   1.667   1.714   8.020
  935SOL    HW1 4246   1.626   1.691   7.932
  935SOL    HW2 4247   1.649   1.640   8.085
  936SOL     OW 4248   0.598   0.729   7.718
  936SOL    HW1 4249   0.622   0.798   7.650
  936SOL    HW2 4250   0.520   0.762   7.772
  937SOL     OW 4251   1.281   0.345   8.392
  937SOL    HW1 4252   1.195   0.295   8.379
  937SOL    HW2 4253   1.343   0.291   8.448
  938SOL     OW 4254   1.576   1.662   7.755
  938SOL    HW1 4255   1.665   1.708   7.758
  938SOL    HW2 4256   1.555   1.638   7.660
  939SOL     OW 4257   0.807   0.605   8.913
  939SOL    HW1 4258   0.760   0.602   9.002
  939SOL    HW2 4259   0.756   0.550   8.847
  940SOL     OW 4260   1.394   0.469   9.122
  940SOL    HW1 4261   1.374   0.512   9.210
  940SOL    HW2 4262   1.472   0.407   9.131
  941SOL     OW 4263   0.973   0.890   9.020
  941SOL    HW1 4264   1.019   0.806   8.991
  941SOL    HW2 4265   0.917   0.924   8.945
  942SOL     OW 4266   0.991   0.410   8.690
  942SOL    HW1 4267   0.914   0.444   8.744
  942SOL    HW2 4268   0.957   0.359   8.611
  943SOL     OW 4269   1.041   0.701   7.877
  943SOL    HW1 4270   1.067   0.697   7.973
  943SOL    HW2 4271   0.956   0.650   7.863
  944SOL     OW 4272   0.076   0.811   8.237
  944SOL    HW1 4273   0.175   0.799   8.246
  944SOL    HW2 4274   0.052   0.906   8.258
  945SOL     OW 4275   0.130   1.821   9.019
  945SOL    HW1 4276   0.120   1.806   9.118
  945SOL    HW2 4277   0.044   1.857   8.983
  946SOL     OW 4278   0.865   0.348   7.643
  946SOL    HW1 4279   0.924   0.411   7.594
  946SOL    HW2 4280   0.884   0.254   7.614
  947SOL     OW 4281   1.719   0.585   9.279
  947SOL    HW1 4282   1.693   0.674   9.243
  947SOL    HW2 4283   1.717   0.517   9.206
  948SOL     OW 4284   1.362   1.144   7.993
  948SOL    HW1 4285   1.445   1.115   7.945
  948SOL    HW2 4286   1.313   1.211   7.937
  949SOL     OW 4287   0.550   0.196   8.333
  949SOL    HW1 4288   0.545   0.191   8.433
  949SOL    HW2 4289   0.552   0.292   8.304
  950SOL     OW 4290   1.008   1.456   7.925
  950SOL    HW1 4291   0.962   1.528   7.873
  950SOL    HW2 4292   1.004   1.476   8.023
  951SOL     OW 4293   0.351   1.801   8.301
  951SOL    HW1 4294   0.401   1.715   8.307
  951SOL    HW2 4295   0.416   1.878   8.298
  952SOL     OW 4296   1.795   1.066   8.321
  952SOL    HW1 4297   1.733   1.051   8.245
  952SOL    HW2 4298   1.743   1.077   8.406
  953SOL     OW 4299   1.227   1.550   8.954
  953SOL    HW1 4300   1.233   1.473   9.018
  953SOL    HW2 4301   1.175   1.524   8.874
  954SOL     OW 4302   0.321   0.943   7.690
  954SOL    HW1 4303   0.403   0.982   7.648
  954SOL    HW2 4304   0.294   0.861   7.641
  955SOL     OW 4305   1.458   0.735   8.176
  955SOL    HW1 4306   1.453   0.670   8.251
  955SOL    HW2 4307   1.538   0.794   8.189
  956SOL     OW 4308   0.461   1.266   9.175
  956SOL    HW1 4309   0.411   1.267   9.089
  956SOL    HW2 4310   0.398   1.248   9.251
  957SOL     OW 4311   1.111   1.776   7.685
  957SOL    HW1 4312   1.051   1.714   7.735
  957SOL    HW2 4313   1.142   1.732   7.600
  958SOL     OW 4314   0.202   0.285   8.946
  958SOL    HW1 4315   0.122   0.345   8.933
  958SOL    HW2 4316   0.192   0.236   9.032
  959SOL     OW 4317   1.632   1.377   7.529
  959SOL    HW1 4318   1.600   1.471   7.519
  959SOL    HW2 4319   1.556   1.314   7.517
  960SOL     OW 4320   0.464   1.743   7.771
  960SOL    HW1 4321   0.497   1.782   7.857
  960SOL    HW2 4322   0.540   1.736   7.706
  961SOL     OW 4323   1.400   0.107   7.874
  961SOL    HW1 4324   1.376   0.070   7.784
  961SOL    HW2 4325   1.499   0.123   7.878
  962SOL     OW 4326   0.249   1.785   8.689
  962SOL    HW1 4327   0.306   1.720   8.739
  962SOL    HW2 4328   0.233   1.752   8.596
  963SOL     OW 4329   0.940   1.698   8.352
  963SOL    HW1 4330   1.020   1.641   8.373
  963SOL    HW2 4331   0.891   1.658   8.275
  964SOL     OW 4332   0.382   0.700   7.928
  964SOL    HW1 4333   0.427   0.610   7.925
  964SOL    HW2 4334   0.288   0.689   7.961
  965SOL     OW 4335   1.547   0.222   9.177
  965SOL    HW1 4336   1.542   0.259   9.269
  965SOL    HW2 4337   1.475   0.153   9.165
  966SOL     OW 4338   0.614   0.122   7.565
  966SOL    HW1 4339   0.712   0.100   7.572
  966SOL    HW2 4340   0.583   0.105   7.472
  967SOL     OW 4341   0.781   0.264   9.197
  967SOL    HW1 4342   0.848   0.203   9.240
  967SOL    HW2 4343   0.708   0.283   9.262
  968SOL     OW 4344   0.888   1.514   8.643
  968SOL    HW1 4345   0.865   1.489   8.549
  968SOL    HW2 4346   0.949   1.445   8.682
  969SOL     OW 4347   1.351   0.590   8.881
  969SOL    HW1 4348   1.379   0.547   8.966
  969SOL    HW2 4349   1.376   0.686   8.882
  970SOL     OW 4350   0.803   1.402   8.372
  970SOL    HW1 4351   0.893   1.416   8.330
  970SOL    HW2 4352   0.732   1.404   8.301
  971SOL     OW 4353   0.922   0.503   8.347
  971SOL    HW1 4354   0.897   0.494   8.251
  971SOL    HW2 4355   0.970   0.421   8.378
  972SOL     OW 4356   0.539   0.064   7.960
  972SOL    HW1 4357   0.458   0.065   8.018
  972SOL    HW2 4358   0.542   0.147   7.905
  973SOL     OW 4359   1.434   1.188   7.489
  973SOL    HW1 4360   1.466   1.112   7.546
  973SOL    HW2 4361   1.342   1.215   7.519
  974SOL     OW 4362   0.297   0.035   7.619
  974SOL    HW1 4363   0.346   0.119   7.598
  974SOL    HW2 4364   0.359  -0.030   7.664
  975SOL     OW 4365   0.935   0.236   7.928
  975SOL    HW1 4366   0.887   0.277   7.850
  975SOL    HW2 4367   1.034   0.234   7.909
  976SOL     OW 4368   1.076   0.683   8.912
  976SOL    HW1 4369   0.996   0.622   8.915
  976SOL    HW2 4370   1.157   0.630   8.888
  977SOL     OW 4371   1.227   1.570   8.241
  977SOL    HW1 4372   1.248   1.644   8.176
  977SOL    HW2 4373   1.295   1.570   8.314
  978SOL     OW 4374   0.459   1.152   8.189
  978SOL    HW1 4375   0.388   1.125   8.254
  978SOL    HW2 4376   0.433   1.124   8.096
  979SOL     OW 4377   1.271   1.797   8.039
  979SOL    HW1 4378   1.315   1.861   7.975
  979SOL    HW2 4379   1.221   1.849   8.109
  980SOL     OW 4380   1.032   0.549   7.464
  980SOL    HW1 4381   0.991   0.631   7.425
  980SOL    HW2 4382   1.096   0.575   7.537
  981SOL     OW 4383   0.078   0.556   8.834
  981SOL    HW1 4384   0.170   0.555   8.793
  981SOL    HW2 4385   0.072   0.630   8.901
  982SOL     OW 4386   0.561   0.222   8.595
  982SOL    HW1 4387   0.599   0.138   8.632
  982SOL    HW2 4388   0.473   0.241   8.639
  983SOL     OW 4389   0.866   0.454   8.090
  983SOL    HW1 4390   0.834   0.526   8.028
  983SOL    HW2 4391   0.890   0.373   8.037
  984SOL     OW 4392   1.017   0.039   8.201
  984SOL    HW1 4393   0.945   0.044   8.132
  984SOL    HW2 4394   0.993  -0.030   8.270
  985SOL     OW 4395   1.429   1.173   8.315
  985SOL    HW1 4396   1.374   1.089   8.308
  985SOL    HW2 4397   1.455   1.202   8.223
  986SOL     OW 4398   1.466   0.590   8.440
  986SOL    HW1 4399   1.436   0.495   8.447
  986SOL    HW2 4400   1.539   0.606   8.506
  987SOL     OW 4401   1.857   0.833   7.825
  987SOL    HW1 4402   1.899   0.769   7.889
  987SOL    HW2 4403   1.819   0.782   7.747
  988SOL     OW 4404   0.488   1.385   7.622
  988SOL    HW1 4405   0.401   1.370   7.669
  988SOL    HW2 4406   0.471   1.411   7.527
  989SOL     OW 4407   1.664   1.280   8.105
  989SOL    HW1 4408   1.763   1.288   8.119
  989SOL    HW2 4409   1.619   1.364   8.136
  990SOL     OW 4410   1.390   0.575   7.526
  990SOL    HW1 4411   1.336   0.554   7.607
  990SOL    HW2 4412   1.481   0.534   7.535
  991SOL     OW 4413   0.527   0.256   7.776
  991SOL    HW1 4414   0.554   0.197   7.701
  991SOL    HW2 4415   0.527   0.351   7.745
  992SOL     OW 4416   1.754   1.223   9.036
  992SOL    HW1 4417   1.845   1.184   9.023
  992SOL    HW2 4418   1.762   1.319   9.060
  993SOL     OW 4419   1.064   1.347   8.788
  993SOL    HW1 4420   0.984   1.324   8.843
  993SOL    HW2 4421   1.147   1.321   8.837
  994SOL     OW 4422   1.592   1.629   9.073
  994SOL    HW1 4423   1.619   1.663   8.983
  994SOL    HW2 4424   1.671   1.591   9.119
  995SOL     OW 4425   1.111   1.195   8.548
  995SOL    HW1 4426   1.071   1.239   8.629
  995SOL    HW2 4427   1.070   1.232   8.465
  996SOL     OW 4428   1.638   1.099   8.527
  996SOL    HW1 4429   1.643   1.180   8.586
  996SOL    HW2 4430   1.552   1.101   8.476
  997SOL     OW 4431   0.915   0.089   8.850
  997SOL    HW1 4432   0.940   0.069   8.755
  997SOL    HW2 4433   0.987   0.145   8.892
  998SOL     OW 4434   0.980   1.116   9.167
  998SOL    HW1 4435   0.881   1.122   9.177
  998SOL    HW2 4436   1.003   1.036   9.111
  999SOL     OW 4437   0.705   1.050   7.816
  999SOL    HW1 4438   0.691   1.057   7.915
  999SOL    HW2 4439   0.789   0.999   7.798
 1000SOL     OW 4440   0.410   0.813   8.699
 1000SOL    HW1 4441   0.496   0.825   8.749
 1000SOL    HW2 4442   0.368   0.726   8.726
 1001SOL     OW 4443   1.274   0.386   8.710
 1001SOL    HW1 4444   1.295   0.460   8.774
 1001SOL    HW2 4445   1.185   0.403   8.667
 1002SOL     OW 4446   0.064   1.564   8.779
 1002SOL    HW1 4447   0.018   1.646   8.745
 1002SOL    HW2 4448   0.162   1.583   8.788
 1003SOL     OW 4449   0.367   1.100   7.949
 1003SOL    HW1 4450   0.360   1.183   7.893
 1003SOL    HW2 4451   0.371   1.020   7.889
 1004SOL     OW 4452   0.566   0.537   8.313
 1004SOL    HW1 4453   0.578   0.603   8.239
 1004SOL    HW2 4454   0.612   0.571   8.396
 1005SOL     OW 4455   1.252   1.348   7.836
 1005SOL    HW1 4456   1.302   1.425   7.876
 1005SOL    HW2 4457   1.157   1.350   7.868
 1006SOL     OW 4458   1.272   1.445   8.590
 1006SOL    HW1 4459   1.319   1.458   8.677
 1006SOL    HW2 4460   1.206   1.371   8.599
 1007SOL     OW 4461   1.582   0.639   7.920
 1007SOL    HW1 4462   1.551   0.700   7.993
 1007SOL    HW2 4463   1.632   0.691   7.851
 1008SOL     OW 4464   0.354   1.510   8.777
 1008SOL    HW1 4465   0.333   1.466   8.690
 1008SOL    HW2 4466   0.451   1.536   8.780
 1009SOL     OW 4467   0.402   0.751   9.046
 1009SOL    HW1 4468   0.470   0.806   8.999
 1009SOL    HW2 4469   0.442   0.663   9.073
 1010SOL     OW 4470   1.587   0.779   9.118
 1010SOL    HW1 4471   1.495   0.817   9.113
 1010SOL    HW2 4472   1.647   0.826   9.053
 1011SOL     OW 4473   1.013   0.105   9.218
 1011SOL    HW1 4474   1.019   0.190   9.166
 1011SOL    HW2 4475   1.045   0.029   9.161
 1012SOL     OW 4476   0.504   0.050   9.188
 1012SOL    HW1 4477   0.462  -0.007   9.118
 1012SOL    HW2 4478   0.438   0.119   9.220
 1013SOL     OW 4479   0.573   0.870   8.477
 1013SOL    HW1 4480   0.617   0.959   8.468
 1013SOL    HW2 4481   0.510   0.870   8.554
 1014SOL     OW 4482   1.360   0.862   8.493
 1014SOL    HW1 4483   1.285   0.862   8.427
 1014SOL    HW2 4484   1.397   0.770   8.502
 1015SOL     OW 4485   1.209   0.525   7.723
 1015SOL    HW1 4486   1.222   0.441   7.777
 1015SOL    HW2 4487   1.180   0.599   7.783
 1016SOL     OW 4488   0.307   0.213   8.679
 1016SOL    HW1 4489   0.284   0.250   8.769
 1016SOL    HW2 4490   0.277   0.118   8.673
 1017SOL     OW 4491   0.037   1.310   8.730
 1017SOL    HW1 4492   0.090   1.261   8.798
 1017SOL    HW2 4493   0.059   1.408   8.735
 1018SOL     OW 4494   0.732   0.634   8.512
 1018SOL    HW1 4495   0.791   0.608   8.436
 1018SOL    HW2 4496   0.704   0.730   8.501
 1019SOL     OW 4497   1.728   0.935   9.302
 1019SOL    HW1 4498   1.682   0.928   9.213
 1019SOL    HW2 4499   1.666   0.979   9.368
 1020SOL     OW 4500   0.307   0.063   8.066
 1020SOL    HW1 4501   0.296   0.157   8.099
 1020SOL    HW2 4502   0.302   0.000   8.143
 1021SOL     OW 4503   1.622   0.367   7.822
 1021SOL    HW1 4504   1.624   0.291   7.886
 1021SOL    HW2 4505   1.574   0.444   7.862
 1022SOL     OW 4506   1.023   0.766   8.414
 1022SOL    HW1 4507   1.038   0.787   8.510
 1022SOL    HW2 4508   0.993   0.671   8.405
 1023SOL     OW 4509   0.980   1.573   9.148
 1023SOL    HW1 4510   0.960   1.617   9.060
 1023SOL    HW2 4511   1.019   1.482   9.132
 1024SOL     OW 4512   1.859   1.518   9.053
 1024SOL    HW1 4513   1.873   1.545   8.958
 1024SOL    HW2 4514   1.942   1.540   9.106
 1025SOL     OW 4515   0.350   0.898   9.252
 1025SOL    HW1 4516   0.426   0.942   9.300
 1025SOL    HW2 4517   0.385   0.851   9.170
 1026SOL     OW 4518   1.540   0.274   7.573
 1026SOL    HW1 4519   1.479   0.199   7.596
 1026SOL    HW2 4520   1.562   0.326   7.656
 1027SOL     OW 4521   1.303   0.838   7.490
 1027SOL    HW1 4522   1.337   0.745   7.505
 1027SOL    HW2 4523   1.321   0.865   7.395
 1028SOL     OW 4524   1.068   1.333   8.297
 1028SOL    HW1 4525   1.075   1.249   8.242
 1028SOL    HW2 4526   1.130   1.402   8.261
 1029SOL     OW 4527   0.319   0.810   8.397
 1029SOL    HW1 4528   0.412   0.846   8.402
 1029SOL    HW2 4529   0.313   0.725   8.449
 1030SOL     OW 4530   0.339   0.509   8.454
 1030SOL    HW1 4531   0.287   0.426   8.437
 1030SOL    HW2 4532   0.416   0.514   8.390
 1031SOL     OW 4533   1.138   0.380   9.126
 1031SOL    HW1 4534   1.093   0.443   9.190
 1031SOL    HW2 4535   1.231   0.411   9.109
 1032SOL     OW 4536   1.160   0.207   8.925
 1032SOL    HW1 4537   1.160   0.271   9.002
 1032SOL    HW2 4538   1.188   0.255   8.842
 1033SOL     OW 4539   0.008   1.326   7.648
 1033SOL    HW1 4540  -0.085   1.347   7.617
 1033SOL    HW2 4541   0.018   1.227   7.661
 1034SOL     OW 4542   0.088   1.801   8.375
 1034SOL    HW1 4543   0.046   1.715   8.348
 1034SOL    HW2 4544   0.182   1.804   8.341
 1035SOL     OW 4545   0.504   1.568   8.358
 1035SOL    HW1 4546   0.570   1.642   8.367
 1035SOL    HW2 4547   0.548   1.489   8.316
 1036SOL     OW 4548   1.002   0.796   8.686
 1036SOL    HW1 4549   1.043   0.764   8.772
 1036SOL    HW2 4550   0.906   0.769   8.683
 1037SOL     OW 4551   0.040   0.544   8.562
 1037SOL    HW1 4552   0.125   0.511   8.521
 1037SOL    HW2 4553   0.053   0.559   8.660
 1038SOL     OW 4554   0.189   0.520   9.170
 1038SOL    HW1 4555   0.248   0.480   9.100
 1038SOL    HW2 4556   0.131   0.591   9.129
 1039SOL     OW 4557   1.369   0.950   9.108
 1039SOL    HW1 4558   1.408   1.039   9.128
 1039SOL    HW2 4559   1.379   0.930   9.011
 1040SOL     OW 4560   0.815   0.572   7.773
 1040SOL    HW1 4561   0.822   0.483   7.727
 1040SOL    HW2 4562   0.721   0.606   7.765
 1041SOL     OW 4563   1.657   0.604   8.654
 1041SOL    HW1 4564   1.619   0.535   8.716
 1041SOL    HW2 4565   1.739   0.568   8.610
 1042SOL     OW 4566   0.252   1.564   9.192
 1042SOL    HW1 4567   0.222   1.621   9.268
 1042SOL    HW2 4568   0.245   1.467   9.218
 1043SOL     OW 4569   0.671   0.464   8.717
 1043SOL    HW1 4570   0.637   0.375   8.687
 1043SOL    HW2 4571   0.697   0.518   8.637
 1044SOL     OW 4572   0.930   1.678   8.913
 1044SOL    HW1 4573   0.906   1.660   8.818
 1044SOL    HW2 4574   0.960   1.772   8.923
 1045SOL     OW 4575   0.473   0.500   7.639
 1045SOL    HW1 4576   0.534   0.580   7.643
 1045SOL    HW2 4577   0.378   0.531   7.646
 1046SOL     OW 4578   0.159   1.137   8.914
 1046SOL    HW1 4579   0.181   1.076   8.990
 1046SOL    HW2 4580   0.169   1.088   8.828
 1047SOL     OW 4581   1.347   1.059   8.682
 1047SOL    HW1 4582   1.371   0.996   8.608
 1047SOL    HW2 4583   1.257   1.099   8.664
 1048SOL     OW 4584   1.302   0.855   7.757
 1048SOL    HW1 4585   1.216   0.824   7.799
 1048SOL    HW2 4586   1.298   0.841   7.658
 1049SOL     OW 4587   1.759   1.747   8.602
 1049SOL    HW1 4588   1.820   1.777   8.529
 1049SOL    HW2 4589   1.721   1.658   8.580
 1050SOL     OW 4590   1.252   1.731   8.576
 1050SOL    HW1 4591   1.336   1.736   8.522
 1050SOL    HW2 4592   1.229   1.635   8.594
 1051SOL     OW 4593   0.083   1.258   8.470
 1051SOL    HW1 4594   0.078   1.257   8.570
 1051SOL    HW2 4595   0.000   1.217   8.432
 1052SOL     OW 4596   0.688   1.662   9.164
 1052SOL    HW1 4597   0.632   1.743   9.173
 1052SOL    HW2 4598   0.740   1.666   9.078
 1053SOL     OW 4599   1.726   0.135   7.971
 1053SOL    HW1 4600   1.799   0.118   7.904
 1053SOL    HW2 4601   1.695   0.048   8.009
 1054SOL     OW 4602   1.388   1.573   7.925
 1054SOL    HW1 4603   1.455   1.585   7.851
 1054SOL    HW2 4604   1.348   1.662   7.948
 1055SOL     OW 4605   0.130   1.794   9.299
 1055SOL    HW1 4606   0.089   1.720   9.352
 1055SOL    HW2 4607   0.194   1.845   9.357
 1056SOL     OW 4608   1.280   0.927   8.120
 1056SOL    HW1 4609   1.340   0.846   8.122
 1056SOL    HW2 4610   1.320   0.996   8.060
 1057SOL     OW 4611   0.830   1.273   8.870
 1057SOL    HW1 4612   0.825   1.306   8.965
 1057SOL    HW2 4613   0.744   1.292   8.824
 1058SOL     OW 4614   0.672   1.616   7.602
 1058SOL    HW1 4615   0.681   1.626   7.503
 1058SOL    HW2 4616   0.632   1.527   7.623
 1059SOL     OW 4617   1.650   1.720   8.842
 1059SOL    HW1 4618   1.703   1.730   8.758
 1059SOL    HW2 4619   1.623   1.810   8.876
 1060SOL     OW 4620   1.841   0.175   8.411
 1060SOL    HW1 4621   1.880   0.090   8.375
 1060SOL    HW2 4622   1.743   0.177   8.392
 1061SOL     OW 4623   0.263   0.326   8.168
 1061SOL    HW1 4624   0.184   0.377   8.134
 1061SOL    HW2 4625   0.254   0.311   8.266
 1062SOL     OW 4626   1.194   1.612   7.479
 1062SOL    HW1 4627   1.200   1.519   7.516
 1062SOL    HW2 4628   1.135   1.612   7.399
 1063SOL     OW 4629   0.822   1.002   8.820
 1063SOL    HW1 4630   0.862   1.001   8.728
 1063SOL    HW2 4631   0.832   1.094   8.860
 1064SOL     OW 4632   0.916   0.910   7.739
 1064SOL    HW1 4633   0.979   0.948   7.671
 1064SOL    HW2 4634   0.956   0.827   7.778
 1065SOL     OW 4635   1.504   1.607   7.492
 1065SOL    HW1 4636   1.412   1.644   7.499
 1065SOL    HW2 4637   1.542   1.627   7.402
 1066SOL     OW 4638   0.372   1.288   8.938
 1066SOL    HW1 4639   0.359   1.381   8.904
 1066SOL    HW2 4640   0.288   1.236   8.925
 1067SOL     OW 4641   1.614   1.292   8.737
 1067SOL    HW1 4642   1.674   1.295   8.817
 1067SOL    HW2 4643   1.539   1.356   8.750
 1068SOL     OW 4644   1.039   1.098   8.144
 1068SOL    HW1 4645   0.969   1.051   8.198
 1068SOL    HW2 4646   1.098   1.030   8.101
 1069SOL     OW 4647   1.014   0.236   8.419
 1069SOL    HW1 4648   1.006   0.200   8.326
 1069SOL    HW2 4649   1.012   0.160   8.484
 1070SOL     OW 4650   0.590   1.487   7.939
 1070SOL    HW1 4651   0.632   1.429   7.869
 1070SOL    HW2 4652   0.546   1.566   7.895
 1071SOL     OW 4653   1.709   0.385   8.829
 1071SOL    HW1 4654   1.782   0.454   8.833
 1071SOL    HW2 4655   1.737   0.310   8.770
 1072SOL     OW 4656   0.255   1.348   7.738
 1072SOL    HW1 4657   0.159   1.349   7.711
 1072SOL    HW2 4658   0.267   1.401   7.822
 1073SOL     OW 4659   0.105   1.013   9.174
 1073SOL    HW1 4660   0.028   0.980   9.228
 1073SOL    HW2 4661   0.190   0.983   9.216
 1074SOL     OW 4662   0.672   0.203   8.937
 1074SOL    HW1 4663   0.762   0.187   8.897
 1074SOL    HW2 4664   0.680   0.208   9.036
 1075SOL     OW 4665   0.075   0.345   7.481
 1075SOL    HW1 4666  -0.017   0.317   7.452
 1075SOL    HW2 4667   0.106   0.422   7.425
 1076SOL     OW 4668   0.072   0.166   7.766
 1076SOL    HW1 4669   0.055   0.249   7.712
 1076SOL    HW2 4670   0.162   0.129   7.744
 1077SOL     OW 4671   1.183   1.335   7.567
 1077SOL    HW1 4672   1.084   1.324   7.569
 1077SOL    HW2 4673   1.217   1.350   7.660
 1078SOL     OW 4674   0.613   0.842   8.879
 1078SOL    HW1 4675   0.669   0.923   8.862
 1078SOL    HW2 4676   0.672   0.762   8.882
 1079SOL     OW 4677   1.493   1.767   8.407
 1079SOL    HW1 4678   1.526   1.831   8.338
 1079SOL    HW2 4679   1.559   1.761   8.482
 1080SOL     OW 4680   0.716   0.565   9.156
 1080SOL    HW1 4681   0.735   0.630   9.230
 1080SOL    HW2 4682   0.776   0.485   9.165
 1081SOL     OW 4683   1.450   1.220   9.081
 1081SOL    HW1 4684   1.441   1.210   9.180
 1081SOL    HW2 4685   1.546   1.213   9.055
 1082SOL     OW 4686   0.390   1.741   9.008
 1082SOL    HW1 4687   0.299   1.782   9.006
 1082SOL    HW2 4688   0.383   1.647   9.040
 1083SOL     OW 4689   1.674   0.883   8.702
 1083SOL    HW1 4690   1.647   0.794   8.665
 1083SOL    HW2 4691   1.675   0.951   8.629
 1084SOL     OW 4692   1.225   0.325   7.897
 1084SOL    HW1 4693   1.290   0.251   7.886
 1084SOL    HW2 4694   1.245   0.375   7.981
 1085SOL     OW 4695   0.594   0.745   8.100
 1085SOL    HW1 4696   0.644   0.830   8.081
 1085SOL    HW2 4697   0.506   0.747   8.052
 1086SOL     OW 4698   1.777   0.342   9.090
 1086SOL    HW1 4699   1.760   0.373   8.996
 1086SOL    HW2 4700   1.693   0.305   9.128
 1087SOL     OW 4701   1.730   0.934   8.965
 1087SOL    HW1 4702   1.768   1.025   8.980
 1087SOL    HW2 4703   1.722   0.917   8.866
 1088SOL     OW 4704   0.859   1.374   7.464
 1088SOL    HW1 4705   0.813   1.389   7.552
 1088SOL    HW2 4706   0.903   1.459   7.434
 1089SOL     OW 4707   0.661   1.790   8.401
 1089SOL    HW1 4708   0.615   1.878   8.388
 1089SOL    HW2 4709   0.760   1.802   8.394
 1090SOL     OW 4710   0.859   0.956   8.309
 1090SOL    HW1 4711   0.913   0.887   8.357
 1090SOL    HW2 4712   0.827   1.025   8.375
 1091SOL     OW 4713   1.083   0.984   7.535
 1091SOL    HW1 4714   1.060   1.037   7.453
 1091SOL    HW2 4715   1.164   0.928   7.516
 1092SOL     OW 4716   1.861   1.569   8.299
 1092SOL    HW1 4717   1.790   1.557   8.229
 1092SOL    HW2 4718   1.862   1.490   8.359
 1093SOL     OW 4719   0.221   1.314   9.292
 1093SOL    HW1 4720   0.156   1.241   9.271
 1093SOL    HW2 4721   0.225   1.328   9.390
 1094SOL     OW 4722   0.079   1.240   8.101
 1094SOL    HW1 4723   0.078   1.193   8.189
 1094SOL    HW2 4724   0.161   1.212   8.050
 1095SOL     OW 4725   0.672   1.391   9.072
 1095SOL    HW1 4726   0.594   1.341   9.110
 1095SOL    HW2 4727   0.669   1.486   9.103
 1096SOL     OW 4728   1.824   0.192   8.675
 1096SOL    HW1 4729   1.820   0.102   8.719
 1096SOL    HW2 4730   1.827   0.181   8.576
 1097SOL     OW 4731   0.428   0.424   7.968
 1097SOL    HW1 4732   0.458   0.352   7.906
 1097SOL    HW2 4733   0.389   0.384   8.051
 1098SOL     OW 4734   1.705   1.487   8.552
 1098SOL    HW1 4735   1.612   1.462   8.525
 1098SOL    HW2 4736   1.731   1.437   8.634
 1099SOL     OW 4737   0.317   0.547   8.728
 1099SOL    HW1 4738   0.355   0.488   8.800
 1099SOL    HW2 4739   0.357   0.521   8.640
 1100SOL     OW 4740   0.812   1.586   8.135
 1100SOL    HW1 4741   0.844   1.596   8.041
 1100SOL    HW2 4742   0.733   1.524   8.137
 1101SOL     OW 4743   1.424   0.214   8.560
 1101SOL    HW1 4744   1.476   0.149   8.615
 1101SOL    HW2 4745   1.375   0.277   8.621
 1102SOL     OW 4746   1.001   0.034   8.602
 1102SOL    HW1 4747   0.938  -0.038   8.571
 1102SOL    HW2 4748   1.094  -0.002   8.602
 1103SOL     OW 4749   0.770   1.330   7.749
 1103SOL    HW1 4750   0.724   1.243   7.766
 1103SOL    HW2 4751   0.861   1.327   7.790
 1104SOL     OW 4752   0.618   1.567   8.732
 1104SOL    HW1 4753   0.613   1.649   8.789
 1104SOL    HW2 4754   0.707   1.564   8.687
 1105SOL     OW 4755   1.352   0.052   7.616
 1105SOL    HW1 4756   1.387   0.011   7.532
 1105SOL    HW2 4757   1.262   0.014   7.636
 1106SOL     OW 4758   1.300   0.453   8.139
 1106SOL    HW1 4759   1.241   0.533   8.143
 1106SOL    HW2 4760   1.315   0.418   8.232
 1107SOL     OW 4761   1.593   0.221   8.330
 1107SOL    HW1 4762   1.509   0.220   8.384
 1107SOL    HW2 4763   1.595   0.304   8.274
 1108SOL     OW 4764   0.039   1.077   7.748
 1108SOL    HW1 4765   0.138   1.066   7.739
 1108SOL    HW2 4766  -0.001   0.991   7.780
 1109SOL     OW 4767   0.875   1.646   7.785
 1109SOL    HW1 4768   0.798   1.611   7.731
 1109SOL    HW2 4769   0.843   1.717   7.847
 1110SOL     OW 4770   0.230   0.628   9.423
 1110SOL    HW1 4771   0.137   0.626   9.460
 1110SOL    HW2 4772   0.231   0.589   9.331
 1111SOL     OW 4773   0.225   0.275  10.306
 1111SOL    HW1 4774   0.260   0.258  10.398
 1111SOL    HW2 4775   0.137   0.230  10.294
 1112SOL     OW 4776   0.019   0.368   9.957
 1112SOL    HW1 4777  -0.063   0.411   9.996
 1112SOL    HW2 4778  -0.009   0.295   9.894
 1113SOL     OW 4779   0.569   1.275  10.475
 1113SOL    HW1 4780   0.476   1.268  10.438
 1113SOL    HW2 4781   0.580   1.364  10.519
 1114SOL     OW 4782   1.555   1.511  10.013
 1114SOL    HW1 4783   1.498   1.495  10.094
 1114SOL    HW2 4784   1.496   1.521   9.933
 1115SOL     OW 4785   1.135   0.703  10.027
 1115SOL    HW1 4786   1.192   0.781  10.002
 1115SOL    HW2 4787   1.075   0.729  10.103
 1116SOL     OW 4788   1.755   0.607   9.541
 1116SOL    HW1 4789   1.743   0.594   9.442
 1116SOL    HW2 4790   1.725   0.526   9.590
 1117SOL     OW 4791   0.768   1.144  10.333
 1117SOL    HW1 4792   0.690   1.161  10.393
 1117SOL    HW2 4793   0.802   1.231  10.297
 1118SOL     OW 4794   0.850   0.798  11.133
 1118SOL    HW1 4795   0.846   0.874  11.198
 1118SOL    HW2 4796   0.872   0.834  11.042
 1119SOL     OW 4797   0.685   1.012   9.975
 1119SOL    HW1 4798   0.754   0.996  10.045
 1119SOL    HW2 4799   0.612   1.069  10.013
 1120SOL     OW 4800   0.686   1.161  11.113
 1120SOL    HW1 4801   0.746   1.240  11.127
 1120SOL    HW2 4802   0.600   1.192  11.072
 1121SOL     OW 4803   0.335   1.435  10.371
 1121SOL    HW1 4804   0.257   1.404  10.318
 1121SOL    HW2 4805   0.393   1.493  10.314
 1122SOL     OW 4806   1.460   1.505  10.649
 1122SOL    HW1 4807   1.484   1.599  10.675
 1122SOL    HW2 4808   1.444   1.451  10.731
 1123SOL     OW 4809   0.438   0.392  10.809
 1123SOL    HW1 4810   0.520   0.336  10.818
 1123SOL    HW2 4811   0.357   0.334  10.813
 1124SOL     OW 4812   1.603   0.447  10.047
 1124SOL    HW1 4813   1.529   0.493   9.997
 1124SOL    HW2 4814   1.654   0.515  10.100
 1125SOL     OW 4815   0.231   1.713   9.793
 1125SOL    HW1 4816   0.265   1.790   9.847
 1125SOL    HW2 4817   0.275   1.713   9.703
 1126SOL     OW 4818   1.127   1.341  11.000
 1126SOL    HW1 4819   1.174   1.341  11.088
 1126SOL    HW2 4820   1.079   1.254  10.989
 1127SOL     OW 4821   0.230   1.434   9.848
 1127SOL    HW1 4822   0.204   1.530   9.848
 1127SOL    HW2 4823   0.159   1.380   9.893
 1128SOL     OW 4824   0.240   1.091  10.196
 1128SOL    HW1 4825   0.254   1.007  10.248
 1128SOL    HW2 4826   0.185   1.155  10.251
 1129SOL     OW 4827   0.620   1.786  10.749
 1129SOL    HW1 4828   0.528   1.769  10.784
 1129SOL    HW2 4829   0.648   1.878  10.775
 1130SOL     OW 4830   0.606   0.964   9.433
 1130SOL    HW1 4831   0.613   1.048   9.379
 1130SOL    HW2 4832   0.652   0.977   9.521
 1131SOL     OW 4833   1.594   0.114  10.790
 1131SOL    HW1 4834   1.576   0.181  10.718
 1131SOL    HW2 4835   1.591   0.160  10.879
 1132SOL     OW 4836   0.122   0.643   9.873
 1132SOL    HW1 4837   0.077   0.555   9.890
 1132SOL    HW2 4838   0.121   0.697   9.957
 1133SOL     OW 4839   1.842   1.767   9.669
 1133SOL    HW1 4840   1.896   1.738   9.749
 1133SOL    HW2 4841   1.872   1.857   9.640
 1134SOL     OW 4842   0.027   1.596   9.427
 1134SOL    HW1 4843   0.008   1.500   9.448
 1134SOL    HW2 4844  -0.006   1.654   9.502
 1135SOL     OW 4845   1.689   0.922   9.922
 1135SOL    HW1 4846   1.784   0.893   9.930
 1135SOL    HW2 4847   1.681   0.987   9.847
 1136SOL     OW 4848   1.641   1.108   9.742
 1136SOL    HW1 4849   1.727   1.110   9.690
 1136SOL    HW2 4850   1.655   1.155   9.830
 1137SOL     OW 4851   0.113   0.737  10.907
 1137SOL    HW1 4852   0.201   0.724  10.952
 1137SOL    HW2 4853   0.100   0.834  10.885
 1138SOL     OW 4854   0.613   1.365  10.036
 1138SOL    HW1 4855   0.564   1.278  10.045
 1138SOL    HW2 4856   0.590   1.408   9.949
 1139SOL     OW 4857   1.293   1.228  10.733
 1139SOL    HW1 4858   1.330   1.155  10.675
 1139SOL    HW2 4859   1.345   1.233  10.818
 1140SOL     OW 4860   0.809   0.004   9.812
 1140SOL    HW1 4861   0.849   0.095   9.803
 1140SOL    HW2 4862   0.709   0.012   9.818
 1141SOL     OW 4863   0.197   0.976  10.574
 1141SOL    HW1 4864   0.286   0.931  10.560
 1141SOL    HW2 4865   0.124   0.911  10.555
 1142SOL     OW 4866   1.525   0.999   9.500
 1142SOL    HW1 4867   1.462   0.923   9.513
 1142SOL    HW2 4868   1.573   1.017   9.586
 1143SOL     OW 4869   1.187   1.792  10.926
 1143SOL    HW1 4870   1.211   1.852  10.850
 1143SOL    HW2 4871   1.194   1.697  10.896
 1144SOL     OW 4872   0.317   0.251  11.111
 1144SOL    HW1 4873   0.388   0.322  11.117
 1144SOL    HW2 4874   0.229   0.290  11.139
 1145SOL     OW 4875   1.466   1.417  10.263
 1145SOL    HW1 4876   1.407   1.423  10.343
 1145SOL    HW2 4877   1.451   1.329  10.217
 1146SOL     OW 4878   1.667   1.714   9.882
 1146SOL    HW1 4879   1.626   1.691   9.794
 1146SOL    HW2 4880   1.649   1.640   9.947
 1147SOL     OW 4881   0.598   0.729   9.580
 1147SOL    HW1 4882   0.622   0.798   9.512
 1147SOL    HW2 4883   0.520   0.762   9.634
 1148SOL     OW 4884   1.281   0.345  10.254
 1148SOL    HW1 4885   1.195   0.295  10.241
 1148SOL    HW2 4886   1.343   0.291  10.310
 1149SOL     OW 4887   1.576   1.662   9.617
 1149SOL    HW1 4888   1.665   1.708   9.620
 1149SOL    HW2 4889   1.555   1.638   9.522
 1150SOL     OW 4890   0.807   0.605  10.775
 1150SOL    HW1 4891   0.760   0.602  10.864
 1150SOL    HW2 4892   0.756   0.550  10.709
 1151SOL     OW 4893   1.394   0.469  10.984
 1151SOL    HW1 4894   1.374   0.512  11.072
 1151SOL    HW2 4895   1.472   0.407  10.993
 1152SOL     OW 4896   0.973   0.890  10.882
 1152SOL    HW1 4897   1.019   0.806  10.853
 1152SOL    HW2 4898   0.917   0.924  10.807
 1153SOL     OW 4899   0.991   0.410  10.552
 1153SOL    HW1 4900   0.914   0.444  10.606
 1153SOL    HW2 4901   0.957   0.359  10.473
 1154SOL     OW 4902   1.041   0.701   9.739
 1154SOL    HW1 4903   1.067   0.697   9.835
 1154SOL    HW2 4904   0.956   0.650   9.725
 1155SOL     OW 4905   0.076   0.811  10.099
 1155SOL    HW1 4906   0.175   0.799  10.108
 1155SOL    HW2 4907   0.052   0.906  10.120
 1156SOL     OW 4908   0.130   1.821  10.881
 1156SOL    HW1 4909   0.120   1.806  10.980
 1156SOL    HW2 4910   0.044   1.857  10.845
 1157SOL     OW 4911   0.865   0.348   9.505
 1157SOL    HW1 4912   0.924   0.411   9.456
 1157SOL    HW2 4913   0.884   0.254   9.476
 1158SOL     OW 4914   1.719   0.585  11.141
 1158SOL    HW1 4915   1.693   0.674  11.105
 1158SOL    HW2 4916   1.717   0.517  11.068
 1159SOL     OW 4917   1.362   1.144   9.855
 1159SOL    HW1 4918   1.445   1.115   9.807
 1159SOL    HW2 4919   1.313   1.211   9.799
 1160SOL     OW 4920   0.550   0.196  10.195
 1160SOL    HW1 4921   0.545   0.191  10.295
 1160SOL    HW2 4922   0.552   0.292  10.166
 1161SOL     OW 4923   1.008   1.456   9.787
 1161SOL    HW1 4924   0.962   1.528   9.735
 1161SOL    HW2 4925   1.004   1.476   9.885
 1162SOL     OW 4926   0.351   1.801  10.163
 1162SOL    HW1 4927   0.401   1.715  10.169
 1162SOL    HW2 4928   0.416   1.878  10.160
 1163SOL     OW 4929   1.795   1.066  10.183
 1163SOL    HW1 4930   1.733   1.051  10.107
 1163SOL    HW2 4931   1.743   1.077  10.268
 1164SOL     OW 4932   1.227   1.550  10.816
 1164SOL    HW1 4933   1.233   1.473  10.880
 1164SOL    HW2 4934   1.175   1.524  10.736
 1165SOL     OW 4935   0.321   0.943   9.552
 1165SOL    HW1 4936   0.403   0.982   9.510
 1165SOL    HW2 4937   0.294   0.861   9.503
 1166SOL     OW 4938   1.458   0.735  10.038
 1166SOL    HW1 4939   1.453   0.670  10.113
 1166SOL    HW2 4940   1.538   0.794  10.051
 1167SOL     OW 4941   0.461   1.266  11.037
 1167SOL    HW1 4942   0.411   1.267  10.951
 1167SOL    HW2 4943   0.398   1.248  11.113
 1168SOL     OW 4944   1.111   1.776   9.547
 1168SOL    HW1 4945   1.051   1.714   9.597
 1168SOL    HW2 4946   1.142   1.732   9.462
 1169SOL     OW 4947   0.202   0.285  10.808
 1169SOL    HW1 4948   0.122   0.345  10.795
 1169SOL    HW2 4949   0.192   0.236  10.894
 1170SOL     OW 4950   1.632   1.377   9.391
 1170SOL    HW1 4951   1.600   1.471   9.381
 1170SOL    HW2 4952   1.556   1.314   9.379
 1171SOL     OW 4953   0.464   1.743   9.633
 1171SOL    HW1 4954   0.497   1.782   9.719
 1171SOL    HW2 4955   0.540   1.736   9.568
 1172SOL     OW 4956   1.400   0.107   9.736
 1172SOL    HW1 4957   1.376   0.070   9.646
 1172SOL    HW2 4958   1.499   0.123   9.740
 1173SOL     OW 4959   0.249   1.785  10.551
 1173SOL    HW1 4960   0.306   1.720  10.601
 1173SOL    HW2 4961   0.233   1.752  10.458
 1174SOL     OW 4962   0.940   1.698  10.214
 1174SOL    HW1 4963   1.020   1.641  10.235
 1174SOL    HW2 4964   0.891   1.658  10.137
 1175SOL     OW 4965   0.382   0.700   9.790
 1175SOL    HW1 4966   0.427   0.610   9.787
 1175SOL    HW2 4967   0.288   0.689   9.823
 1176SOL     OW 4968   1.547   0.222  11.039
 1176SOL    HW1 4969   1.542   0.259  11.131
 1176SOL    HW2 4970   1.475   0.153  11.027
 1177SOL     OW 4971   0.614   0.122   9.427
 1177SOL    HW1 4972   0.712   0.100   9.434
 1177SOL    HW2 4973   0.583   0.105   9.334
 1178SOL     OW 4974   0.781   0.264  11.059
 1178SOL    HW1 4975   0.848   0.203  11.102
 1178SOL    HW2 4976   0.708   0.283  11.124
 1179SOL     OW 4977   0.888   1.514  10.505
 1179SOL    HW1 4978   0.865   1.489  10.411
 1179SOL    HW2 4979   0.949   1.445  10.544
 1180SOL     OW 4980   1.351   0.590  10.743
 1180SOL    HW1 4981   1.379   0.547  10.828
 1180SOL    HW2 4982   1.376   0.686  10.744
 1181SOL     OW 4983   0.803   1.402  10.234
 1181SOL    HW1 4984   0.893   1.416  10.192
 1181SOL    HW2 4985   0.732   1.404  10.163
 1182SOL     OW 4986   0.922   0.503  10.209
 1182SOL    HW1 4987   0.897   0.494  10.113
 1182SOL    HW2 4988   0.970   0.421  10.240
 1183SOL     OW 4989   0.539   0.064   9.822
 1183SOL    HW1 4990   0.458   0.065   9.880
 1183SOL    HW2 4991   0.542   0.147   9.767
 1184SOL     OW 4992   1.434   1.188   9.351
 1184SOL    HW1 4993   1.466   1.112   9.408
 1184SOL    HW2 4994   1.342   1.215   9.381
 1185SOL     OW 4995   0.297   0.035   9.481
 1185SOL    HW1 4996   0.346   0.119   9.460
 1185SOL    HW2 4997   0.359  -0.030   9.526
 1186SOL     OW 4998   0.935   0.236   9.790
 1186SOL    HW1 4999   0.887   0.277   9.712
 1186SOL    HW2 5000   1.034   0.234   9.771
 1187SOL     OW 5001   1.076   0.683  10.774
 1187SOL    HW1 5002   0.996   0.622  10.777
 1187SOL    HW2 5003   1.157   0.630  10.750
 1188SOL     OW 5004   1.227   1.570  10.103
 1188SOL    HW1 5005   1.248   1.644  10.038
 1188SOL    HW2 5006   1.295   1.570  10.176
 1189SOL     OW 5007   0.459   1.152  10.051
 1189SOL    HW1 5008   0.388   1.125  10.116
 1189SOL    HW2 5009   0.433   1.124   9.958
 1190SOL     OW 5010   1.271   1.797   9.901
 1190SOL    HW1 5011   1.315   1.861   9.837
 1190SOL    HW2 5012   1.221   1.849   9.971
 1191SOL     OW 5013   1.032   0.549   9.326
 1191SOL    HW1 5014   0.991   0.631   9.287
 1191SOL    HW2 5015   1.096   0.575   9.399
 1192SOL     OW 5016   0.078   0.556  10.696
 1192SOL    HW1 5017   0.170   0.555  10.655
 1192SOL    HW2 5018   0.072   0.630  10.763
 1193SOL     OW 5019   0.561   0.222  10.457
 1193SOL    HW1 5020   0.599   0.138  10.494
 1193SOL    HW2 5021   0.473   0.241  10.501
 1194SOL     OW 5022   0.866   0.454   9.952
 1194SOL    HW1 5023   0.834   0.526   9.890
 1194SOL    HW2 5024   0.890   0.373   9.899
 1195SOL     OW 5025   1.017   0.039  10.063
 1195SOL    HW1 5026   0.945   0.044   9.994
 1195SOL    HW2 5027   0.993  -0.030  10.132
 1196SOL     OW 5028   1.429   1.173  10.177
 1196SOL    HW1 5029   1.374   1.089  10.170
 1196SOL    HW2 5030   1.455   1.202  10.085
 1197SOL     OW 5031   1.466   0.590  10.302
 1197SOL    HW1 5032   1.436   0.495  10.309
 1197SOL    HW2 5033   1.539   0.606  10.368
 1198SOL     OW 5034   1.857   0.833   9.687
 1198SOL    HW1 5035   1.899   0.769   9.751
 1198SOL    HW2 5036   1.819   0.782   9.609
 1199SOL     OW 5037   0.488   1.385   9.484
 1199SOL    HW1 5038   0.401   1.370   9.531
 1199SOL    HW2 5039   0.471   1.411   9.389
 1200SOL     OW 5040   1.664   1.280   9.967
 1200SOL    HW1 5041   1.763   1.288   9.981
 1200SOL    HW2 5042   1.619   1.364   9.998
 1201SOL     OW 5043   1.390   0.575   9.388
 1201SOL    HW1 5044   1.336   0.554   9.469
 1201SOL    HW2 5045   1.481   0.534   9.397
 1202SOL     OW 5046   0.527   0.256   9.638
 1202SOL    HW1 5047   0.554   0.197   9.563
 1202SOL    HW2 5048   0.527   0.351   9.607
 1203SOL     OW 5049   1.754   1.223  10.898
 1203SOL    HW1 5050   1.845   1.184  10.885
 1203SOL    HW2 5051   1.762   1.319  10.922
 1204SOL     OW 5052   1.064   1.347  10.650
 1204SOL    HW1 5053   0.984   1.324  10.705
 1204SOL    HW2 5054   1.147   1.321  10.699
 1205SOL     OW 5055   1.592   1.629  10.935
 1205SOL    HW1 5056   1.619   1.663  10.845
 1205SOL    HW2 5057   1.671   1.591  10.981
 1206SOL     OW 5058   1.111   1.195  10.410
 1206SOL    HW1 5059   1.071   1.239  10.491
 1206SOL    HW2 5060   1.070   1.232  10.327
 1207SOL     OW 5061   1.638   1.099  10.389
 1207SOL    HW1 5062   1.643   1.180  10.448
 1207SOL    HW2 5063   1.552   1.101  10.338
 1208SOL     OW 5064   0.915   0.089  10.712
 1208SOL    HW1 5065   0.940   0.069  10.617
 1208SOL    HW2 5066   0.987   0.145  10.754
 1209SOL     OW 5067   0.980   1.116  11.029
 1209SOL    HW1 5068   0.881   1.122  11.039
 1209SOL    HW2 5069   1.003   1.036  10.973
 1210SOL     OW 5070   0.705   1.050   9.678
 1210SOL    HW1 5071   0.691   1.057   9.777
 1210SOL    HW2 5072   0.789   0.999   9.660
 1211SOL     OW 5073   0.410   0.813  10.561
 1211SOL    HW1 5074   0.496   0.825  10.611
 1211SOL    HW2 5075   0.368   0.726  10.588
 1212SOL     OW 5076   1.274   0.386  10.572
 1212SOL    HW1 5077   1.295   0.460  10.636
 1212SOL    HW2 5078   1.185   0.403  10.529
 1213SOL     OW 5079   0.064   1.564  10.641
 1213SOL    HW1 5080   0.018   1.646  10.607
 1213SOL    HW2 5081   0.162   1.583  10.650
 1214SOL     OW 5082   0.367   1.100   9.811
 1214SOL    HW1 5083   0.360   1.183   9.755
 1214SOL    HW2 5084   0.371   1.020   9.751
 1215SOL     OW 5085   0.566   0.537  10.175
 1215SOL    HW1 5086   0.578   0.603  10.101
 1215SOL    HW2 5087   0.612   0.571  10.258
 1216SOL     OW 5088   1.252   1.348   9.698
 1216SOL    HW1 5089   1.302   1.425   9.738
 1216SOL    HW2 5090   1.157   1.350   9.730
 1217SOL     OW 5091   1.272   1.445  10.452
 1217SOL    HW1 5092   1.319   1.458  10.539
 1217SOL    HW2 5093   1.206   1.371  10.461
 1218SOL     OW 5094   1.582   0.639   9.782
 1218SOL    HW1 5095   1.551   0.700   9.855
 1218SOL    HW2 5096   1.632   0.691   9.713
 1219SOL     OW 5097   0.354   1.510  10.639
 1219SOL    HW1 5098   0.333   1.466  10.552
 1219SOL    HW2 5099   0.451   1.536  10.642
 1220SOL     OW 5100   0.402   0.751  10.908
 1220SOL    HW1 5101   0.470   0.806  10.861
 1220SOL    HW2 5102   0.442   0.663  10.935
 1221SOL     OW 5103   1.587   0.779  10.980
 1221SOL    HW1 5104   1.495   0.817  10.975
 1221SOL    HW2 5105   1.647   0.826  10.915
 1222SOL     OW 5106   1.013   0.105  11.080
 1222SOL    HW1 5107   1.019   0.190  11.028
 1222SOL    HW2 5108   1.045   0.029  11.023
 1223SOL     OW 5109   0.504   0.050  11.050
 1223SOL    HW1 5110   0.462  -0.007  10.980
 1223SOL    HW2 5111   0.438   0.119  11.082
 1224SOL     OW 5112   0.573   0.870  10.339
 1224SOL    HW1 5113   0.617   0.959  10.330
 1224SOL    HW2 5114   0.510   0.870  10.416
 1225SOL     OW 5115   1.360   0.862  10.355
 1225SOL    HW1 5116   1.285   0.862  10.289
 1225SOL    HW2 5117   1.397   0.770  10.364
 1226SOL     OW 5118   1.209   0.525   9.585
 1226SOL    HW1 5119   1.222   0.441   9.639
 1226SOL    HW2 5120   1.180   0.599   9.645
 1227SOL     OW 5121   0.307   0.213  10.541
 1227SOL    HW1 5122   0.284   0.250  10.631
 1227SOL    HW2 5123   0.277   0.118  10.535
 1228SOL     OW 5124   0.037   1.310  10.592
 1228SOL    HW1 5125   0.090   1.261  10.660
 1228SOL    HW2 5126   0.059   1.408  10.597
 1229SOL     OW 5127   0.732   0.634  10.374
 1229SOL    HW1 5128   0.791   0.608  10.298
 1229SOL    HW2 5129   0.704   0.730  10.363
 1230SOL     OW 5130   1.728   0.935  11.164
 1230SOL    HW1 5131   1.682   0.928  11.075
 1230SOL    HW2 5132   1.666   0.979  11.230
 1231SOL     OW 5133   0.307   0.063   9.928
 1231SOL    HW1 5134   0.296   0.157   9.961
 1231SOL    HW2 5135   0.302   0.000  10.005
 1232SOL     OW 5136   1.622   0.367   9.684
 1232SOL    HW1 5137   1.624   0.291   9.748
 1232SOL    HW2 5138   1.574   0.444   9.724
 1233SOL     OW 5139   1.023   0.766  10.276
 1233SOL    HW1 5140   1.038   0.787  10.372
 1233SOL    HW2 5141   0.993   0.671  10.267
 1234SOL     OW 5142   0.980   1.573  11.010
 1234SOL    HW1 5143   0.960   1.617  10.922
 1234SOL    HW2 5144   1.019   1.482  10.994
 1235SOL     OW 5145   1.859   1.518  10.915
 1235SOL    HW1 5146   1.873   1.545  10.820
 1235SOL    HW2 5147   1.942   1.540  10.968
 1236SOL     OW 5148   0.350   0.898  11.114
 1236SOL    HW1 5149   0.426   0.942  11.162
 1236SOL    HW2 5150   0.385   0.851  11.032
 1237SOL     OW 5151   1.540   0.274   9.435
 1237SOL    HW1 5152   1.479   0.199   9.458
 1237SOL    HW2 5153   1.562   0.326   9.518
 1238SOL     OW 5154   1.303   0.838   9.352
 1238SOL    HW1 5155   1.337   0.745   9.367
 1238SOL    HW2 5156   1.321   0.865   9.257
 1239SOL     OW 5157   1.068   1.333  10.159
 1239SOL    HW1 5158   1.075   1.249  10.104
 1239SOL    HW2 5159   1.130   1.402  10.123
 1240SOL     OW 5160   0.319   0.810  10.259
 1240SOL    HW1 5161   0.412   0.846  10.264
 1240SOL    HW2 5162   0.313   0.725  10.311
 1241SOL     OW 5163   0.339   0.509  10.316
 1241SOL    HW1 5164   0.287   0.426  10.299
 1241SOL    HW2 5165   0.416   0.514  10.252
 1242SOL     OW 5166   1.138   0.380  10.988
 1242SOL    HW1 5167   1.093   0.443  11.052
 1242SOL    HW2 5168   1.231   0.411  10.971
 1243SOL     OW 5169   1.160   0.207  10.787
 1243SOL    HW1 5170   1.160   0.271  10.864
 1243SOL    HW2 5171   1.188   0.255  10.704
 1244SOL     OW 5172   0.008   1.326   9.510
 1244SOL    HW1 5173  -0.085   1.347   9.479
 1244SOL    HW2 5174   0.018   1.227   9.523
 1245SOL     OW 5175   0.088   1.801  10.237
 1245SOL    HW1 5176   0.046   1.715  10.210
 1245SOL    HW2 5177   0.182   1.804  10.203
 1246SOL     OW 5178   0.504   1.568  10.220
 1246SOL    HW1 5179   0.570   1.642  10.229
 1246SOL    HW2 5180   0.548   1.489  10.178
 1247SOL     OW 5181   1.002   0.796  10.548
 1247SOL    HW1 5182   1.043   0.764  10.634
 1247SOL    HW2 5183   0.906   0.769  10.545
 1248SOL     OW 5184   0.040   0.544  10.424
 1248SOL    HW1 5185   0.125   0.511  10.383
 1248SOL    HW2 5186   0.053   0.559  10.522
 1249SOL     OW 5187   0.189   0.520  11.032
 1249SOL    HW1 5188   0.248   0.480  10.962
 1249SOL    HW2 5189   0.131   0.591  10.991
 1250SOL     OW 5190   1.369   0.950  10.970
 1250SOL    HW1 5191   1.408   1.039  10.990
 1250SOL    HW2 5192   1.379   0.930  10.873
 1251SOL     OW 5193   0.815   0.572   9.635
 1251SOL    HW1 5194   0.822   0.483   9.589
 1251SOL    HW2 5195   0.721   0.606   9.627
 1252SOL     OW 5196   1.657   0.604  10.516
 1252SOL    HW1 5197   1.619   0.535  10.578
 1252SOL    HW2 5198   1.739   0.568  10.472
 1253SOL     OW 5199   0.252   1.564  11.054
 1253SOL    HW1 5200   0.222   1.621  11.130
 1253SOL    HW2 5201   0.245   1.467  11.080
 1254SOL     OW 5202   0.671   0.464  10.579
 1254SOL    HW1 5203   0.637   0.375  10.549
 1254SOL    HW2 5204   0.697   0.518  10.499
 1255SOL     OW 5205   0.930   1.678  10.775
 1255SOL    HW1 5206   0.906   1.660  10.680
 1255SOL    HW2 5207   0.960   1.772  10.785
 1256SOL     OW 5208   0.473   0.500   9.501
 1256SOL    HW1 5209   0.534   0.580   9.505
 1256SOL    HW2 5210   0.378   0.531   9.508
 1257SOL     OW 5211   0.159   1.137  10.776
 1257SOL    HW1 5212   0.181   1.076  10.852
 1257SOL    HW2 5213   0.169   1.088  10.690
 1258SOL     OW 5214   1.347   1.059  10.544
 1258SOL    HW1 5215   1.371   0.996  10.470
 1258SOL    HW2 5216   1.257   1.099  10.526
 1259SOL     OW 5217   1.302   0.855   9.619
 1259SOL    HW1 5218   1.216   0.824   9.661
 1259SOL    HW2 5219   1.298   0.841   9.520
 1260SOL     OW 5220   1.759   1.747  10.464
 1260SOL    HW1 5221   1.820   1.777  10.391
 1260SOL    HW2 5222   1.721   1.658  10.442
 1261SOL     OW 5223   1.252   1.731  10.438
 1261SOL    HW1 5224   1.336   1.736  10.384
 1261SOL    HW2 5225   1.229   1.635  10.456
 1262SOL     OW 5226   0.083   1.258  10.332
 1262SOL    HW1 5227   0.078   1.257  10.432
 1262SOL    HW2 5228   0.000   1.217  10.294
 1263SOL     OW 5229   0.688   1.662  11.026
 1263SOL    HW1 5230   0.632   1.743  11.035
 1263SOL    HW2 5231   0.740   1.666  10.940
 1264SOL     OW 5232   1.726   0.135   9.833
 1264SOL    HW1 5233   1.799   0.118   9.766
 1264SOL    HW2 5234   1.695   0.048   9.871
 1265SOL     OW 5235   1.388   1.573   9.787
 1265SOL    HW1 5236   1.455   1.585   9.713
 1265SOL    HW2 5237   1.348   1.662   9.810
 1266SOL     OW 5238   0.130   1.794  11.161
 1266SOL    HW1 5239   0.089   1.720  11.214
 1266SOL    HW2 5240   0.194   1.845  11.219
 1267SOL     OW 5241   1.280   0.927   9.982
 1267SOL    HW1 5242   1.340   0.846   9.984
 1267SOL    HW2 5243   1.320   0.996   9.922
 1268SOL     OW 5244   0.830   1.273  10.732
 1268SOL    HW1 5245   0.825   1.306  10.827
 1268SOL    HW2 5246   0.744   1.292  10.686
 1269SOL     OW 5247   0.672   1.616   9.464
 1269SOL    HW1 5248   0.681   1.626   9.365
 1269SOL    HW2 5249   0.632   1.527   9.485
 1270SOL     OW 5250   1.650   1.720  10.704
 1270SOL    HW1 5251   1.703   1.730  10.620
 1270SOL    HW2 5252   1.623   1.810  10.738
 1271SOL     OW 5253   1.841   0.175  10.273
 1271SOL    HW1 5254   1.880   0.090  10.237
 1271SOL    HW2 5255   1.743   0.177  10.254
 1272SOL     OW 5256   0.263   0.326  10.030
 1272SOL    HW1 5257   0.184   0.377   9.996
 1272SOL    HW2 5258   0.254   0.311  10.128
 1273SOL     OW 5259   1.194   1.612   9.341
 1273SOL    HW1 5260   1.200   1.519   9.378
 1273SOL    HW2 5261   1.135   1.612   9.261
 1274SOL     OW 5262   0.822   1.002  10.682
 1274SOL    HW1 5263   0.862   1.001  10.590
 1274SOL    HW2 5264   0.832   1.094  10.722
 1275SOL     OW 5265   0.916   0.910   9.601
 1275SOL    HW1 5266   0.979   0.948   9.533
 1275SOL    HW2 5267   0.956   0.827   9.640
 1276SOL     OW 5268   1.504   1.607   9.354
 1276SOL    HW1 5269   1.412   1.644   9.361
 1276SOL    HW2 5270   1.542   1.627   9.264
 1277SOL     OW 5271   0.372   1.288  10.800
 1277SOL    HW1 5272   0.359   1.381  10.766
 1277SOL    HW2 5273   0.288   1.236  10.787
 1278SOL     OW 5274   1.614   1.292  10.599
 1278SOL    HW1 5275   1.674   1.295  10.679
 1278SOL    HW2 5276   1.539   1.356  10.612
 1279SOL     OW 5277   1.039   1.098  10.006
 1279SOL    HW1 5278   0.969   1.051  10.060
 1279SOL    HW2 5279   1.098   1.030   9.963
 1280SOL     OW 5280   1.014   0.236  10.281
 1280SOL    HW1 5281   1.006   0.200  10.188
 1280SOL    HW2 5282   1.012   0.160  10.346
 1281SOL     OW 5283   0.590   1.487   9.801
 1281SOL    HW1 5284   0.632   1.429   9.731
 1281SOL    HW2 5285   0.546   1.566   9.757
 1282SOL     OW 5286   1.709   0.385  10.691
 1282SOL    HW1 5287   1.782   0.454  10.695
 1282SOL    HW2 5288   1.737   0.310  10.632
 1283SOL     OW 5289   0.255   1.348   9.600
 1283SOL    HW1 5290   0.159   1.349   9.573
 1283SOL    HW2 5291   0.267   1.401   9.684
 1284SOL     OW 5292   0.105   1.013  11.036
 1284SOL    HW1 5293   0.028   0.980  11.090
 1284SOL    HW2 5294   0.190   0.983  11.078
 1285SOL     OW 5295   0.672   0.203  10.799
 1285SOL    HW1 5296   0.762   0.187  10.759
 1285SOL    HW2 5297   0.680   0.208  10.898
 1286SOL     OW 5298   0.075   0.345   9.343
 1286SOL    HW1 5299  -0.017   0.317   9.314
 1286SOL    HW2 5300   0.106   0.422   9.287
 1287SOL     OW 5301   1.440   0.856  10.708
 1287SOL    HW1 5302   1.383   0.908  10.645
 1287SOL    HW2 5303   1.536   0.868  10.684
 1288SOL     OW 5304   0.072   0.166   9.628
 1288SOL    HW1 5305   0.055   0.249   9.574
 1288SOL    HW2 5306   0.162   0.129   9.606
 1289SOL     OW 5307   1.183   1.335   9.429
 1289SOL    HW1 5308   1.084   1.324   9.431
 1289SOL    HW2 5309   1.217   1.350   9.522
 1290SOL     OW 5310   0.613   0.842  10.741
 1290SOL    HW1 5311   0.669   0.923  10.724
 1290SOL    HW2 5312   0.672   0.762  10.744
 1291SOL     OW 5313   1.493   1.767  10.269
 1291SOL    HW1 5314   1.526   1.831  10.200
 1291SOL    HW2 5315   1.559   1.761  10.344
 1292SOL     OW 5316   0.716   0.565  11.018
 1292SOL    HW1 5317   0.735   0.630  11.092
 1292SOL    HW2 5318   0.776   0.485  11.027
 1293SOL     OW 5319   1.450   1.220  10.943
 1293SOL    HW1 5320   1.441   1.210  11.042
 1293SOL    HW2 5321   1.546   1.213  10.917
 1294SOL     OW 5322   0.390   1.741  10.870
 1294SOL    HW1 5323   0.299   1.782  10.868
 1294SOL    HW2 5324   0.383   1.647  10.902
 1295SOL     OW 5325   1.674   0.883  10.564
 1295SOL    HW1 5326   1.647   0.794  10.527
 1295SOL    HW2 5327   1.675   0.951  10.491
 1296SOL     OW 5328   1.225   0.325   9.759
 1296SOL    HW1 5329   1.290   0.251   9.748
 1296SOL    HW2 5330   1.245   0.375   9.843
 1297SOL     OW 5331   0.594   0.745   9.962
 1297SOL    HW1 5332   0.644   0.830   9.943
 1297SOL    HW2 5333   0.506   0.747   9.914
 1298SOL     OW 5334   1.777   0.342  10.952
 1298SOL    HW1 5335   1.760   0.373  10.858
 1298SOL    HW2 5336   1.693   0.305  10.990
 1299SOL     OW 5337   1.730   0.934  10.827
 1299SOL    HW1 5338   1.768   1.025  10.842
 1299SOL    HW2 5339   1.722   0.917  10.728
 1300SOL     OW 5340   0.859   1.374   9.326
 1300SOL    HW1 5341   0.813   1.389   9.414
 1300SOL    HW2 5342   0.903   1.459   9.296
 1301SOL     OW 5343   0.661   1.790  10.263
 1301SOL    HW1 5344   0.615   1.878  10.250
 1301SOL    HW2 5345   0.760   1.802  10.256
 1302SOL     OW 5346   0.859   0.956  10.171
 1302SOL    HW1 5347   0.913   0.887  10.219
 1302SOL    HW2 5348   0.827   1.025  10.237
 1303SOL     OW 5349   1.083   0.984   9.397
 1303SOL    HW1 5350   1.060   1.037   9.315
 1303SOL    HW2 5351   1.164   0.928   9.378
 1304SOL     OW 5352   1.861   1.569  10.161
 1304SOL    HW1 5353   1.790   1.557  10.091
 1304SOL    HW2 5354   1.862   1.490  10.221
 1305SOL     OW 5355   0.221   1.314  11.154
 1305SOL    HW1 5356   0.156   1.241  11.133
 1305SOL    HW2 5357   0.225   1.328  11.252
 1306SOL     OW 5358   0.079   1.240   9.963
 1306SOL    HW1 5359   0.078   1.193  10.051
 1306SOL    HW2 5360   0.161   1.212   9.912
 1307SOL     OW 5361   0.672   1.391  10.934
 1307SOL    HW1 5362   0.594   1.341  10.972
 1307SOL    HW2 5363   0.669   1.486  10.965
 1308SOL     OW 5364   1.824   0.192  10.537
 1308SOL    HW1 5365   1.820   0.102  10.581
 1308SOL    HW2 5366   1.827   0.181  10.438
 1309SOL     OW 5367   0.428   0.424   9.830
 1309SOL    HW1 5368   0.458   0.352   9.768
 1309SOL    HW2 5369   0.389   0.384   9.913
 1310SOL     OW 5370   1.705   1.487  10.414
 1310SOL    HW1 5371   1.612   1.462  10.387
 1310SOL    HW2 5372   1.731   1.437  10.496
 1311SOL     OW 5373   0.317   0.547  10.590
 1311SOL    HW1 5374   0.355   0.488  10.662
 1311SOL    HW2 5375   0.357   0.521  10.502
 1312SOL     OW 5376   0.812   1.586   9.997
 1312SOL    HW1 5377   0.844   1.596   9.903
 1312SOL    HW2 5378   0.733   1.524   9.999
 1313SOL     OW 5379   1.424   0.214  10.422
 1313SOL    HW1 5380   1.476   0.149  10.477
 1313SOL    HW2 5381   1.375   0.277  10.483
 1314SOL     OW 5382   1.001   0.034  10.464
 1314SOL    HW1 5383   0.938  -0.038  10.433
 1314SOL    HW2 5384   1.094  -0.002  10.464
 1315SOL     OW 5385   0.770   1.330   9.611
 1315SOL    HW1 5386   0.724   1.243   9.628
 1315SOL    HW2 5387   0.861   1.327   9.652
 1316SOL     OW 5388   0.618   1.567  10.594
 1316SOL    HW1 5389   0.613   1.649  10.651
 1316SOL    HW2 5390   0.707   1.564  10.549
 1317SOL     OW 5391   1.352   0.052   9.478
 1317SOL    HW1 5392   1.387   0.011   9.394
 1317SOL    HW2 5393   1.262   0.014   9.498
 1318SOL     OW 5394   1.300   0.453  10.001
 1318SOL    HW1 5395   1.241   0.533  10.005
 1318SOL    HW2 5396   1.315   0.418  10.094
 1319SOL     OW 5397   1.593   0.221  10.192
 1319SOL    HW1 5398   1.509   0.220  10.246
 1319SOL    HW2 5399   1.595   0.304  10.136
 1320SOL     OW 5400   0.039   1.077   9.610
 1320SOL    HW1 5401   0.138   1.066   9.601
 1320SOL    HW2 5402  -0.001   0.991   9.642
 1321SOL     OW 5403   0.875   1.646   9.647
 1321SOL    HW1 5404   0.798   1.611   9.593
 1321SOL    HW2 5405   0.843   1.717   9.709
 1322SOL     OW 5406   0.230   0.628  11.285
 1322SOL    HW1 5407   0.137   0.626  11.322
 1322SOL    HW2 5408   0.231   0.589  11.193
 1323SOL     OW 5409   0.225   0.275  12.168
 1323SOL    HW1 5410   0.260   0.258  12.260
 1323SOL    HW2 5411   0.137   0.230  12.156
 1324SOL     OW 5412   0.019   0.368  11.819
 1324SOL    HW1 5413  -0.063   0.411  11.858
 1324SOL    HW2 5414  -0.009   0.295  11.756
 1325SOL     OW 5415   0.569   1.275  12.337
 1325SOL    HW1 5416   0.476   1.268  12.300
 1325SOL    HW2 5417   0.580   1.364  12.381
 1326SOL     OW 5418   1.555   1.511  11.875
 1326SOL    HW1 5419   1.498   1.495  11.956
 1326SOL    HW2 5420   1.496   1.521  11.795
 1327SOL     OW 5421   1.135   0.703  11.889
 1327SOL    HW1 5422   1.192   0.781  11.864
 1327SOL    HW2 5423   1.075   0.729  11.965
 1328SOL     OW 5424   1.755   0.607  11.403
 1328SOL    HW1 5425   1.743   0.594  11.304
 1328SOL    HW2 5426   1.725   0.526  11.452
 1329SOL     OW 5427   0.768   1.144  12.195
 1329SOL    HW1 5428   0.690   1.161  12.255
 1329SOL    HW2 5429   0.802   1.231  12.159
 1330SOL     OW 5430   0.685   1.012  11.837
 1330SOL    HW1 5431   0.754   0.996  11.907
 1330SOL    HW2 5432   0.612   1.069  11.875
 1331SOL     OW 5433   0.335   1.435  12.233
 1331SOL    HW1 5434   0.257   1.404  12.180
 1331SOL    HW2 5435   0.393   1.493  12.176
 1332SOL     OW 5436   1.603   0.447  11.909
 1332SOL    HW1 5437   1.529   0.493  11.859
 1332SOL    HW2 5438   1.654   0.515  11.962
 1333SOL     OW 5439   0.231   1.713  11.655
 1333SOL    HW1 5440   0.265   1.790  11.709
 1333SOL    HW2 5441   0.275   1.713  11.565
 1334SOL     OW 5442   0.230   1.434  11.710
 1334SOL    HW1 5443   0.204   1.530  11.710
 1334SOL    HW2 5444   0.159   1.380  11.755
 1335SOL     OW 5445   0.240   1.091  12.058
 1335SOL    HW1 5446   0.254   1.007  12.110
 1335SOL    HW2 5447   0.185   1.155  12.113
 1336SOL     OW 5448   0.606   0.964  11.295
 1336SOL    HW1 5449   0.613   1.048  11.241
 1336SOL    HW2 5450   0.652   0.977  11.383
 1337SOL     OW 5451   1.842   1.767  11.531
 1337SOL    HW1 5452   1.896   1.738  11.611
 1337SOL    HW2 5453   1.872   1.857  11.502
 1338SOL     OW 5454   0.027   1.596  11.289
 1338SOL    HW1 5455   0.008   1.500  11.310
 1338SOL    HW2 5456  -0.006   1.654  11.364
 1339SOL     OW 5457   1.689   0.922  11.784
 1339SOL    HW1 5458   1.784   0.893  11.792
 1339SOL    HW2 5459   1.681   0.987  11.709
 1340SOL     OW 5460   1.641   1.108  11.604
 1340SOL    HW1 5461   1.727   1.110  11.552
 1340SOL    HW2 5462   1.655   1.155  11.692
 1341SOL     OW 5463   0.113   0.737  12.769
 1341SOL    HW1 5464   0.201   0.724  12.814
 1341SOL    HW2 5465   0.100   0.834  12.747
 1342SOL     OW 5466   0.613   1.365  11.898
 1342SOL    HW1 5467   0.564   1.278  11.907
 1342SOL    HW2 5468   0.590   1.408  11.811
 1343SOL     OW 5469   0.809   0.004  11.674
 1343SOL    HW1 5470   0.849   0.095  11.665
 1343SOL    HW2 5471   0.709   0.012  11.680
 1344SOL     OW 5472   0.197   0.976  12.436
 1344SOL    HW1 5473   0.286   0.931  12.422
 1344SOL    HW2 5474   0.124   0.911  12.417
 1345SOL     OW 5475   1.525   0.999  11.362
 1345SOL    HW1 5476   1.462   0.923  11.375
 1345SOL    HW2 5477   1.573   1.017  11.448
 1346SOL     OW 5478   1.466   1.417  12.125
 1346SOL    HW1 5479   1.407   1.423  12.205
 1346SOL    HW2 5480   1.451   1.329  12.079
 1347SOL     OW 5481   1.667   1.714  11.744
 1347SOL    HW1 5482   1.626   1.691  11.656
 1347SOL    HW2 5483   1.649   1.640  11.809
 1348SOL     OW 5484   0.598   0.729  11.442
 1348SOL    HW1 5485   0.622   0.798  11.374
 1348SOL    HW2 5486   0.520   0.762  11.496
 1349SOL     OW 5487   1.281   0.345  12.116
 1349SOL    HW1 5488   1.195   0.295  12.103
 1349SOL    HW2 5489   1.343   0.291  12.172
 1350SOL     OW 5490   1.576   1.662  11.479
 1350SOL    HW1 5491   1.665   1.708  11.482
 1350SOL    HW2 5492   1.555   1.638  11.384
 1351SOL     OW 5493   0.991   0.410  12.414
 1351SOL    HW1 5494   0.914   0.444  12.468
 1351SOL    HW2 5495   0.957   0.359  12.335
 1352SOL     OW 5496   1.041   0.701  11.601
 1352SOL    HW1 5497   1.067   0.697  11.697
 1352SOL    HW2 5498   0.956   0.650  11.587
 1353SOL     OW 5499   0.076   0.811  11.961
 1353SOL    HW1 5500   0.175   0.799  11.970
 1353SOL    HW2 5501   0.052   0.906  11.982
 1354SOL     OW 5502   0.130   1.821  12.743
 1354SOL    HW1 5503   0.120   1.806  12.842
 1354SOL    HW2 5504   0.044   1.857  12.707
 1355SOL     OW 5505   0.865   0.348  11.367
 1355SOL    HW1 5506   0.924   0.411  11.318
 1355SOL    HW2 5507   0.884   0.254  11.338
 1356SOL     OW 5508   1.362   1.144  11.717
 1356SOL    HW1 5509   1.445   1.115  11.669
 1356SOL    HW2 5510   1.313   1.211  11.661
 1357SOL     OW 5511   0.550   0.196  12.057
 1357SOL    HW1 5512   0.545   0.191  12.157
 1357SOL    HW2 5513   0.552   0.292  12.028
 1358SOL     OW 5514   1.008   1.456  11.649
 1358SOL    HW1 5515   0.962   1.528  11.597
 1358SOL    HW2 5516   1.004   1.476  11.747
 1359SOL     OW 5517   0.351   1.801  12.025
 1359SOL    HW1 5518   0.401   1.715  12.031
 1359SOL    HW2 5519   0.416   1.878  12.022
 1360SOL     OW 5520   1.795   1.066  12.045
 1360SOL    HW1 5521   1.733   1.051  11.969
 1360SOL    HW2 5522   1.743   1.077  12.130
 1361SOL     OW 5523   0.321   0.943  11.414
 1361SOL    HW1 5524   0.403   0.982  11.372
 1361SOL    HW2 5525   0.294   0.861  11.365
 1362SOL     OW 5526   1.458   0.735  11.900
 1362SOL    HW1 5527   1.453   0.670  11.975
 1362SOL    HW2 5528   1.538   0.794  11.913
 1363SOL     OW 5529   1.111   1.776  11.409
 1363SOL    HW1 5530   1.051   1.714  11.459
 1363SOL    HW2 5531   1.142   1.732  11.324
 1364SOL     OW 5532   1.632   1.377  11.253
 1364SOL    HW1 5533   1.600   1.471  11.243
 1364SOL    HW2 5534   1.556   1.314  11.241
 1365SOL     OW 5535   0.464   1.743  11.495
 1365SOL    HW1 5536   0.497   1.782  11.581
 1365SOL    HW2 5537   0.540   1.736  11.430
 1366SOL     OW 5538   1.400   0.107  11.598
 1366SOL    HW1 5539   1.376   0.070  11.508
 1366SOL    HW2 5540   1.499   0.123  11.602
 1367SOL     OW 5541   0.249   1.785  12.413
 1367SOL    HW1 5542   0.306   1.720  12.463
 1367SOL    HW2 5543   0.233   1.752  12.320
 1368SOL     OW 5544   0.940   1.698  12.076
 1368SOL    HW1 5545   1.020   1.641  12.097
 1368SOL    HW2 5546   0.891   1.658  11.999
 1369SOL     OW 5547   0.382   0.700  11.652
 1369SOL    HW1 5548   0.427   0.610  11.649
 1369SOL    HW2 5549   0.288   0.689  11.685
 1370SOL     OW 5550   0.614   0.122  11.289
 1370SOL    HW1 5551   0.712   0.100  11.296
 1370SOL    HW2 5552   0.583   0.105  11.196
 1371SOL     OW 5553   0.803   1.402  12.096
 1371SOL    HW1 5554   0.893   1.416  12.054
 1371SOL    HW2 5555   0.732   1.404  12.025
 1372SOL     OW 5556   0.922   0.503  12.071
 1372SOL    HW1 5557   0.897   0.494  11.975
 1372SOL    HW2 5558   0.970   0.421  12.102
 1373SOL     OW 5559   0.539   0.064  11.684
 1373SOL    HW1 5560   0.458   0.065  11.742
 1373SOL    HW2 5561   0.542   0.147  11.629
 1374SOL     OW 5562   1.434   1.188  11.213
 1374SOL    HW1 5563   1.466   1.112  11.270
 1374SOL    HW2 5564   1.342   1.215  11.243
 1375SOL     OW 5565   0.297   0.035  11.343
 1375SOL    HW1 5566   0.346   0.119  11.322
 1375SOL    HW2 5567   0.359  -0.030  11.388
 1376SOL     OW 5568   0.935   0.236  11.652
 1376SOL    HW1 5569   0.887   0.277  11.574
 1376SOL    HW2 5570   1.034   0.234  11.633
 1377SOL     OW 5571   1.227   1.570  11.965
 1377SOL    HW1 5572   1.248   1.644  11.900
 1377SOL    HW2 5573   1.295   1.570  12.038
 1378SOL     OW 5574   0.459   1.152  11.913
 1378SOL    HW1 5575   0.388   1.125  11.978
 1378SOL    HW2 5576   0.433   1.124  11.820
 1379SOL     OW 5577   1.271   1.797  11.763
 1379SOL    HW1 5578   1.315   1.861  11.699
 1379SOL    HW2 5579   1.221   1.849  11.833
 1380SOL     OW 5580   0.561   0.222  12.319
 1380SOL    HW1 5581   0.599   0.138  12.356
 1380SOL    HW2 5582   0.473   0.241  12.363
 1381SOL     OW 5583   0.866   0.454  11.814
 1381SOL    HW1 5584   0.834   0.526  11.752
 1381SOL    HW2 5585   0.890   0.373  11.761
 1382SOL     OW 5586   1.017   0.039  11.925
 1382SOL    HW1 5587   0.945   0.044  11.856
 1382SOL    HW2 5588   0.993  -0.030  11.994
 1383SOL     OW 5589   1.429   1.173  12.039
 1383SOL    HW1 5590   1.374   1.089  12.032
 1383SOL    HW2 5591   1.455   1.202  11.947
 1384SOL     OW 5592   1.466   0.590  12.164
 1384SOL    HW1 5593   1.436   0.495  12.171
 1384SOL    HW2 5594   1.539   0.606  12.230
 1385SOL     OW 5595   1.857   0.833  11.549
 1385SOL    HW1 5596   1.899   0.769  11.613
 1385SOL    HW2 5597   1.819   0.782  11.471
 1386SOL     OW 5598   0.488   1.385  11.346
 1386SOL    HW1 5599   0.401   1.370  11.393
 1386SOL    HW2 5600   0.471   1.411  11.251
 1387SOL     OW 5601   1.664   1.280  11.829
 1387SOL    HW1 5602   1.763   1.288  11.843
 1387SOL    HW2 5603   1.619   1.364  11.860
 1388SOL     OW 5604   1.390   0.575  11.250
 1388SOL    HW1 5605   1.336   0.554  11.331
 1388SOL    HW2 5606   1.481   0.534  11.259
 1389SOL     OW 5607   0.527   0.256  11.500
 1389SOL    HW1 5608   0.554   0.197  11.425
 1389SOL    HW2 5609   0.527   0.351  11.469
 1390SOL     OW 5610   1.111   1.195  12.272
 1390SOL    HW1 5611   1.071   1.239  12.353
 1390SOL    HW2 5612   1.070   1.232  12.189
 1391SOL     OW 5613   1.638   1.099  12.251
 1391SOL    HW1 5614   1.643   1.180  12.310
 1391SOL    HW2 5615   1.552   1.101  12.200
 1392SOL     OW 5616   0.705   1.050  11.540
 1392SOL    HW1 5617   0.691   1.057  11.639
 1392SOL    HW2 5618   0.789   0.999  11.522
 1393SOL     OW 5619   0.410   0.813  12.423
 1393SOL    HW1 5620   0.496   0.825  12.473
 1393SOL    HW2 5621   0.368   0.726  12.450
 1394SOL     OW 5622   1.274   0.386  12.434
 1394SOL    HW1 5623   1.295   0.460  12.498
 1394SOL    HW2 5624   1.185   0.403  12.391
 1395SOL     OW 5625   0.367   1.100  11.673
 1395SOL    HW1 5626   0.360   1.183  11.617
 1395SOL    HW2 5627   0.371   1.020  11.613
 1396SOL     OW 5628   0.566   0.537  12.037
 1396SOL    HW1 5629   0.578   0.603  11.963
 1396SOL    HW2 5630   0.612   0.571  12.120
 1397SOL     OW 5631   1.252   1.348  11.560
 1397SOL    HW1 5632   1.302   1.425  11.600
 1397SOL    HW2 5633   1.157   1.350  11.592
 1398SOL     OW 5634   1.272   1.445  12.314
 1398SOL    HW1 5635   1.319   1.458  12.401
 1398SOL    HW2 5636   1.206   1.371  12.323
 1399SOL     OW 5637   1.582   0.639  11.644
 1399SOL    HW1 5638   1.551   0.700  11.717
 1399SOL    HW2 5639   1.632   0.691  11.575
 1400SOL     OW 5640   0.354   1.510  12.501
 1400SOL    HW1 5641   0.333   1.466  12.414
 1400SOL    HW2 5642   0.451   1.536  12.504
 1401SOL     OW 5643   0.573   0.870  12.201
 1401SOL    HW1 5644   0.617   0.959  12.192
 1401SOL    HW2 5645   0.510   0.870  12.278
 1402SOL     OW 5646   1.360   0.862  12.217
 1402SOL    HW1 5647   1.285   0.862  12.151
 1402SOL    HW2 5648   1.397   0.770  12.226
 1403SOL     OW 5649   1.209   0.525  11.447
 1403SOL    HW1 5650   1.222   0.441  11.501
 1403SOL    HW2 5651   1.180   0.599  11.507
 1404SOL     OW 5652   0.307   0.213  12.403
 1404SOL    HW1 5653   0.284   0.250  12.493
 1404SOL    HW2 5654   0.277   0.118  12.397
 1405SOL     OW 5655   0.037   1.310  12.454
 1405SOL    HW1 5656   0.090   1.261  12.522
 1405SOL    HW2 5657   0.059   1.408  12.459
 1406SOL     OW 5658   0.732   0.634  12.236
 1406SOL    HW1 5659   0.791   0.608  12.160
 1406SOL    HW2 5660   0.704   0.730  12.225
 1407SOL     OW 5661   0.307   0.063  11.790
 1407SOL    HW1 5662   0.296   0.157  11.823
 1407SOL    HW2 5663   0.302   0.000  11.867
 1408SOL     OW 5664   1.622   0.367  11.546
 1408SOL    HW1 5665   1.624   0.291  11.610
 1408SOL    HW2 5666   1.574   0.444  11.586
 1409SOL     OW 5667   1.023   0.766  12.138
 1409SOL    HW1 5668   1.038   0.787  12.234
 1409SOL    HW2 5669   0.993   0.671  12.129
 1410SOL     OW 5670   1.540   0.274  11.297
 1410SOL    HW1 5671   1.479   0.199  11.320
 1410SOL    HW2 5672   1.562   0.326  11.380
 1411SOL     OW 5673   1.303   0.838  11.214
 1411SOL    HW1 5674   1.337   0.745  11.229
 1411SOL    HW2 5675   1.321   0.865  11.119
 1412SOL     OW 5676   1.068   1.333  12.021
 1412SOL    HW1 5677   1.075   1.249  11.966
 1412SOL    HW2 5678   1.130   1.402  11.985
 1413SOL     OW 5679   0.319   0.810  12.121
 1413SOL    HW1 5680   0.412   0.846  12.126
 1413SOL    HW2 5681   0.313   0.725  12.173
 1414SOL     OW 5682   0.339   0.509  12.178
 1414SOL    HW1 5683   0.287   0.426  12.161
 1414SOL    HW2 5684   0.416   0.514  12.114
 1415SOL     OW 5685   1.160   0.207  12.649
 1415SOL    HW1 5686   1.160   0.271  12.726
 1415SOL    HW2 5687   1.188   0.255  12.566
 1416SOL     OW 5688   0.008   1.326  11.372
 1416SOL    HW1 5689  -0.085   1.347  11.341
 1416SOL    HW2 5690   0.018   1.227  11.385
 1417SOL     OW 5691   0.088   1.801  12.099
 1417SOL    HW1 5692   0.046   1.715  12.072
 1417SOL    HW2 5693   0.182   1.804  12.065
 1418SOL     OW 5694   0.504   1.568  12.082
 1418SOL    HW1 5695   0.570   1.642  12.091
 1418SOL    HW2 5696   0.548   1.489  12.040
 1419SOL     OW 5697   1.002   0.796  12.410
 1419SOL    HW1 5698   1.043   0.764  12.496
 1419SOL    HW2 5699   0.906   0.769  12.407
 1420SOL     OW 5700   0.040   0.544  12.286
 1420SOL    HW1 5701   0.125   0.511  12.245
 1420SOL    HW2 5702   0.053   0.559  12.384
 1421SOL     OW 5703   0.815   0.572  11.497
 1421SOL    HW1 5704   0.822   0.483  11.451
 1421SOL    HW2 5705   0.721   0.606  11.489
 1422SOL     OW 5706   1.657   0.604  12.378
 1422SOL    HW1 5707   1.619   0.535  12.440
 1422SOL    HW2 5708   1.739   0.568  12.334
 1423SOL     OW 5709   0.671   0.464  12.441
 1423SOL    HW1 5710   0.637   0.375  12.411
 1423SOL    HW2 5711   0.697   0.518  12.361
 1424SOL     OW 5712   0.930   1.678  12.637
 1424SOL    HW1 5713   0.906   1.660  12.542
 1424SOL    HW2 5714   0.960   1.772  12.647
 1425SOL     OW 5715   0.473   0.500  11.363
 1425SOL    HW1 5716   0.534   0.580  11.367
 1425SOL    HW2 5717   0.378   0.531  11.370
 1426SOL     OW 5718   1.347   1.059  12.406
 1426SOL    HW1 5719   1.371   0.996  12.332
 1426SOL    HW2 5720   1.257   1.099  12.388
 1427SOL     OW 5721   1.302   0.855  11.481
 1427SOL    HW1 5722   1.216   0.824  11.523
 1427SOL    HW2 5723   1.298   0.841  11.382
 1428SOL     OW 5724   1.759   1.747  12.326
 1428SOL    HW1 5725   1.820   1.777  12.253
 1428SOL    HW2 5726   1.721   1.658  12.304
 1429SOL     OW 5727   1.252   1.731  12.300
 1429SOL    HW1 5728   1.336   1.736  12.246
 1429SOL    HW2 5729   1.229   1.635  12.318
 1430SOL     OW 5730   0.083   1.258  12.194
 1430SOL    HW1 5731   0.078   1.257  12.294
 1430SOL    HW2 5732   0.000   1.217  12.156
 1431SOL     OW 5733   1.726   0.135  11.695
 1431SOL    HW1 5734   1.799   0.118  11.628
 1431SOL    HW2 5735   1.695   0.048  11.733
 1432SOL     OW 5736   1.388   1.573  11.649
 1432SOL    HW1 5737   1.455   1.585  11.575
 1432SOL    HW2 5738   1.348   1.662  11.672
 1433SOL     OW 5739   1.280   0.927  11.844
 1433SOL    HW1 5740   1.340   0.846  11.846
 1433SOL    HW2 5741   1.320   0.996  11.784
 1434SOL     OW 5742   0.672   1.616  11.326
 1434SOL    HW1 5743   0.681   1.626  11.227
 1434SOL    HW2 5744   0.632   1.527  11.347
 1435SOL     OW 5745   1.650   1.720  12.566
 1435SOL    HW1 5746   1.703   1.730  12.482
 1435SOL    HW2 5747   1.623   1.810  12.600
 1436SOL     OW 5748   1.841   0.175  12.135
 1436SOL    HW1 5749   1.880   0.090  12.099
 1436SOL    HW2 5750   1.743   0.177  12.116
 1437SOL     OW 5751   0.263   0.326  11.892
 1437SOL    HW1 5752   0.184   0.377  11.858
 1437SOL    HW2 5753   0.254   0.311  11.990
 1438SOL     OW 5754   1.194   1.612  11.203
 1438SOL    HW1 5755   1.200   1.519  11.240
 1438SOL    HW2 5756   1.135   1.612  11.123
 1439SOL     OW 5757   0.822   1.002  12.544
 1439SOL    HW1 5758   0.862   1.001  12.452
 1439SOL    HW2 5759   0.832   1.094  12.584
 1440SOL     OW 5760   0.916   0.910  11.463
 1440SOL    HW1 5761   0.979   0.948  11.395
 1440SOL    HW2 5762   0.956   0.827  11.502
 1441SOL     OW 5763   1.504   1.607  11.216
 1441SOL    HW1 5764   1.412   1.644  11.223
 1441SOL    HW2 5765   1.542   1.627  11.126
 1442SOL     OW 5766   1.039   1.098  11.868
 1442SOL    HW1 5767   0.969   1.051  11.922
 1442SOL    HW2 5768   1.098   1.030  11.825
 1443SOL     OW 5769   1.014   0.236  12.143
 1443SOL    HW1 5770   1.006   0.200  12.050
 1443SOL    HW2 5771   1.012   0.160  12.208
 1444SOL     OW 5772   0.590   1.487  11.663
 1444SOL    HW1 5773   0.632   1.429  11.593
 1444SOL    HW2 5774   0.546   1.566  11.619
 1445SOL     OW 5775   1.709   0.385  12.553
 1445SOL    HW1 5776   1.782   0.454  12.557
 1445SOL    HW2 5777   1.737   0.310  12.494
 1446SOL     OW 5778   0.255   1.348  11.462
 1446SOL    HW1 5779   0.159   1.349  11.435
 1446SOL    HW2 5780   0.267   1.401  11.546
 1447SOL     OW 5781   0.075   0.345  11.205
 1447SOL    HW1 5782  -0.017   0.317  11.176
 1447SOL    HW2 5783   0.106   0.422  11.149
 1448SOL     OW 5784   0.072   0.166  11.490
 1448SOL    HW1 5785   0.055   0.249  11.436
 1448SOL    HW2 5786   0.162   0.129  11.468
 1449SOL     OW 5787   1.183   1.335  11.291
 1449SOL    HW1 5788   1.084   1.324  11.293
 1449SOL    HW2 5789   1.217   1.350  11.384
 1450SOL     OW 5790   1.493   1.767  12.131
 1450SOL    HW1 5791   1.526   1.831  12.062
 1450SOL    HW2 5792   1.559   1.761  12.206
 1451SOL     OW 5793   1.674   0.883  12.426
 1451SOL    HW1 5794   1.647   0.794  12.389
 1451SOL    HW2 5795   1.675   0.951  12.353
 1452SOL     OW 5796   1.225   0.325  11.621
 1452SOL    HW1 5797   1.290   0.251  11.610
 1452SOL    HW2 5798   1.245   0.375  11.705
 1453SOL     OW 5799   0.594   0.745  11.824
 1453SOL    HW1 5800   0.644   0.830  11.805
 1453SOL    HW2 5801   0.506   0.747  11.776
 1454SOL     OW 5802   1.730   0.934  12.689
 1454SOL    HW1 5803   1.768   1.025  12.704
 1454SOL    HW2 5804   1.722   0.917  12.590
 1455SOL     OW 5805   0.859   1.374  11.188
 1455SOL    HW1 5806   0.813   1.389  11.276
 1455SOL    HW2 5807   0.903   1.459  11.158
 1456SOL     OW 5808   0.661   1.790  12.125
 1456SOL    HW1 5809   0.615   1.878  12.112
 1456SOL    HW2 5810   0.760   1.802  12.118
 1457SOL     OW 5811   0.859   0.956  12.033
 1457SOL    HW1 5812   0.913   0.887  12.081
 1457SOL    HW2 5813   0.827   1.025  12.099
 1458SOL     OW 5814   1.083   0.984  11.259
 1458SOL    HW1 5815   1.060   1.037  11.177
 1458SOL    HW2 5816   1.164   0.928  11.240
 1459SOL     OW 5817   1.861   1.569  12.023
 1459SOL    HW1 5818   1.790   1.557  11.953
 1459SOL    HW2 5819   1.862   1.490  12.083
 1460SOL     OW 5820   0.079   1.240  11.825
 1460SOL    HW1 5821   0.078   1.193  11.913
 1460SOL    HW2 5822   0.161   1.212  11.774
 1461SOL     OW 5823   1.824   0.192  12.399
 1461SOL    HW1 5824   1.820   0.102  12.443
 1461SOL    HW2 5825   1.827   0.181  12.300
 1462SOL     OW 5826   0.428   0.424  11.692
 1462SOL    HW1 5827   0.458   0.352  11.630
 1462SOL    HW2 5828   0.389   0.384  11.775
 1463SOL     OW 5829   1.705   1.487  12.276
 1463SOL    HW1 5830   1.612   1.462  12.249
 1463SOL    HW2 5831   1.731   1.437  12.358
 1464SOL     OW 5832   0.812   1.586  11.859
 1464SOL    HW1 5833   0.844   1.596  11.765
 1464SOL    HW2 5834   0.733   1.524  11.861
 1465SOL     OW 5835   1.424   0.214  12.284
 1465SOL    HW1 5836   1.476   0.149  12.339
 1465SOL    HW2 5837   1.375   0.277  12.345
 1466SOL     OW 5838   1.001   0.034  12.326
 1466SOL    HW1 5839   0.938  -0.038  12.295
 1466SOL    HW2 5840   1.094  -0.002  12.326
 1467SOL     OW 5841   0.770   1.330  11.473
 1467SOL    HW1 5842   0.724   1.243  11.490
 1467SOL    HW2 5843   0.861   1.327  11.514
 1468SOL     OW 5844   1.352   0.052  11.340
 1468SOL    HW1 5845   1.387   0.011  11.256
 1468SOL    HW2 5846   1.262   0.014  11.360
 1469SOL     OW 5847   1.300   0.453  11.863
 1469SOL    HW1 5848   1.241   0.533  11.867
 1469SOL    HW2 5849   1.315   0.418  11.956
 1470SOL     OW 5850   1.593   0.221  12.054
 1470SOL    HW1 5851   1.509   0.220  12.108
 1470SOL    HW2 5852   1.595   0.304  11.998
 1471SOL     OW 5853   0.039   1.077  11.472
 1471SOL    HW1 5854   0.138   1.066  11.463
 1471SOL    HW2 5855  -0.001   0.991  11.504
 1472SOL     OW 5856   0.875   1.646  11.509
 1472SOL    HW1 5857   0.798   1.611  11.455
 1472SOL    HW2 5858   0.843   1.717  11.571
 1473SOL     OW 5859   0.230   2.490   0.113
 1473SOL    HW1 5860   0.137   2.488   0.150
 1473SOL    HW2 5861   0.231   2.451   0.021
 1474SOL     OW 5862   0.225   2.137   0.996
 1474SOL    HW1 5863   0.260   2.120   1.088
 1474SOL    HW2 5864   0.137   2.092   0.984
 1475SOL     OW 5865   0.019   2.230   0.647
 1475SOL    HW1 5866  -0.063   2.273   0.686
 1475SOL    HW2 5867  -0.009   2.157   0.584
 1476SOL     OW 5868   0.569   3.137   1.165
 1476SOL    HW1 5869   0.476   3.130   1.128
 1476SOL    HW2 5870   0.580   3.226   1.209
 1477SOL     OW 5871   1.555   3.373   0.703
 1477SOL    HW1 5872   1.498   3.357   0.784
 1477SOL    HW2 5873   1.496   3.383   0.623
 1478SOL     OW 5874   1.135   2.565   0.717
 1478SOL    HW1 5875   1.192   2.643   0.692
 1478SOL    HW2 5876   1.075   2.591   0.793
 1479SOL     OW 5877   1.755   2.469   0.231
 1479SOL    HW1 5878   1.743   2.456   0.132
 1479SOL    HW2 5879   1.725   2.388   0.280
 1480SOL     OW 5880   0.768   3.006   1.023
 1480SOL    HW1 5881   0.690   3.023   1.083
 1480SOL    HW2 5882   0.802   3.093   0.987
 1481SOL     OW 5883   0.850   2.660   1.823
 1481SOL    HW1 5884   0.846   2.736   1.888
 1481SOL    HW2 5885   0.872   2.696   1.732
 1482SOL     OW 5886   0.685   2.874   0.665
 1482SOL    HW1 5887   0.754   2.858   0.735
 1482SOL    HW2 5888   0.612   2.931   0.703
 1483SOL     OW 5889   0.686   3.023   1.803
 1483SOL    HW1 5890   0.746   3.102   1.817
 1483SOL    HW2 5891   0.600   3.054   1.762
 1484SOL     OW 5892   0.335   3.297   1.061
 1484SOL    HW1 5893   0.257   3.266   1.008
 1484SOL    HW2 5894   0.393   3.355   1.004
 1485SOL     OW 5895   1.460   3.367   1.339
 1485SOL    HW1 5896   1.484   3.461   1.365
 1485SOL    HW2 5897   1.444   3.313   1.421
 1486SOL     OW 5898   0.438   2.254   1.499
 1486SOL    HW1 5899   0.520   2.198   1.508
 1486SOL    HW2 5900   0.357   2.196   1.503
 1487SOL     OW 5901   1.603   2.309   0.737
 1487SOL    HW1 5902   1.529   2.355   0.687
 1487SOL    HW2 5903   1.654   2.377   0.790
 1488SOL     OW 5904   0.231   3.575   0.483
 1488SOL    HW1 5905   0.265   3.652   0.537
 1488SOL    HW2 5906   0.275   3.575   0.393
 1489SOL     OW 5907   1.127   3.203   1.690
 1489SOL    HW1 5908   1.174   3.203   1.778
 1489SOL    HW2 5909   1.079   3.116   1.679
 1490SOL     OW 5910   0.230   3.296   0.538
 1490SOL    HW1 5911   0.204   3.392   0.538
 1490SOL    HW2 5912   0.159   3.242   0.583
 1491SOL     OW 5913   0.240   2.953   0.886
 1491SOL    HW1 5914   0.254   2.869   0.938
 1491SOL    HW2 5915   0.185   3.017   0.941
 1492SOL     OW 5916   0.620   3.648   1.439
 1492SOL    HW1 5917   0.528   3.631   1.474
 1492SOL    HW2 5918   0.648   3.740   1.465
 1493SOL     OW 5919   0.606   2.826   0.123
 1493SOL    HW1 5920   0.613   2.910   0.069
 1493SOL    HW2 5921   0.652   2.839   0.211
 1494SOL     OW 5922   1.594   1.976   1.480
 1494SOL    HW1 5923   1.576   2.043   1.408
 1494SOL    HW2 5924   1.591   2.022   1.569
 1495SOL     OW 5925   0.122   2.505   0.563
 1495SOL    HW1 5926   0.077   2.417   0.580
 1495SOL    HW2 5927   0.121   2.559   0.647
 1496SOL     OW 5928   1.842   3.629   0.359
 1496SOL    HW1 5929   1.896   3.600   0.439
 1496SOL    HW2 5930   1.872   3.719   0.330
 1497SOL     OW 5931   0.027   3.458   0.117
 1497SOL    HW1 5932   0.008   3.362   0.138
 1497SOL    HW2 5933  -0.006   3.516   0.192
 1498SOL     OW 5934   1.689   2.784   0.612
 1498SOL    HW1 5935   1.784   2.755   0.620
 1498SOL    HW2 5936   1.681   2.849   0.537
 1499SOL     OW 5937   1.641   2.970   0.432
 1499SOL    HW1 5938   1.727   2.972   0.380
 1499SOL    HW2 5939   1.655   3.017   0.520
 1500SOL     OW 5940   0.113   2.599   1.597
 1500SOL    HW1 5941   0.201   2.586   1.642
 1500SOL    HW2 5942   0.100   2.696   1.575
 1501SOL     OW 5943   0.613   3.227   0.726
 1501SOL    HW1 5944   0.564   3.140   0.735
 1501SOL    HW2 5945   0.590   3.270   0.639
 1502SOL     OW 5946   1.293   3.090   1.423
 1502SOL    HW1 5947   1.330   3.017   1.365
 1502SOL    HW2 5948   1.345   3.095   1.508
 1503SOL     OW 5949   0.809   1.866   0.502
 1503SOL    HW1 5950   0.849   1.957   0.493
 1503SOL    HW2 5951   0.709   1.874   0.508
 1504SOL     OW 5952   0.197   2.838   1.264
 1504SOL    HW1 5953   0.286   2.793   1.250
 1504SOL    HW2 5954   0.124   2.773   1.245
 1505SOL     OW 5955   1.525   2.861   0.190
 1505SOL    HW1 5956   1.462   2.785   0.203
 1505SOL    HW2 5957   1.573   2.879   0.276
 1506SOL     OW 5958   1.187   3.654   1.616
 1506SOL    HW1 5959   1.211   3.714   1.540
 1506SOL    HW2 5960   1.194   3.559   1.586
 1507SOL     OW 5961   0.317   2.113   1.801
 1507SOL    HW1 5962   0.388   2.184   1.807
 1507SOL    HW2 5963   0.229   2.152   1.829
 1508SOL     OW 5964   1.466   3.279   0.953
 1508SOL    HW1 5965   1.407   3.285   1.033
 1508SOL    HW2 5966   1.451   3.191   0.907
 1509SOL     OW 5967   1.667   3.576   0.572
 1509SOL    HW1 5968   1.626   3.553   0.484
 1509SOL    HW2 5969   1.649   3.502   0.637
 1510SOL     OW 5970   0.598   2.591   0.270
 1510SOL    HW1 5971   0.622   2.660   0.202
 1510SOL    HW2 5972   0.520   2.624   0.324
 1511SOL     OW 5973   1.281   2.207   0.944
 1511SOL    HW1 5974   1.195   2.157   0.931
 1511SOL    HW2 5975   1.343   2.153   1.000
 1512SOL     OW 5976   1.576   3.524   0.307
 1512SOL    HW1 5977   1.665   3.570   0.310
 1512SOL    HW2 5978   1.555   3.500   0.212
 1513SOL     OW 5979   0.807   2.467   1.465
 1513SOL    HW1 5980   0.760   2.464   1.554
 1513SOL    HW2 5981   0.756   2.412   1.399
 1514SOL     OW 5982   1.394   2.331   1.674
 1514SOL    HW1 5983   1.374   2.374   1.762
 1514SOL    HW2 5984   1.472   2.269   1.683
 1515SOL     OW 5985   0.973   2.752   1.572
 1515SOL    HW1 5986   1.019   2.668   1.543
 1515SOL    HW2 5987   0.917   2.786   1.497
 1516SOL     OW 5988   0.991   2.272   1.242
 1516SOL    HW1 5989   0.914   2.306   1.296
 1516SOL    HW2 5990   0.957   2.221   1.163
 1517SOL     OW 5991   1.041   2.563   0.429
 1517SOL    HW1 5992   1.067   2.559   0.525
 1517SOL    HW2 5993   0.956   2.512   0.415
 1518SOL     OW 5994   0.076   2.673   0.789
 1518SOL    HW1 5995   0.175   2.661   0.798
 1518SOL    HW2 5996   0.052   2.768   0.810
 1519SOL     OW 5997   0.130   3.683   1.571
 1519SOL    HW1 5998   0.120   3.668   1.670
 1519SOL    HW2 5999   0.044   3.719   1.535
 1520SOL     OW 6000   0.865   2.210   0.195
 1520SOL    HW1 6001   0.924   2.273   0.146
 1520SOL    HW2 6002   0.884   2.116   0.166
 1521SOL     OW 6003   1.719   2.447   1.831
 1521SOL    HW1 6004   1.693   2.536   1.795
 1521SOL    HW2 6005   1.717   2.379   1.758
 1522SOL     OW 6006   1.362   3.006   0.545
 1522SOL    HW1 6007   1.445   2.977   0.497
 1522SOL    HW2 6008   1.313   3.073   0.489
 1523SOL     OW 6009   0.550   2.058   0.885
 1523SOL    HW1 6010   0.545   2.053   0.985
 1523SOL    HW2 6011   0.552   2.154   0.856
 1524SOL     OW 6012   1.008   3.318   0.477
 1524SOL    HW1 6013   0.962   3.390   0.425
 1524SOL    HW2 6014   1.004   3.338   0.575
 1525SOL     OW 6015   0.351   3.663   0.853
 1525SOL    HW1 6016   0.401   3.577   0.859
 1525SOL    HW2 6017   0.416   3.740   0.850
 1526SOL     OW 6018   1.795   2.928   0.873
 1526SOL    HW1 6019   1.733   2.913   0.797
 1526SOL    HW2 6020   1.743   2.939   0.958
 1527SOL     OW 6021   1.227   3.412   1.506
 1527SOL    HW1 6022   1.233   3.335   1.570
 1527SOL    HW2 6023   1.175   3.386   1.426
 1528SOL     OW 6024   0.321   2.805   0.242
 1528SOL    HW1 6025   0.403   2.844   0.200
 1528SOL    HW2 6026   0.294   2.723   0.193
 1529SOL     OW 6027   1.458   2.597   0.728
 1529SOL    HW1 6028   1.453   2.532   0.803
 1529SOL    HW2 6029   1.538   2.656   0.741
 1530SOL     OW 6030   0.461   3.128   1.727
 1530SOL    HW1 6031   0.411   3.129   1.641
 1530SOL    HW2 6032   0.398   3.110   1.803
 1531SOL     OW 6033   1.111   3.638   0.237
 1531SOL    HW1 6034   1.051   3.576   0.287
 1531SOL    HW2 6035   1.142   3.594   0.152
 1532SOL     OW 6036   0.202   2.147   1.498
 1532SOL    HW1 6037   0.122   2.207   1.485
 1532SOL    HW2 6038   0.192   2.098   1.584
 1533SOL     OW 6039   1.632   3.239   0.081
 1533SOL    HW1 6040   1.600   3.333   0.071
 1533SOL    HW2 6041   1.556   3.176   0.069
 1534SOL     OW 6042   0.464   3.605   0.323
 1534SOL    HW1 6043   0.497   3.644   0.409
 1534SOL    HW2 6044   0.540   3.598   0.258
 1535SOL     OW 6045   1.400   1.969   0.426
 1535SOL    HW1 6046   1.376   1.932   0.336
 1535SOL    HW2 6047   1.499   1.985   0.430
 1536SOL     OW 6048   0.249   3.647   1.241
 1536SOL    HW1 6049   0.306   3.582   1.291
 1536SOL    HW2 6050   0.233   3.614   1.148
 1537SOL     OW 6051   0.940   3.560   0.904
 1537SOL    HW1 6052   1.020   3.503   0.925
 1537SOL    HW2 6053   0.891   3.520   0.827
 1538SOL     OW 6054   0.382   2.562   0.480
 1538SOL    HW1 6055   0.427   2.472   0.477
 1538SOL    HW2 6056   0.288   2.551   0.513
 1539SOL     OW 6057   1.547   2.084   1.729
 1539SOL    HW1 6058   1.542   2.121   1.821
 1539SOL    HW2 6059   1.475   2.015   1.717
 1540SOL     OW 6060   0.614   1.984   0.117
 1540SOL    HW1 6061   0.712   1.962   0.124
 1540SOL    HW2 6062   0.583   1.967   0.024
 1541SOL     OW 6063   0.781   2.126   1.749
 1541SOL    HW1 6064   0.848   2.065   1.792
 1541SOL    HW2 6065   0.708   2.145   1.814
 1542SOL     OW 6066   0.888   3.376   1.195
 1542SOL    HW1 6067   0.865   3.351   1.101
 1542SOL    HW2 6068   0.949   3.307   1.234
 1543SOL     OW 6069   1.351   2.452   1.433
 1543SOL    HW1 6070   1.379   2.409   1.518
 1543SOL    HW2 6071   1.376   2.548   1.434
 1544SOL     OW 6072   0.803   3.264   0.924
 1544SOL    HW1 6073   0.893   3.278   0.882
 1544SOL    HW2 6074   0.732   3.266   0.853
 1545SOL     OW 6075   0.922   2.365   0.899
 1545SOL    HW1 6076   0.897   2.356   0.803
 1545SOL    HW2 6077   0.970   2.283   0.930
 1546SOL     OW 6078   0.539   1.926   0.512
 1546SOL    HW1 6079   0.458   1.927   0.570
 1546SOL    HW2 6080   0.542   2.009   0.457
 1547SOL     OW 6081   1.434   3.050   0.041
 1547SOL    HW1 6082   1.466   2.974   0.098
 1547SOL    HW2 6083   1.342   3.077   0.071
 1548SOL     OW 6084   0.297   1.897   0.171
 1548SOL    HW1 6085   0.346   1.981   0.150
 1548SOL    HW2 6086   0.359   1.832   0.216
 1549SOL     OW 6087   0.935   2.098   0.480
 1549SOL    HW1 6088   0.887   2.139   0.402
 1549SOL    HW2 6089   1.034   2.096   0.461
 1550SOL     OW 6090   1.076   2.545   1.464
 1550SOL    HW1 6091   0.996   2.484   1.467
 1550SOL    HW2 6092   1.157   2.492   1.440
 1551SOL     OW 6093   1.227   3.432   0.793
 1551SOL    HW1 6094   1.248   3.506   0.728
 1551SOL    HW2 6095   1.295   3.432   0.866
 1552SOL     OW 6096   0.459   3.014   0.741
 1552SOL    HW1 6097   0.388   2.987   0.806
 1552SOL    HW2 6098   0.433   2.986   0.648
 1553SOL     OW 6099   1.271   3.659   0.591
 1553SOL    HW1 6100   1.315   3.723   0.527
 1553SOL    HW2 6101   1.221   3.711   0.661
 1554SOL     OW 6102   1.032   2.411   0.016
 1554SOL    HW1 6103   0.991   2.493  -0.023
 1554SOL    HW2 6104   1.096   2.437   0.089
 1555SOL     OW 6105   0.078   2.418   1.386
 1555SOL    HW1 6106   0.170   2.417   1.345
 1555SOL    HW2 6107   0.072   2.492   1.453
 1556SOL     OW 6108   0.561   2.084   1.147
 1556SOL    HW1 6109   0.599   2.000   1.184
 1556SOL    HW2 6110   0.473   2.103   1.191
 1557SOL     OW 6111   0.866   2.316   0.642
 1557SOL    HW1 6112   0.834   2.388   0.580
 1557SOL    HW2 6113   0.890   2.235   0.589
 1558SOL     OW 6114   1.017   1.901   0.753
 1558SOL    HW1 6115   0.945   1.906   0.684
 1558SOL    HW2 6116   0.993   1.832   0.822
 1559SOL     OW 6117   1.429   3.035   0.867
 1559SOL    HW1 6118   1.374   2.951   0.860
 1559SOL    HW2 6119   1.455   3.064   0.775
 1560SOL     OW 6120   1.466   2.452   0.992
 1560SOL    HW1 6121   1.436   2.357   0.999
 1560SOL    HW2 6122   1.539   2.468   1.058
 1561SOL     OW 6123   1.857   2.695   0.377
 1561SOL    HW1 6124   1.899   2.631   0.441
 1561SOL    HW2 6125   1.819   2.644   0.299
 1562SOL     OW 6126   0.488   3.247   0.174
 1562SOL    HW1 6127   0.401   3.232   0.221
 1562SOL    HW2 6128   0.471   3.273   0.079
 1563SOL     OW 6129   1.664   3.142   0.657
 1563SOL    HW1 6130   1.763   3.150   0.671
 1563SOL    HW2 6131   1.619   3.226   0.688
 1564SOL     OW 6132   1.390   2.437   0.078
 1564SOL    HW1 6133   1.336   2.416   0.159
 1564SOL    HW2 6134   1.481   2.396   0.087
 1565SOL     OW 6135   0.527   2.118   0.328
 1565SOL    HW1 6136   0.554   2.059   0.253
 1565SOL    HW2 6137   0.527   2.213   0.297
 1566SOL     OW 6138   1.754   3.085   1.588
 1566SOL    HW1 6139   1.845   3.046   1.575
 1566SOL    HW2 6140   1.762   3.181   1.612
 1567SOL     OW 6141   1.064   3.209   1.340
 1567SOL    HW1 6142   0.984   3.186   1.395
 1567SOL    HW2 6143   1.147   3.183   1.389
 1568SOL     OW 6144   1.592   3.491   1.625
 1568SOL    HW1 6145   1.619   3.525   1.535
 1568SOL    HW2 6146   1.671   3.453   1.671
 1569SOL     OW 6147   1.111   3.057   1.100
 1569SOL    HW1 6148   1.071   3.101   1.181
 1569SOL    HW2 6149   1.070   3.094   1.017
 1570SOL     OW 6150   1.638   2.961   1.079
 1570SOL    HW1 6151   1.643   3.042   1.138
 1570SOL    HW2 6152   1.552   2.963   1.028
 1571SOL     OW 6153   0.915   1.951   1.402
 1571SOL    HW1 6154   0.940   1.931   1.307
 1571SOL    HW2 6155   0.987   2.007   1.444
 1572SOL     OW 6156   0.980   2.978   1.719
 1572SOL    HW1 6157   0.881   2.984   1.729
 1572SOL    HW2 6158   1.003   2.898   1.663
 1573SOL     OW 6159   0.705   2.912   0.368
 1573SOL    HW1 6160   0.691   2.919   0.467
 1573SOL    HW2 6161   0.789   2.861   0.350
 1574SOL     OW 6162   0.410   2.675   1.251
 1574SOL    HW1 6163   0.496   2.687   1.301
 1574SOL    HW2 6164   0.368   2.588   1.278
 1575SOL     OW 6165   1.274   2.248   1.262
 1575SOL    HW1 6166   1.295   2.322   1.326
 1575SOL    HW2 6167   1.185   2.265   1.219
 1576SOL     OW 6168   0.064   3.426   1.331
 1576SOL    HW1 6169   0.018   3.508   1.297
 1576SOL    HW2 6170   0.162   3.445   1.340
 1577SOL     OW 6171   0.367   2.962   0.501
 1577SOL    HW1 6172   0.360   3.045   0.445
 1577SOL    HW2 6173   0.371   2.882   0.441
 1578SOL     OW 6174   0.566   2.399   0.865
 1578SOL    HW1 6175   0.578   2.465   0.791
 1578SOL    HW2 6176   0.612   2.433   0.948
 1579SOL     OW 6177   1.252   3.210   0.388
 1579SOL    HW1 6178   1.302   3.287   0.428
 1579SOL    HW2 6179   1.157   3.212   0.420
 1580SOL     OW 6180   1.272   3.307   1.142
 1580SOL    HW1 6181   1.319   3.320   1.229
 1580SOL    HW2 6182   1.206   3.233   1.151
 1581SOL     OW 6183   1.582   2.501   0.472
 1581SOL    HW1 6184   1.551   2.562   0.545
 1581SOL    HW2 6185   1.632   2.553   0.403
 1582SOL     OW 6186   0.354   3.372   1.329
 1582SOL    HW1 6187   0.333   3.328   1.242
 1582SOL    HW2 6188   0.451   3.398   1.332
 1583SOL     OW 6189   0.402   2.613   1.598
 1583SOL    HW1 6190   0.470   2.668   1.551
 1583SOL    HW2 6191   0.442   2.525   1.625
 1584SOL     OW 6192   1.587   2.641   1.670
 1584SOL    HW1 6193   1.495   2.679   1.665
 1584SOL    HW2 6194   1.647   2.688   1.605
 1585SOL     OW 6195   1.013   1.967   1.770
 1585SOL    HW1 6196   1.019   2.052   1.718
 1585SOL    HW2 6197   1.045   1.891   1.713
 1586SOL     OW 6198   0.504   1.912   1.740
 1586SOL    HW1 6199   0.462   1.855   1.670
 1586SOL    HW2 6200   0.438   1.981   1.772
 1587SOL     OW 6201   0.573   2.732   1.029
 1587SOL    HW1 6202   0.617   2.821   1.020
 1587SOL    HW2 6203   0.510   2.732   1.106
 1588SOL     OW 6204   1.360   2.724   1.045
 1588SOL    HW1 6205   1.285   2.724   0.979
 1588SOL    HW2 6206   1.397   2.632   1.054
 1589SOL     OW 6207   1.209   2.387   0.275
 1589SOL    HW1 6208   1.222   2.303   0.329
 1589SOL    HW2 6209   1.180   2.461   0.335
 1590SOL     OW 6210   0.307   2.075   1.231
 1590SOL    HW1 6211   0.284   2.112   1.321
 1590SOL    HW2 6212   0.277   1.980   1.225
 1591SOL     OW 6213   0.037   3.172   1.282
 1591SOL    HW1 6214   0.090   3.123   1.350
 1591SOL    HW2 6215   0.059   3.270   1.287
 1592SOL     OW 6216   0.732   2.496   1.064
 1592SOL    HW1 6217   0.791   2.470   0.988
 1592SOL    HW2 6218   0.704   2.592   1.053
 1593SOL     OW 6219   1.728   2.797   1.854
 1593SOL    HW1 6220   1.682   2.790   1.765
 1593SOL    HW2 6221   1.666   2.841   1.920
 1594SOL     OW 6222   0.307   1.925   0.618
 1594SOL    HW1 6223   0.296   2.019   0.651
 1594SOL    HW2 6224   0.302   1.862   0.695
 1595SOL     OW 6225   1.622   2.229   0.374
 1595SOL    HW1 6226   1.624   2.153   0.438
 1595SOL    HW2 6227   1.574   2.306   0.414
 1596SOL     OW 6228   1.023   2.628   0.966
 1596SOL    HW1 6229   1.038   2.649   1.062
 1596SOL    HW2 6230   0.993   2.533   0.957
 1597SOL     OW 6231   0.980   3.435   1.700
 1597SOL    HW1 6232   0.960   3.479   1.612
 1597SOL    HW2 6233   1.019   3.344   1.684
 1598SOL     OW 6234   1.859   3.380   1.605
 1598SOL    HW1 6235   1.873   3.407   1.510
 1598SOL    HW2 6236   1.942   3.402   1.658
 1599SOL     OW 6237   0.350   2.760   1.804
 1599SOL    HW1 6238   0.426   2.804   1.852
 1599SOL    HW2 6239   0.385   2.713   1.722
 1600SOL     OW 6240   1.540   2.136   0.125
 1600SOL    HW1 6241   1.479   2.061   0.148
 1600SOL    HW2 6242   1.562   2.188   0.208
 1601SOL     OW 6243   1.303   2.700   0.042
 1601SOL    HW1 6244   1.337   2.607   0.057
 1601SOL    HW2 6245   1.321   2.727  -0.053
 1602SOL     OW 6246   1.068   3.195   0.849
 1602SOL    HW1 6247   1.075   3.111   0.794
 1602SOL    HW2 6248   1.130   3.264   0.813
 1603SOL     OW 6249   0.319   2.672   0.949
 1603SOL    HW1 6250   0.412   2.708   0.954
 1603SOL    HW2 6251   0.313   2.587   1.001
 1604SOL     OW 6252   0.339   2.371   1.006
 1604SOL    HW1 6253   0.287   2.288   0.989
 1604SOL    HW2 6254   0.416   2.376   0.942
 1605SOL     OW 6255   1.138   2.242   1.678
 1605SOL    HW1 6256   1.093   2.305   1.742
 1605SOL    HW2 6257   1.231   2.273   1.661
 1606SOL     OW 6258   1.160   2.069   1.477
 1606SOL    HW1 6259   1.160   2.133   1.554
 1606SOL    HW2 6260   1.188   2.117   1.394
 1607SOL     OW 6261   0.008   3.188   0.200
 1607SOL    HW1 6262  -0.085   3.209   0.169
 1607SOL    HW2 6263   0.018   3.089   0.213
 1608SOL     OW 6264   0.088   3.663   0.927
 1608SOL    HW1 6265   0.046   3.577   0.900
 1608SOL    HW2 6266   0.182   3.666   0.893
 1609SOL     OW 6267   0.504   3.430   0.910
 1609SOL    HW1 6268   0.570   3.504   0.919
 1609SOL    HW2 6269   0.548   3.351   0.868
 1610SOL     OW 6270   1.002   2.658   1.238
 1610SOL    HW1 6271   1.043   2.626   1.324
 1610SOL    HW2 6272   0.906   2.631   1.235
 1611SOL     OW 6273   0.040   2.406   1.114
 1611SOL    HW1 6274   0.125   2.373   1.073
 1611SOL    HW2 6275   0.053   2.421   1.212
 1612SOL     OW 6276   0.189   2.382   1.722
 1612SOL    HW1 6277   0.248   2.342   1.652
 1612SOL    HW2 6278   0.131   2.453   1.681
 1613SOL     OW 6279   1.369   2.812   1.660
 1613SOL    HW1 6280   1.408   2.901   1.680
 1613SOL    HW2 6281   1.379   2.792   1.563
 1614SOL     OW 6282   0.815   2.434   0.325
 1614SOL    HW1 6283   0.822   2.345   0.279
 1614SOL    HW2 6284   0.721   2.468   0.317
 1615SOL     OW 6285   1.657   2.466   1.206
 1615SOL    HW1 6286   1.619   2.397   1.268
 1615SOL    HW2 6287   1.739   2.430   1.162
 1616SOL     OW 6288   0.252   3.426   1.744
 1616SOL    HW1 6289   0.222   3.483   1.820
 1616SOL    HW2 6290   0.245   3.329   1.770
 1617SOL     OW 6291   0.671   2.326   1.269
 1617SOL    HW1 6292   0.637   2.237   1.239
 1617SOL    HW2 6293   0.697   2.380   1.189
 1618SOL     OW 6294   0.930   3.540   1.465
 1618SOL    HW1 6295   0.906   3.522   1.370
 1618SOL    HW2 6296   0.960   3.634   1.475
 1619SOL     OW 6297   0.473   2.362   0.191
 1619SOL    HW1 6298   0.534   2.442   0.195
 1619SOL    HW2 6299   0.378   2.393   0.198
 1620SOL     OW 6300   0.159   2.999   1.466
 1620SOL    HW1 6301   0.181   2.938   1.542
 1620SOL    HW2 6302   0.169   2.950   1.380
 1621SOL     OW 6303   1.347   2.921   1.234
 1621SOL    HW1 6304   1.371   2.858   1.160
 1621SOL    HW2 6305   1.257   2.961   1.216
 1622SOL     OW 6306   1.302   2.717   0.309
 1622SOL    HW1 6307   1.216   2.686   0.351
 1622SOL    HW2 6308   1.298   2.703   0.210
 1623SOL     OW 6309   1.759   3.609   1.154
 1623SOL    HW1 6310   1.820   3.639   1.081
 1623SOL    HW2 6311   1.721   3.520   1.132
 1624SOL     OW 6312   1.252   3.593   1.128
 1624SOL    HW1 6313   1.336   3.598   1.074
 1624SOL    HW2 6314   1.229   3.497   1.146
 1625SOL     OW 6315   0.083   3.120   1.022
 1625SOL    HW1 6316   0.078   3.119   1.122
 1625SOL    HW2 6317   0.000   3.079   0.984
 1626SOL     OW 6318   0.688   3.524   1.716
 1626SOL    HW1 6319   0.632   3.605   1.725
 1626SOL    HW2 6320   0.740   3.528   1.630
 1627SOL     OW 6321   0.903   1.948   0.133
 1627SOL    HW1 6322   0.954   1.949   0.047
 1627SOL    HW2 6323   0.959   1.906   0.204
 1628SOL     OW 6324   1.726   1.997   0.523
 1628SOL    HW1 6325   1.799   1.980   0.456
 1628SOL    HW2 6326   1.695   1.910   0.561
 1629SOL     OW 6327   1.388   3.435   0.477
 1629SOL    HW1 6328   1.455   3.447   0.403
 1629SOL    HW2 6329   1.348   3.524   0.500
 1630SOL     OW 6330   0.130   3.656   1.851
 1630SOL    HW1 6331   0.089   3.582   1.904
 1630SOL    HW2 6332   0.194   3.707   1.909
 1631SOL     OW 6333   1.280   2.789   0.672
 1631SOL    HW1 6334   1.340   2.708   0.674
 1631SOL    HW2 6335   1.320   2.858   0.612
 1632SOL     OW 6336   0.830   3.135   1.422
 1632SOL    HW1 6337   0.825   3.168   1.517
 1632SOL    HW2 6338   0.744   3.154   1.376
 1633SOL     OW 6339   0.672   3.478   0.154
 1633SOL    HW1 6340   0.681   3.488   0.055
 1633SOL    HW2 6341   0.632   3.389   0.175
 1634SOL     OW 6342   1.650   3.582   1.394
 1634SOL    HW1 6343   1.703   3.592   1.310
 1634SOL    HW2 6344   1.623   3.672   1.428
 1635SOL     OW 6345   1.841   2.037   0.963
 1635SOL    HW1 6346   1.880   1.952   0.927
 1635SOL    HW2 6347   1.743   2.039   0.944
 1636SOL     OW 6348   0.263   2.188   0.720
 1636SOL    HW1 6349   0.184   2.239   0.686
 1636SOL    HW2 6350   0.254   2.173   0.818
 1637SOL     OW 6351   1.194   3.474   0.031
 1637SOL    HW1 6352   1.200   3.381   0.068
 1637SOL    HW2 6353   1.135   3.474  -0.049
 1638SOL     OW 6354   0.822   2.864   1.372
 1638SOL    HW1 6355   0.862   2.863   1.280
 1638SOL    HW2 6356   0.832   2.956   1.412
 1639SOL     OW 6357   0.916   2.772   0.291
 1639SOL    HW1 6358   0.979   2.810   0.223
 1639SOL    HW2 6359   0.956   2.689   0.330
 1640SOL     OW 6360   1.504   3.469   0.044
 1640SOL    HW1 6361   1.412   3.506   0.051
 1640SOL    HW2 6362   1.542   3.489  -0.046
 1641SOL     OW 6363   0.372   3.150   1.490
 1641SOL    HW1 6364   0.359   3.243   1.456
 1641SOL    HW2 6365   0.288   3.098   1.477
 1642SOL     OW 6366   1.614   3.154   1.289
 1642SOL    HW1 6367   1.674   3.157   1.369
 1642SOL    HW2 6368   1.539   3.218   1.302
 1643SOL     OW 6369   1.039   2.960   0.696
 1643SOL    HW1 6370   0.969   2.913   0.750
 1643SOL    HW2 6371   1.098   2.892   0.653
 1644SOL     OW 6372   1.014   2.098   0.971
 1644SOL    HW1 6373   1.006   2.062   0.878
 1644SOL    HW2 6374   1.012   2.022   1.036
 1645SOL     OW 6375   0.590   3.349   0.491
 1645SOL    HW1 6376   0.632   3.291   0.421
 1645SOL    HW2 6377   0.546   3.428   0.447
 1646SOL     OW 6378   1.709   2.247   1.381
 1646SOL    HW1 6379   1.782   2.316   1.385
 1646SOL    HW2 6380   1.737   2.172   1.322
 1647SOL     OW 6381   0.255   3.210   0.290
 1647SOL    HW1 6382   0.159   3.211   0.263
 1647SOL    HW2 6383   0.267   3.263   0.374
 1648SOL     OW 6384   0.105   2.875   1.726
 1648SOL    HW1 6385   0.028   2.842   1.780
 1648SOL    HW2 6386   0.190   2.845   1.768
 1649SOL     OW 6387   0.672   2.065   1.489
 1649SOL    HW1 6388   0.762   2.049   1.449
 1649SOL    HW2 6389   0.680   2.070   1.588
 1650SOL     OW 6390   0.075   2.207   0.033
 1650SOL    HW1 6391  -0.017   2.179   0.004
 1650SOL    HW2 6392   0.106   2.284  -0.023
 1651SOL     OW 6393   1.440   2.718   1.398
 1651SOL    HW1 6394   1.383   2.770   1.335
 1651SOL    HW2 6395   1.536   2.730   1.374
 1652SOL     OW 6396   0.072   2.028   0.318
 1652SOL    HW1 6397   0.055   2.111   0.264
 1652SOL    HW2 6398   0.162   1.991   0.296
 1653SOL     OW 6399   1.183   3.197   0.119
 1653SOL    HW1 6400   1.084   3.186   0.121
 1653SOL    HW2 6401   1.217   3.212   0.212
 1654SOL     OW 6402   0.613   2.704   1.431
 1654SOL    HW1 6403   0.669   2.785   1.414
 1654SOL    HW2 6404   0.672   2.624   1.434
 1655SOL     OW 6405   1.493   3.629   0.959
 1655SOL    HW1 6406   1.526   3.693   0.890
 1655SOL    HW2 6407   1.559   3.623   1.034
 1656SOL     OW 6408   0.716   2.427   1.708
 1656SOL    HW1 6409   0.735   2.492   1.782
 1656SOL    HW2 6410   0.776   2.347   1.717
 1657SOL     OW 6411   1.450   3.082   1.633
 1657SOL    HW1 6412   1.441   3.072   1.732
 1657SOL    HW2 6413   1.546   3.075   1.607
 1658SOL     OW 6414   0.390   3.603   1.560
 1658SOL    HW1 6415   0.299   3.644   1.558
 1658SOL    HW2 6416   0.383   3.509   1.592
 1659SOL     OW 6417   1.674   2.745   1.254
 1659SOL    HW1 6418   1.647   2.656   1.217
 1659SOL    HW2 6419   1.675   2.813   1.181
 1660SOL     OW 6420   1.225   2.187   0.449
 1660SOL    HW1 6421   1.290   2.113   0.438
 1660SOL    HW2 6422   1.245   2.237   0.533
 1661SOL     OW 6423   0.594   2.607   0.652
 1661SOL    HW1 6424   0.644   2.692   0.633
 1661SOL    HW2 6425   0.506   2.609   0.604
 1662SOL     OW 6426   1.777   2.204   1.642
 1662SOL    HW1 6427   1.760   2.235   1.548
 1662SOL    HW2 6428   1.693   2.167   1.680
 1663SOL     OW 6429   1.730   2.796   1.517
 1663SOL    HW1 6430   1.768   2.887   1.532
 1663SOL    HW2 6431   1.722   2.779   1.418
 1664SOL     OW 6432   0.859   3.236   0.016
 1664SOL    HW1 6433   0.813   3.251   0.104
 1664SOL    HW2 6434   0.903   3.321  -0.014
 1665SOL     OW 6435   0.661   3.652   0.953
 1665SOL    HW1 6436   0.615   3.740   0.940
 1665SOL    HW2 6437   0.760   3.664   0.946
 1666SOL     OW 6438   0.859   2.818   0.861
 1666SOL    HW1 6439   0.913   2.749   0.909
 1666SOL    HW2 6440   0.827   2.887   0.927
 1667SOL     OW 6441   1.083   2.846   0.087
 1667SOL    HW1 6442   1.060   2.899   0.005
 1667SOL    HW2 6443   1.164   2.790   0.068
 1668SOL     OW 6444   1.861   3.431   0.851
 1668SOL    HW1 6445   1.790   3.419   0.781
 1668SOL    HW2 6446   1.862   3.352   0.911
 1669SOL     OW 6447   0.221   3.176   1.844
 1669SOL    HW1 6448   0.156   3.103   1.823
 1669SOL    HW2 6449   0.225   3.190   1.942
 1670SOL     OW 6450   0.079   3.102   0.653
 1670SOL    HW1 6451   0.078   3.055   0.741
 1670SOL    HW2 6452   0.161   3.074   0.602
 1671SOL     OW 6453   0.672   3.253   1.624
 1671SOL    HW1 6454   0.594   3.203   1.662
 1671SOL    HW2 6455   0.669   3.348   1.655
 1672SOL     OW 6456   1.824   2.054   1.227
 1672SOL    HW1 6457   1.820   1.964   1.271
 1672SOL    HW2 6458   1.827   2.043   1.128
 1673SOL     OW 6459   0.428   2.286   0.520
 1673SOL    HW1 6460   0.458   2.214   0.458
 1673SOL    HW2 6461   0.389   2.246   0.603
 1674SOL     OW 6462   1.705   3.349   1.104
 1674SOL    HW1 6463   1.612   3.324   1.077
 1674SOL    HW2 6464   1.731   3.299   1.186
 1675SOL     OW 6465   0.317   2.409   1.280
 1675SOL    HW1 6466   0.355   2.350   1.352
 1675SOL    HW2 6467   0.357   2.383   1.192
 1676SOL     OW 6468   0.812   3.448   0.687
 1676SOL    HW1 6469   0.844   3.458   0.593
 1676SOL    HW2 6470   0.733   3.386   0.689
 1677SOL     OW 6471   1.424   2.076   1.112
 1677SOL    HW1 6472   1.476   2.011   1.167
 1677SOL    HW2 6473   1.375   2.139   1.173
 1678SOL     OW 6474   1.001   1.896   1.154
 1678SOL    HW1 6475   0.938   1.824   1.123
 1678SOL    HW2 6476   1.094   1.860   1.154
 1679SOL     OW 6477   0.770   3.192   0.301
 1679SOL    HW1 6478   0.724   3.105   0.318
 1679SOL    HW2 6479   0.861   3.189   0.342
 1680SOL     OW 6480   0.618   3.429   1.284
 1680SOL    HW1 6481   0.613   3.511   1.341
 1680SOL    HW2 6482   0.707   3.426   1.239
 1681SOL     OW 6483   1.352   1.914   0.168
 1681SOL    HW1 6484   1.387   1.873   0.084
 1681SOL    HW2 6485   1.262   1.876   0.188
 1682SOL     OW 6486   1.300   2.315   0.691
 1682SOL    HW1 6487   1.241   2.395   0.695
 1682SOL    HW2 6488   1.315   2.280   0.784
 1683SOL     OW 6489   1.593   2.083   0.882
 1683SOL    HW1 6490   1.509   2.082   0.936
 1683SOL    HW2 6491   1.595   2.166   0.826
 1684SOL     OW 6492   0.039   2.939   0.300
 1684SOL    HW1 6493   0.138   2.928   0.291
 1684SOL    HW2 6494  -0.001   2.853   0.332
 1685SOL     OW 6495   0.875   3.508   0.337
 1685SOL    HW1 6496   0.798   3.473   0.283
 1685SOL    HW2 6497   0.843   3.579   0.399
 1686SOL     OW 6498   0.230   2.490   1.975
 1686SOL    HW1 6499   0.137   2.488   2.012
 1686SOL    HW2 6500   0.231   2.451   1.883
 1687SOL     OW 6501   0.225   2.137   2.858
 1687SOL    HW1 6502   0.260   2.120   2.950
 1687SOL    HW2 6503   0.137   2.092   2.846
 1688SOL     OW 6504   0.019   2.230   2.509
 1688SOL    HW1 6505  -0.063   2.273   2.548
 1688SOL    HW2 6506  -0.009   2.157   2.446
 1689SOL     OW 6507   0.569   3.137   3.027
 1689SOL    HW1 6508   0.476   3.130   2.990
 1689SOL    HW2 6509   0.580   3.226   3.071
 1690SOL     OW 6510   1.555   3.373   2.565
 1690SOL    HW1 6511   1.498   3.357   2.646
 1690SOL    HW2 6512   1.496   3.383   2.485
 1691SOL     OW 6513   1.135   2.565   2.579
 1691SOL    HW1 6514   1.192   2.643   2.554
 1691SOL    HW2 6515   1.075   2.591   2.655
 1692SOL     OW 6516   1.755   2.469   2.093
 1692SOL    HW1 6517   1.743   2.456   1.994
 1692SOL    HW2 6518   1.725   2.388   2.142
 1693SOL     OW 6519   0.768   3.006   2.885
 1693SOL    HW1 6520   0.690   3.023   2.945
 1693SOL    HW2 6521   0.802   3.093   2.849
 1694SOL     OW 6522   0.850   2.660   3.685
 1694SOL    HW1 6523   0.846   2.736   3.750
 1694SOL    HW2 6524   0.872   2.696   3.594
 1695SOL     OW 6525   0.685   2.874   2.527
 1695SOL    HW1 6526   0.754   2.858   2.597
 1695SOL    HW2 6527   0.612   2.931   2.565
 1696SOL     OW 6528   0.686   3.023   3.665
 1696SOL    HW1 6529   0.746   3.102   3.679
 1696SOL    HW2 6530   0.600   3.054   3.624
 1697SOL     OW 6531   0.335   3.297   2.923
 1697SOL    HW1 6532   0.257   3.266   2.870
 1697SOL    HW2 6533   0.393   3.355   2.866
 1698SOL     OW 6534   1.460   3.367   3.201
 1698SOL    HW1 6535   1.484   3.461   3.227
 1698SOL    HW2 6536   1.444   3.313   3.283
 1699SOL     OW 6537   0.438   2.254   3.361
 1699SOL    HW1 6538   0.520   2.198   3.370
 1699SOL    HW2 6539   0.357   2.196   3.365
 1700SOL     OW 6540   1.603   2.309   2.599
 1700SOL    HW1 6541   1.529   2.355   2.549
 1700SOL    HW2 6542   1.654   2.377   2.652
 1701SOL     OW 6543   0.231   3.575   2.345
 1701SOL    HW1 6544   0.265   3.652   2.399
 1701SOL    HW2 6545   0.275   3.575   2.255
 1702SOL     OW 6546   1.127   3.203   3.552
 1702SOL    HW1 6547   1.174   3.203   3.640
 1702SOL    HW2 6548   1.079   3.116   3.541
 1703SOL     OW 6549   0.230   3.296   2.400
 1703SOL    HW1 6550   0.204   3.392   2.400
 1703SOL    HW2 6551   0.159   3.242   2.445
 1704SOL     OW 6552   0.240   2.953   2.748
 1704SOL    HW1 6553   0.254   2.869   2.800
 1704SOL    HW2 6554   0.185   3.017   2.803
 1705SOL     OW 6555   0.620   3.648   3.301
 1705SOL    HW1 6556   0.528   3.631   3.336
 1705SOL    HW2 6557   0.648   3.740   3.327
 1706SOL     OW 6558   0.606   2.826   1.985
 1706SOL    HW1 6559   0.613   2.910   1.931
 1706SOL    HW2 6560   0.652   2.839   2.073
 1707SOL     OW 6561   1.594   1.976   3.342
 1707SOL    HW1 6562   1.576   2.043   3.270
 1707SOL    HW2 6563   1.591   2.022   3.431
 1708SOL     OW 6564   0.122   2.505   2.425
 1708SOL    HW1 6565   0.077   2.417   2.442
 1708SOL    HW2 6566   0.121   2.559   2.509
 1709SOL     OW 6567   1.842   3.629   2.221
 1709SOL    HW1 6568   1.896   3.600   2.301
 1709SOL    HW2 6569   1.872   3.719   2.192
 1710SOL     OW 6570   0.027   3.458   1.979
 1710SOL    HW1 6571   0.008   3.362   2.000
 1710SOL    HW2 6572  -0.006   3.516   2.054
 1711SOL     OW 6573   1.689   2.784   2.474
 1711SOL    HW1 6574   1.784   2.755   2.482
 1711SOL    HW2 6575   1.681   2.849   2.399
 1712SOL     OW 6576   1.641   2.970   2.294
 1712SOL    HW1 6577   1.727   2.972   2.242
 1712SOL    HW2 6578   1.655   3.017   2.382
 1713SOL     OW 6579   0.113   2.599   3.459
 1713SOL    HW1 6580   0.201   2.586   3.504
 1713SOL    HW2 6581   0.100   2.696   3.437
 1714SOL     OW 6582   0.613   3.227   2.588
 1714SOL    HW1 6583   0.564   3.140   2.597
 1714SOL    HW2 6584   0.590   3.270   2.501
 1715SOL     OW 6585   1.293   3.090   3.285
 1715SOL    HW1 6586   1.330   3.017   3.227
 1715SOL    HW2 6587   1.345   3.095   3.370
 1716SOL     OW 6588   0.809   1.866   2.364
 1716SOL    HW1 6589   0.849   1.957   2.355
 1716SOL    HW2 6590   0.709   1.874   2.370
 1717SOL     OW 6591   0.197   2.838   3.126
 1717SOL    HW1 6592   0.286   2.793   3.112
 1717SOL    HW2 6593   0.124   2.773   3.107
 1718SOL     OW 6594   1.525   2.861   2.052
 1718SOL    HW1 6595   1.462   2.785   2.065
 1718SOL    HW2 6596   1.573   2.879   2.138
 1719SOL     OW 6597   1.187   3.654   3.478
 1719SOL    HW1 6598   1.211   3.714   3.402
 1719SOL    HW2 6599   1.194   3.559   3.448
 1720SOL     OW 6600   0.317   2.113   3.663
 1720SOL    HW1 6601   0.388   2.184   3.669
 1720SOL    HW2 6602   0.229   2.152   3.691
 1721SOL     OW 6603   1.466   3.279   2.815
 1721SOL    HW1 6604   1.407   3.285   2.895
 1721SOL    HW2 6605   1.451   3.191   2.769
 1722SOL     OW 6606   1.667   3.576   2.434
 1722SOL    HW1 6607   1.626   3.553   2.346
 1722SOL    HW2 6608   1.649   3.502   2.499
 1723SOL     OW 6609   0.598   2.591   2.132
 1723SOL    HW1 6610   0.622   2.660   2.064
 1723SOL    HW2 6611   0.520   2.624   2.186
 1724SOL     OW 6612   1.281   2.207   2.806
 1724SOL    HW1 6613   1.195   2.157   2.793
 1724SOL    HW2 6614   1.343   2.153   2.862
 1725SOL     OW 6615   1.576   3.524   2.169
 1725SOL    HW1 6616   1.665   3.570   2.172
 1725SOL    HW2 6617   1.555   3.500   2.074
 1726SOL     OW 6618   1.394   2.331   3.536
 1726SOL    HW1 6619   1.374   2.374   3.624
 1726SOL    HW2 6620   1.472   2.269   3.545
 1727SOL     OW 6621   0.973   2.752   3.434
 1727SOL    HW1 6622   1.019   2.668   3.405
 1727SOL    HW2 6623   0.917   2.786   3.359
 1728SOL     OW 6624   0.991   2.272   3.104
 1728SOL    HW1 6625   0.914   2.306   3.158
 1728SOL    HW2 6626   0.957   2.221   3.025
 1729SOL     OW 6627   1.041   2.563   2.291
 1729SOL    HW1 6628   1.067   2.559   2.387
 1729SOL    HW2 6629   0.956   2.512   2.277
 1730SOL     OW 6630   0.076   2.673   2.651
 1730SOL    HW1 6631   0.175   2.661   2.660
 1730SOL    HW2 6632   0.052   2.768   2.672
 1731SOL     OW 6633   0.130   3.683   3.433
 1731SOL    HW1 6634   0.120   3.668   3.532
 1731SOL    HW2 6635   0.044   3.719   3.397
 1732SOL     OW 6636   0.865   2.210   2.057
 1732SOL    HW1 6637   0.924   2.273   2.008
 1732SOL    HW2 6638   0.884   2.116   2.028
 1733SOL     OW 6639   1.719   2.447   3.693
 1733SOL    HW1 6640   1.693   2.536   3.657
 1733SOL    HW2 6641   1.717   2.379   3.620
 1734SOL     OW 6642   1.362   3.006   2.407
 1734SOL    HW1 6643   1.445   2.977   2.359
 1734SOL    HW2 6644   1.313   3.073   2.351
 1735SOL     OW 6645   0.550   2.058   2.747
 1735SOL    HW1 6646   0.545   2.053   2.847
 1735SOL    HW2 6647   0.552   2.154   2.718
 1736SOL     OW 6648   1.008   3.318   2.339
 1736SOL    HW1 6649   0.962   3.390   2.287
 1736SOL    HW2 6650   1.004   3.338   2.437
 1737SOL     OW 6651   0.351   3.663   2.715
 1737SOL    HW1 6652   0.401   3.577   2.721
 1737SOL    HW2 6653   0.416   3.740   2.712
 1738SOL     OW 6654   1.795   2.928   2.735
 1738SOL    HW1 6655   1.733   2.913   2.659
 1738SOL    HW2 6656   1.743   2.939   2.820
 1739SOL     OW 6657   1.227   3.412   3.368
 1739SOL    HW1 6658   1.233   3.335   3.432
 1739SOL    HW2 6659   1.175   3.386   3.288
 1740SOL     OW 6660   0.321   2.805   2.104
 1740SOL    HW1 6661   0.403   2.844   2.062
 1740SOL    HW2 6662   0.294   2.723   2.055
 1741SOL     OW 6663   1.458   2.597   2.590
 1741SOL    HW1 6664   1.453   2.532   2.665
 1741SOL    HW2 6665   1.538   2.656   2.603
 1742SOL     OW 6666   0.461   3.128   3.589
 1742SOL    HW1 6667   0.411   3.129   3.503
 1742SOL    HW2 6668   0.398   3.110   3.665
 1743SOL     OW 6669   1.111   3.638   2.099
 1743SOL    HW1 6670   1.051   3.576   2.149
 1743SOL    HW2 6671   1.142   3.594   2.014
 1744SOL     OW 6672   0.202   2.147   3.360
 1744SOL    HW1 6673   0.122   2.207   3.347
 1744SOL    HW2 6674   0.192   2.098   3.446
 1745SOL     OW 6675   1.632   3.239   1.943
 1745SOL    HW1 6676   1.600   3.333   1.933
 1745SOL    HW2 6677   1.556   3.176   1.931
 1746SOL     OW 6678   0.464   3.605   2.185
 1746SOL    HW1 6679   0.497   3.644   2.271
 1746SOL    HW2 6680   0.540   3.598   2.120
 1747SOL     OW 6681   1.400   1.969   2.288
 1747SOL    HW1 6682   1.376   1.932   2.198
 1747SOL    HW2 6683   1.499   1.985   2.292
 1748SOL     OW 6684   0.249   3.647   3.103
 1748SOL    HW1 6685   0.306   3.582   3.153
 1748SOL    HW2 6686   0.233   3.614   3.010
 1749SOL     OW 6687   0.940   3.560   2.766
 1749SOL    HW1 6688   1.020   3.503   2.787
 1749SOL    HW2 6689   0.891   3.520   2.689
 1750SOL     OW 6690   0.382   2.562   2.342
 1750SOL    HW1 6691   0.427   2.472   2.339
 1750SOL    HW2 6692   0.288   2.551   2.375
 1751SOL     OW 6693   1.547   2.084   3.591
 1751SOL    HW1 6694   1.542   2.121   3.683
 1751SOL    HW2 6695   1.475   2.015   3.579
 1752SOL     OW 6696   0.614   1.984   1.979
 1752SOL    HW1 6697   0.712   1.962   1.986
 1752SOL    HW2 6698   0.583   1.967   1.886
 1753SOL     OW 6699   0.781   2.126   3.611
 1753SOL    HW1 6700   0.848   2.065   3.654
 1753SOL    HW2 6701   0.708   2.145   3.676
 1754SOL     OW 6702   0.888   3.376   3.057
 1754SOL    HW1 6703   0.865   3.351   2.963
 1754SOL    HW2 6704   0.949   3.307   3.096
 1755SOL     OW 6705   1.351   2.452   3.295
 1755SOL    HW1 6706   1.379   2.409   3.380
 1755SOL    HW2 6707   1.376   2.548   3.296
 1756SOL     OW 6708   0.803   3.264   2.786
 1756SOL    HW1 6709   0.893   3.278   2.744
 1756SOL    HW2 6710   0.732   3.266   2.715
 1757SOL     OW 6711   0.922   2.365   2.761
 1757SOL    HW1 6712   0.897   2.356   2.665
 1757SOL    HW2 6713   0.970   2.283   2.792
 1758SOL     OW 6714   0.539   1.926   2.374
 1758SOL    HW1 6715   0.458   1.927   2.432
 1758SOL    HW2 6716   0.542   2.009   2.319
 1759SOL     OW 6717   1.434   3.050   1.903
 1759SOL    HW1 6718   1.466   2.974   1.960
 1759SOL    HW2 6719   1.342   3.077   1.933
 1760SOL     OW 6720   0.297   1.897   2.033
 1760SOL    HW1 6721   0.346   1.981   2.012
 1760SOL    HW2 6722   0.359   1.832   2.078
 1761SOL     OW 6723   0.935   2.098   2.342
 1761SOL    HW1 6724   0.887   2.139   2.264
 1761SOL    HW2 6725   1.034   2.096   2.323
 1762SOL     OW 6726   1.076   2.545   3.326
 1762SOL    HW1 6727   0.996   2.484   3.329
 1762SOL    HW2 6728   1.157   2.492   3.302
 1763SOL     OW 6729   1.227   3.432   2.655
 1763SOL    HW1 6730   1.248   3.506   2.590
 1763SOL    HW2 6731   1.295   3.432   2.728
 1764SOL     OW 6732   0.459   3.014   2.603
 1764SOL    HW1 6733   0.388   2.987   2.668
 1764SOL    HW2 6734   0.433   2.986   2.510
 1765SOL     OW 6735   1.271   3.659   2.453
 1765SOL    HW1 6736   1.315   3.723   2.389
 1765SOL    HW2 6737   1.221   3.711   2.523
 1766SOL     OW 6738   1.032   2.411   1.878
 1766SOL    HW1 6739   0.991   2.493   1.839
 1766SOL    HW2 6740   1.096   2.437   1.951
 1767SOL     OW 6741   0.078   2.418   3.248
 1767SOL    HW1 6742   0.170   2.417   3.207
 1767SOL    HW2 6743   0.072   2.492   3.315
 1768SOL     OW 6744   0.561   2.084   3.009
 1768SOL    HW1 6745   0.599   2.000   3.046
 1768SOL    HW2 6746   0.473   2.103   3.053
 1769SOL     OW 6747   0.866   2.316   2.504
 1769SOL    HW1 6748   0.834   2.388   2.442
 1769SOL    HW2 6749   0.890   2.235   2.451
 1770SOL     OW 6750   1.017   1.901   2.615
 1770SOL    HW1 6751   0.945   1.906   2.546
 1770SOL    HW2 6752   0.993   1.832   2.684
 1771SOL     OW 6753   1.429   3.035   2.729
 1771SOL    HW1 6754   1.374   2.951   2.722
 1771SOL    HW2 6755   1.455   3.064   2.637
 1772SOL     OW 6756   1.466   2.452   2.854
 1772SOL    HW1 6757   1.436   2.357   2.861
 1772SOL    HW2 6758   1.539   2.468   2.920
 1773SOL     OW 6759   1.857   2.695   2.239
 1773SOL    HW1 6760   1.899   2.631   2.303
 1773SOL    HW2 6761   1.819   2.644   2.161
 1774SOL     OW 6762   0.488   3.247   2.036
 1774SOL    HW1 6763   0.401   3.232   2.083
 1774SOL    HW2 6764   0.471   3.273   1.941
 1775SOL     OW 6765   1.664   3.142   2.519
 1775SOL    HW1 6766   1.763   3.150   2.533
 1775SOL    HW2 6767   1.619   3.226   2.550
 1776SOL     OW 6768   1.390   2.437   1.940
 1776SOL    HW1 6769   1.336   2.416   2.021
 1776SOL    HW2 6770   1.481   2.396   1.949
 1777SOL     OW 6771   0.527   2.118   2.190
 1777SOL    HW1 6772   0.554   2.059   2.115
 1777SOL    HW2 6773   0.527   2.213   2.159
 1778SOL     OW 6774   1.754   3.085   3.450
 1778SOL    HW1 6775   1.845   3.046   3.437
 1778SOL    HW2 6776   1.762   3.181   3.474
 1779SOL     OW 6777   1.064   3.209   3.202
 1779SOL    HW1 6778   0.984   3.186   3.257
 1779SOL    HW2 6779   1.147   3.183   3.251
 1780SOL     OW 6780   1.592   3.491   3.487
 1780SOL    HW1 6781   1.619   3.525   3.397
 1780SOL    HW2 6782   1.671   3.453   3.533
 1781SOL     OW 6783   1.111   3.057   2.962
 1781SOL    HW1 6784   1.071   3.101   3.043
 1781SOL    HW2 6785   1.070   3.094   2.879
 1782SOL     OW 6786   1.638   2.961   2.941
 1782SOL    HW1 6787   1.643   3.042   3.000
 1782SOL    HW2 6788   1.552   2.963   2.890
 1783SOL     OW 6789   0.915   1.951   3.264
 1783SOL    HW1 6790   0.940   1.931   3.169
 1783SOL    HW2 6791   0.987   2.007   3.306
 1784SOL     OW 6792   0.980   2.978   3.581
 1784SOL    HW1 6793   0.881   2.984   3.591
 1784SOL    HW2 6794   1.003   2.898   3.525
 1785SOL     OW 6795   0.705   2.912   2.230
 1785SOL    HW1 6796   0.691   2.919   2.329
 1785SOL    HW2 6797   0.789   2.861   2.212
 1786SOL     OW 6798   0.410   2.675   3.113
 1786SOL    HW1 6799   0.496   2.687   3.163
 1786SOL    HW2 6800   0.368   2.588   3.140
 1787SOL     OW 6801   1.274   2.248   3.124
 1787SOL    HW1 6802   1.295   2.322   3.188
 1787SOL    HW2 6803   1.185   2.265   3.081
 1788SOL     OW 6804   0.064   3.426   3.193
 1788SOL    HW1 6805   0.018   3.508   3.159
 1788SOL    HW2 6806   0.162   3.445   3.202
 1789SOL     OW 6807   0.367   2.962   2.363
 1789SOL    HW1 6808   0.360   3.045   2.307
 1789SOL    HW2 6809   0.371   2.882   2.303
 1790SOL     OW 6810   0.566   2.399   2.727
 1790SOL    HW1 6811   0.578   2.465   2.653
 1790SOL    HW2 6812   0.612   2.433   2.810
 1791SOL     OW 6813   1.252   3.210   2.250
 1791SOL    HW1 6814   1.302   3.287   2.290
 1791SOL    HW2 6815   1.157   3.212   2.282
 1792SOL     OW 6816   1.272   3.307   3.004
 1792SOL    HW1 6817   1.319   3.320   3.091
 1792SOL    HW2 6818   1.206   3.233   3.013
 1793SOL     OW 6819   1.582   2.501   2.334
 1793SOL    HW1 6820   1.551   2.562   2.407
 1793SOL    HW2 6821   1.632   2.553   2.265
 1794SOL     OW 6822   0.354   3.372   3.191
 1794SOL    HW1 6823   0.333   3.328   3.104
 1794SOL    HW2 6824   0.451   3.398   3.194
 1795SOL     OW 6825   0.402   2.613   3.460
 1795SOL    HW1 6826   0.470   2.668   3.413
 1795SOL    HW2 6827   0.442   2.525   3.487
 1796SOL     OW 6828   1.587   2.641   3.532
 1796SOL    HW1 6829   1.495   2.679   3.527
 1796SOL    HW2 6830   1.647   2.688   3.467
 1797SOL     OW 6831   1.013   1.967   3.632
 1797SOL    HW1 6832   1.019   2.052   3.580
 1797SOL    HW2 6833   1.045   1.891   3.575
 1798SOL     OW 6834   0.504   1.912   3.602
 1798SOL    HW1 6835   0.462   1.855   3.532
 1798SOL    HW2 6836   0.438   1.981   3.634
 1799SOL     OW 6837   0.573   2.732   2.891
 1799SOL    HW1 6838   0.617   2.821   2.882
 1799SOL    HW2 6839   0.510   2.732   2.968
 1800SOL     OW 6840   1.360   2.724   2.907
 1800SOL    HW1 6841   1.285   2.724   2.841
 1800SOL    HW2 6842   1.397   2.632   2.916
 1801SOL     OW 6843   1.209   2.387   2.137
 1801SOL    HW1 6844   1.222   2.303   2.191
 1801SOL    HW2 6845   1.180   2.461   2.197
 1802SOL     OW 6846   0.307   2.075   3.093
 1802SOL    HW1 6847   0.284   2.112   3.183
 1802SOL    HW2 6848   0.277   1.980   3.087
 1803SOL     OW 6849   0.037   3.172   3.144
 1803SOL    HW1 6850   0.090   3.123   3.212
 1803SOL    HW2 6851   0.059   3.270   3.149
 1804SOL     OW 6852   0.732   2.496   2.926
 1804SOL    HW1 6853   0.791   2.470   2.850
 1804SOL    HW2 6854   0.704   2.592   2.915
 1805SOL     OW 6855   1.728   2.797   3.716
 1805SOL    HW1 6856   1.682   2.790   3.627
 1805SOL    HW2 6857   1.666   2.841   3.782
 1806SOL     OW 6858   0.307   1.925   2.480
 1806SOL    HW1 6859   0.296   2.019   2.513
 1806SOL    HW2 6860   0.302   1.862   2.557
 1807SOL     OW 6861   1.622   2.229   2.236
 1807SOL    HW1 6862   1.624   2.153   2.300
 1807SOL    HW2 6863   1.574   2.306   2.276
 1808SOL     OW 6864   1.023   2.628   2.828
 1808SOL    HW1 6865   1.038   2.649   2.924
 1808SOL    HW2 6866   0.993   2.533   2.819
 1809SOL     OW 6867   0.980   3.435   3.562
 1809SOL    HW1 6868   0.960   3.479   3.474
 1809SOL    HW2 6869   1.019   3.344   3.546
 1810SOL     OW 6870   1.859   3.380   3.467
 1810SOL    HW1 6871   1.873   3.407   3.372
 1810SOL    HW2 6872   1.942   3.402   3.520
 1811SOL     OW 6873   0.350   2.760   3.666
 1811SOL    HW1 6874   0.426   2.804   3.714
 1811SOL    HW2 6875   0.385   2.713   3.584
 1812SOL     OW 6876   1.540   2.136   1.987
 1812SOL    HW1 6877   1.479   2.061   2.010
 1812SOL    HW2 6878   1.562   2.188   2.070
 1813SOL     OW 6879   1.303   2.700   1.904
 1813SOL    HW1 6880   1.337   2.607   1.919
 1813SOL    HW2 6881   1.321   2.727   1.809
 1814SOL     OW 6882   1.068   3.195   2.711
 1814SOL    HW1 6883   1.075   3.111   2.656
 1814SOL    HW2 6884   1.130   3.264   2.675
 1815SOL     OW 6885   0.319   2.672   2.811
 1815SOL    HW1 6886   0.412   2.708   2.816
 1815SOL    HW2 6887   0.313   2.587   2.863
 1816SOL     OW 6888   0.339   2.371   2.868
 1816SOL    HW1 6889   0.287   2.288   2.851
 1816SOL    HW2 6890   0.416   2.376   2.804
 1817SOL     OW 6891   1.138   2.242   3.540
 1817SOL    HW1 6892   1.093   2.305   3.604
 1817SOL    HW2 6893   1.231   2.273   3.523
 1818SOL     OW 6894   1.160   2.069   3.339
 1818SOL    HW1 6895   1.160   2.133   3.416
 1818SOL    HW2 6896   1.188   2.117   3.256
 1819SOL     OW 6897   0.008   3.188   2.062
 1819SOL    HW1 6898  -0.085   3.209   2.031
 1819SOL    HW2 6899   0.018   3.089   2.075
 1820SOL     OW 6900   0.088   3.663   2.789
 1820SOL    HW1 6901   0.046   3.577   2.762
 1820SOL    HW2 6902   0.182   3.666   2.755
 1821SOL     OW 6903   0.504   3.430   2.772
 1821SOL    HW1 6904   0.570   3.504   2.781
 1821SOL    HW2 6905   0.548   3.351   2.730
 1822SOL     OW 6906   1.002   2.658   3.100
 1822SOL    HW1 6907   1.043   2.626   3.186
 1822SOL    HW2 6908   0.906   2.631   3.097
 1823SOL     OW 6909   0.040   2.406   2.976
 1823SOL    HW1 6910   0.125   2.373   2.935
 1823SOL    HW2 6911   0.053   2.421   3.074
 1824SOL     OW 6912   0.189   2.382   3.584
 1824SOL    HW1 6913   0.248   2.342   3.514
 1824SOL    HW2 6914   0.131   2.453   3.543
 1825SOL     OW 6915   1.369   2.812   3.522
 1825SOL    HW1 6916   1.408   2.901   3.542
 1825SOL    HW2 6917   1.379   2.792   3.425
 1826SOL     OW 6918   0.815   2.434   2.187
 1826SOL    HW1 6919   0.822   2.345   2.141
 1826SOL    HW2 6920   0.721   2.468   2.179
 1827SOL     OW 6921   1.657   2.466   3.068
 1827SOL    HW1 6922   1.619   2.397   3.130
 1827SOL    HW2 6923   1.739   2.430   3.024
 1828SOL     OW 6924   0.252   3.426   3.606
 1828SOL    HW1 6925   0.222   3.483   3.682
 1828SOL    HW2 6926   0.245   3.329   3.632
 1829SOL     OW 6927   0.671   2.326   3.131
 1829SOL    HW1 6928   0.637   2.237   3.101
 1829SOL    HW2 6929   0.697   2.380   3.051
 1830SOL     OW 6930   0.930   3.540   3.327
 1830SOL    HW1 6931   0.906   3.522   3.232
 1830SOL    HW2 6932   0.960   3.634   3.337
 1831SOL     OW 6933   0.473   2.362   2.053
 1831SOL    HW1 6934   0.534   2.442   2.057
 1831SOL    HW2 6935   0.378   2.393   2.060
 1832SOL     OW 6936   0.159   2.999   3.328
 1832SOL    HW1 6937   0.181   2.938   3.404
 1832SOL    HW2 6938   0.169   2.950   3.242
 1833SOL     OW 6939   1.347   2.921   3.096
 1833SOL    HW1 6940   1.371   2.858   3.022
 1833SOL    HW2 6941   1.257   2.961   3.078
 1834SOL     OW 6942   1.302   2.717   2.171
 1834SOL    HW1 6943   1.216   2.686   2.213
 1834SOL    HW2 6944   1.298   2.703   2.072
 1835SOL     OW 6945   1.759   3.609   3.016
 1835SOL    HW1 6946   1.820   3.639   2.943
 1835SOL    HW2 6947   1.721   3.520   2.994
 1836SOL     OW 6948   1.252   3.593   2.990
 1836SOL    HW1 6949   1.336   3.598   2.936
 1836SOL    HW2 6950   1.229   3.497   3.008
 1837SOL     OW 6951   0.083   3.120   2.884
 1837SOL    HW1 6952   0.078   3.119   2.984
 1837SOL    HW2 6953   0.000   3.079   2.846
 1838SOL     OW 6954   0.688   3.524   3.578
 1838SOL    HW1 6955   0.632   3.605   3.587
 1838SOL    HW2 6956   0.740   3.528   3.492
 1839SOL     OW 6957   1.726   1.997   2.385
 1839SOL    HW1 6958   1.799   1.980   2.318
 1839SOL    HW2 6959   1.695   1.910   2.423
 1840SOL     OW 6960   1.388   3.435   2.339
 1840SOL    HW1 6961   1.455   3.447   2.265
 1840SOL    HW2 6962   1.348   3.524   2.362
 1841SOL     OW 6963   0.130   3.656   3.713
 1841SOL    HW1 6964   0.089   3.582   3.766
 1841SOL    HW2 6965   0.194   3.707   3.771
 1842SOL     OW 6966   1.280   2.789   2.534
 1842SOL    HW1 6967   1.340   2.708   2.536
 1842SOL    HW2 6968   1.320   2.858   2.474
 1843SOL     OW 6969   0.830   3.135   3.284
 1843SOL    HW1 6970   0.825   3.168   3.379
 1843SOL    HW2 6971   0.744   3.154   3.238
 1844SOL     OW 6972   0.672   3.478   2.016
 1844SOL    HW1 6973   0.681   3.488   1.917
 1844SOL    HW2 6974   0.632   3.389   2.037
 1845SOL     OW 6975   1.650   3.582   3.256
 1845SOL    HW1 6976   1.703   3.592   3.172
 1845SOL    HW2 6977   1.623   3.672   3.290
 1846SOL     OW 6978   1.841   2.037   2.825
 1846SOL    HW1 6979   1.880   1.952   2.789
 1846SOL    HW2 6980   1.743   2.039   2.806
 1847SOL     OW 6981   0.263   2.188   2.582
 1847SOL    HW1 6982   0.184   2.239   2.548
 1847SOL    HW2 6983   0.254   2.173   2.680
 1848SOL     OW 6984   1.194   3.474   1.893
 1848SOL    HW1 6985   1.200   3.381   1.930
 1848SOL    HW2 6986   1.135   3.474   1.813
 1849SOL     OW 6987   0.822   2.864   3.234
 1849SOL    HW1 6988   0.862   2.863   3.142
 1849SOL    HW2 6989   0.832   2.956   3.274
 1850SOL     OW 6990   0.916   2.772   2.153
 1850SOL    HW1 6991   0.979   2.810   2.085
 1850SOL    HW2 6992   0.956   2.689   2.192
 1851SOL     OW 6993   1.504   3.469   1.906
 1851SOL    HW1 6994   1.412   3.506   1.913
 1851SOL    HW2 6995   1.542   3.489   1.816
 1852SOL     OW 6996   0.372   3.150   3.352
 1852SOL    HW1 6997   0.359   3.243   3.318
 1852SOL    HW2 6998   0.288   3.098   3.339
 1853SOL     OW 6999   1.614   3.154   3.151
 1853SOL    HW1 7000   1.674   3.157   3.231
 1853SOL    HW2 7001   1.539   3.218   3.164
 1854SOL     OW 7002   1.039   2.960   2.558
 1854SOL    HW1 7003   0.969   2.913   2.612
 1854SOL    HW2 7004   1.098   2.892   2.515
 1855SOL     OW 7005   1.014   2.098   2.833
 1855SOL    HW1 7006   1.006   2.062   2.740
 1855SOL    HW2 7007   1.012   2.022   2.898
 1856SOL     OW 7008   0.590   3.349   2.353
 1856SOL    HW1 7009   0.632   3.291   2.283
 1856SOL    HW2 7010   0.546   3.428   2.309
 1857SOL     OW 7011   1.709   2.247   3.243
 1857SOL    HW1 7012   1.782   2.316   3.247
 1857SOL    HW2 7013   1.737   2.172   3.184
 1858SOL     OW 7014   0.255   3.210   2.152
 1858SOL    HW1 7015   0.159   3.211   2.125
 1858SOL    HW2 7016   0.267   3.263   2.236
 1859SOL     OW 7017   0.105   2.875   3.588
 1859SOL    HW1 7018   0.028   2.842   3.642
 1859SOL    HW2 7019   0.190   2.845   3.630
 1860SOL     OW 7020   0.672   2.065   3.351
 1860SOL    HW1 7021   0.762   2.049   3.311
 1860SOL    HW2 7022   0.680   2.070   3.450
 1861SOL     OW 7023   0.075   2.207   1.895
 1861SOL    HW1 7024  -0.017   2.179   1.866
 1861SOL    HW2 7025   0.106   2.284   1.839
 1862SOL     OW 7026   1.440   2.718   3.260
 1862SOL    HW1 7027   1.383   2.770   3.197
 1862SOL    HW2 7028   1.536   2.730   3.236
 1863SOL     OW 7029   0.072   2.028   2.180
 1863SOL    HW1 7030   0.055   2.111   2.126
 1863SOL    HW2 7031   0.162   1.991   2.158
 1864SOL     OW 7032   1.183   3.197   1.981
 1864SOL    HW1 7033   1.084   3.186   1.983
 1864SOL    HW2 7034   1.217   3.212   2.074
 1865SOL     OW 7035   0.613   2.704   3.293
 1865SOL    HW1 7036   0.669   2.785   3.276
 1865SOL    HW2 7037   0.672   2.624   3.296
 1866SOL     OW 7038   1.493   3.629   2.821
 1866SOL    HW1 7039   1.526   3.693   2.752
 1866SOL    HW2 7040   1.559   3.623   2.896
 1867SOL     OW 7041   0.716   2.427   3.570
 1867SOL    HW1 7042   0.735   2.492   3.644
 1867SOL    HW2 7043   0.776   2.347   3.579
 1868SOL     OW 7044   1.450   3.082   3.495
 1868SOL    HW1 7045   1.441   3.072   3.594
 1868SOL    HW2 7046   1.546   3.075   3.469
 1869SOL     OW 7047   0.390   3.603   3.422
 1869SOL    HW1 7048   0.299   3.644   3.420
 1869SOL    HW2 7049   0.383   3.509   3.454
 1870SOL     OW 7050   1.674   2.745   3.116
 1870SOL    HW1 7051   1.647   2.656   3.079
 1870SOL    HW2 7052   1.675   2.813   3.043
 1871SOL     OW 7053   1.225   2.187   2.311
 1871SOL    HW1 7054   1.290   2.113   2.300
 1871SOL    HW2 7055   1.245   2.237   2.395
 1872SOL     OW 7056   0.594   2.607   2.514
 1872SOL    HW1 7057   0.644   2.692   2.495
 1872SOL    HW2 7058   0.506   2.609   2.466
 1873SOL     OW 7059   1.777   2.204   3.504
 1873SOL    HW1 7060   1.760   2.235   3.410
 1873SOL    HW2 7061   1.693   2.167   3.542
 1874SOL     OW 7062   1.730   2.796   3.379
 1874SOL    HW1 7063   1.768   2.887   3.394
 1874SOL    HW2 7064   1.722   2.779   3.280
 1875SOL     OW 7065   0.859   3.236   1.878
 1875SOL    HW1 7066   0.813   3.251   1.966
 1875SOL    HW2 7067   0.903   3.321   1.848
 1876SOL     OW 7068   0.661   3.652   2.815
 1876SOL    HW1 7069   0.615   3.740   2.802
 1876SOL    HW2 7070   0.760   3.664   2.808
 1877SOL     OW 7071   0.859   2.818   2.723
 1877SOL    HW1 7072   0.913   2.749   2.771
 1877SOL    HW2 7073   0.827   2.887   2.789
 1878SOL     OW 7074   1.083   2.846   1.949
 1878SOL    HW1 7075   1.060   2.899   1.867
 1878SOL    HW2 7076   1.164   2.790   1.930
 1879SOL     OW 7077   1.861   3.431   2.713
 1879SOL    HW1 7078   1.790   3.419   2.643
 1879SOL    HW2 7079   1.862   3.352   2.773
 1880SOL     OW 7080   0.221   3.176   3.706
 1880SOL    HW1 7081   0.156   3.103   3.685
 1880SOL    HW2 7082   0.225   3.190   3.804
 1881SOL     OW 7083   0.079   3.102   2.515
 1881SOL    HW1 7084   0.078   3.055   2.603
 1881SOL    HW2 7085   0.161   3.074   2.464
 1882SOL     OW 7086   0.672   3.253   3.486
 1882SOL    HW1 7087   0.594   3.203   3.524
 1882SOL    HW2 7088   0.669   3.348   3.517
 1883SOL     OW 7089   1.824   2.054   3.089
 1883SOL    HW1 7090   1.820   1.964   3.133
 1883SOL    HW2 7091   1.827   2.043   2.990
 1884SOL     OW 7092   0.428   2.286   2.382
 1884SOL    HW1 7093   0.458   2.214   2.320
 1884SOL    HW2 7094   0.389   2.246   2.465
 1885SOL     OW 7095   1.705   3.349   2.966
 1885SOL    HW1 7096   1.612   3.324   2.939
 1885SOL    HW2 7097   1.731   3.299   3.048
 1886SOL     OW 7098   0.317   2.409   3.142
 1886SOL    HW1 7099   0.355   2.350   3.214
 1886SOL    HW2 7100   0.357   2.383   3.054
 1887SOL     OW 7101   0.812   3.448   2.549
 1887SOL    HW1 7102   0.844   3.458   2.455
 1887SOL    HW2 7103   0.733   3.386   2.551
 1888SOL     OW 7104   1.424   2.076   2.974
 1888SOL    HW1 7105   1.476   2.011   3.029
 1888SOL    HW2 7106   1.375   2.139   3.035
 1889SOL     OW 7107   1.001   1.896   3.016
 1889SOL    HW1 7108   0.938   1.824   2.985
 1889SOL    HW2 7109   1.094   1.860   3.016
 1890SOL     OW 7110   0.770   3.192   2.163
 1890SOL    HW1 7111   0.724   3.105   2.180
 1890SOL    HW2 7112   0.861   3.189   2.204
 1891SOL     OW 7113   0.618   3.429   3.146
 1891SOL    HW1 7114   0.613   3.511   3.203
 1891SOL    HW2 7115   0.707   3.426   3.101
 1892SOL     OW 7116   1.352   1.914   2.030
 1892SOL    HW1 7117   1.387   1.873   1.946
 1892SOL    HW2 7118   1.262   1.876   2.050
 1893SOL     OW 7119   1.300   2.315   2.553
 1893SOL    HW1 7120   1.241   2.395   2.557
 1893SOL    HW2 7121   1.315   2.280   2.646
 1894SOL     OW 7122   1.593   2.083   2.744
 1894SOL    HW1 7123   1.509   2.082   2.798
 1894SOL    HW2 7124   1.595   2.166   2.688
 1895SOL     OW 7125   0.039   2.939   2.162
 1895SOL    HW1 7126   0.138   2.928   2.153
 1895SOL    HW2 7127  -0.001   2.853   2.194
 1896SOL     OW 7128   0.875   3.508   2.199
 1896SOL    HW1 7129   0.798   3.473   2.145
 1896SOL    HW2 7130   0.843   3.579   2.261
 1897SOL     OW 7131   0.230   2.490   3.837
 1897SOL    HW1 7132   0.137   2.488   3.874
 1897SOL    HW2 7133   0.231   2.451   3.745
 1898SOL     OW 7134   0.225   2.137   4.720
 1898SOL    HW1 7135   0.260   2.120   4.812
 1898SOL    HW2 7136   0.137   2.092   4.708
 1899SOL     OW 7137   0.019   2.230   4.371
 1899SOL    HW1 7138  -0.063   2.273   4.410
 1899SOL    HW2 7139  -0.009   2.157   4.308
 1900SOL     OW 7140   0.569   3.137   4.889
 1900SOL    HW1 7141   0.476   3.130   4.852
 1900SOL    HW2 7142   0.580   3.226   4.933
 1901SOL     OW 7143   1.555   3.373   4.427
 1901SOL    HW1 7144   1.498   3.357   4.508
 1901SOL    HW2 7145   1.496   3.383   4.347
 1902SOL     OW 7146   1.135   2.565   4.441
 1902SOL    HW1 7147   1.192   2.643   4.416
 1902SOL    HW2 7148   1.075   2.591   4.517
 1903SOL     OW 7149   1.755   2.469   3.955
 1903SOL    HW1 7150   1.743   2.456   3.856
 1903SOL    HW2 7151   1.725   2.388   4.004
 1904SOL     OW 7152   0.768   3.006   4.747
 1904SOL    HW1 7153   0.690   3.023   4.807
 1904SOL    HW2 7154   0.802   3.093   4.711
 1905SOL     OW 7155   0.850   2.660   5.547
 1905SOL    HW1 7156   0.846   2.736   5.612
 1905SOL    HW2 7157   0.872   2.696   5.456
 1906SOL     OW 7158   0.685   2.874   4.389
 1906SOL    HW1 7159   0.754   2.858   4.459
 1906SOL    HW2 7160   0.612   2.931   4.427
 1907SOL     OW 7161   0.686   3.023   5.527
 1907SOL    HW1 7162   0.746   3.102   5.541
 1907SOL    HW2 7163   0.600   3.054   5.486
 1908SOL     OW 7164   0.335   3.297   4.785
 1908SOL    HW1 7165   0.257   3.266   4.732
 1908SOL    HW2 7166   0.393   3.355   4.728
 1909SOL     OW 7167   1.460   3.367   5.063
 1909SOL    HW1 7168   1.484   3.461   5.089
 1909SOL    HW2 7169   1.444   3.313   5.145
 1910SOL     OW 7170   0.438   2.254   5.223
 1910SOL    HW1 7171   0.520   2.198   5.232
 1910SOL    HW2 7172   0.357   2.196   5.227
 1911SOL     OW 7173   1.603   2.309   4.461
 1911SOL    HW1 7174   1.529   2.355   4.411
 1911SOL    HW2 7175   1.654   2.377   4.514
 1912SOL     OW 7176   0.231   3.575   4.207
 1912SOL    HW1 7177   0.265   3.652   4.261
 1912SOL    HW2 7178   0.275   3.575   4.117
 1913SOL     OW 7179   1.127   3.203   5.414
 1913SOL    HW1 7180   1.174   3.203   5.502
 1913SOL    HW2 7181   1.079   3.116   5.403
 1914SOL     OW 7182   0.230   3.296   4.262
 1914SOL    HW1 7183   0.204   3.392   4.262
 1914SOL    HW2 7184   0.159   3.242   4.307
 1915SOL     OW 7185   0.240   2.953   4.610
 1915SOL    HW1 7186   0.254   2.869   4.662
 1915SOL    HW2 7187   0.185   3.017   4.665
 1916SOL     OW 7188   0.620   3.648   5.163
 1916SOL    HW1 7189   0.528   3.631   5.198
 1916SOL    HW2 7190   0.648   3.740   5.189
 1917SOL     OW 7191   0.606   2.826   3.847
 1917SOL    HW1 7192   0.613   2.910   3.793
 1917SOL    HW2 7193   0.652   2.839   3.935
 1918SOL     OW 7194   1.594   1.976   5.204
 1918SOL    HW1 7195   1.576   2.043   5.132
 1918SOL    HW2 7196   1.591   2.022   5.293
 1919SOL     OW 7197   0.122   2.505   4.287
 1919SOL    HW1 7198   0.077   2.417   4.304
 1919SOL    HW2 7199   0.121   2.559   4.371
 1920SOL     OW 7200   1.842   3.629   4.083
 1920SOL    HW1 7201   1.896   3.600   4.163
 1920SOL    HW2 7202   1.872   3.719   4.054
 1921SOL     OW 7203   0.027   3.458   3.841
 1921SOL    HW1 7204   0.008   3.362   3.862
 1921SOL    HW2 7205  -0.006   3.516   3.916
 1922SOL     OW 7206   1.689   2.784   4.336
 1922SOL    HW1 7207   1.784   2.755   4.344
 1922SOL    HW2 7208   1.681   2.849   4.261
 1923SOL     OW 7209   1.641   2.970   4.156
 1923SOL    HW1 7210   1.727   2.972   4.104
 1923SOL    HW2 7211   1.655   3.017   4.244
 1924SOL     OW 7212   0.113   2.599   5.321
 1924SOL    HW1 7213   0.201   2.586   5.366
 1924SOL    HW2 7214   0.100   2.696   5.299
 1925SOL     OW 7215   0.613   3.227   4.450
 1925SOL    HW1 7216   0.564   3.140   4.459
 1925SOL    HW2 7217   0.590   3.270   4.363
 1926SOL     OW 7218   1.293   3.090   5.147
 1926SOL    HW1 7219   1.330   3.017   5.089
 1926SOL    HW2 7220   1.345   3.095   5.232
 1927SOL     OW 7221   0.809   1.866   4.226
 1927SOL    HW1 7222   0.849   1.957   4.217
 1927SOL    HW2 7223   0.709   1.874   4.232
 1928SOL     OW 7224   0.197   2.838   4.988
 1928SOL    HW1 7225   0.286   2.793   4.974
 1928SOL    HW2 7226   0.124   2.773   4.969
 1929SOL     OW 7227   1.525   2.861   3.914
 1929SOL    HW1 7228   1.462   2.785   3.927
 1929SOL    HW2 7229   1.573   2.879   4.000
 1930SOL     OW 7230   1.187   3.654   5.340
 1930SOL    HW1 7231   1.211   3.714   5.264
 1930SOL    HW2 7232   1.194   3.559   5.310
 1931SOL     OW 7233   0.317   2.113   5.525
 1931SOL    HW1 7234   0.388   2.184   5.531
 1931SOL    HW2 7235   0.229   2.152   5.553
 1932SOL     OW 7236   1.466   3.279   4.677
 1932SOL    HW1 7237   1.407   3.285   4.757
 1932SOL    HW2 7238   1.451   3.191   4.631
 1933SOL     OW 7239   1.667   3.576   4.296
 1933SOL    HW1 7240   1.626   3.553   4.208
 1933SOL    HW2 7241   1.649   3.502   4.361
 1934SOL     OW 7242   0.598   2.591   3.994
 1934SOL    HW1 7243   0.622   2.660   3.926
 1934SOL    HW2 7244   0.520   2.624   4.048
 1935SOL     OW 7245   1.281   2.207   4.668
 1935SOL    HW1 7246   1.195   2.157   4.655
 1935SOL    HW2 7247   1.343   2.153   4.724
 1936SOL     OW 7248   1.576   3.524   4.031
 1936SOL    HW1 7249   1.665   3.570   4.034
 1936SOL    HW2 7250   1.555   3.500   3.936
 1937SOL     OW 7251   0.807   2.467   5.189
 1937SOL    HW1 7252   0.760   2.464   5.278
 1937SOL    HW2 7253   0.756   2.412   5.123
 1938SOL     OW 7254   1.394   2.331   5.398
 1938SOL    HW1 7255   1.374   2.374   5.486
 1938SOL    HW2 7256   1.472   2.269   5.407
 1939SOL     OW 7257   0.973   2.752   5.296
 1939SOL    HW1 7258   1.019   2.668   5.267
 1939SOL    HW2 7259   0.917   2.786   5.221
 1940SOL     OW 7260   0.991   2.272   4.966
 1940SOL    HW1 7261   0.914   2.306   5.020
 1940SOL    HW2 7262   0.957   2.221   4.887
 1941SOL     OW 7263   1.041   2.563   4.153
 1941SOL    HW1 7264   1.067   2.559   4.249
 1941SOL    HW2 7265   0.956   2.512   4.139
 1942SOL     OW 7266   0.076   2.673   4.513
 1942SOL    HW1 7267   0.175   2.661   4.522
 1942SOL    HW2 7268   0.052   2.768   4.534
 1943SOL     OW 7269   0.130   3.683   5.295
 1943SOL    HW1 7270   0.120   3.668   5.394
 1943SOL    HW2 7271   0.044   3.719   5.259
 1944SOL     OW 7272   0.865   2.210   3.919
 1944SOL    HW1 7273   0.924   2.273   3.870
 1944SOL    HW2 7274   0.884   2.116   3.890
 1945SOL     OW 7275   1.719   2.447   5.555
 1945SOL    HW1 7276   1.693   2.536   5.519
 1945SOL    HW2 7277   1.717   2.379   5.482
 1946SOL     OW 7278   1.362   3.006   4.269
 1946SOL    HW1 7279   1.445   2.977   4.221
 1946SOL    HW2 7280   1.313   3.073   4.213
 1947SOL     OW 7281   0.550   2.058   4.609
 1947SOL    HW1 7282   0.545   2.053   4.709
 1947SOL    HW2 7283   0.552   2.154   4.580
 1948SOL     OW 7284   1.008   3.318   4.201
 1948SOL    HW1 7285   0.962   3.390   4.149
 1948SOL    HW2 7286   1.004   3.338   4.299
 1949SOL     OW 7287   0.351   3.663   4.577
 1949SOL    HW1 7288   0.401   3.577   4.583
 1949SOL    HW2 7289   0.416   3.740   4.574
 1950SOL     OW 7290   1.795   2.928   4.597
 1950SOL    HW1 7291   1.733   2.913   4.521
 1950SOL    HW2 7292   1.743   2.939   4.682
 1951SOL     OW 7293   1.227   3.412   5.230
 1951SOL    HW1 7294   1.233   3.335   5.294
 1951SOL    HW2 7295   1.175   3.386   5.150
 1952SOL     OW 7296   0.321   2.805   3.966
 1952SOL    HW1 7297   0.403   2.844   3.924
 1952SOL    HW2 7298   0.294   2.723   3.917
 1953SOL     OW 7299   1.458   2.597   4.452
 1953SOL    HW1 7300   1.453   2.532   4.527
 1953SOL    HW2 7301   1.538   2.656   4.465
 1954SOL     OW 7302   0.461   3.128   5.451
 1954SOL    HW1 7303   0.411   3.129   5.365
 1954SOL    HW2 7304   0.398   3.110   5.527
 1955SOL     OW 7305   1.111   3.638   3.961
 1955SOL    HW1 7306   1.051   3.576   4.011
 1955SOL    HW2 7307   1.142   3.594   3.876
 1956SOL     OW 7308   0.202   2.147   5.222
 1956SOL    HW1 7309   0.122   2.207   5.209
 1956SOL    HW2 7310   0.192   2.098   5.308
 1957SOL     OW 7311   1.632   3.239   3.805
 1957SOL    HW1 7312   1.600   3.333   3.795
 1957SOL    HW2 7313   1.556   3.176   3.793
 1958SOL     OW 7314   0.464   3.605   4.047
 1958SOL    HW1 7315   0.497   3.644   4.133
 1958SOL    HW2 7316   0.540   3.598   3.982
 1959SOL     OW 7317   1.400   1.969   4.150
 1959SOL    HW1 7318   1.376   1.932   4.060
 1959SOL    HW2 7319   1.499   1.985   4.154
 1960SOL     OW 7320   0.249   3.647   4.965
 1960SOL    HW1 7321   0.306   3.582   5.015
 1960SOL    HW2 7322   0.233   3.614   4.872
 1961SOL     OW 7323   0.940   3.560   4.628
 1961SOL    HW1 7324   1.020   3.503   4.649
 1961SOL    HW2 7325   0.891   3.520   4.551
 1962SOL     OW 7326   0.382   2.562   4.204
 1962SOL    HW1 7327   0.427   2.472   4.201
 1962SOL    HW2 7328   0.288   2.551   4.237
 1963SOL     OW 7329   1.547   2.084   5.453
 1963SOL    HW1 7330   1.542   2.121   5.545
 1963SOL    HW2 7331   1.475   2.015   5.441
 1964SOL     OW 7332   0.614   1.984   3.841
 1964SOL    HW1 7333   0.712   1.962   3.848
 1964SOL    HW2 7334   0.583   1.967   3.748
 1965SOL     OW 7335   0.781   2.126   5.473
 1965SOL    HW1 7336   0.848   2.065   5.516
 1965SOL    HW2 7337   0.708   2.145   5.538
 1966SOL     OW 7338   0.888   3.376   4.919
 1966SOL    HW1 7339   0.865   3.351   4.825
 1966SOL    HW2 7340   0.949   3.307   4.958
 1967SOL     OW 7341   1.351   2.452   5.157
 1967SOL    HW1 7342   1.379   2.409   5.242
 1967SOL    HW2 7343   1.376   2.548   5.158
 1968SOL     OW 7344   0.803   3.264   4.648
 1968SOL    HW1 7345   0.893   3.278   4.606
 1968SOL    HW2 7346   0.732   3.266   4.577
 1969SOL     OW 7347   0.922   2.365   4.623
 1969SOL    HW1 7348   0.897   2.356   4.527
 1969SOL    HW2 7349   0.970   2.283   4.654
 1970SOL     OW 7350   0.539   1.926   4.236
 1970SOL    HW1 7351   0.458   1.927   4.294
 1970SOL    HW2 7352   0.542   2.009   4.181
 1971SOL     OW 7353   1.434   3.050   3.765
 1971SOL    HW1 7354   1.466   2.974   3.822
 1971SOL    HW2 7355   1.342   3.077   3.795
 1972SOL     OW 7356   0.297   1.897   3.895
 1972SOL    HW1 7357   0.346   1.981   3.874
 1972SOL    HW2 7358   0.359   1.832   3.940
 1973SOL     OW 7359   0.935   2.098   4.204
 1973SOL    HW1 7360   0.887   2.139   4.126
 1973SOL    HW2 7361   1.034   2.096   4.185
 1974SOL     OW 7362   1.076   2.545   5.188
 1974SOL    HW1 7363   0.996   2.484   5.191
 1974SOL    HW2 7364   1.157   2.492   5.164
 1975SOL     OW 7365   1.227   3.432   4.517
 1975SOL    HW1 7366   1.248   3.506   4.452
 1975SOL    HW2 7367   1.295   3.432   4.590
 1976SOL     OW 7368   0.459   3.014   4.465
 1976SOL    HW1 7369   0.388   2.987   4.530
 1976SOL    HW2 7370   0.433   2.986   4.372
 1977SOL     OW 7371   1.271   3.659   4.315
 1977SOL    HW1 7372   1.315   3.723   4.251
 1977SOL    HW2 7373   1.221   3.711   4.385
 1978SOL     OW 7374   1.032   2.411   3.740
 1978SOL    HW1 7375   0.991   2.493   3.701
 1978SOL    HW2 7376   1.096   2.437   3.813
 1979SOL     OW 7377   0.078   2.418   5.110
 1979SOL    HW1 7378   0.170   2.417   5.069
 1979SOL    HW2 7379   0.072   2.492   5.177
 1980SOL     OW 7380   0.561   2.084   4.871
 1980SOL    HW1 7381   0.599   2.000   4.908
 1980SOL    HW2 7382   0.473   2.103   4.915
 1981SOL     OW 7383   0.866   2.316   4.366
 1981SOL    HW1 7384   0.834   2.388   4.304
 1981SOL    HW2 7385   0.890   2.235   4.313
 1982SOL     OW 7386   1.017   1.901   4.477
 1982SOL    HW1 7387   0.945   1.906   4.408
 1982SOL    HW2 7388   0.993   1.832   4.546
 1983SOL     OW 7389   1.429   3.035   4.591
 1983SOL    HW1 7390   1.374   2.951   4.584
 1983SOL    HW2 7391   1.455   3.064   4.499
 1984SOL     OW 7392   1.466   2.452   4.716
 1984SOL    HW1 7393   1.436   2.357   4.723
 1984SOL    HW2 7394   1.539   2.468   4.782
 1985SOL     OW 7395   1.857   2.695   4.101
 1985SOL    HW1 7396   1.899   2.631   4.165
 1985SOL    HW2 7397   1.819   2.644   4.023
 1986SOL     OW 7398   0.488   3.247   3.898
 1986SOL    HW1 7399   0.401   3.232   3.945
 1986SOL    HW2 7400   0.471   3.273   3.803
 1987SOL     OW 7401   1.664   3.142   4.381
 1987SOL    HW1 7402   1.763   3.150   4.395
 1987SOL    HW2 7403   1.619   3.226   4.412
 1988SOL     OW 7404   1.390   2.437   3.802
 1988SOL    HW1 7405   1.336   2.416   3.883
 1988SOL    HW2 7406   1.481   2.396   3.811
 1989SOL     OW 7407   0.527   2.118   4.052
 1989SOL    HW1 7408   0.554   2.059   3.977
 1989SOL    HW2 7409   0.527   2.213   4.021
 1990SOL     OW 7410   1.754   3.085   5.312
 1990SOL    HW1 7411   1.845   3.046   5.299
 1990SOL    HW2 7412   1.762   3.181   5.336
 1991SOL     OW 7413   1.064   3.209   5.064
 1991SOL    HW1 7414   0.984   3.186   5.119
 1991SOL    HW2 7415   1.147   3.183   5.113
 1992SOL     OW 7416   1.592   3.491   5.349
 1992SOL    HW1 7417   1.619   3.525   5.259
 1992SOL    HW2 7418   1.671   3.453   5.395
 1993SOL     OW 7419   1.111   3.057   4.824
 1993SOL    HW1 7420   1.071   3.101   4.905
 1993SOL    HW2 7421   1.070   3.094   4.741
 1994SOL     OW 7422   1.638   2.961   4.803
 1994SOL    HW1 7423   1.643   3.042   4.862
 1994SOL    HW2 7424   1.552   2.963   4.752
 1995SOL     OW 7425   0.915   1.951   5.126
 1995SOL    HW1 7426   0.940   1.931   5.031
 1995SOL    HW2 7427   0.987   2.007   5.168
 1996SOL     OW 7428   0.980   2.978   5.443
 1996SOL    HW1 7429   0.881   2.984   5.453
 1996SOL    HW2 7430   1.003   2.898   5.387
 1997SOL     OW 7431   0.705   2.912   4.092
 1997SOL    HW1 7432   0.691   2.919   4.191
 1997SOL    HW2 7433   0.789   2.861   4.074
 1998SOL     OW 7434   0.410   2.675   4.975
 1998SOL    HW1 7435   0.496   2.687   5.025
 1998SOL    HW2 7436   0.368   2.588   5.002
 1999SOL     OW 7437   1.274   2.248   4.986
 1999SOL    HW1 7438   1.295   2.322   5.050
 1999SOL    HW2 7439   1.185   2.265   4.943
 2000SOL     OW 7440   0.064   3.426   5.055
 2000SOL    HW1 7441   0.018   3.508   5.021
 2000SOL    HW2 7442   0.162   3.445   5.064
 2001SOL     OW 7443   0.367   2.962   4.225
 2001SOL    HW1 7444   0.360   3.045   4.169
 2001SOL    HW2 7445   0.371   2.882   4.165
 2002SOL     OW 7446   0.566   2.399   4.589
 2002SOL    HW1 7447   0.578   2.465   4.515
 2002SOL    HW2 7448   0.612   2.433   4.672
 2003SOL     OW 7449   1.252   3.210   4.112
 2003SOL    HW1 7450   1.302   3.287   4.152
 2003SOL    HW2 7451   1.157   3.212   4.144
 2004SOL     OW 7452   1.272   3.307   4.866
 2004SOL    HW1 7453   1.319   3.320   4.953
 2004SOL    HW2 7454   1.206   3.233   4.875
 2005SOL     OW 7455   1.582   2.501   4.196
 2005SOL    HW1 7456   1.551   2.562   4.269
 2005SOL    HW2 7457   1.632   2.553   4.127
 2006SOL     OW 7458   0.354   3.372   5.053
 2006SOL    HW1 7459   0.333   3.328   4.966
 2006SOL    HW2 7460   0.451   3.398   5.056
 2007SOL     OW 7461   1.587   2.641   5.394
 2007SOL    HW1 7462   1.495   2.679   5.389
 2007SOL    HW2 7463   1.647   2.688   5.329
 2008SOL     OW 7464   1.013   1.967   5.494
 2008SOL    HW1 7465   1.019   2.052   5.442
 2008SOL    HW2 7466   1.045   1.891   5.437
 2009SOL     OW 7467   0.504   1.912   5.464
 2009SOL    HW1 7468   0.462   1.855   5.394
 2009SOL    HW2 7469   0.438   1.981   5.496
 2010SOL     OW 7470   0.573   2.732   4.753
 2010SOL    HW1 7471   0.617   2.821   4.744
 2010SOL    HW2 7472   0.510   2.732   4.830
 2011SOL     OW 7473   1.360   2.724   4.769
 2011SOL    HW1 7474   1.285   2.724   4.703
 2011SOL    HW2 7475   1.397   2.632   4.778
 2012SOL     OW 7476   1.209   2.387   3.999
 2012SOL    HW1 7477   1.222   2.303   4.053
 2012SOL    HW2 7478   1.180   2.461   4.059
 2013SOL     OW 7479   0.307   2.075   4.955
 2013SOL    HW1 7480   0.284   2.112   5.045
 2013SOL    HW2 7481   0.277   1.980   4.949
 2014SOL     OW 7482   0.037   3.172   5.006
 2014SOL    HW1 7483   0.090   3.123   5.074
 2014SOL    HW2 7484   0.059   3.270   5.011
 2015SOL     OW 7485   0.732   2.496   4.788
 2015SOL    HW1 7486   0.791   2.470   4.712
 2015SOL    HW2 7487   0.704   2.592   4.777
 2016SOL     OW 7488   1.728   2.797   5.578
 2016SOL    HW1 7489   1.682   2.790   5.489
 2016SOL    HW2 7490   1.666   2.841   5.644
 2017SOL     OW 7491   0.307   1.925   4.342
 2017SOL    HW1 7492   0.296   2.019   4.375
 2017SOL    HW2 7493   0.302   1.862   4.419
 2018SOL     OW 7494   1.622   2.229   4.098
 2018SOL    HW1 7495   1.624   2.153   4.162
 2018SOL    HW2 7496   1.574   2.306   4.138
 2019SOL     OW 7497   1.023   2.628   4.690
 2019SOL    HW1 7498   1.038   2.649   4.786
 2019SOL    HW2 7499   0.993   2.533   4.681
 2020SOL     OW 7500   0.980   3.435   5.424
 2020SOL    HW1 7501   0.960   3.479   5.336
 2020SOL    HW2 7502   1.019   3.344   5.408
 2021SOL     OW 7503   1.859   3.380   5.329
 2021SOL    HW1 7504   1.873   3.407   5.234
 2021SOL    HW2 7505   1.942   3.402   5.382
 2022SOL     OW 7506   0.350   2.760   5.528
 2022SOL    HW1 7507   0.426   2.804   5.576
 2022SOL    HW2 7508   0.385   2.713   5.446
 2023SOL     OW 7509   1.540   2.136   3.849
 2023SOL    HW1 7510   1.479   2.061   3.872
 2023SOL    HW2 7511   1.562   2.188   3.932
 2024SOL     OW 7512   1.303   2.700   3.766
 2024SOL    HW1 7513   1.337   2.607   3.781
 2024SOL    HW2 7514   1.321   2.727   3.671
 2025SOL     OW 7515   1.068   3.195   4.573
 2025SOL    HW1 7516   1.075   3.111   4.518
 2025SOL    HW2 7517   1.130   3.264   4.537
 2026SOL     OW 7518   0.319   2.672   4.673
 2026SOL    HW1 7519   0.412   2.708   4.678
 2026SOL    HW2 7520   0.313   2.587   4.725
 2027SOL     OW 7521   0.339   2.371   4.730
 2027SOL    HW1 7522   0.287   2.288   4.713
 2027SOL    HW2 7523   0.416   2.376   4.666
 2028SOL     OW 7524   1.138   2.242   5.402
 2028SOL    HW1 7525   1.093   2.305   5.466
 2028SOL    HW2 7526   1.231   2.273   5.385
 2029SOL     OW 7527   1.160   2.069   5.201
 2029SOL    HW1 7528   1.160   2.133   5.278
 2029SOL    HW2 7529   1.188   2.117   5.118
 2030SOL     OW 7530   0.008   3.188   3.924
 2030SOL    HW1 7531  -0.085   3.209   3.893
 2030SOL    HW2 7532   0.018   3.089   3.937
 2031SOL     OW 7533   0.088   3.663   4.651
 2031SOL    HW1 7534   0.046   3.577   4.624
 2031SOL    HW2 7535   0.182   3.666   4.617
 2032SOL     OW 7536   0.504   3.430   4.634
 2032SOL    HW1 7537   0.570   3.504   4.643
 2032SOL    HW2 7538   0.548   3.351   4.592
 2033SOL     OW 7539   1.002   2.658   4.962
 2033SOL    HW1 7540   1.043   2.626   5.048
 2033SOL    HW2 7541   0.906   2.631   4.959
 2034SOL     OW 7542   0.040   2.406   4.838
 2034SOL    HW1 7543   0.125   2.373   4.797
 2034SOL    HW2 7544   0.053   2.421   4.936
 2035SOL     OW 7545   0.189   2.382   5.446
 2035SOL    HW1 7546   0.248   2.342   5.376
 2035SOL    HW2 7547   0.131   2.453   5.405
 2036SOL     OW 7548   1.369   2.812   5.384
 2036SOL    HW1 7549   1.408   2.901   5.404
 2036SOL    HW2 7550   1.379   2.792   5.287
 2037SOL     OW 7551   0.815   2.434   4.049
 2037SOL    HW1 7552   0.822   2.345   4.003
 2037SOL    HW2 7553   0.721   2.468   4.041
 2038SOL     OW 7554   1.657   2.466   4.930
 2038SOL    HW1 7555   1.619   2.397   4.992
 2038SOL    HW2 7556   1.739   2.430   4.886
 2039SOL     OW 7557   0.252   3.426   5.468
 2039SOL    HW1 7558   0.222   3.483   5.544
 2039SOL    HW2 7559   0.245   3.329   5.494
 2040SOL     OW 7560   0.671   2.326   4.993
 2040SOL    HW1 7561   0.637   2.237   4.963
 2040SOL    HW2 7562   0.697   2.380   4.913
 2041SOL     OW 7563   0.930   3.540   5.189
 2041SOL    HW1 7564   0.906   3.522   5.094
 2041SOL    HW2 7565   0.960   3.634   5.199
 2042SOL     OW 7566   0.473   2.362   3.915
 2042SOL    HW1 7567   0.534   2.442   3.919
 2042SOL    HW2 7568   0.378   2.393   3.922
 2043SOL     OW 7569   0.159   2.999   5.190
 2043SOL    HW1 7570   0.181   2.938   5.266
 2043SOL    HW2 7571   0.169   2.950   5.104
 2044SOL     OW 7572   1.347   2.921   4.958
 2044SOL    HW1 7573   1.371   2.858   4.884
 2044SOL    HW2 7574   1.257   2.961   4.940
 2045SOL     OW 7575   1.302   2.717   4.033
 2045SOL    HW1 7576   1.216   2.686   4.075
 2045SOL    HW2 7577   1.298   2.703   3.934
 2046SOL     OW 7578   1.759   3.609   4.878
 2046SOL    HW1 7579   1.820   3.639   4.805
 2046SOL    HW2 7580   1.721   3.520   4.856
 2047SOL     OW 7581   1.252   3.593   4.852
 2047SOL    HW1 7582   1.336   3.598   4.798
 2047SOL    HW2 7583   1.229   3.497   4.870
 2048SOL     OW 7584   0.083   3.120   4.746
 2048SOL    HW1 7585   0.078   3.119   4.846
 2048SOL    HW2 7586   0.000   3.079   4.708
 2049SOL     OW 7587   0.688   3.524   5.440
 2049SOL    HW1 7588   0.632   3.605   5.449
 2049SOL    HW2 7589   0.740   3.528   5.354
 2050SOL     OW 7590   1.726   1.997   4.247
 2050SOL    HW1 7591   1.799   1.980   4.180
 2050SOL    HW2 7592   1.695   1.910   4.285
 2051SOL     OW 7593   1.388   3.435   4.201
 2051SOL    HW1 7594   1.455   3.447   4.127
 2051SOL    HW2 7595   1.348   3.524   4.224
 2052SOL     OW 7596   0.130   3.656   5.575
 2052SOL    HW1 7597   0.089   3.582   5.628
 2052SOL    HW2 7598   0.194   3.707   5.633
 2053SOL     OW 7599   1.280   2.789   4.396
 2053SOL    HW1 7600   1.340   2.708   4.398
 2053SOL    HW2 7601   1.320   2.858   4.336
 2054SOL     OW 7602   0.830   3.135   5.146
 2054SOL    HW1 7603   0.825   3.168   5.241
 2054SOL    HW2 7604   0.744   3.154   5.100
 2055SOL     OW 7605   0.672   3.478   3.878
 2055SOL    HW1 7606   0.681   3.488   3.779
 2055SOL    HW2 7607   0.632   3.389   3.899
 2056SOL     OW 7608   1.650   3.582   5.118
 2056SOL    HW1 7609   1.703   3.592   5.034
 2056SOL    HW2 7610   1.623   3.672   5.152
 2057SOL     OW 7611   1.841   2.037   4.687
 2057SOL    HW1 7612   1.880   1.952   4.651
 2057SOL    HW2 7613   1.743   2.039   4.668
 2058SOL     OW 7614   0.263   2.188   4.444
 2058SOL    HW1 7615   0.184   2.239   4.410
 2058SOL    HW2 7616   0.254   2.173   4.542
 2059SOL     OW 7617   1.194   3.474   3.755
 2059SOL    HW1 7618   1.200   3.381   3.792
 2059SOL    HW2 7619   1.135   3.474   3.675
 2060SOL     OW 7620   0.822   2.864   5.096
 2060SOL    HW1 7621   0.862   2.863   5.004
 2060SOL    HW2 7622   0.832   2.956   5.136
 2061SOL     OW 7623   0.916   2.772   4.015
 2061SOL    HW1 7624   0.979   2.810   3.947
 2061SOL    HW2 7625   0.956   2.689   4.054
 2062SOL     OW 7626   1.504   3.469   3.768
 2062SOL    HW1 7627   1.412   3.506   3.775
 2062SOL    HW2 7628   1.542   3.489   3.678
 2063SOL     OW 7629   0.372   3.150   5.214
 2063SOL    HW1 7630   0.359   3.243   5.180
 2063SOL    HW2 7631   0.288   3.098   5.201
 2064SOL     OW 7632   1.614   3.154   5.013
 2064SOL    HW1 7633   1.674   3.157   5.093
 2064SOL    HW2 7634   1.539   3.218   5.026
 2065SOL     OW 7635   1.039   2.960   4.420
 2065SOL    HW1 7636   0.969   2.913   4.474
 2065SOL    HW2 7637   1.098   2.892   4.377
 2066SOL     OW 7638   1.014   2.098   4.695
 2066SOL    HW1 7639   1.006   2.062   4.602
 2066SOL    HW2 7640   1.012   2.022   4.760
 2067SOL     OW 7641   0.590   3.349   4.215
 2067SOL    HW1 7642   0.632   3.291   4.145
 2067SOL    HW2 7643   0.546   3.428   4.171
 2068SOL     OW 7644   1.709   2.247   5.105
 2068SOL    HW1 7645   1.782   2.316   5.109
 2068SOL    HW2 7646   1.737   2.172   5.046
 2069SOL     OW 7647   0.255   3.210   4.014
 2069SOL    HW1 7648   0.159   3.211   3.987
 2069SOL    HW2 7649   0.267   3.263   4.098
 2070SOL     OW 7650   0.105   2.875   5.450
 2070SOL    HW1 7651   0.028   2.842   5.504
 2070SOL    HW2 7652   0.190   2.845   5.492
 2071SOL     OW 7653   0.672   2.065   5.213
 2071SOL    HW1 7654   0.762   2.049   5.173
 2071SOL    HW2 7655   0.680   2.070   5.312
 2072SOL     OW 7656   0.075   2.207   3.757
 2072SOL    HW1 7657  -0.017   2.179   3.728
 2072SOL    HW2 7658   0.106   2.284   3.701
 2073SOL     OW 7659   1.440   2.718   5.122
 2073SOL    HW1 7660   1.383   2.770   5.059
 2073SOL    HW2 7661   1.536   2.730   5.098
 2074SOL     OW 7662   0.072   2.028   4.042
 2074SOL    HW1 7663   0.055   2.111   3.988
 2074SOL    HW2 7664   0.162   1.991   4.020
 2075SOL     OW 7665   1.183   3.197   3.843
 2075SOL    HW1 7666   1.084   3.186   3.845
 2075SOL    HW2 7667   1.217   3.212   3.936
 2076SOL     OW 7668   0.613   2.704   5.155
 2076SOL    HW1 7669   0.669   2.785   5.138
 2076SOL    HW2 7670   0.672   2.624   5.158
 2077SOL     OW 7671   0.716   2.427   5.432
 2077SOL    HW1 7672   0.735   2.492   5.506
 2077SOL    HW2 7673   0.776   2.347   5.441
 2078SOL     OW 7674   1.450   3.082   5.357
 2078SOL    HW1 7675   1.441   3.072   5.456
 2078SOL    HW2 7676   1.546   3.075   5.331
 2079SOL     OW 7677   0.390   3.603   5.284
 2079SOL    HW1 7678   0.299   3.644   5.282
 2079SOL    HW2 7679   0.383   3.509   5.316
 2080SOL     OW 7680   1.674   2.745   4.978
 2080SOL    HW1 7681   1.647   2.656   4.941
 2080SOL    HW2 7682   1.675   2.813   4.905
 2081SOL     OW 7683   1.225   2.187   4.173
 2081SOL    HW1 7684   1.290   2.113   4.162
 2081SOL    HW2 7685   1.245   2.237   4.257
 2082SOL     OW 7686   0.594   2.607   4.376
 2082SOL    HW1 7687   0.644   2.692   4.357
 2082SOL    HW2 7688   0.506   2.609   4.328
 2083SOL     OW 7689   1.777   2.204   5.366
 2083SOL    HW1 7690   1.760   2.235   5.272
 2083SOL    HW2 7691   1.693   2.167   5.404
 2084SOL     OW 7692   1.730   2.796   5.241
 2084SOL    HW1 7693   1.768   2.887   5.256
 2084SOL    HW2 7694   1.722   2.779   5.142
 2085SOL     OW 7695   0.859   3.236   3.740
 2085SOL    HW1 7696   0.813   3.251   3.828
 2085SOL    HW2 7697   0.903   3.321   3.710
 2086SOL     OW 7698   0.661   3.652   4.677
 2086SOL    HW1 7699   0.615   3.740   4.664
 2086SOL    HW2 7700   0.760   3.664   4.670
 2087SOL     OW 7701   0.859   2.818   4.585
 2087SOL    HW1 7702   0.913   2.749   4.633
 2087SOL    HW2 7703   0.827   2.887   4.651
 2088SOL     OW 7704   1.083   2.846   3.811
 2088SOL    HW1 7705   1.060   2.899   3.729
 2088SOL    HW2 7706   1.164   2.790   3.792
 2089SOL     OW 7707   1.861   3.431   4.575
 2089SOL    HW1 7708   1.790   3.419   4.505
 2089SOL    HW2 7709   1.862   3.352   4.635
 2090SOL     OW 7710   0.221   3.176   5.568
 2090SOL    HW1 7711   0.156   3.103   5.547
 2090SOL    HW2 7712   0.225   3.190   5.666
 2091SOL     OW 7713   0.079   3.102   4.377
 2091SOL    HW1 7714   0.078   3.055   4.465
 2091SOL    HW2 7715   0.161   3.074   4.326
 2092SOL     OW 7716   0.672   3.253   5.348
 2092SOL    HW1 7717   0.594   3.203   5.386
 2092SOL    HW2 7718   0.669   3.348   5.379
 2093SOL     OW 7719   1.824   2.054   4.951
 2093SOL    HW1 7720   1.820   1.964   4.995
 2093SOL    HW2 7721   1.827   2.043   4.852
 2094SOL     OW 7722   0.428   2.286   4.244
 2094SOL    HW1 7723   0.458   2.214   4.182
 2094SOL    HW2 7724   0.389   2.246   4.327
 2095SOL     OW 7725   1.705   3.349   4.828
 2095SOL    HW1 7726   1.612   3.324   4.801
 2095SOL    HW2 7727   1.731   3.299   4.910
 2096SOL     OW 7728   0.317   2.409   5.004
 2096SOL    HW1 7729   0.355   2.350   5.076
 2096SOL    HW2 7730   0.357   2.383   4.916
 2097SOL     OW 7731   0.812   3.448   4.411
 2097SOL    HW1 7732   0.844   3.458   4.317
 2097SOL    HW2 7733   0.733   3.386   4.413
 2098SOL     OW 7734   1.424   2.076   4.836
 2098SOL    HW1 7735   1.476   2.011   4.891
 2098SOL    HW2 7736   1.375   2.139   4.897
 2099SOL     OW 7737   1.001   1.896   4.878
 2099SOL    HW1 7738   0.938   1.824   4.847
 2099SOL    HW2 7739   1.094   1.860   4.878
 2100SOL     OW 7740   0.770   3.192   4.025
 2100SOL    HW1 7741   0.724   3.105   4.042
 2100SOL    HW2 7742   0.861   3.189   4.066
 2101SOL     OW 7743   0.618   3.429   5.008
 2101SOL    HW1 7744   0.613   3.511   5.065
 2101SOL    HW2 7745   0.707   3.426   4.963
 2102SOL     OW 7746   1.352   1.914   3.892
 2102SOL    HW1 7747   1.387   1.873   3.808
 2102SOL    HW2 7748   1.262   1.876   3.912
 2103SOL     OW 7749   1.300   2.315   4.415
 2103SOL    HW1 7750   1.241   2.395   4.419
 2103SOL    HW2 7751   1.315   2.280   4.508
 2104SOL     OW 7752   1.593   2.083   4.606
 2104SOL    HW1 7753   1.509   2.082   4.660
 2104SOL    HW2 7754   1.595   2.166   4.550
 2105SOL     OW 7755   0.039   2.939   4.024
 2105SOL    HW1 7756   0.138   2.928   4.015
 2105SOL    HW2 7757  -0.001   2.853   4.056
 2106SOL     OW 7758   0.875   3.508   4.061
 2106SOL    HW1 7759   0.798   3.473   4.007
 2106SOL    HW2 7760   0.843   3.579   4.123
 2107SOL     OW 7761   0.230   2.490   5.699
 2107SOL    HW1 7762   0.137   2.488   5.736
 2107SOL    HW2 7763   0.231   2.451   5.607
 2108SOL     OW 7764   0.225   2.137   6.582
 2108SOL    HW1 7765   0.260   2.120   6.674
 2108SOL    HW2 7766   0.137   2.092   6.570
 2109SOL     OW 7767   0.019   2.230   6.233
 2109SOL    HW1 7768  -0.063   2.273   6.272
 2109SOL    HW2 7769  -0.009   2.157   6.170
 2110SOL     OW 7770   0.569   3.137   6.751
 2110SOL    HW1 7771   0.476   3.130   6.714
 2110SOL    HW2 7772   0.580   3.226   6.795
 2111SOL     OW 7773   1.555   3.373   6.289
 2111SOL    HW1 7774   1.498   3.357   6.370
 2111SOL    HW2 7775   1.496   3.383   6.209
 2112SOL     OW 7776   1.135   2.565   6.303
 2112SOL    HW1 7777   1.192   2.643   6.278
 2112SOL    HW2 7778   1.075   2.591   6.379
 2113SOL     OW 7779   1.755   2.469   5.817
 2113SOL    HW1 7780   1.743   2.456   5.718
 2113SOL    HW2 7781   1.725   2.388   5.866
 2114SOL     OW 7782   0.768   3.006   6.609
 2114SOL    HW1 7783   0.690   3.023   6.669
 2114SOL    HW2 7784   0.802   3.093   6.573
 2115SOL     OW 7785   0.850   2.660   7.409
 2115SOL    HW1 7786   0.846   2.736   7.474
 2115SOL    HW2 7787   0.872   2.696   7.318
 2116SOL     OW 7788   0.685   2.874   6.251
 2116SOL    HW1 7789   0.754   2.858   6.321
 2116SOL    HW2 7790   0.612   2.931   6.289
 2117SOL     OW 7791   0.686   3.023   7.389
 2117SOL    HW1 7792   0.746   3.102   7.403
 2117SOL    HW2 7793   0.600   3.054   7.348
 2118SOL     OW 7794   0.335   3.297   6.647
 2118SOL    HW1 7795   0.257   3.266   6.594
 2118SOL    HW2 7796   0.393   3.355   6.590
 2119SOL     OW 7797   1.460   3.367   6.925
 2119SOL    HW1 7798   1.484   3.461   6.951
 2119SOL    HW2 7799   1.444   3.313   7.007
 2120SOL     OW 7800   0.438   2.254   7.085
 2120SOL    HW1 7801   0.520   2.198   7.094
 2120SOL    HW2 7802   0.357   2.196   7.089
 2121SOL     OW 7803   1.603   2.309   6.323
 2121SOL    HW1 7804   1.529   2.355   6.273
 2121SOL    HW2 7805   1.654   2.377   6.376
 2122SOL     OW 7806   0.231   3.575   6.069
 2122SOL    HW1 7807   0.265   3.652   6.123
 2122SOL    HW2 7808   0.275   3.575   5.979
 2123SOL     OW 7809   1.127   3.203   7.276
 2123SOL    HW1 7810   1.174   3.203   7.364
 2123SOL    HW2 7811   1.079   3.116   7.265
 2124SOL     OW 7812   0.230   3.296   6.124
 2124SOL    HW1 7813   0.204   3.392   6.124
 2124SOL    HW2 7814   0.159   3.242   6.169
 2125SOL     OW 7815   0.240   2.953   6.472
 2125SOL    HW1 7816   0.254   2.869   6.524
 2125SOL    HW2 7817   0.185   3.017   6.527
 2126SOL     OW 7818   0.620   3.648   7.025
 2126SOL    HW1 7819   0.528   3.631   7.060
 2126SOL    HW2 7820   0.648   3.740   7.051
 2127SOL     OW 7821   0.606   2.826   5.709
 2127SOL    HW1 7822   0.613   2.910   5.655
 2127SOL    HW2 7823   0.652   2.839   5.797
 2128SOL     OW 7824   1.594   1.976   7.066
 2128SOL    HW1 7825   1.576   2.043   6.994
 2128SOL    HW2 7826   1.591   2.022   7.155
 2129SOL     OW 7827   0.122   2.505   6.149
 2129SOL    HW1 7828   0.077   2.417   6.166
 2129SOL    HW2 7829   0.121   2.559   6.233
 2130SOL     OW 7830   1.842   3.629   5.945
 2130SOL    HW1 7831   1.896   3.600   6.025
 2130SOL    HW2 7832   1.872   3.719   5.916
 2131SOL     OW 7833   0.027   3.458   5.703
 2131SOL    HW1 7834   0.008   3.362   5.724
 2131SOL    HW2 7835  -0.006   3.516   5.778
 2132SOL     OW 7836   1.689   2.784   6.198
 2132SOL    HW1 7837   1.784   2.755   6.206
 2132SOL    HW2 7838   1.681   2.849   6.123
 2133SOL     OW 7839   1.641   2.970   6.018
 2133SOL    HW1 7840   1.727   2.972   5.966
 2133SOL    HW2 7841   1.655   3.017   6.106
 2134SOL     OW 7842   0.113   2.599   7.183
 2134SOL    HW1 7843   0.201   2.586   7.228
 2134SOL    HW2 7844   0.100   2.696   7.161
 2135SOL     OW 7845   0.613   3.227   6.312
 2135SOL    HW1 7846   0.564   3.140   6.321
 2135SOL    HW2 7847   0.590   3.270   6.225
 2136SOL     OW 7848   1.293   3.090   7.009
 2136SOL    HW1 7849   1.330   3.017   6.951
 2136SOL    HW2 7850   1.345   3.095   7.094
 2137SOL     OW 7851   0.809   1.866   6.088
 2137SOL    HW1 7852   0.849   1.957   6.079
 2137SOL    HW2 7853   0.709   1.874   6.094
 2138SOL     OW 7854   0.197   2.838   6.850
 2138SOL    HW1 7855   0.286   2.793   6.836
 2138SOL    HW2 7856   0.124   2.773   6.831
 2139SOL     OW 7857   1.525   2.861   5.776
 2139SOL    HW1 7858   1.462   2.785   5.789
 2139SOL    HW2 7859   1.573   2.879   5.862
 2140SOL     OW 7860   1.187   3.654   7.202
 2140SOL    HW1 7861   1.211   3.714   7.126
 2140SOL    HW2 7862   1.194   3.559   7.172
 2141SOL     OW 7863   0.317   2.113   7.387
 2141SOL    HW1 7864   0.388   2.184   7.393
 2141SOL    HW2 7865   0.229   2.152   7.415
 2142SOL     OW 7866   1.466   3.279   6.539
 2142SOL    HW1 7867   1.407   3.285   6.619
 2142SOL    HW2 7868   1.451   3.191   6.493
 2143SOL     OW 7869   1.667   3.576   6.158
 2143SOL    HW1 7870   1.626   3.553   6.070
 2143SOL    HW2 7871   1.649   3.502   6.223
 2144SOL     OW 7872   0.598   2.591   5.856
 2144SOL    HW1 7873   0.622   2.660   5.788
 2144SOL    HW2 7874   0.520   2.624   5.910
 2145SOL     OW 7875   1.281   2.207   6.530
 2145SOL    HW1 7876   1.195   2.157   6.517
 2145SOL    HW2 7877   1.343   2.153   6.586
 2146SOL     OW 7878   1.576   3.524   5.893
 2146SOL    HW1 7879   1.665   3.570   5.896
 2146SOL    HW2 7880   1.555   3.500   5.798
 2147SOL     OW 7881   0.807   2.467   7.051
 2147SOL    HW1 7882   0.760   2.464   7.140
 2147SOL    HW2 7883   0.756   2.412   6.985
 2148SOL     OW 7884   1.394   2.331   7.260
 2148SOL    HW1 7885   1.374   2.374   7.348
 2148SOL    HW2 7886   1.472   2.269   7.269
 2149SOL     OW 7887   0.973   2.752   7.158
 2149SOL    HW1 7888   1.019   2.668   7.129
 2149SOL    HW2 7889   0.917   2.786   7.083
 2150SOL     OW 7890   0.991   2.272   6.828
 2150SOL    HW1 7891   0.914   2.306   6.882
 2150SOL    HW2 7892   0.957   2.221   6.749
 2151SOL     OW 7893   1.041   2.563   6.015
 2151SOL    HW1 7894   1.067   2.559   6.111
 2151SOL    HW2 7895   0.956   2.512   6.001
 2152SOL     OW 7896   0.076   2.673   6.375
 2152SOL    HW1 7897   0.175   2.661   6.384
 2152SOL    HW2 7898   0.052   2.768   6.396
 2153SOL     OW 7899   0.130   3.683   7.157
 2153SOL    HW1 7900   0.120   3.668   7.256
 2153SOL    HW2 7901   0.044   3.719   7.121
 2154SOL     OW 7902   0.865   2.210   5.781
 2154SOL    HW1 7903   0.924   2.273   5.732
 2154SOL    HW2 7904   0.884   2.116   5.752
 2155SOL     OW 7905   1.719   2.447   7.417
 2155SOL    HW1 7906   1.693   2.536   7.381
 2155SOL    HW2 7907   1.717   2.379   7.344
 2156SOL     OW 7908   1.362   3.006   6.131
 2156SOL    HW1 7909   1.445   2.977   6.083
 2156SOL    HW2 7910   1.313   3.073   6.075
 2157SOL     OW 7911   0.550   2.058   6.471
 2157SOL    HW1 7912   0.545   2.053   6.571
 2157SOL    HW2 7913   0.552   2.154   6.442
 2158SOL     OW 7914   1.008   3.318   6.063
 2158SOL    HW1 7915   0.962   3.390   6.011
 2158SOL    HW2 7916   1.004   3.338   6.161
 2159SOL     OW 7917   0.351   3.663   6.439
 2159SOL    HW1 7918   0.401   3.577   6.445
 2159SOL    HW2 7919   0.416   3.740   6.436
 2160SOL     OW 7920   1.795   2.928   6.459
 2160SOL    HW1 7921   1.733   2.913   6.383
 2160SOL    HW2 7922   1.743   2.939   6.544
 2161SOL     OW 7923   1.227   3.412   7.092
 2161SOL    HW1 7924   1.233   3.335   7.156
 2161SOL    HW2 7925   1.175   3.386   7.012
 2162SOL     OW 7926   0.321   2.805   5.828
 2162SOL    HW1 7927   0.403   2.844   5.786
 2162SOL    HW2 7928   0.294   2.723   5.779
 2163SOL     OW 7929   1.458   2.597   6.314
 2163SOL    HW1 7930   1.453   2.532   6.389
 2163SOL    HW2 7931   1.538   2.656   6.327
 2164SOL     OW 7932   0.461   3.128   7.313
 2164SOL    HW1 7933   0.411   3.129   7.227
 2164SOL    HW2 7934   0.398   3.110   7.389
 2165SOL     OW 7935   1.111   3.638   5.823
 2165SOL    HW1 7936   1.051   3.576   5.873
 2165SOL    HW2 7937   1.142   3.594   5.738
 2166SOL     OW 7938   0.202   2.147   7.084
 2166SOL    HW1 7939   0.122   2.207   7.071
 2166SOL    HW2 7940   0.192   2.098   7.170
 2167SOL     OW 7941   1.632   3.239   5.667
 2167SOL    HW1 7942   1.600   3.333   5.657
 2167SOL    HW2 7943   1.556   3.176   5.655
 2168SOL     OW 7944   0.464   3.605   5.909
 2168SOL    HW1 7945   0.497   3.644   5.995
 2168SOL    HW2 7946   0.540   3.598   5.844
 2169SOL     OW 7947   1.400   1.969   6.012
 2169SOL    HW1 7948   1.376   1.932   5.922
 2169SOL    HW2 7949   1.499   1.985   6.016
 2170SOL     OW 7950   0.249   3.647   6.827
 2170SOL    HW1 7951   0.306   3.582   6.877
 2170SOL    HW2 7952   0.233   3.614   6.734
 2171SOL     OW 7953   0.940   3.560   6.490
 2171SOL    HW1 7954   1.020   3.503   6.511
 2171SOL    HW2 7955   0.891   3.520   6.413
 2172SOL     OW 7956   0.382   2.562   6.066
 2172SOL    HW1 7957   0.427   2.472   6.063
 2172SOL    HW2 7958   0.288   2.551   6.099
 2173SOL     OW 7959   1.547   2.084   7.315
 2173SOL    HW1 7960   1.542   2.121   7.407
 2173SOL    HW2 7961   1.475   2.015   7.303
 2174SOL     OW 7962   0.614   1.984   5.703
 2174SOL    HW1 7963   0.712   1.962   5.710
 2174SOL    HW2 7964   0.583   1.967   5.610
 2175SOL     OW 7965   0.781   2.126   7.335
 2175SOL    HW1 7966   0.848   2.065   7.378
 2175SOL    HW2 7967   0.708   2.145   7.400
 2176SOL     OW 7968   0.888   3.376   6.781
 2176SOL    HW1 7969   0.865   3.351   6.687
 2176SOL    HW2 7970   0.949   3.307   6.820
 2177SOL     OW 7971   1.351   2.452   7.019
 2177SOL    HW1 7972   1.379   2.409   7.104
 2177SOL    HW2 7973   1.376   2.548   7.020
 2178SOL     OW 7974   0.803   3.264   6.510
 2178SOL    HW1 7975   0.893   3.278   6.468
 2178SOL    HW2 7976   0.732   3.266   6.439
 2179SOL     OW 7977   0.922   2.365   6.485
 2179SOL    HW1 7978   0.897   2.356   6.389
 2179SOL    HW2 7979   0.970   2.283   6.516
 2180SOL     OW 7980   0.539   1.926   6.098
 2180SOL    HW1 7981   0.458   1.927   6.156
 2180SOL    HW2 7982   0.542   2.009   6.043
 2181SOL     OW 7983   1.434   3.050   5.627
 2181SOL    HW1 7984   1.466   2.974   5.684
 2181SOL    HW2 7985   1.342   3.077   5.657
 2182SOL     OW 7986   0.297   1.897   5.757
 2182SOL    HW1 7987   0.346   1.981   5.736
 2182SOL    HW2 7988   0.359   1.832   5.802
 2183SOL     OW 7989   0.935   2.098   6.066
 2183SOL    HW1 7990   0.887   2.139   5.988
 2183SOL    HW2 7991   1.034   2.096   6.047
 2184SOL     OW 7992   1.076   2.545   7.050
 2184SOL    HW1 7993   0.996   2.484   7.053
 2184SOL    HW2 7994   1.157   2.492   7.026
 2185SOL     OW 7995   1.227   3.432   6.379
 2185SOL    HW1 7996   1.248   3.506   6.314
 2185SOL    HW2 7997   1.295   3.432   6.452
 2186SOL     OW 7998   0.459   3.014   6.327
 2186SOL    HW1 7999   0.388   2.987   6.392
 2186SOL    HW2 8000   0.433   2.986   6.234
 2187SOL     OW 8001   1.271   3.659   6.177
 2187SOL    HW1 8002   1.315   3.723   6.113
 2187SOL    HW2 8003   1.221   3.711   6.247
 2188SOL     OW 8004   1.032   2.411   5.602
 2188SOL    HW1 8005   0.991   2.493   5.563
 2188SOL    HW2 8006   1.096   2.437   5.675
 2189SOL     OW 8007   0.078   2.418   6.972
 2189SOL    HW1 8008   0.170   2.417   6.931
 2189SOL    HW2 8009   0.072   2.492   7.039
 2190SOL     OW 8010   0.561   2.084   6.733
 2190SOL    HW1 8011   0.599   2.000   6.770
 2190SOL    HW2 8012   0.473   2.103   6.777
 2191SOL     OW 8013   0.866   2.316   6.228
 2191SOL    HW1 8014   0.834   2.388   6.166
 2191SOL    HW2 8015   0.890   2.235   6.175
 2192SOL     OW 8016   1.017   1.901   6.339
 2192SOL    HW1 8017   0.945   1.906   6.270
 2192SOL    HW2 8018   0.993   1.832   6.408
 2193SOL     OW 8019   1.429   3.035   6.453
 2193SOL    HW1 8020   1.374   2.951   6.446
 2193SOL    HW2 8021   1.455   3.064   6.361
 2194SOL     OW 8022   1.466   2.452   6.578
 2194SOL    HW1 8023   1.436   2.357   6.585
 2194SOL    HW2 8024   1.539   2.468   6.644
 2195SOL     OW 8025   1.857   2.695   5.963
 2195SOL    HW1 8026   1.899   2.631   6.027
 2195SOL    HW2 8027   1.819   2.644   5.885
 2196SOL     OW 8028   0.488   3.247   5.760
 2196SOL    HW1 8029   0.401   3.232   5.807
 2196SOL    HW2 8030   0.471   3.273   5.665
 2197SOL     OW 8031   1.664   3.142   6.243
 2197SOL    HW1 8032   1.763   3.150   6.257
 2197SOL    HW2 8033   1.619   3.226   6.274
 2198SOL     OW 8034   1.390   2.437   5.664
 2198SOL    HW1 8035   1.336   2.416   5.745
 2198SOL    HW2 8036   1.481   2.396   5.673
 2199SOL     OW 8037   0.527   2.118   5.914
 2199SOL    HW1 8038   0.554   2.059   5.839
 2199SOL    HW2 8039   0.527   2.213   5.883
 2200SOL     OW 8040   1.754   3.085   7.174
 2200SOL    HW1 8041   1.845   3.046   7.161
 2200SOL    HW2 8042   1.762   3.181   7.198
 2201SOL     OW 8043   1.064   3.209   6.926
 2201SOL    HW1 8044   0.984   3.186   6.981
 2201SOL    HW2 8045   1.147   3.183   6.975
 2202SOL     OW 8046   1.592   3.491   7.211
 2202SOL    HW1 8047   1.619   3.525   7.121
 2202SOL    HW2 8048   1.671   3.453   7.257
 2203SOL     OW 8049   1.111   3.057   6.686
 2203SOL    HW1 8050   1.071   3.101   6.767
 2203SOL    HW2 8051   1.070   3.094   6.603
 2204SOL     OW 8052   1.638   2.961   6.665
 2204SOL    HW1 8053   1.643   3.042   6.724
 2204SOL    HW2 8054   1.552   2.963   6.614
 2205SOL     OW 8055   0.915   1.951   6.988
 2205SOL    HW1 8056   0.940   1.931   6.893
 2205SOL    HW2 8057   0.987   2.007   7.030
 2206SOL     OW 8058   0.980   2.978   7.305
 2206SOL    HW1 8059   0.881   2.984   7.315
 2206SOL    HW2 8060   1.003   2.898   7.249
 2207SOL     OW 8061   0.705   2.912   5.954
 2207SOL    HW1 8062   0.691   2.919   6.053
 2207SOL    HW2 8063   0.789   2.861   5.936
 2208SOL     OW 8064   0.410   2.675   6.837
 2208SOL    HW1 8065   0.496   2.687   6.887
 2208SOL    HW2 8066   0.368   2.588   6.864
 2209SOL     OW 8067   1.274   2.248   6.848
 2209SOL    HW1 8068   1.295   2.322   6.912
 2209SOL    HW2 8069   1.185   2.265   6.805
 2210SOL     OW 8070   0.064   3.426   6.917
 2210SOL    HW1 8071   0.018   3.508   6.883
 2210SOL    HW2 8072   0.162   3.445   6.926
 2211SOL     OW 8073   0.367   2.962   6.087
 2211SOL    HW1 8074   0.360   3.045   6.031
 2211SOL    HW2 8075   0.371   2.882   6.027
 2212SOL     OW 8076   0.566   2.399   6.451
 2212SOL    HW1 8077   0.578   2.465   6.377
 2212SOL    HW2 8078   0.612   2.433   6.534
 2213SOL     OW 8079   1.252   3.210   5.974
 2213SOL    HW1 8080   1.302   3.287   6.014
 2213SOL    HW2 8081   1.157   3.212   6.006
 2214SOL     OW 8082   1.272   3.307   6.728
 2214SOL    HW1 8083   1.319   3.320   6.815
 2214SOL    HW2 8084   1.206   3.233   6.737
 2215SOL     OW 8085   1.582   2.501   6.058
 2215SOL    HW1 8086   1.551   2.562   6.131
 2215SOL    HW2 8087   1.632   2.553   5.989
 2216SOL     OW 8088   0.354   3.372   6.915
 2216SOL    HW1 8089   0.333   3.328   6.828
 2216SOL    HW2 8090   0.451   3.398   6.918
 2217SOL     OW 8091   0.402   2.613   7.184
 2217SOL    HW1 8092   0.470   2.668   7.137
 2217SOL    HW2 8093   0.442   2.525   7.211
 2218SOL     OW 8094   1.587   2.641   7.256
 2218SOL    HW1 8095   1.495   2.679   7.251
 2218SOL    HW2 8096   1.647   2.688   7.191
 2219SOL     OW 8097   1.013   1.967   7.356
 2219SOL    HW1 8098   1.019   2.052   7.304
 2219SOL    HW2 8099   1.045   1.891   7.299
 2220SOL     OW 8100   0.504   1.912   7.326
 2220SOL    HW1 8101   0.462   1.855   7.256
 2220SOL    HW2 8102   0.438   1.981   7.358
 2221SOL     OW 8103   0.573   2.732   6.615
 2221SOL    HW1 8104   0.617   2.821   6.606
 2221SOL    HW2 8105   0.510   2.732   6.692
 2222SOL     OW 8106   1.360   2.724   6.631
 2222SOL    HW1 8107   1.285   2.724   6.565
 2222SOL    HW2 8108   1.397   2.632   6.640
 2223SOL     OW 8109   1.209   2.387   5.861
 2223SOL    HW1 8110   1.222   2.303   5.915
 2223SOL    HW2 8111   1.180   2.461   5.921
 2224SOL     OW 8112   0.307   2.075   6.817
 2224SOL    HW1 8113   0.284   2.112   6.907
 2224SOL    HW2 8114   0.277   1.980   6.811
 2225SOL     OW 8115   0.037   3.172   6.868
 2225SOL    HW1 8116   0.090   3.123   6.936
 2225SOL    HW2 8117   0.059   3.270   6.873
 2226SOL     OW 8118   0.732   2.496   6.650
 2226SOL    HW1 8119   0.791   2.470   6.574
 2226SOL    HW2 8120   0.704   2.592   6.639
 2227SOL     OW 8121   1.728   2.797   7.440
 2227SOL    HW1 8122   1.682   2.790   7.351
 2227SOL    HW2 8123   1.666   2.841   7.506
 2228SOL     OW 8124   0.307   1.925   6.204
 2228SOL    HW1 8125   0.296   2.019   6.237
 2228SOL    HW2 8126   0.302   1.862   6.281
 2229SOL     OW 8127   1.622   2.229   5.960
 2229SOL    HW1 8128   1.624   2.153   6.024
 2229SOL    HW2 8129   1.574   2.306   6.000
 2230SOL     OW 8130   1.023   2.628   6.552
 2230SOL    HW1 8131   1.038   2.649   6.648
 2230SOL    HW2 8132   0.993   2.533   6.543
 2231SOL     OW 8133   0.980   3.435   7.286
 2231SOL    HW1 8134   0.960   3.479   7.198
 2231SOL    HW2 8135   1.019   3.344   7.270
 2232SOL     OW 8136   1.859   3.380   7.191
 2232SOL    HW1 8137   1.873   3.407   7.096
 2232SOL    HW2 8138   1.942   3.402   7.244
 2233SOL     OW 8139   0.350   2.760   7.390
 2233SOL    HW1 8140   0.426   2.804   7.438
 2233SOL    HW2 8141   0.385   2.713   7.308
 2234SOL     OW 8142   1.540   2.136   5.711
 2234SOL    HW1 8143   1.479   2.061   5.734
 2234SOL    HW2 8144   1.562   2.188   5.794
 2235SOL     OW 8145   1.303   2.700   5.628
 2235SOL    HW1 8146   1.337   2.607   5.643
 2235SOL    HW2 8147   1.321   2.727   5.533
 2236SOL     OW 8148   1.068   3.195   6.435
 2236SOL    HW1 8149   1.075   3.111   6.380
 2236SOL    HW2 8150   1.130   3.264   6.399
 2237SOL     OW 8151   0.319   2.672   6.535
 2237SOL    HW1 8152   0.412   2.708   6.540
 2237SOL    HW2 8153   0.313   2.587   6.587
 2238SOL     OW 8154   0.339   2.371   6.592
 2238SOL    HW1 8155   0.287   2.288   6.575
 2238SOL    HW2 8156   0.416   2.376   6.528
 2239SOL     OW 8157   1.138   2.242   7.264
 2239SOL    HW1 8158   1.093   2.305   7.328
 2239SOL    HW2 8159   1.231   2.273   7.247
 2240SOL     OW 8160   1.160   2.069   7.063
 2240SOL    HW1 8161   1.160   2.133   7.140
 2240SOL    HW2 8162   1.188   2.117   6.980
 2241SOL     OW 8163   0.008   3.188   5.786
 2241SOL    HW1 8164  -0.085   3.209   5.755
 2241SOL    HW2 8165   0.018   3.089   5.799
 2242SOL     OW 8166   0.088   3.663   6.513
 2242SOL    HW1 8167   0.046   3.577   6.486
 2242SOL    HW2 8168   0.182   3.666   6.479
 2243SOL     OW 8169   0.504   3.430   6.496
 2243SOL    HW1 8170   0.570   3.504   6.505
 2243SOL    HW2 8171   0.548   3.351   6.454
 2244SOL     OW 8172   1.002   2.658   6.824
 2244SOL    HW1 8173   1.043   2.626   6.910
 2244SOL    HW2 8174   0.906   2.631   6.821
 2245SOL     OW 8175   0.040   2.406   6.700
 2245SOL    HW1 8176   0.125   2.373   6.659
 2245SOL    HW2 8177   0.053   2.421   6.798
 2246SOL     OW 8178   0.189   2.382   7.308
 2246SOL    HW1 8179   0.248   2.342   7.238
 2246SOL    HW2 8180   0.131   2.453   7.267
 2247SOL     OW 8181   1.369   2.812   7.246
 2247SOL    HW1 8182   1.408   2.901   7.266
 2247SOL    HW2 8183   1.379   2.792   7.149
 2248SOL     OW 8184   0.815   2.434   5.911
 2248SOL    HW1 8185   0.822   2.345   5.865
 2248SOL    HW2 8186   0.721   2.468   5.903
 2249SOL     OW 8187   1.657   2.466   6.792
 2249SOL    HW1 8188   1.619   2.397   6.854
 2249SOL    HW2 8189   1.739   2.430   6.748
 2250SOL     OW 8190   0.252   3.426   7.330
 2250SOL    HW1 8191   0.222   3.483   7.406
 2250SOL    HW2 8192   0.245   3.329   7.356
 2251SOL     OW 8193   0.671   2.326   6.855
 2251SOL    HW1 8194   0.637   2.237   6.825
 2251SOL    HW2 8195   0.697   2.380   6.775
 2252SOL     OW 8196   0.930   3.540   7.051
 2252SOL    HW1 8197   0.906   3.522   6.956
 2252SOL    HW2 8198   0.960   3.634   7.061
 2253SOL     OW 8199   0.473   2.362   5.777
 2253SOL    HW1 8200   0.534   2.442   5.781
 2253SOL    HW2 8201   0.378   2.393   5.784
 2254SOL     OW 8202   0.159   2.999   7.052
 2254SOL    HW1 8203   0.181   2.938   7.128
 2254SOL    HW2 8204   0.169   2.950   6.966
 2255SOL     OW 8205   1.347   2.921   6.820
 2255SOL    HW1 8206   1.371   2.858   6.746
 2255SOL    HW2 8207   1.257   2.961   6.802
 2256SOL     OW 8208   1.302   2.717   5.895
 2256SOL    HW1 8209   1.216   2.686   5.937
 2256SOL    HW2 8210   1.298   2.703   5.796
 2257SOL     OW 8211   1.759   3.609   6.740
 2257SOL    HW1 8212   1.820   3.639   6.667
 2257SOL    HW2 8213   1.721   3.520   6.718
 2258SOL     OW 8214   1.252   3.593   6.714
 2258SOL    HW1 8215   1.336   3.598   6.660
 2258SOL    HW2 8216   1.229   3.497   6.732
 2259SOL     OW 8217   0.083   3.120   6.608
 2259SOL    HW1 8218   0.078   3.119   6.708
 2259SOL    HW2 8219   0.000   3.079   6.570
 2260SOL     OW 8220   0.688   3.524   7.302
 2260SOL    HW1 8221   0.632   3.605   7.311
 2260SOL    HW2 8222   0.740   3.528   7.216
 2261SOL     OW 8223   1.726   1.997   6.109
 2261SOL    HW1 8224   1.799   1.980   6.042
 2261SOL    HW2 8225   1.695   1.910   6.147
 2262SOL     OW 8226   1.388   3.435   6.063
 2262SOL    HW1 8227   1.455   3.447   5.989
 2262SOL    HW2 8228   1.348   3.524   6.086
 2263SOL     OW 8229   0.130   3.656   7.437
 2263SOL    HW1 8230   0.089   3.582   7.490
 2263SOL    HW2 8231   0.194   3.707   7.495
 2264SOL     OW 8232   1.280   2.789   6.258
 2264SOL    HW1 8233   1.340   2.708   6.260
 2264SOL    HW2 8234   1.320   2.858   6.198
 2265SOL     OW 8235   0.830   3.135   7.008
 2265SOL    HW1 8236   0.825   3.168   7.103
 2265SOL    HW2 8237   0.744   3.154   6.962
 2266SOL     OW 8238   0.672   3.478   5.740
 2266SOL    HW1 8239   0.681   3.488   5.641
 2266SOL    HW2 8240   0.632   3.389   5.761
 2267SOL     OW 8241   1.650   3.582   6.980
 2267SOL    HW1 8242   1.703   3.592   6.896
 2267SOL    HW2 8243   1.623   3.672   7.014
 2268SOL     OW 8244   1.841   2.037   6.549
 2268SOL    HW1 8245   1.880   1.952   6.513
 2268SOL    HW2 8246   1.743   2.039   6.530
 2269SOL     OW 8247   0.263   2.188   6.306
 2269SOL    HW1 8248   0.184   2.239   6.272
 2269SOL    HW2 8249   0.254   2.173   6.404
 2270SOL     OW 8250   1.194   3.474   5.617
 2270SOL    HW1 8251   1.200   3.381   5.654
 2270SOL    HW2 8252   1.135   3.474   5.537
 2271SOL     OW 8253   0.822   2.864   6.958
 2271SOL    HW1 8254   0.862   2.863   6.866
 2271SOL    HW2 8255   0.832   2.956   6.998
 2272SOL     OW 8256   0.916   2.772   5.877
 2272SOL    HW1 8257   0.979   2.810   5.809
 2272SOL    HW2 8258   0.956   2.689   5.916
 2273SOL     OW 8259   1.504   3.469   5.630
 2273SOL    HW1 8260   1.412   3.506   5.637
 2273SOL    HW2 8261   1.542   3.489   5.540
 2274SOL     OW 8262   0.372   3.150   7.076
 2274SOL    HW1 8263   0.359   3.243   7.042
 2274SOL    HW2 8264   0.288   3.098   7.063
 2275SOL     OW 8265   1.614   3.154   6.875
 2275SOL    HW1 8266   1.674   3.157   6.955
 2275SOL    HW2 8267   1.539   3.218   6.888
 2276SOL     OW 8268   1.039   2.960   6.282
 2276SOL    HW1 8269   0.969   2.913   6.336
 2276SOL    HW2 8270   1.098   2.892   6.239
 2277SOL     OW 8271   1.014   2.098   6.557
 2277SOL    HW1 8272   1.006   2.062   6.464
 2277SOL    HW2 8273   1.012   2.022   6.622
 2278SOL     OW 8274   0.590   3.349   6.077
 2278SOL    HW1 8275   0.632   3.291   6.007
 2278SOL    HW2 8276   0.546   3.428   6.033
 2279SOL     OW 8277   1.709   2.247   6.967
 2279SOL    HW1 8278   1.782   2.316   6.971
 2279SOL    HW2 8279   1.737   2.172   6.908
 2280SOL     OW 8280   0.255   3.210   5.876
 2280SOL    HW1 8281   0.159   3.211   5.849
 2280SOL    HW2 8282   0.267   3.263   5.960
 2281SOL     OW 8283   0.105   2.875   7.312
 2281SOL    HW1 8284   0.028   2.842   7.366
 2281SOL    HW2 8285   0.190   2.845   7.354
 2282SOL     OW 8286   0.672   2.065   7.075
 2282SOL    HW1 8287   0.762   2.049   7.035
 2282SOL    HW2 8288   0.680   2.070   7.174
 2283SOL     OW 8289   0.075   2.207   5.619
 2283SOL    HW1 8290  -0.017   2.179   5.590
 2283SOL    HW2 8291   0.106   2.284   5.563
 2284SOL     OW 8292   1.440   2.718   6.984
 2284SOL    HW1 8293   1.383   2.770   6.921
 2284SOL    HW2 8294   1.536   2.730   6.960
 2285SOL     OW 8295   0.072   2.028   5.904
 2285SOL    HW1 8296   0.055   2.111   5.850
 2285SOL    HW2 8297   0.162   1.991   5.882
 2286SOL     OW 8298   1.183   3.197   5.705
 2286SOL    HW1 8299   1.084   3.186   5.707
 2286SOL    HW2 8300   1.217   3.212   5.798
 2287SOL     OW 8301   0.613   2.704   7.017
 2287SOL    HW1 8302   0.669   2.785   7.000
 2287SOL    HW2 8303   0.672   2.624   7.020
 2288SOL     OW 8304   1.493   3.629   6.545
 2288SOL    HW1 8305   1.526   3.693   6.476
 2288SOL    HW2 8306   1.559   3.623   6.620
 2289SOL     OW 8307   0.716   2.427   7.294
 2289SOL    HW1 8308   0.735   2.492   7.368
 2289SOL    HW2 8309   0.776   2.347   7.303
 2290SOL     OW 8310   1.450   3.082   7.219
 2290SOL    HW1 8311   1.441   3.072   7.318
 2290SOL    HW2 8312   1.546   3.075   7.193
 2291SOL     OW 8313   0.390   3.603   7.146
 2291SOL    HW1 8314   0.299   3.644   7.144
 2291SOL    HW2 8315   0.383   3.509   7.178
 2292SOL     OW 8316   1.674   2.745   6.840
 2292SOL    HW1 8317   1.647   2.656   6.803
 2292SOL    HW2 8318   1.675   2.813   6.767
 2293SOL     OW 8319   1.225   2.187   6.035
 2293SOL    HW1 8320   1.290   2.113   6.024
 2293SOL    HW2 8321   1.245   2.237   6.119
 2294SOL     OW 8322   0.594   2.607   6.238
 2294SOL    HW1 8323   0.644   2.692   6.219
 2294SOL    HW2 8324   0.506   2.609   6.190
 2295SOL     OW 8325   1.777   2.204   7.228
 2295SOL    HW1 8326   1.760   2.235   7.134
 2295SOL    HW2 8327   1.693   2.167   7.266
 2296SOL     OW 8328   1.730   2.796   7.103
 2296SOL    HW1 8329   1.768   2.887   7.118
 2296SOL    HW2 8330   1.722   2.779   7.004
 2297SOL     OW 8331   0.859   3.236   5.602
 2297SOL    HW1 8332   0.813   3.251   5.690
 2297SOL    HW2 8333   0.903   3.321   5.572
 2298SOL     OW 8334   0.661   3.652   6.539
 2298SOL    HW1 8335   0.615   3.740   6.526
 2298SOL    HW2 8336   0.760   3.664   6.532
 2299SOL     OW 8337   0.859   2.818   6.447
 2299SOL    HW1 8338   0.913   2.749   6.495
 2299SOL    HW2 8339   0.827   2.887   6.513
 2300SOL     OW 8340   1.083   2.846   5.673
 2300SOL    HW1 8341   1.060   2.899   5.591
 2300SOL    HW2 8342   1.164   2.790   5.654
 2301SOL     OW 8343   1.861   3.431   6.437
 2301SOL    HW1 8344   1.790   3.419   6.367
 2301SOL    HW2 8345   1.862   3.352   6.497
 2302SOL     OW 8346   0.221   3.176   7.430
 2302SOL    HW1 8347   0.156   3.103   7.409
 2302SOL    HW2 8348   0.225   3.190   7.528
 2303SOL     OW 8349   0.079   3.102   6.239
 2303SOL    HW1 8350   0.078   3.055   6.327
 2303SOL    HW2 8351   0.161   3.074   6.188
 2304SOL     OW 8352   0.672   3.253   7.210
 2304SOL    HW1 8353   0.594   3.203   7.248
 2304SOL    HW2 8354   0.669   3.348   7.241
 2305SOL     OW 8355   1.824   2.054   6.813
 2305SOL    HW1 8356   1.820   1.964   6.857
 2305SOL    HW2 8357   1.827   2.043   6.714
 2306SOL     OW 8358   0.428   2.286   6.106
 2306SOL    HW1 8359   0.458   2.214   6.044
 2306SOL    HW2 8360   0.389   2.246   6.189
 2307SOL     OW 8361   1.705   3.349   6.690
 2307SOL    HW1 8362   1.612   3.324   6.663
 2307SOL    HW2 8363   1.731   3.299   6.772
 2308SOL     OW 8364   0.317   2.409   6.866
 2308SOL    HW1 8365   0.355   2.350   6.938
 2308SOL    HW2 8366   0.357   2.383   6.778
 2309SOL     OW 8367   0.812   3.448   6.273
 2309SOL    HW1 8368   0.844   3.458   6.179
 2309SOL    HW2 8369   0.733   3.386   6.275
 2310SOL     OW 8370   1.424   2.076   6.698
 2310SOL    HW1 8371   1.476   2.011   6.753
 2310SOL    HW2 8372   1.375   2.139   6.759
 2311SOL     OW 8373   1.001   1.896   6.740
 2311SOL    HW1 8374   0.938   1.824   6.709
 2311SOL    HW2 8375   1.094   1.860   6.740
 2312SOL     OW 8376   0.770   3.192   5.887
 2312SOL    HW1 8377   0.724   3.105   5.904
 2312SOL    HW2 8378   0.861   3.189   5.928
 2313SOL     OW 8379   0.618   3.429   6.870
 2313SOL    HW1 8380   0.613   3.511   6.927
 2313SOL    HW2 8381   0.707   3.426   6.825
 2314SOL     OW 8382   1.352   1.914   5.754
 2314SOL    HW1 8383   1.387   1.873   5.670
 2314SOL    HW2 8384   1.262   1.876   5.774
 2315SOL     OW 8385   1.300   2.315   6.277
 2315SOL    HW1 8386   1.241   2.395   6.281
 2315SOL    HW2 8387   1.315   2.280   6.370
 2316SOL     OW 8388   1.593   2.083   6.468
 2316SOL    HW1 8389   1.509   2.082   6.522
 2316SOL    HW2 8390   1.595   2.166   6.412
 2317SOL     OW 8391   0.039   2.939   5.886
 2317SOL    HW1 8392   0.138   2.928   5.877
 2317SOL    HW2 8393  -0.001   2.853   5.918
 2318SOL     OW 8394   0.875   3.508   5.923
 2318SOL    HW1 8395   0.798   3.473   5.869
 2318SOL    HW2 8396   0.843   3.579   5.985
 2319SOL     OW 8397   0.230   2.490   7.561
 2319SOL    HW1 8398   0.137   2.488   7.598
 2319SOL    HW2 8399   0.231   2.451   7.469
 2320SOL     OW 8400   0.225   2.137   8.444
 2320SOL    HW1 8401   0.260   2.120   8.536
 2320SOL    HW2 8402   0.137   2.092   8.432
 2321SOL     OW 8403   0.019   2.230   8.095
 2321SOL    HW1 8404  -0.063   2.273   8.134
 2321SOL    HW2 8405  -0.009   2.157   8.032
 2322SOL     OW 8406   0.569   3.137   8.613
 2322SOL    HW1 8407   0.476   3.130   8.576
 2322SOL    HW2 8408   0.580   3.226   8.657
 2323SOL     OW 8409   1.555   3.373   8.151
 2323SOL    HW1 8410   1.498   3.357   8.232
 2323SOL    HW2 8411   1.496   3.383   8.071
 2324SOL     OW 8412   1.135   2.565   8.165
 2324SOL    HW1 8413   1.192   2.643   8.140
 2324SOL    HW2 8414   1.075   2.591   8.241
 2325SOL     OW 8415   1.755   2.469   7.679
 2325SOL    HW1 8416   1.743   2.456   7.580
 2325SOL    HW2 8417   1.725   2.388   7.728
 2326SOL     OW 8418   0.768   3.006   8.471
 2326SOL    HW1 8419   0.690   3.023   8.531
 2326SOL    HW2 8420   0.802   3.093   8.435
 2327SOL     OW 8421   0.850   2.660   9.271
 2327SOL    HW1 8422   0.846   2.736   9.336
 2327SOL    HW2 8423   0.872   2.696   9.180
 2328SOL     OW 8424   0.685   2.874   8.113
 2328SOL    HW1 8425   0.754   2.858   8.183
 2328SOL    HW2 8426   0.612   2.931   8.151
 2329SOL     OW 8427   0.686   3.023   9.251
 2329SOL    HW1 8428   0.746   3.102   9.265
 2329SOL    HW2 8429   0.600   3.054   9.210
 2330SOL     OW 8430   0.335   3.297   8.509
 2330SOL    HW1 8431   0.257   3.266   8.456
 2330SOL    HW2 8432   0.393   3.355   8.452
 2331SOL     OW 8433   1.460   3.367   8.787
 2331SOL    HW1 8434   1.484   3.461   8.813
 2331SOL    HW2 8435   1.444   3.313   8.869
 2332SOL     OW 8436   0.438   2.254   8.947
 2332SOL    HW1 8437   0.520   2.198   8.956
 2332SOL    HW2 8438   0.357   2.196   8.951
 2333SOL     OW 8439   1.603   2.309   8.185
 2333SOL    HW1 8440   1.529   2.355   8.135
 2333SOL    HW2 8441   1.654   2.377   8.238
 2334SOL     OW 8442   0.231   3.575   7.931
 2334SOL    HW1 8443   0.265   3.652   7.985
 2334SOL    HW2 8444   0.275   3.575   7.841
 2335SOL     OW 8445   1.127   3.203   9.138
 2335SOL    HW1 8446   1.174   3.203   9.226
 2335SOL    HW2 8447   1.079   3.116   9.127
 2336SOL     OW 8448   0.230   3.296   7.986
 2336SOL    HW1 8449   0.204   3.392   7.986
 2336SOL    HW2 8450   0.159   3.242   8.031
 2337SOL     OW 8451   0.240   2.953   8.334
 2337SOL    HW1 8452   0.254   2.869   8.386
 2337SOL    HW2 8453   0.185   3.017   8.389
 2338SOL     OW 8454   0.620   3.648   8.887
 2338SOL    HW1 8455   0.528   3.631   8.922
 2338SOL    HW2 8456   0.648   3.740   8.913
 2339SOL     OW 8457   0.606   2.826   7.571
 2339SOL    HW1 8458   0.613   2.910   7.517
 2339SOL    HW2 8459   0.652   2.839   7.659
 2340SOL     OW 8460   1.594   1.976   8.928
 2340SOL    HW1 8461   1.576   2.043   8.856
 2340SOL    HW2 8462   1.591   2.022   9.017
 2341SOL     OW 8463   0.122   2.505   8.011
 2341SOL    HW1 8464   0.077   2.417   8.028
 2341SOL    HW2 8465   0.121   2.559   8.095
 2342SOL     OW 8466   1.842   3.629   7.807
 2342SOL    HW1 8467   1.896   3.600   7.887
 2342SOL    HW2 8468   1.872   3.719   7.778
 2343SOL     OW 8469   0.027   3.458   7.565
 2343SOL    HW1 8470   0.008   3.362   7.586
 2343SOL    HW2 8471  -0.006   3.516   7.640
 2344SOL     OW 8472   1.689   2.784   8.060
 2344SOL    HW1 8473   1.784   2.755   8.068
 2344SOL    HW2 8474   1.681   2.849   7.985
 2345SOL     OW 8475   1.641   2.970   7.880
 2345SOL    HW1 8476   1.727   2.972   7.828
 2345SOL    HW2 8477   1.655   3.017   7.968
 2346SOL     OW 8478   0.113   2.599   9.045
 2346SOL    HW1 8479   0.201   2.586   9.090
 2346SOL    HW2 8480   0.100   2.696   9.023
 2347SOL     OW 8481   0.613   3.227   8.174
 2347SOL    HW1 8482   0.564   3.140   8.183
 2347SOL    HW2 8483   0.590   3.270   8.087
 2348SOL     OW 8484   1.293   3.090   8.871
 2348SOL    HW1 8485   1.330   3.017   8.813
 2348SOL    HW2 8486   1.345   3.095   8.956
 2349SOL     OW 8487   0.809   1.866   7.950
 2349SOL    HW1 8488   0.849   1.957   7.941
 2349SOL    HW2 8489   0.709   1.874   7.956
 2350SOL     OW 8490   0.197   2.838   8.712
 2350SOL    HW1 8491   0.286   2.793   8.698
 2350SOL    HW2 8492   0.124   2.773   8.693
 2351SOL     OW 8493   1.525   2.861   7.638
 2351SOL    HW1 8494   1.462   2.785   7.651
 2351SOL    HW2 8495   1.573   2.879   7.724
 2352SOL     OW 8496   1.187   3.654   9.064
 2352SOL    HW1 8497   1.211   3.714   8.988
 2352SOL    HW2 8498   1.194   3.559   9.034
 2353SOL     OW 8499   0.317   2.113   9.249
 2353SOL    HW1 8500   0.388   2.184   9.255
 2353SOL    HW2 8501   0.229   2.152   9.277
 2354SOL     OW 8502   1.466   3.279   8.401
 2354SOL    HW1 8503   1.407   3.285   8.481
 2354SOL    HW2 8504   1.451   3.191   8.355
 2355SOL     OW 8505   1.667   3.576   8.020
 2355SOL    HW1 8506   1.626   3.553   7.932
 2355SOL    HW2 8507   1.649   3.502   8.085
 2356SOL     OW 8508   0.598   2.591   7.718
 2356SOL    HW1 8509   0.622   2.660   7.650
 2356SOL    HW2 8510   0.520   2.624   7.772
 2357SOL     OW 8511   1.281   2.207   8.392
 2357SOL    HW1 8512   1.195   2.157   8.379
 2357SOL    HW2 8513   1.343   2.153   8.448
 2358SOL     OW 8514   1.576   3.524   7.755
 2358SOL    HW1 8515   1.665   3.570   7.758
 2358SOL    HW2 8516   1.555   3.500   7.660
 2359SOL     OW 8517   0.807   2.467   8.913
 2359SOL    HW1 8518   0.760   2.464   9.002
 2359SOL    HW2 8519   0.756   2.412   8.847
 2360SOL     OW 8520   1.394   2.331   9.122
 2360SOL    HW1 8521   1.374   2.374   9.210
 2360SOL    HW2 8522   1.472   2.269   9.131
 2361SOL     OW 8523   0.973   2.752   9.020
 2361SOL    HW1 8524   1.019   2.668   8.991
 2361SOL    HW2 8525   0.917   2.786   8.945
 2362SOL     OW 8526   0.991   2.272   8.690
 2362SOL    HW1 8527   0.914   2.306   8.744
 2362SOL    HW2 8528   0.957   2.221   8.611
 2363SOL     OW 8529   1.041   2.563   7.877
 2363SOL    HW1 8530   1.067   2.559   7.973
 2363SOL    HW2 8531   0.956   2.512   7.863
 2364SOL     OW 8532   0.076   2.673   8.237
 2364SOL    HW1 8533   0.175   2.661   8.246
 2364SOL    HW2 8534   0.052   2.768   8.258
 2365SOL     OW 8535   0.130   3.683   9.019
 2365SOL    HW1 8536   0.120   3.668   9.118
 2365SOL    HW2 8537   0.044   3.719   8.983
 2366SOL     OW 8538   0.865   2.210   7.643
 2366SOL    HW1 8539   0.924   2.273   7.594
 2366SOL    HW2 8540   0.884   2.116   7.614
 2367SOL     OW 8541   1.719   2.447   9.279
 2367SOL    HW1 8542   1.693   2.536   9.243
 2367SOL    HW2 8543   1.717   2.379   9.206
 2368SOL     OW 8544   1.362   3.006   7.993
 2368SOL    HW1 8545   1.445   2.977   7.945
 2368SOL    HW2 8546   1.313   3.073   7.937
 2369SOL     OW 8547   0.550   2.058   8.333
 2369SOL    HW1 8548   0.545   2.053   8.433
 2369SOL    HW2 8549   0.552   2.154   8.304
 2370SOL     OW 8550   1.008   3.318   7.925
 2370SOL    HW1 8551   0.962   3.390   7.873
 2370SOL    HW2 8552   1.004   3.338   8.023
 2371SOL     OW 8553   0.351   3.663   8.301
 2371SOL    HW1 8554   0.401   3.577   8.307
 2371SOL    HW2 8555   0.416   3.740   8.298
 2372SOL     OW 8556   1.795   2.928   8.321
 2372SOL    HW1 8557   1.733   2.913   8.245
 2372SOL    HW2 8558   1.743   2.939   8.406
 2373SOL     OW 8559   1.227   3.412   8.954
 2373SOL    HW1 8560   1.233   3.335   9.018
 2373SOL    HW2 8561   1.175   3.386   8.874
 2374SOL     OW 8562   0.321   2.805   7.690
 2374SOL    HW1 8563   0.403   2.844   7.648
 2374SOL    HW2 8564   0.294   2.723   7.641
 2375SOL     OW 8565   1.458   2.597   8.176
 2375SOL    HW1 8566   1.453   2.532   8.251
 2375SOL    HW2 8567   1.538   2.656   8.189
 2376SOL     OW 8568   0.461   3.128   9.175
 2376SOL    HW1 8569   0.411   3.129   9.089
 2376SOL    HW2 8570   0.398   3.110   9.251
 2377SOL     OW 8571   1.111   3.638   7.685
 2377SOL    HW1 8572   1.051   3.576   7.735
 2377SOL    HW2 8573   1.142   3.594   7.600
 2378SOL     OW 8574   0.202   2.147   8.946
 2378SOL    HW1 8575   0.122   2.207   8.933
 2378SOL    HW2 8576   0.192   2.098   9.032
 2379SOL     OW 8577   1.632   3.239   7.529
 2379SOL    HW1 8578   1.600   3.333   7.519
 2379SOL    HW2 8579   1.556   3.176   7.517
 2380SOL     OW 8580   1.400   1.969   7.874
 2380SOL    HW1 8581   1.376   1.932   7.784
 2380SOL    HW2 8582   1.499   1.985   7.878
 2381SOL     OW 8583   0.249   3.647   8.689
 2381SOL    HW1 8584   0.306   3.582   8.739
 2381SOL    HW2 8585   0.233   3.614   8.596
 2382SOL     OW 8586   0.940   3.560   8.352
 2382SOL    HW1 8587   1.020   3.503   8.373
 2382SOL    HW2 8588   0.891   3.520   8.275
 2383SOL     OW 8589   0.382   2.562   7.928
 2383SOL    HW1 8590   0.427   2.472   7.925
 2383SOL    HW2 8591   0.288   2.551   7.961
 2384SOL     OW 8592   1.547   2.084   9.177
 2384SOL    HW1 8593   1.542   2.121   9.269
 2384SOL    HW2 8594   1.475   2.015   9.165
 2385SOL     OW 8595   0.614   1.984   7.565
 2385SOL    HW1 8596   0.712   1.962   7.572
 2385SOL    HW2 8597   0.583   1.967   7.472
 2386SOL     OW 8598   0.781   2.126   9.197
 2386SOL    HW1 8599   0.848   2.065   9.240
 2386SOL    HW2 8600   0.708   2.145   9.262
 2387SOL     OW 8601   0.888   3.376   8.643
 2387SOL    HW1 8602   0.865   3.351   8.549
 2387SOL    HW2 8603   0.949   3.307   8.682
 2388SOL     OW 8604   1.351   2.452   8.881
 2388SOL    HW1 8605   1.379   2.409   8.966
 2388SOL    HW2 8606   1.376   2.548   8.882
 2389SOL     OW 8607   0.803   3.264   8.372
 2389SOL    HW1 8608   0.893   3.278   8.330
 2389SOL    HW2 8609   0.732   3.266   8.301
 2390SOL     OW 8610   0.922   2.365   8.347
 2390SOL    HW1 8611   0.897   2.356   8.251
 2390SOL    HW2 8612   0.970   2.283   8.378
 2391SOL     OW 8613   0.539   1.926   7.960
 2391SOL    HW1 8614   0.458   1.927   8.018
 2391SOL    HW2 8615   0.542   2.009   7.905
 2392SOL     OW 8616   1.434   3.050   7.489
 2392SOL    HW1 8617   1.466   2.974   7.546
 2392SOL    HW2 8618   1.342   3.077   7.519
 2393SOL     OW 8619   0.297   1.897   7.619
 2393SOL    HW1 8620   0.346   1.981   7.598
 2393SOL    HW2 8621   0.359   1.832   7.664
 2394SOL     OW 8622   0.935   2.098   7.928
 2394SOL    HW1 8623   0.887   2.139   7.850
 2394SOL    HW2 8624   1.034   2.096   7.909
 2395SOL     OW 8625   1.076   2.545   8.912
 2395SOL    HW1 8626   0.996   2.484   8.915
 2395SOL    HW2 8627   1.157   2.492   8.888
 2396SOL     OW 8628   1.227   3.432   8.241
 2396SOL    HW1 8629   1.248   3.506   8.176
 2396SOL    HW2 8630   1.295   3.432   8.314
 2397SOL     OW 8631   0.459   3.014   8.189
 2397SOL    HW1 8632   0.388   2.987   8.254
 2397SOL    HW2 8633   0.433   2.986   8.096
 2398SOL     OW 8634   1.032   2.411   7.464
 2398SOL    HW1 8635   0.991   2.493   7.425
 2398SOL    HW2 8636   1.096   2.437   7.537
 2399SOL     OW 8637   0.078   2.418   8.834
 2399SOL    HW1 8638   0.170   2.417   8.793
 2399SOL    HW2 8639   0.072   2.492   8.901
 2400SOL     OW 8640   0.561   2.084   8.595
 2400SOL    HW1 8641   0.599   2.000   8.632
 2400SOL    HW2 8642   0.473   2.103   8.639
 2401SOL     OW 8643   0.866   2.316   8.090
 2401SOL    HW1 8644   0.834   2.388   8.028
 2401SOL    HW2 8645   0.890   2.235   8.037
 2402SOL     OW 8646   1.017   1.901   8.201
 2402SOL    HW1 8647   0.945   1.906   8.132
 2402SOL    HW2 8648   0.993   1.832   8.270
 2403SOL     OW 8649   1.429   3.035   8.315
 2403SOL    HW1 8650   1.374   2.951   8.308
 2403SOL    HW2 8651   1.455   3.064   8.223
 2404SOL     OW 8652   1.466   2.452   8.440
 2404SOL    HW1 8653   1.436   2.357   8.447
 2404SOL    HW2 8654   1.539   2.468   8.506
 2405SOL     OW 8655   1.857   2.695   7.825
 2405SOL    HW1 8656   1.899   2.631   7.889
 2405SOL    HW2 8657   1.819   2.644   7.747
 2406SOL     OW 8658   0.488   3.247   7.622
 2406SOL    HW1 8659   0.401   3.232   7.669
 2406SOL    HW2 8660   0.471   3.273   7.527
 2407SOL     OW 8661   1.664   3.142   8.105
 2407SOL    HW1 8662   1.763   3.150   8.119
 2407SOL    HW2 8663   1.619   3.226   8.136
 2408SOL     OW 8664   1.390   2.437   7.526
 2408SOL    HW1 8665   1.336   2.416   7.607
 2408SOL    HW2 8666   1.481   2.396   7.535
 2409SOL     OW 8667   0.527   2.118   7.776
 2409SOL    HW1 8668   0.554   2.059   7.701
 2409SOL    HW2 8669   0.527   2.213   7.745
 2410SOL     OW 8670   1.754   3.085   9.036
 2410SOL    HW1 8671   1.845   3.046   9.023
 2410SOL    HW2 8672   1.762   3.181   9.060
 2411SOL     OW 8673   1.064   3.209   8.788
 2411SOL    HW1 8674   0.984   3.186   8.843
 2411SOL    HW2 8675   1.147   3.183   8.837
 2412SOL     OW 8676   1.592   3.491   9.073
 2412SOL    HW1 8677   1.619   3.525   8.983
 2412SOL    HW2 8678   1.671   3.453   9.119
 2413SOL     OW 8679   1.111   3.057   8.548
 2413SOL    HW1 8680   1.071   3.101   8.629
 2413SOL    HW2 8681   1.070   3.094   8.465
 2414SOL     OW 8682   1.638   2.961   8.527
 2414SOL    HW1 8683   1.643   3.042   8.586
 2414SOL    HW2 8684   1.552   2.963   8.476
 2415SOL     OW 8685   0.915   1.951   8.850
 2415SOL    HW1 8686   0.940   1.931   8.755
 2415SOL    HW2 8687   0.987   2.007   8.892
 2416SOL     OW 8688   0.980   2.978   9.167
 2416SOL    HW1 8689   0.881   2.984   9.177
 2416SOL    HW2 8690   1.003   2.898   9.111
 2417SOL     OW 8691   0.705   2.912   7.816
 2417SOL    HW1 8692   0.691   2.919   7.915
 2417SOL    HW2 8693   0.789   2.861   7.798
 2418SOL     OW 8694   0.410   2.675   8.699
 2418SOL    HW1 8695   0.496   2.687   8.749
 2418SOL    HW2 8696   0.368   2.588   8.726
 2419SOL     OW 8697   1.274   2.248   8.710
 2419SOL    HW1 8698   1.295   2.322   8.774
 2419SOL    HW2 8699   1.185   2.265   8.667
 2420SOL     OW 8700   0.064   3.426   8.779
 2420SOL    HW1 8701   0.018   3.508   8.745
 2420SOL    HW2 8702   0.162   3.445   8.788
 2421SOL     OW 8703   0.367   2.962   7.949
 2421SOL    HW1 8704   0.360   3.045   7.893
 2421SOL    HW2 8705   0.371   2.882   7.889
 2422SOL     OW 8706   0.566   2.399   8.313
 2422SOL    HW1 8707   0.578   2.465   8.239
 2422SOL    HW2 8708   0.612   2.433   8.396
 2423SOL     OW 8709   1.252   3.210   7.836
 2423SOL    HW1 8710   1.302   3.287   7.876
 2423SOL    HW2 8711   1.157   3.212   7.868
 2424SOL     OW 8712   1.272   3.307   8.590
 2424SOL    HW1 8713   1.319   3.320   8.677
 2424SOL    HW2 8714   1.206   3.233   8.599
 2425SOL     OW 8715   1.582   2.501   7.920
 2425SOL    HW1 8716   1.551   2.562   7.993
 2425SOL    HW2 8717   1.632   2.553   7.851
 2426SOL     OW 8718   0.354   3.372   8.777
 2426SOL    HW1 8719   0.333   3.328   8.690
 2426SOL    HW2 8720   0.451   3.398   8.780
 2427SOL     OW 8721   0.402   2.613   9.046
 2427SOL    HW1 8722   0.470   2.668   8.999
 2427SOL    HW2 8723   0.442   2.525   9.073
 2428SOL     OW 8724   1.587   2.641   9.118
 2428SOL    HW1 8725   1.495   2.679   9.113
 2428SOL    HW2 8726   1.647   2.688   9.053
 2429SOL     OW 8727   1.013   1.967   9.218
 2429SOL    HW1 8728   1.019   2.052   9.166
 2429SOL    HW2 8729   1.045   1.891   9.161
 2430SOL     OW 8730   0.504   1.912   9.188
 2430SOL    HW1 8731   0.462   1.855   9.118
 2430SOL    HW2 8732   0.438   1.981   9.220
 2431SOL     OW 8733   0.573   2.732   8.477
 2431SOL    HW1 8734   0.617   2.821   8.468
 2431SOL    HW2 8735   0.510   2.732   8.554
 2432SOL     OW 8736   1.360   2.724   8.493
 2432SOL    HW1 8737   1.285   2.724   8.427
 2432SOL    HW2 8738   1.397   2.632   8.502
 2433SOL     OW 8739   1.209   2.387   7.723
 2433SOL    HW1 8740   1.222   2.303   7.777
 2433SOL    HW2 8741   1.180   2.461   7.783
 2434SOL     OW 8742   0.307   2.075   8.679
 2434SOL    HW1 8743   0.284   2.112   8.769
 2434SOL    HW2 8744   0.277   1.980   8.673
 2435SOL     OW 8745   0.037   3.172   8.730
 2435SOL    HW1 8746   0.090   3.123   8.798
 2435SOL    HW2 8747   0.059   3.270   8.735
 2436SOL     OW 8748   0.732   2.496   8.512
 2436SOL    HW1 8749   0.791   2.470   8.436
 2436SOL    HW2 8750   0.704   2.592   8.501
 2437SOL     OW 8751   1.728   2.797   9.302
 2437SOL    HW1 8752   1.682   2.790   9.213
 2437SOL    HW2 8753   1.666   2.841   9.368
 2438SOL     OW 8754   0.307   1.925   8.066
 2438SOL    HW1 8755   0.296   2.019   8.099
 2438SOL    HW2 8756   0.302   1.862   8.143
 2439SOL     OW 8757   1.622   2.229   7.822
 2439SOL    HW1 8758   1.624   2.153   7.886
 2439SOL    HW2 8759   1.574   2.306   7.862
 2440SOL     OW 8760   1.023   2.628   8.414
 2440SOL    HW1 8761   1.038   2.649   8.510
 2440SOL    HW2 8762   0.993   2.533   8.405
 2441SOL     OW 8763   0.980   3.435   9.148
 2441SOL    HW1 8764   0.960   3.479   9.060
 2441SOL    HW2 8765   1.019   3.344   9.132
 2442SOL     OW 8766   1.859   3.380   9.053
 2442SOL    HW1 8767   1.873   3.407   8.958
 2442SOL    HW2 8768   1.942   3.402   9.106
 2443SOL     OW 8769   0.350   2.760   9.252
 2443SOL    HW1 8770   0.426   2.804   9.300
 2443SOL    HW2 8771   0.385   2.713   9.170
 2444SOL     OW 8772   1.540   2.136   7.573
 2444SOL    HW1 8773   1.479   2.061   7.596
 2444SOL    HW2 8774   1.562   2.188   7.656
 2445SOL     OW 8775   1.303   2.700   7.490
 2445SOL    HW1 8776   1.337   2.607   7.505
 2445SOL    HW2 8777   1.321   2.727   7.395
 2446SOL     OW 8778   1.068   3.195   8.297
 2446SOL    HW1 8779   1.075   3.111   8.242
 2446SOL    HW2 8780   1.130   3.264   8.261
 2447SOL     OW 8781   0.319   2.672   8.397
 2447SOL    HW1 8782   0.412   2.708   8.402
 2447SOL    HW2 8783   0.313   2.587   8.449
 2448SOL     OW 8784   0.339   2.371   8.454
 2448SOL    HW1 8785   0.287   2.288   8.437
 2448SOL    HW2 8786   0.416   2.376   8.390
 2449SOL     OW 8787   1.138   2.242   9.126
 2449SOL    HW1 8788   1.093   2.305   9.190
 2449SOL    HW2 8789   1.231   2.273   9.109
 2450SOL     OW 8790   1.160   2.069   8.925
 2450SOL    HW1 8791   1.160   2.133   9.002
 2450SOL    HW2 8792   1.188   2.117   8.842
 2451SOL     OW 8793   0.008   3.188   7.648
 2451SOL    HW1 8794  -0.085   3.209   7.617
 2451SOL    HW2 8795   0.018   3.089   7.661
 2452SOL     OW 8796   0.088   3.663   8.375
 2452SOL    HW1 8797   0.046   3.577   8.348
 2452SOL    HW2 8798   0.182   3.666   8.341
 2453SOL     OW 8799   0.504   3.430   8.358
 2453SOL    HW1 8800   0.570   3.504   8.367
 2453SOL    HW2 8801   0.548   3.351   8.316
 2454SOL     OW 8802   1.002   2.658   8.686
 2454SOL    HW1 8803   1.043   2.626   8.772
 2454SOL    HW2 8804   0.906   2.631   8.683
 2455SOL     OW 8805   0.040   2.406   8.562
 2455SOL    HW1 8806   0.125   2.373   8.521
 2455SOL    HW2 8807   0.053   2.421   8.660
 2456SOL     OW 8808   0.189   2.382   9.170
 2456SOL    HW1 8809   0.248   2.342   9.100
 2456SOL    HW2 8810   0.131   2.453   9.129
 2457SOL     OW 8811   1.369   2.812   9.108
 2457SOL    HW1 8812   1.408   2.901   9.128
 2457SOL    HW2 8813   1.379   2.792   9.011
 2458SOL     OW 8814   0.815   2.434   7.773
 2458SOL    HW1 8815   0.822   2.345   7.727
 2458SOL    HW2 8816   0.721   2.468   7.765
 2459SOL     OW 8817   1.657   2.466   8.654
 2459SOL    HW1 8818   1.619   2.397   8.716
 2459SOL    HW2 8819   1.739   2.430   8.610
 2460SOL     OW 8820   0.252   3.426   9.192
 2460SOL    HW1 8821   0.222   3.483   9.268
 2460SOL    HW2 8822   0.245   3.329   9.218
 2461SOL     OW 8823   0.671   2.326   8.717
 2461SOL    HW1 8824   0.637   2.237   8.687
 2461SOL    HW2 8825   0.697   2.380   8.637
 2462SOL     OW 8826   0.930   3.540   8.913
 2462SOL    HW1 8827   0.906   3.522   8.818
 2462SOL    HW2 8828   0.960   3.634   8.923
 2463SOL     OW 8829   0.473   2.362   7.639
 2463SOL    HW1 8830   0.534   2.442   7.643
 2463SOL    HW2 8831   0.378   2.393   7.646
 2464SOL     OW 8832   0.159   2.999   8.914
 2464SOL    HW1 8833   0.181   2.938   8.990
 2464SOL    HW2 8834   0.169   2.950   8.828
 2465SOL     OW 8835   1.347   2.921   8.682
 2465SOL    HW1 8836   1.371   2.858   8.608
 2465SOL    HW2 8837   1.257   2.961   8.664
 2466SOL     OW 8838   1.302   2.717   7.757
 2466SOL    HW1 8839   1.216   2.686   7.799
 2466SOL    HW2 8840   1.298   2.703   7.658
 2467SOL     OW 8841   1.759   3.609   8.602
 2467SOL    HW1 8842   1.820   3.639   8.529
 2467SOL    HW2 8843   1.721   3.520   8.580
 2468SOL     OW 8844   1.252   3.593   8.576
 2468SOL    HW1 8845   1.336   3.598   8.522
 2468SOL    HW2 8846   1.229   3.497   8.594
 2469SOL     OW 8847   0.083   3.120   8.470
 2469SOL    HW1 8848   0.078   3.119   8.570
 2469SOL    HW2 8849   0.000   3.079   8.432
 2470SOL     OW 8850   0.688   3.524   9.164
 2470SOL    HW1 8851   0.632   3.605   9.173
 2470SOL    HW2 8852   0.740   3.528   9.078
 2471SOL     OW 8853   1.726   1.997   7.971
 2471SOL    HW1 8854   1.799   1.980   7.904
 2471SOL    HW2 8855   1.695   1.910   8.009
 2472SOL     OW 8856   1.388   3.435   7.925
 2472SOL    HW1 8857   1.455   3.447   7.851
 2472SOL    HW2 8858   1.348   3.524   7.948
 2473SOL     OW 8859   0.130   3.656   9.299
 2473SOL    HW1 8860   0.089   3.582   9.352
 2473SOL    HW2 8861   0.194   3.707   9.357
 2474SOL     OW 8862   1.280   2.789   8.120
 2474SOL    HW1 8863   1.340   2.708   8.122
 2474SOL    HW2 8864   1.320   2.858   8.060
 2475SOL     OW 8865   0.830   3.135   8.870
 2475SOL    HW1 8866   0.825   3.168   8.965
 2475SOL    HW2 8867   0.744   3.154   8.824
 2476SOL     OW 8868   0.672   3.478   7.602
 2476SOL    HW1 8869   0.681   3.488   7.503
 2476SOL    HW2 8870   0.632   3.389   7.623
 2477SOL     OW 8871   1.650   3.582   8.842
 2477SOL    HW1 8872   1.703   3.592   8.758
 2477SOL    HW2 8873   1.623   3.672   8.876
 2478SOL     OW 8874   1.841   2.037   8.411
 2478SOL    HW1 8875   1.880   1.952   8.375
 2478SOL    HW2 8876   1.743   2.039   8.392
 2479SOL     OW 8877   0.263   2.188   8.168
 2479SOL    HW1 8878   0.184   2.239   8.134
 2479SOL    HW2 8879   0.254   2.173   8.266
 2480SOL     OW 8880   1.194   3.474   7.479
 2480SOL    HW1 8881   1.200   3.381   7.516
 2480SOL    HW2 8882   1.135   3.474   7.399
 2481SOL     OW 8883   0.822   2.864   8.820
 2481SOL    HW1 8884   0.862   2.863   8.728
 2481SOL    HW2 8885   0.832   2.956   8.860
 2482SOL     OW 8886   0.916   2.772   7.739
 2482SOL    HW1 8887   0.979   2.810   7.671
 2482SOL    HW2 8888   0.956   2.689   7.778
 2483SOL     OW 8889   1.504   3.469   7.492
 2483SOL    HW1 8890   1.412   3.506   7.499
 2483SOL    HW2 8891   1.542   3.489   7.402
 2484SOL     OW 8892   0.372   3.150   8.938
 2484SOL    HW1 8893   0.359   3.243   8.904
 2484SOL    HW2 8894   0.288   3.098   8.925
 2485SOL     OW 8895   1.614   3.154   8.737
 2485SOL    HW1 8896   1.674   3.157   8.817
 2485SOL    HW2 8897   1.539   3.218   8.750
 2486SOL     OW 8898   1.039   2.960   8.144
 2486SOL    HW1 8899   0.969   2.913   8.198
 2486SOL    HW2 8900   1.098   2.892   8.101
 2487SOL     OW 8901   1.014   2.098   8.419
 2487SOL    HW1 8902   1.006   2.062   8.326
 2487SOL    HW2 8903   1.012   2.022   8.484
 2488SOL     OW 8904   0.590   3.349   7.939
 2488SOL    HW1 8905   0.632   3.291   7.869
 2488SOL    HW2 8906   0.546   3.428   7.895
 2489SOL     OW 8907   1.709   2.247   8.829
 2489SOL    HW1 8908   1.782   2.316   8.833
 2489SOL    HW2 8909   1.737   2.172   8.770
 2490SOL     OW 8910   0.255   3.210   7.738
 2490SOL    HW1 8911   0.159   3.211   7.711
 2490SOL    HW2 8912   0.267   3.263   7.822
 2491SOL     OW 8913   0.105   2.875   9.174
 2491SOL    HW1 8914   0.028   2.842   9.228
 2491SOL    HW2 8915   0.190   2.845   9.216
 2492SOL     OW 8916   0.672   2.065   8.937
 2492SOL    HW1 8917   0.762   2.049   8.897
 2492SOL    HW2 8918   0.680   2.070   9.036
 2493SOL     OW 8919   0.075   2.207   7.481
 2493SOL    HW1 8920  -0.017   2.179   7.452
 2493SOL    HW2 8921   0.106   2.284   7.425
 2494SOL     OW 8922   1.440   2.718   8.846
 2494SOL    HW1 8923   1.383   2.770   8.783
 2494SOL    HW2 8924   1.536   2.730   8.822
 2495SOL     OW 8925   0.072   2.028   7.766
 2495SOL    HW1 8926   0.055   2.111   7.712
 2495SOL    HW2 8927   0.162   1.991   7.744
 2496SOL     OW 8928   1.183   3.197   7.567
 2496SOL    HW1 8929   1.084   3.186   7.569
 2496SOL    HW2 8930   1.217   3.212   7.660
 2497SOL     OW 8931   0.613   2.704   8.879
 2497SOL    HW1 8932   0.669   2.785   8.862
 2497SOL    HW2 8933   0.672   2.624   8.882
 2498SOL     OW 8934   1.493   3.629   8.407
 2498SOL    HW1 8935   1.526   3.693   8.338
 2498SOL    HW2 8936   1.559   3.623   8.482
 2499SOL     OW 8937   0.716   2.427   9.156
 2499SOL    HW1 8938   0.735   2.492   9.230
 2499SOL    HW2 8939   0.776   2.347   9.165
 2500SOL     OW 8940   1.450   3.082   9.081
 2500SOL    HW1 8941   1.441   3.072   9.180
 2500SOL    HW2 8942   1.546   3.075   9.055
 2501SOL     OW 8943   0.390   3.603   9.008
 2501SOL    HW1 8944   0.299   3.644   9.006
 2501SOL    HW2 8945   0.383   3.509   9.040
 2502SOL     OW 8946   1.674   2.745   8.702
 2502SOL    HW1 8947   1.647   2.656   8.665
 2502SOL    HW2 8948   1.675   2.813   8.629
 2503SOL     OW 8949   1.225   2.187   7.897
 2503SOL    HW1 8950   1.290   2.113   7.886
 2503SOL    HW2 8951   1.245   2.237   7.981
 2504SOL     OW 8952   0.594   2.607   8.100
 2504SOL    HW1 8953   0.644   2.692   8.081
 2504SOL    HW2 8954   0.506   2.609   8.052
 2505SOL     OW 8955   1.777   2.204   9.090
 2505SOL    HW1 8956   1.760   2.235   8.996
 2505SOL    HW2 8957   1.693   2.167   9.128
 2506SOL     OW 8958   1.730   2.796   8.965
 2506SOL    HW1 8959   1.768   2.887   8.980
 2506SOL    HW2 8960   1.722   2.779   8.866
 2507SOL     OW 8961   0.859   3.236   7.464
 2507SOL    HW1 8962   0.813   3.251   7.552
 2507SOL    HW2 8963   0.903   3.321   7.434
 2508SOL     OW 8964   0.661   3.652   8.401
 2508SOL    HW1 8965   0.615   3.740   8.388
 2508SOL    HW2 8966   0.760   3.664   8.394
 2509SOL     OW 8967   0.859   2.818   8.309
 2509SOL    HW1 8968   0.913   2.749   8.357
 2509SOL    HW2 8969   0.827   2.887   8.375
 2510SOL     OW 8970   1.083   2.846   7.535
 2510SOL    HW1 8971   1.060   2.899   7.453
 2510SOL    HW2 8972   1.164   2.790   7.516
 2511SOL     OW 8973   1.861   3.431   8.299
 2511SOL    HW1 8974   1.790   3.419   8.229
 2511SOL    HW2 8975   1.862   3.352   8.359
 2512SOL     OW 8976   0.221   3.176   9.292
 2512SOL    HW1 8977   0.156   3.103   9.271
 2512SOL    HW2 8978   0.225   3.190   9.390
 2513SOL     OW 8979   0.079   3.102   8.101
 2513SOL    HW1 8980   0.078   3.055   8.189
 2513SOL    HW2 8981   0.161   3.074   8.050
 2514SOL     OW 8982   0.672   3.253   9.072
 2514SOL    HW1 8983   0.594   3.203   9.110
 2514SOL    HW2 8984   0.669   3.348   9.103
 2515SOL     OW 8985   1.824   2.054   8.675
 2515SOL    HW1 8986   1.820   1.964   8.719
 2515SOL    HW2 8987   1.827   2.043   8.576
 2516SOL     OW 8988   0.428   2.286   7.968
 2516SOL    HW1 8989   0.458   2.214   7.906
 2516SOL    HW2 8990   0.389   2.246   8.051
 2517SOL     OW 8991   1.705   3.349   8.552
 2517SOL    HW1 8992   1.612   3.324   8.525
 2517SOL    HW2 8993   1.731   3.299   8.634
 2518SOL     OW 8994   0.317   2.409   8.728
 2518SOL    HW1 8995   0.355   2.350   8.800
 2518SOL    HW2 8996   0.357   2.383   8.640
 2519SOL     OW 8997   0.812   3.448   8.135
 2519SOL    HW1 8998   0.844   3.458   8.041
 2519SOL    HW2 8999   0.733   3.386   8.137
 2520SOL     OW 9000   1.424   2.076   8.560
 2520SOL    HW1 9001   1.476   2.011   8.615
 2520SOL    HW2 9002   1.375   2.139   8.621
 2521SOL     OW 9003   1.001   1.896   8.602
 2521SOL    HW1 9004   0.938   1.824   8.571
 2521SOL    HW2 9005   1.094   1.860   8.602
 2522SOL     OW 9006   0.770   3.192   7.749
 2522SOL    HW1 9007   0.724   3.105   7.766
 2522SOL    HW2 9008   0.861   3.189   7.790
 2523SOL     OW 9009   0.618   3.429   8.732
 2523SOL    HW1 9010   0.613   3.511   8.789
 2523SOL    HW2 9011   0.707   3.426   8.687
 2524SOL     OW 9012   1.352   1.914   7.616
 2524SOL    HW1 9013   1.387   1.873   7.532
 2524SOL    HW2 9014   1.262   1.876   7.636
 2525SOL     OW 9015   1.300   2.315   8.139
 2525SOL    HW1 9016   1.241   2.395   8.143
 2525SOL    HW2 9017   1.315   2.280   8.232
 2526SOL     OW 9018   1.593   2.083   8.330
 2526SOL    HW1 9019   1.509   2.082   8.384
 2526SOL    HW2 9020   1.595   2.166   8.274
 2527SOL     OW 9021   0.039   2.939   7.748
 2527SOL    HW1 9022   0.138   2.928   7.739
 2527SOL    HW2 9023  -0.001   2.853   7.780
 2528SOL     OW 9024   0.875   3.508   7.785
 2528SOL    HW1 9025   0.798   3.473   7.731
 2528SOL    HW2 9026   0.843   3.579   7.847
 2529SOL     OW 9027   0.230   2.490   9.423
 2529SOL    HW1 9028   0.137   2.488   9.460
 2529SOL    HW2 9029   0.231   2.451   9.331
 2530SOL     OW 9030   0.225   2.137  10.306
 2530SOL    HW1 9031   0.260   2.120  10.398
 2530SOL    HW2 9032   0.137   2.092  10.294
 2531SOL     OW 9033   0.019   2.230   9.957
 2531SOL    HW1 9034  -0.063   2.273   9.996
 2531SOL    HW2 9035  -0.009   2.157   9.894
 2532SOL     OW 9036   0.569   3.137  10.475
 2532SOL    HW1 9037   0.476   3.130  10.438
 2532SOL    HW2 9038   0.580   3.226  10.519
 2533SOL     OW 9039   1.555   3.373  10.013
 2533SOL    HW1 9040   1.498   3.357  10.094
 2533SOL    HW2 9041   1.496   3.383   9.933
 2534SOL     OW 9042   1.135   2.565  10.027
 2534SOL    HW1 9043   1.192   2.643  10.002
 2534SOL    HW2 9044   1.075   2.591  10.103
 2535SOL     OW 9045   1.755   2.469   9.541
 2535SOL    HW1 9046   1.743   2.456   9.442
 2535SOL    HW2 9047   1.725   2.388   9.590
 2536SOL     OW 9048   0.768   3.006  10.333
 2536SOL    HW1 9049   0.690   3.023  10.393
 2536SOL    HW2 9050   0.802   3.093  10.297
 2537SOL     OW 9051   0.850   2.660  11.133
 2537SOL    HW1 9052   0.846   2.736  11.198
 2537SOL    HW2 9053   0.872   2.696  11.042
 2538SOL     OW 9054   0.685   2.874   9.975
 2538SOL    HW1 9055   0.754   2.858  10.045
 2538SOL    HW2 9056   0.612   2.931  10.013
 2539SOL     OW 9057   0.686   3.023  11.113
 2539SOL    HW1 9058   0.746   3.102  11.127
 2539SOL    HW2 9059   0.600   3.054  11.072
 2540SOL     OW 9060   0.335   3.297  10.371
 2540SOL    HW1 9061   0.257   3.266  10.318
 2540SOL    HW2 9062   0.393   3.355  10.314
 2541SOL     OW 9063   1.460   3.367  10.649
 2541SOL    HW1 9064   1.484   3.461  10.675
 2541SOL    HW2 9065   1.444   3.313  10.731
 2542SOL     OW 9066   0.438   2.254  10.809
 2542SOL    HW1 9067   0.520   2.198  10.818
 2542SOL    HW2 9068   0.357   2.196  10.813
 2543SOL     OW 9069   1.603   2.309  10.047
 2543SOL    HW1 9070   1.529   2.355   9.997
 2543SOL    HW2 9071   1.654   2.377  10.100
 2544SOL     OW 9072   0.231   3.575   9.793
 2544SOL    HW1 9073   0.265   3.652   9.847
 2544SOL    HW2 9074   0.275   3.575   9.703
 2545SOL     OW 9075   1.127   3.203  11.000
 2545SOL    HW1 9076   1.174   3.203  11.088
 2545SOL    HW2 9077   1.079   3.116  10.989
 2546SOL     OW 9078   0.230   3.296   9.848
 2546SOL    HW1 9079   0.204   3.392   9.848
 2546SOL    HW2 9080   0.159   3.242   9.893
 2547SOL     OW 9081   0.240   2.953  10.196
 2547SOL    HW1 9082   0.254   2.869  10.248
 2547SOL    HW2 9083   0.185   3.017  10.251
 2548SOL     OW 9084   0.620   3.648  10.749
 2548SOL    HW1 9085   0.528   3.631  10.784
 2548SOL    HW2 9086   0.648   3.740  10.775
 2549SOL     OW 9087   0.606   2.826   9.433
 2549SOL    HW1 9088   0.613   2.910   9.379
 2549SOL    HW2 9089   0.652   2.839   9.521
 2550SOL     OW 9090   1.594   1.976  10.790
 2550SOL    HW1 9091   1.576   2.043  10.718
 2550SOL    HW2 9092   1.591   2.022  10.879
 2551SOL     OW 9093   0.122   2.505   9.873
 2551SOL    HW1 9094   0.077   2.417   9.890
 2551SOL    HW2 9095   0.121   2.559   9.957
 2552SOL     OW 9096   1.842   3.629   9.669
 2552SOL    HW1 9097   1.896   3.600   9.749
 2552SOL    HW2 9098   1.872   3.719   9.640
 2553SOL     OW 9099   0.027   3.458   9.427
 2553SOL    HW1 9100   0.008   3.362   9.448
 2553SOL    HW2 9101  -0.006   3.516   9.502
 2554SOL     OW 9102   1.689   2.784   9.922
 2554SOL    HW1 9103   1.784   2.755   9.930
 2554SOL    HW2 9104   1.681   2.849   9.847
 2555SOL     OW 9105   1.641   2.970   9.742
 2555SOL    HW1 9106   1.727   2.972   9.690
 2555SOL    HW2 9107   1.655   3.017   9.830
 2556SOL     OW 9108   0.113   2.599  10.907
 2556SOL    HW1 9109   0.201   2.586  10.952
 2556SOL    HW2 9110   0.100   2.696  10.885
 2557SOL     OW 9111   0.613   3.227  10.036
 2557SOL    HW1 9112   0.564   3.140  10.045
 2557SOL    HW2 9113   0.590   3.270   9.949
 2558SOL     OW 9114   1.293   3.090  10.733
 2558SOL    HW1 9115   1.330   3.017  10.675
 2558SOL    HW2 9116   1.345   3.095  10.818
 2559SOL     OW 9117   0.809   1.866   9.812
 2559SOL    HW1 9118   0.849   1.957   9.803
 2559SOL    HW2 9119   0.709   1.874   9.818
 2560SOL     OW 9120   0.197   2.838  10.574
 2560SOL    HW1 9121   0.286   2.793  10.560
 2560SOL    HW2 9122   0.124   2.773  10.555
 2561SOL     OW 9123   1.525   2.861   9.500
 2561SOL    HW1 9124   1.462   2.785   9.513
 2561SOL    HW2 9125   1.573   2.879   9.586
 2562SOL     OW 9126   1.187   3.654  10.926
 2562SOL    HW1 9127   1.211   3.714  10.850
 2562SOL    HW2 9128   1.194   3.559  10.896
 2563SOL     OW 9129   0.317   2.113  11.111
 2563SOL    HW1 9130   0.388   2.184  11.117
 2563SOL    HW2 9131   0.229   2.152  11.139
 2564SOL     OW 9132   1.466   3.279  10.263
 2564SOL    HW1 9133   1.407   3.285  10.343
 2564SOL    HW2 9134   1.451   3.191  10.217
 2565SOL     OW 9135   1.667   3.576   9.882
 2565SOL    HW1 9136   1.626   3.553   9.794
 2565SOL    HW2 9137   1.649   3.502   9.947
 2566SOL     OW 9138   0.598   2.591   9.580
 2566SOL    HW1 9139   0.622   2.660   9.512
 2566SOL    HW2 9140   0.520   2.624   9.634
 2567SOL     OW 9141   1.281   2.207  10.254
 2567SOL    HW1 9142   1.195   2.157  10.241
 2567SOL    HW2 9143   1.343   2.153  10.310
 2568SOL     OW 9144   1.576   3.524   9.617
 2568SOL    HW1 9145   1.665   3.570   9.620
 2568SOL    HW2 9146   1.555   3.500   9.522
 2569SOL     OW 9147   0.807   2.467  10.775
 2569SOL    HW1 9148   0.760   2.464  10.864
 2569SOL    HW2 9149   0.756   2.412  10.709
 2570SOL     OW 9150   1.394   2.331  10.984
 2570SOL    HW1 9151   1.374   2.374  11.072
 2570SOL    HW2 9152   1.472   2.269  10.993
 2571SOL     OW 9153   0.973   2.752  10.882
 2571SOL    HW1 9154   1.019   2.668  10.853
 2571SOL    HW2 9155   0.917   2.786  10.807
 2572SOL     OW 9156   0.991   2.272  10.552
 2572SOL    HW1 9157   0.914   2.306  10.606
 2572SOL    HW2 9158   0.957   2.221  10.473
 2573SOL     OW 9159   1.041   2.563   9.739
 2573SOL    HW1 9160   1.067   2.559   9.835
 2573SOL    HW2 9161   0.956   2.512   9.725
 2574SOL     OW 9162   0.076   2.673  10.099
 2574SOL    HW1 9163   0.175   2.661  10.108
 2574SOL    HW2 9164   0.052   2.768  10.120
 2575SOL     OW 9165   0.130   3.683  10.881
 2575SOL    HW1 9166   0.120   3.668  10.980
 2575SOL    HW2 9167   0.044   3.719  10.845
 2576SOL     OW 9168   0.865   2.210   9.505
 2576SOL    HW1 9169   0.924   2.273   9.456
 2576SOL    HW2 9170   0.884   2.116   9.476
 2577SOL     OW 9171   1.719   2.447  11.141
 2577SOL    HW1 9172   1.693   2.536  11.105
 2577SOL    HW2 9173   1.717   2.379  11.068
 2578SOL     OW 9174   1.362   3.006   9.855
 2578SOL    HW1 9175   1.445   2.977   9.807
 2578SOL    HW2 9176   1.313   3.073   9.799
 2579SOL     OW 9177   0.550   2.058  10.195
 2579SOL    HW1 9178   0.545   2.053  10.295
 2579SOL    HW2 9179   0.552   2.154  10.166
 2580SOL     OW 9180   1.008   3.318   9.787
 2580SOL    HW1 9181   0.962   3.390   9.735
 2580SOL    HW2 9182   1.004   3.338   9.885
 2581SOL     OW 9183   0.351   3.663  10.163
 2581SOL    HW1 9184   0.401   3.577  10.169
 2581SOL    HW2 9185   0.416   3.740  10.160
 2582SOL     OW 9186   1.795   2.928  10.183
 2582SOL    HW1 9187   1.733   2.913  10.107
 2582SOL    HW2 9188   1.743   2.939  10.268
 2583SOL     OW 9189   1.227   3.412  10.816
 2583SOL    HW1 9190   1.233   3.335  10.880
 2583SOL    HW2 9191   1.175   3.386  10.736
 2584SOL     OW 9192   0.321   2.805   9.552
 2584SOL    HW1 9193   0.403   2.844   9.510
 2584SOL    HW2 9194   0.294   2.723   9.503
 2585SOL     OW 9195   1.458   2.597  10.038
 2585SOL    HW1 9196   1.453   2.532  10.113
 2585SOL    HW2 9197   1.538   2.656  10.051
 2586SOL     OW 9198   0.461   3.128  11.037
 2586SOL    HW1 9199   0.411   3.129  10.951
 2586SOL    HW2 9200   0.398   3.110  11.113
 2587SOL     OW 9201   1.111   3.638   9.547
 2587SOL    HW1 9202   1.051   3.576   9.597
 2587SOL    HW2 9203   1.142   3.594   9.462
 2588SOL     OW 9204   0.202   2.147  10.808
 2588SOL    HW1 9205   0.122   2.207  10.795
 2588SOL    HW2 9206   0.192   2.098  10.894
 2589SOL     OW 9207   1.632   3.239   9.391
 2589SOL    HW1 9208   1.600   3.333   9.381
 2589SOL    HW2 9209   1.556   3.176   9.379
 2590SOL     OW 9210   0.464   3.605   9.633
 2590SOL    HW1 9211   0.497   3.644   9.719
 2590SOL    HW2 9212   0.540   3.598   9.568
 2591SOL     OW 9213   1.400   1.969   9.736
 2591SOL    HW1 9214   1.376   1.932   9.646
 2591SOL    HW2 9215   1.499   1.985   9.740
 2592SOL     OW 9216   0.249   3.647  10.551
 2592SOL    HW1 9217   0.306   3.582  10.601
 2592SOL    HW2 9218   0.233   3.614  10.458
 2593SOL     OW 9219   0.940   3.560  10.214
 2593SOL    HW1 9220   1.020   3.503  10.235
 2593SOL    HW2 9221   0.891   3.520  10.137
 2594SOL     OW 9222   0.382   2.562   9.790
 2594SOL    HW1 9223   0.427   2.472   9.787
 2594SOL    HW2 9224   0.288   2.551   9.823
 2595SOL     OW 9225   1.547   2.084  11.039
 2595SOL    HW1 9226   1.542   2.121  11.131
 2595SOL    HW2 9227   1.475   2.015  11.027
 2596SOL     OW 9228   0.614   1.984   9.427
 2596SOL    HW1 9229   0.712   1.962   9.434
 2596SOL    HW2 9230   0.583   1.967   9.334
 2597SOL     OW 9231   0.781   2.126  11.059
 2597SOL    HW1 9232   0.848   2.065  11.102
 2597SOL    HW2 9233   0.708   2.145  11.124
 2598SOL     OW 9234   0.888   3.376  10.505
 2598SOL    HW1 9235   0.865   3.351  10.411
 2598SOL    HW2 9236   0.949   3.307  10.544
 2599SOL     OW 9237   1.351   2.452  10.743
 2599SOL    HW1 9238   1.379   2.409  10.828
 2599SOL    HW2 9239   1.376   2.548  10.744
 2600SOL     OW 9240   0.803   3.264  10.234
 2600SOL    HW1 9241   0.893   3.278  10.192
 2600SOL    HW2 9242   0.732   3.266  10.163
 2601SOL     OW 9243   0.922   2.365  10.209
 2601SOL    HW1 9244   0.897   2.356  10.113
 2601SOL    HW2 9245   0.970   2.283  10.240
 2602SOL     OW 9246   0.539   1.926   9.822
 2602SOL    HW1 9247   0.458   1.927   9.880
 2602SOL    HW2 9248   0.542   2.009   9.767
 2603SOL     OW 9249   1.434   3.050   9.351
 2603SOL    HW1 9250   1.466   2.974   9.408
 2603SOL    HW2 9251   1.342   3.077   9.381
 2604SOL     OW 9252   0.297   1.897   9.481
 2604SOL    HW1 9253   0.346   1.981   9.460
 2604SOL    HW2 9254   0.359   1.832   9.526
 2605SOL     OW 9255   0.935   2.098   9.790
 2605SOL    HW1 9256   0.887   2.139   9.712
 2605SOL    HW2 9257   1.034   2.096   9.771
 2606SOL     OW 9258   1.076   2.545  10.774
 2606SOL    HW1 9259   0.996   2.484  10.777
 2606SOL    HW2 9260   1.157   2.492  10.750
 2607SOL     OW 9261   1.227   3.432  10.103
 2607SOL    HW1 9262   1.248   3.506  10.038
 2607SOL    HW2 9263   1.295   3.432  10.176
 2608SOL     OW 9264   0.459   3.014  10.051
 2608SOL    HW1 9265   0.388   2.987  10.116
 2608SOL    HW2 9266   0.433   2.986   9.958
 2609SOL     OW 9267   1.271   3.659   9.901
 2609SOL    HW1 9268   1.315   3.723   9.837
 2609SOL    HW2 9269   1.221   3.711   9.971
 2610SOL     OW 9270   1.032   2.411   9.326
 2610SOL    HW1 9271   0.991   2.493   9.287
 2610SOL    HW2 9272   1.096   2.437   9.399
 2611SOL     OW 9273   0.078   2.418  10.696
 2611SOL    HW1 9274   0.170   2.417  10.655
 2611SOL    HW2 9275   0.072   2.492  10.763
 2612SOL     OW 9276   0.561   2.084  10.457
 2612SOL    HW1 9277   0.599   2.000  10.494
 2612SOL    HW2 9278   0.473   2.103  10.501
 2613SOL     OW 9279   0.866   2.316   9.952
 2613SOL    HW1 9280   0.834   2.388   9.890
 2613SOL    HW2 9281   0.890   2.235   9.899
 2614SOL     OW 9282   1.017   1.901  10.063
 2614SOL    HW1 9283   0.945   1.906   9.994
 2614SOL    HW2 9284   0.993   1.832  10.132
 2615SOL     OW 9285   1.429   3.035  10.177
 2615SOL    HW1 9286   1.374   2.951  10.170
 2615SOL    HW2 9287   1.455   3.064  10.085
 2616SOL     OW 9288   1.466   2.452  10.302
 2616SOL    HW1 9289   1.436   2.357  10.309
 2616SOL    HW2 9290   1.539   2.468  10.368
 2617SOL     OW 9291   1.857   2.695   9.687
 2617SOL    HW1 9292   1.899   2.631   9.751
 2617SOL    HW2 9293   1.819   2.644   9.609
 2618SOL     OW 9294   0.488   3.247   9.484
 2618SOL    HW1 9295   0.401   3.232   9.531
 2618SOL    HW2 9296   0.471   3.273   9.389
 2619SOL     OW 9297   1.664   3.142   9.967
 2619SOL    HW1 9298   1.763   3.150   9.981
 2619SOL    HW2 9299   1.619   3.226   9.998
 2620SOL     OW 9300   1.390   2.437   9.388
 2620SOL    HW1 9301   1.336   2.416   9.469
 2620SOL    HW2 9302   1.481   2.396   9.397
 2621SOL     OW 9303   0.527   2.118   9.638
 2621SOL    HW1 9304   0.554   2.059   9.563
 2621SOL    HW2 9305   0.527   2.213   9.607
 2622SOL     OW 9306   1.754   3.085  10.898
 2622SOL    HW1 9307   1.845   3.046  10.885
 2622SOL    HW2 9308   1.762   3.181  10.922
 2623SOL     OW 9309   1.064   3.209  10.650
 2623SOL    HW1 9310   0.984   3.186  10.705
 2623SOL    HW2 9311   1.147   3.183  10.699
 2624SOL     OW 9312   1.592   3.491  10.935
 2624SOL    HW1 9313   1.619   3.525  10.845
 2624SOL    HW2 9314   1.671   3.453  10.981
 2625SOL     OW 9315   1.111   3.057  10.410
 2625SOL    HW1 9316   1.071   3.101  10.491
 2625SOL    HW2 9317   1.070   3.094  10.327
 2626SOL     OW 9318   1.638   2.961  10.389
 2626SOL    HW1 9319   1.643   3.042  10.448
 2626SOL    HW2 9320   1.552   2.963  10.338
 2627SOL     OW 9321   0.915   1.951  10.712
 2627SOL    HW1 9322   0.940   1.931  10.617
 2627SOL    HW2 9323   0.987   2.007  10.754
 2628SOL     OW 9324   0.980   2.978  11.029
 2628SOL    HW1 9325   0.881   2.984  11.039
 2628SOL    HW2 9326   1.003   2.898  10.973
 2629SOL     OW 9327   0.705   2.912   9.678
 2629SOL    HW1 9328   0.691   2.919   9.777
 2629SOL    HW2 9329   0.789   2.861   9.660
 2630SOL     OW 9330   0.410   2.675  10.561
 2630SOL    HW1 9331   0.496   2.687  10.611
 2630SOL    HW2 9332   0.368   2.588  10.588
 2631SOL     OW 9333   1.274   2.248  10.572
 2631SOL    HW1 9334   1.295   2.322  10.636
 2631SOL    HW2 9335   1.185   2.265  10.529
 2632SOL     OW 9336   0.064   3.426  10.641
 2632SOL    HW1 9337   0.018   3.508  10.607
 2632SOL    HW2 9338   0.162   3.445  10.650
 2633SOL     OW 9339   0.367   2.962   9.811
 2633SOL    HW1 9340   0.360   3.045   9.755
 2633SOL    HW2 9341   0.371   2.882   9.751
 2634SOL     OW 9342   0.566   2.399  10.175
 2634SOL    HW1 9343   0.578   2.465  10.101
 2634SOL    HW2 9344   0.612   2.433  10.258
 2635SOL     OW 9345   1.252   3.210   9.698
 2635SOL    HW1 9346   1.302   3.287   9.738
 2635SOL    HW2 9347   1.157   3.212   9.730
 2636SOL     OW 9348   1.272   3.307  10.452
 2636SOL    HW1 9349   1.319   3.320  10.539
 2636SOL    HW2 9350   1.206   3.233  10.461
 2637SOL     OW 9351   1.582   2.501   9.782
 2637SOL    HW1 9352   1.551   2.562   9.855
 2637SOL    HW2 9353   1.632   2.553   9.713
 2638SOL     OW 9354   0.354   3.372  10.639
 2638SOL    HW1 9355   0.333   3.328  10.552
 2638SOL    HW2 9356   0.451   3.398  10.642
 2639SOL     OW 9357   0.402   2.613  10.908
 2639SOL    HW1 9358   0.470   2.668  10.861
 2639SOL    HW2 9359   0.442   2.525  10.935
 2640SOL     OW 9360   1.587   2.641  10.980
 2640SOL    HW1 9361   1.495   2.679  10.975
 2640SOL    HW2 9362   1.647   2.688  10.915
 2641SOL     OW 9363   1.013   1.967  11.080
 2641SOL    HW1 9364   1.019   2.052  11.028
 2641SOL    HW2 9365   1.045   1.891  11.023
 2642SOL     OW 9366   0.504   1.912  11.050
 2642SOL    HW1 9367   0.462   1.855  10.980
 2642SOL    HW2 9368   0.438   1.981  11.082
 2643SOL     OW 9369   0.573   2.732  10.339
 2643SOL    HW1 9370   0.617   2.821  10.330
 2643SOL    HW2 9371   0.510   2.732  10.416
 2644SOL     OW 9372   1.360   2.724  10.355
 2644SOL    HW1 9373   1.285   2.724  10.289
 2644SOL    HW2 9374   1.397   2.632  10.364
 2645SOL     OW 9375   1.209   2.387   9.585
 2645SOL    HW1 9376   1.222   2.303   9.639
 2645SOL    HW2 9377   1.180   2.461   9.645
 2646SOL     OW 9378   0.307   2.075  10.541
 2646SOL    HW1 9379   0.284   2.112  10.631
 2646SOL    HW2 9380   0.277   1.980  10.535
 2647SOL     OW 9381   0.037   3.172  10.592
 2647SOL    HW1 9382   0.090   3.123  10.660
 2647SOL    HW2 9383   0.059   3.270  10.597
 2648SOL     OW 9384   0.732   2.496  10.374
 2648SOL    HW1 9385   0.791   2.470  10.298
 2648SOL    HW2 9386   0.704   2.592  10.363
 2649SOL     OW 9387   1.728   2.797  11.164
 2649SOL    HW1 9388   1.682   2.790  11.075
 2649SOL    HW2 9389   1.666   2.841  11.230
 2650SOL     OW 9390   0.307   1.925   9.928
 2650SOL    HW1 9391   0.296   2.019   9.961
 2650SOL    HW2 9392   0.302   1.862  10.005
 2651SOL     OW 9393   1.622   2.229   9.684
 2651SOL    HW1 9394   1.624   2.153   9.748
 2651SOL    HW2 9395   1.574   2.306   9.724
 2652SOL     OW 9396   1.023   2.628  10.276
 2652SOL    HW1 9397   1.038   2.649  10.372
 2652SOL    HW2 9398   0.993   2.533  10.267
 2653SOL     OW 9399   0.980   3.435  11.010
 2653SOL    HW1 9400   0.960   3.479  10.922
 2653SOL    HW2 9401   1.019   3.344  10.994
 2654SOL     OW 9402   1.859   3.380  10.915
 2654SOL    HW1 9403   1.873   3.407  10.820
 2654SOL    HW2 9404   1.942   3.402  10.968
 2655SOL     OW 9405   0.350   2.760  11.114
 2655SOL    HW1 9406   0.426   2.804  11.162
 2655SOL    HW2 9407   0.385   2.713  11.032
 2656SOL     OW 9408   1.540   2.136   9.435
 2656SOL    HW1 9409   1.479   2.061   9.458
 2656SOL    HW2 9410   1.562   2.188   9.518
 2657SOL     OW 9411   1.303   2.700   9.352
 2657SOL    HW1 9412   1.337   2.607   9.367
 2657SOL    HW2 9413   1.321   2.727   9.257
 2658SOL     OW 9414   1.068   3.195  10.159
 2658SOL    HW1 9415   1.075   3.111  10.104
 2658SOL    HW2 9416   1.130   3.264  10.123
 2659SOL     OW 9417   0.319   2.672  10.259
 2659SOL    HW1 9418   0.412   2.708  10.264
 2659SOL    HW2 9419   0.313   2.587  10.311
 2660SOL     OW 9420   0.339   2.371  10.316
 2660SOL    HW1 9421   0.287   2.288  10.299
 2660SOL    HW2 9422   0.416   2.376  10.252
 2661SOL     OW 9423   1.138   2.242  10.988
 2661SOL    HW1 9424   1.093   2.305  11.052
 2661SOL    HW2 9425   1.231   2.273  10.971
 2662SOL     OW 9426   1.160   2.069  10.787
 2662SOL    HW1 9427   1.160   2.133  10.864
 2662SOL    HW2 9428   1.188   2.117  10.704
 2663SOL     OW 9429   0.008   3.188   9.510
 2663SOL    HW1 9430  -0.085   3.209   9.479
 2663SOL    HW2 9431   0.018   3.089   9.523
 2664SOL     OW 9432   0.088   3.663  10.237
 2664SOL    HW1 9433   0.046   3.577  10.210
 2664SOL    HW2 9434   0.182   3.666  10.203
 2665SOL     OW 9435   0.504   3.430  10.220
 2665SOL    HW1 9436   0.570   3.504  10.229
 2665SOL    HW2 9437   0.548   3.351  10.178
 2666SOL     OW 9438   1.002   2.658  10.548
 2666SOL    HW1 9439   1.043   2.626  10.634
 2666SOL    HW2 9440   0.906   2.631  10.545
 2667SOL     OW 9441   0.040   2.406  10.424
 2667SOL    HW1 9442   0.125   2.373  10.383
 2667SOL    HW2 9443   0.053   2.421  10.522
 2668SOL     OW 9444   0.189   2.382  11.032
 2668SOL    HW1 9445   0.248   2.342  10.962
 2668SOL    HW2 9446   0.131   2.453  10.991
 2669SOL     OW 9447   1.369   2.812  10.970
 2669SOL    HW1 9448   1.408   2.901  10.990
 2669SOL    HW2 9449   1.379   2.792  10.873
 2670SOL     OW 9450   0.815   2.434   9.635
 2670SOL    HW1 9451   0.822   2.345   9.589
 2670SOL    HW2 9452   0.721   2.468   9.627
 2671SOL     OW 9453   1.657   2.466  10.516
 2671SOL    HW1 9454   1.619   2.397  10.578
 2671SOL    HW2 9455   1.739   2.430  10.472
 2672SOL     OW 9456   0.252   3.426  11.054
 2672SOL    HW1 9457   0.222   3.483  11.130
 2672SOL    HW2 9458   0.245   3.329  11.080
 2673SOL     OW 9459   0.671   2.326  10.579
 2673SOL    HW1 9460   0.637   2.237  10.549
 2673SOL    HW2 9461   0.697   2.380  10.499
 2674SOL     OW 9462   0.930   3.540  10.775
 2674SOL    HW1 9463   0.906   3.522  10.680
 2674SOL    HW2 9464   0.960   3.634  10.785
 2675SOL     OW 9465   0.473   2.362   9.501
 2675SOL    HW1 9466   0.534   2.442   9.505
 2675SOL    HW2 9467   0.378   2.393   9.508
 2676SOL     OW 9468   0.159   2.999  10.776
 2676SOL    HW1 9469   0.181   2.938  10.852
 2676SOL    HW2 9470   0.169   2.950  10.690
 2677SOL     OW 9471   1.347   2.921  10.544
 2677SOL    HW1 9472   1.371   2.858  10.470
 2677SOL    HW2 9473   1.257   2.961  10.526
 2678SOL     OW 9474   1.302   2.717   9.619
 2678SOL    HW1 9475   1.216   2.686   9.661
 2678SOL    HW2 9476   1.298   2.703   9.520
 2679SOL     OW 9477   1.759   3.609  10.464
 2679SOL    HW1 9478   1.820   3.639  10.391
 2679SOL    HW2 9479   1.721   3.520  10.442
 2680SOL     OW 9480   1.252   3.593  10.438
 2680SOL    HW1 9481   1.336   3.598  10.384
 2680SOL    HW2 9482   1.229   3.497  10.456
 2681SOL     OW 9483   0.083   3.120  10.332
 2681SOL    HW1 9484   0.078   3.119  10.432
 2681SOL    HW2 9485   0.000   3.079  10.294
 2682SOL     OW 9486   0.688   3.524  11.026
 2682SOL    HW1 9487   0.632   3.605  11.035
 2682SOL    HW2 9488   0.740   3.528  10.940
 2683SOL     OW 9489   1.726   1.997   9.833
 2683SOL    HW1 9490   1.799   1.980   9.766
 2683SOL    HW2 9491   1.695   1.910   9.871
 2684SOL     OW 9492   1.388   3.435   9.787
 2684SOL    HW1 9493   1.455   3.447   9.713
 2684SOL    HW2 9494   1.348   3.524   9.810
 2685SOL     OW 9495   0.130   3.656  11.161
 2685SOL    HW1 9496   0.089   3.582  11.214
 2685SOL    HW2 9497   0.194   3.707  11.219
 2686SOL     OW 9498   1.280   2.789   9.982
 2686SOL    HW1 9499   1.340   2.708   9.984
 2686SOL    HW2 9500   1.320   2.858   9.922
 2687SOL     OW 9501   0.830   3.135  10.732
 2687SOL    HW1 9502   0.825   3.168  10.827
 2687SOL    HW2 9503   0.744   3.154  10.686
 2688SOL     OW 9504   0.672   3.478   9.464
 2688SOL    HW1 9505   0.681   3.488   9.365
 2688SOL    HW2 9506   0.632   3.389   9.485
 2689SOL     OW 9507   1.650   3.582  10.704
 2689SOL    HW1 9508   1.703   3.592  10.620
 2689SOL    HW2 9509   1.623   3.672  10.738
 2690SOL     OW 9510   1.841   2.037  10.273
 2690SOL    HW1 9511   1.880   1.952  10.237
 2690SOL    HW2 9512   1.743   2.039  10.254
 2691SOL     OW 9513   0.263   2.188  10.030
 2691SOL    HW1 9514   0.184   2.239   9.996
 2691SOL    HW2 9515   0.254   2.173  10.128
 2692SOL     OW 9516   1.194   3.474   9.341
 2692SOL    HW1 9517   1.200   3.381   9.378
 2692SOL    HW2 9518   1.135   3.474   9.261
 2693SOL     OW 9519   0.822   2.864  10.682
 2693SOL    HW1 9520   0.862   2.863  10.590
 2693SOL    HW2 9521   0.832   2.956  10.722
 2694SOL     OW 9522   0.916   2.772   9.601
 2694SOL    HW1 9523   0.979   2.810   9.533
 2694SOL    HW2 9524   0.956   2.689   9.640
 2695SOL     OW 9525   1.504   3.469   9.354
 2695SOL    HW1 9526   1.412   3.506   9.361
 2695SOL    HW2 9527   1.542   3.489   9.264
 2696SOL     OW 9528   0.372   3.150  10.800
 2696SOL    HW1 9529   0.359   3.243  10.766
 2696SOL    HW2 9530   0.288   3.098  10.787
 2697SOL     OW 9531   1.614   3.154  10.599
 2697SOL    HW1 9532   1.674   3.157  10.679
 2697SOL    HW2 9533   1.539   3.218  10.612
 2698SOL     OW 9534   1.039   2.960  10.006
 2698SOL    HW1 9535   0.969   2.913  10.060
 2698SOL    HW2 9536   1.098   2.892   9.963
 2699SOL     OW 9537   1.014   2.098  10.281
 2699SOL    HW1 9538   1.006   2.062  10.188
 2699SOL    HW2 9539   1.012   2.022  10.346
 2700SOL     OW 9540   0.590   3.349   9.801
 2700SOL    HW1 9541   0.632   3.291   9.731
 2700SOL    HW2 9542   0.546   3.428   9.757
 2701SOL     OW 9543   1.709   2.247  10.691
 2701SOL    HW1 9544   1.782   2.316  10.695
 2701SOL    HW2 9545   1.737   2.172  10.632
 2702SOL     OW 9546   0.255   3.210   9.600
 2702SOL    HW1 9547   0.159   3.211   9.573
 2702SOL    HW2 9548   0.267   3.263   9.684
 2703SOL     OW 9549   0.105   2.875  11.036
 2703SOL    HW1 9550   0.028   2.842  11.090
 2703SOL    HW2 9551   0.190   2.845  11.078
 2704SOL     OW 9552   0.672   2.065  10.799
 2704SOL    HW1 9553   0.762   2.049  10.759
 2704SOL    HW2 9554   0.680   2.070  10.898
 2705SOL     OW 9555   0.075   2.207   9.343
 2705SOL    HW1 9556  -0.017   2.179   9.314
 2705SOL    HW2 9557   0.106   2.284   9.287
 2706SOL     OW 9558   1.440   2.718  10.708
 2706SOL    HW1 9559   1.383   2.770  10.645
 2706SOL    HW2 9560   1.536   2.730  10.684
 2707SOL     OW 9561   0.072   2.028   9.628
 2707SOL    HW1 9562   0.055   2.111   9.574
 2707SOL    HW2 9563   0.162   1.991   9.606
 2708SOL     OW 9564   1.183   3.197   9.429
 2708SOL    HW1 9565   1.084   3.186   9.431
 2708SOL    HW2 9566   1.217   3.212   9.522
 2709SOL     OW 9567   0.613   2.704  10.741
 2709SOL    HW1 9568   0.669   2.785  10.724
 2709SOL    HW2 9569   0.672   2.624  10.744
 2710SOL     OW 9570   1.493   3.629  10.269
 2710SOL    HW1 9571   1.526   3.693  10.200
 2710SOL    HW2 9572   1.559   3.623  10.344
 2711SOL     OW 9573   0.716   2.427  11.018
 2711SOL    HW1 9574   0.735   2.492  11.092
 2711SOL    HW2 9575   0.776   2.347  11.027
 2712SOL     OW 9576   1.450   3.082  10.943
 2712SOL    HW1 9577   1.441   3.072  11.042
 2712SOL    HW2 9578   1.546   3.075  10.917
 2713SOL     OW 9579   0.390   3.603  10.870
 2713SOL    HW1 9580   0.299   3.644  10.868
 2713SOL    HW2 9581   0.383   3.509  10.902
 2714SOL     OW 9582   1.674   2.745  10.564
 2714SOL    HW1 9583   1.647   2.656  10.527
 2714SOL    HW2 9584   1.675   2.813  10.491
 2715SOL     OW 9585   1.225   2.187   9.759
 2715SOL    HW1 9586   1.290   2.113   9.748
 2715SOL    HW2 9587   1.245   2.237   9.843
 2716SOL     OW 9588   0.594   2.607   9.962
 2716SOL    HW1 9589   0.644   2.692   9.943
 2716SOL    HW2 9590   0.506   2.609   9.914
 2717SOL     OW 9591   1.777   2.204  10.952
 2717SOL    HW1 9592   1.760   2.235  10.858
 2717SOL    HW2 9593   1.693   2.167  10.990
 2718SOL     OW 9594   1.730   2.796  10.827
 2718SOL    HW1 9595   1.768   2.887  10.842
 2718SOL    HW2 9596   1.722   2.779  10.728
 2719SOL     OW 9597   0.859   3.236   9.326
 2719SOL    HW1 9598   0.813   3.251   9.414
 2719SOL    HW2 9599   0.903   3.321   9.296
 2720SOL     OW 9600   0.661   3.652  10.263
 2720SOL    HW1 9601   0.615   3.740  10.250
 2720SOL    HW2 9602   0.760   3.664  10.256
 2721SOL     OW 9603   0.859   2.818  10.171
 2721SOL    HW1 9604   0.913   2.749  10.219
 2721SOL    HW2 9605   0.827   2.887  10.237
 2722SOL     OW 9606   1.083   2.846   9.397
 2722SOL    HW1 9607   1.060   2.899   9.315
 2722SOL    HW2 9608   1.164   2.790   9.378
 2723SOL     OW 9609   1.861   3.431  10.161
 2723SOL    HW1 9610   1.790   3.419  10.091
 2723SOL    HW2 9611   1.862   3.352  10.221
 2724SOL     OW 9612   0.221   3.176  11.154
 2724SOL    HW1 9613   0.156   3.103  11.133
 2724SOL    HW2 9614   0.225   3.190  11.252
 2725SOL     OW 9615   0.079   3.102   9.963
 2725SOL    HW1 9616   0.078   3.055  10.051
 2725SOL    HW2 9617   0.161   3.074   9.912
 2726SOL     OW 9618   0.672   3.253  10.934
 2726SOL    HW1 9619   0.594   3.203  10.972
 2726SOL    HW2 9620   0.669   3.348  10.965
 2727SOL     OW 9621   1.824   2.054  10.537
 2727SOL    HW1 9622   1.820   1.964  10.581
 2727SOL    HW2 9623   1.827   2.043  10.438
 2728SOL     OW 9624   0.428   2.286   9.830
 2728SOL    HW1 9625   0.458   2.214   9.768
 2728SOL    HW2 9626   0.389   2.246   9.913
 2729SOL     OW 9627   1.705   3.349  10.414
 2729SOL    HW1 9628   1.612   3.324  10.387
 2729SOL    HW2 9629   1.731   3.299  10.496
 2730SOL     OW 9630   0.317   2.409  10.590
 2730SOL    HW1 9631   0.355   2.350  10.662
 2730SOL    HW2 9632   0.357   2.383  10.502
 2731SOL     OW 9633   0.812   3.448   9.997
 2731SOL    HW1 9634   0.844   3.458   9.903
 2731SOL    HW2 9635   0.733   3.386   9.999
 2732SOL     OW 9636   1.424   2.076  10.422
 2732SOL    HW1 9637   1.476   2.011  10.477
 2732SOL    HW2 9638   1.375   2.139  10.483
 2733SOL     OW 9639   1.001   1.896  10.464
 2733SOL    HW1 9640   0.938   1.824  10.433
 2733SOL    HW2 9641   1.094   1.860  10.464
 2734SOL     OW 9642   0.770   3.192   9.611
 2734SOL    HW1 9643   0.724   3.105   9.628
 2734SOL    HW2 9644   0.861   3.189   9.652
 2735SOL     OW 9645   0.618   3.429  10.594
 2735SOL    HW1 9646   0.613   3.511  10.651
 2735SOL    HW2 9647   0.707   3.426  10.549
 2736SOL     OW 9648   1.352   1.914   9.478
 2736SOL    HW1 9649   1.387   1.873   9.394
 2736SOL    HW2 9650   1.262   1.876   9.498
 2737SOL     OW 9651   1.300   2.315  10.001
 2737SOL    HW1 9652   1.241   2.395  10.005
 2737SOL    HW2 9653   1.315   2.280  10.094
 2738SOL     OW 9654   1.593   2.083  10.192
 2738SOL    HW1 9655   1.509   2.082  10.246
 2738SOL    HW2 9656   1.595   2.166  10.136
 2739SOL     OW 9657   0.039   2.939   9.610
 2739SOL    HW1 9658   0.138   2.928   9.601
 2739SOL    HW2 9659  -0.001   2.853   9.642
 2740SOL     OW 9660   0.875   3.508   9.647
 2740SOL    HW1 9661   0.798   3.473   9.593
 2740SOL    HW2 9662   0.843   3.579   9.709
 2741SOL     OW 9663   0.230   2.490  11.285
 2741SOL    HW1 9664   0.137   2.488  11.322
 2741SOL    HW2 9665   0.231   2.451  11.193
 2742SOL     OW 9666   0.225   2.137  12.168
 2742SOL    HW1 9667   0.260   2.120  12.260
 2742SOL    HW2 9668   0.137   2.092  12.156
 2743SOL     OW 9669   0.019   2.230  11.819
 2743SOL    HW1 9670  -0.063   2.273  11.858
 2743SOL    HW2 9671  -0.009   2.157  11.756
 2744SOL     OW 9672   0.569   3.137  12.337
 2744SOL    HW1 9673   0.476   3.130  12.300
 2744SOL    HW2 9674   0.580   3.226  12.381
 2745SOL     OW 9675   1.555   3.373  11.875
 2745SOL    HW1 9676   1.498   3.357  11.956
 2745SOL    HW2 9677   1.496   3.383  11.795
 2746SOL     OW 9678   1.135   2.565  11.889
 2746SOL    HW1 9679   1.192   2.643  11.864
 2746SOL    HW2 9680   1.075   2.591  11.965
 2747SOL     OW 9681   1.755   2.469  11.403
 2747SOL    HW1 9682   1.743   2.456  11.304
 2747SOL    HW2 9683   1.725   2.388  11.452
 2748SOL     OW 9684   0.768   3.006  12.195
 2748SOL    HW1 9685   0.690   3.023  12.255
 2748SOL    HW2 9686   0.802   3.093  12.159
 2749SOL     OW 9687   0.685   2.874  11.837
 2749SOL    HW1 9688   0.754   2.858  11.907
 2749SOL    HW2 9689   0.612   2.931  11.875
 2750SOL     OW 9690   0.335   3.297  12.233
 2750SOL    HW1 9691   0.257   3.266  12.180
 2750SOL    HW2 9692   0.393   3.355  12.176
 2751SOL     OW 9693   1.603   2.309  11.909
 2751SOL    HW1 9694   1.529   2.355  11.859
 2751SOL    HW2 9695   1.654   2.377  11.962
 2752SOL     OW 9696   0.231   3.575  11.655
 2752SOL    HW1 9697   0.265   3.652  11.709
 2752SOL    HW2 9698   0.275   3.575  11.565
 2753SOL     OW 9699   0.230   3.296  11.710
 2753SOL    HW1 9700   0.204   3.392  11.710
 2753SOL    HW2 9701   0.159   3.242  11.755
 2754SOL     OW 9702   0.240   2.953  12.058
 2754SOL    HW1 9703   0.254   2.869  12.110
 2754SOL    HW2 9704   0.185   3.017  12.113
 2755SOL     OW 9705   0.606   2.826  11.295
 2755SOL    HW1 9706   0.613   2.910  11.241
 2755SOL    HW2 9707   0.652   2.839  11.383
 2756SOL     OW 9708   0.122   2.505  11.735
 2756SOL    HW1 9709   0.077   2.417  11.752
 2756SOL    HW2 9710   0.121   2.559  11.819
 2757SOL     OW 9711   1.842   3.629  11.531
 2757SOL    HW1 9712   1.896   3.600  11.611
 2757SOL    HW2 9713   1.872   3.719  11.502
 2758SOL     OW 9714   0.027   3.458  11.289
 2758SOL    HW1 9715   0.008   3.362  11.310
 2758SOL    HW2 9716  -0.006   3.516  11.364
 2759SOL     OW 9717   1.689   2.784  11.784
 2759SOL    HW1 9718   1.784   2.755  11.792
 2759SOL    HW2 9719   1.681   2.849  11.709
 2760SOL     OW 9720   1.641   2.970  11.604
 2760SOL    HW1 9721   1.727   2.972  11.552
 2760SOL    HW2 9722   1.655   3.017  11.692
 2761SOL     OW 9723   0.113   2.599  12.769
 2761SOL    HW1 9724   0.201   2.586  12.814
 2761SOL    HW2 9725   0.100   2.696  12.747
 2762SOL     OW 9726   0.613   3.227  11.898
 2762SOL    HW1 9727   0.564   3.140  11.907
 2762SOL    HW2 9728   0.590   3.270  11.811
 2763SOL     OW 9729   0.809   1.866  11.674
 2763SOL    HW1 9730   0.849   1.957  11.665
 2763SOL    HW2 9731   0.709   1.874  11.680
 2764SOL     OW 9732   0.197   2.838  12.436
 2764SOL    HW1 9733   0.286   2.793  12.422
 2764SOL    HW2 9734   0.124   2.773  12.417
 2765SOL     OW 9735   1.525   2.861  11.362
 2765SOL    HW1 9736   1.462   2.785  11.375
 2765SOL    HW2 9737   1.573   2.879  11.448
 2766SOL     OW 9738   1.466   3.279  12.125
 2766SOL    HW1 9739   1.407   3.285  12.205
 2766SOL    HW2 9740   1.451   3.191  12.079
 2767SOL     OW 9741   1.667   3.576  11.744
 2767SOL    HW1 9742   1.626   3.553  11.656
 2767SOL    HW2 9743   1.649   3.502  11.809
 2768SOL     OW 9744   0.598   2.591  11.442
 2768SOL    HW1 9745   0.622   2.660  11.374
 2768SOL    HW2 9746   0.520   2.624  11.496
 2769SOL     OW 9747   1.281   2.207  12.116
 2769SOL    HW1 9748   1.195   2.157  12.103
 2769SOL    HW2 9749   1.343   2.153  12.172
 2770SOL     OW 9750   1.576   3.524  11.479
 2770SOL    HW1 9751   1.665   3.570  11.482
 2770SOL    HW2 9752   1.555   3.500  11.384
 2771SOL     OW 9753   0.991   2.272  12.414
 2771SOL    HW1 9754   0.914   2.306  12.468
 2771SOL    HW2 9755   0.957   2.221  12.335
 2772SOL     OW 9756   1.041   2.563  11.601
 2772SOL    HW1 9757   1.067   2.559  11.697
 2772SOL    HW2 9758   0.956   2.512  11.587
 2773SOL     OW 9759   0.076   2.673  11.961
 2773SOL    HW1 9760   0.175   2.661  11.970
 2773SOL    HW2 9761   0.052   2.768  11.982
 2774SOL     OW 9762   0.130   3.683  12.743
 2774SOL    HW1 9763   0.120   3.668  12.842
 2774SOL    HW2 9764   0.044   3.719  12.707
 2775SOL     OW 9765   0.865   2.210  11.367
 2775SOL    HW1 9766   0.924   2.273  11.318
 2775SOL    HW2 9767   0.884   2.116  11.338
 2776SOL     OW 9768   1.362   3.006  11.717
 2776SOL    HW1 9769   1.445   2.977  11.669
 2776SOL    HW2 9770   1.313   3.073  11.661
 2777SOL     OW 9771   0.550   2.058  12.057
 2777SOL    HW1 9772   0.545   2.053  12.157
 2777SOL    HW2 9773   0.552   2.154  12.028
 2778SOL     OW 9774   1.008   3.318  11.649
 2778SOL    HW1 9775   0.962   3.390  11.597
 2778SOL    HW2 9776   1.004   3.338  11.747
 2779SOL     OW 9777   0.351   3.663  12.025
 2779SOL    HW1 9778   0.401   3.577  12.031
 2779SOL    HW2 9779   0.416   3.740  12.022
 2780SOL     OW 9780   1.795   2.928  12.045
 2780SOL    HW1 9781   1.733   2.913  11.969
 2780SOL    HW2 9782   1.743   2.939  12.130
 2781SOL     OW 9783   0.321   2.805  11.414
 2781SOL    HW1 9784   0.403   2.844  11.372
 2781SOL    HW2 9785   0.294   2.723  11.365
 2782SOL     OW 9786   1.458   2.597  11.900
 2782SOL    HW1 9787   1.453   2.532  11.975
 2782SOL    HW2 9788   1.538   2.656  11.913
 2783SOL     OW 9789   1.111   3.638  11.409
 2783SOL    HW1 9790   1.051   3.576  11.459
 2783SOL    HW2 9791   1.142   3.594  11.324
 2784SOL     OW 9792   1.632   3.239  11.253
 2784SOL    HW1 9793   1.600   3.333  11.243
 2784SOL    HW2 9794   1.556   3.176  11.241
 2785SOL     OW 9795   0.464   3.605  11.495
 2785SOL    HW1 9796   0.497   3.644  11.581
 2785SOL    HW2 9797   0.540   3.598  11.430
 2786SOL     OW 9798   1.400   1.969  11.598
 2786SOL    HW1 9799   1.376   1.932  11.508
 2786SOL    HW2 9800   1.499   1.985  11.602
 2787SOL     OW 9801   0.249   3.647  12.413
 2787SOL    HW1 9802   0.306   3.582  12.463
 2787SOL    HW2 9803   0.233   3.614  12.320
 2788SOL     OW 9804   0.940   3.560  12.076
 2788SOL    HW1 9805   1.020   3.503  12.097
 2788SOL    HW2 9806   0.891   3.520  11.999
 2789SOL     OW 9807   0.382   2.562  11.652
 2789SOL    HW1 9808   0.427   2.472  11.649
 2789SOL    HW2 9809   0.288   2.551  11.685
 2790SOL     OW 9810   0.614   1.984  11.289
 2790SOL    HW1 9811   0.712   1.962  11.296
 2790SOL    HW2 9812   0.583   1.967  11.196
 2791SOL     OW 9813   0.803   3.264  12.096
 2791SOL    HW1 9814   0.893   3.278  12.054
 2791SOL    HW2 9815   0.732   3.266  12.025
 2792SOL     OW 9816   0.922   2.365  12.071
 2792SOL    HW1 9817   0.897   2.356  11.975
 2792SOL    HW2 9818   0.970   2.283  12.102
 2793SOL     OW 9819   0.539   1.926  11.684
 2793SOL    HW1 9820   0.458   1.927  11.742
 2793SOL    HW2 9821   0.542   2.009  11.629
 2794SOL     OW 9822   1.434   3.050  11.213
 2794SOL    HW1 9823   1.466   2.974  11.270
 2794SOL    HW2 9824   1.342   3.077  11.243
 2795SOL     OW 9825   0.297   1.897  11.343
 2795SOL    HW1 9826   0.346   1.981  11.322
 2795SOL    HW2 9827   0.359   1.832  11.388
 2796SOL     OW 9828   0.935   2.098  11.652
 2796SOL    HW1 9829   0.887   2.139  11.574
 2796SOL    HW2 9830   1.034   2.096  11.633
 2797SOL     OW 9831   1.227   3.432  11.965
 2797SOL    HW1 9832   1.248   3.506  11.900
 2797SOL    HW2 9833   1.295   3.432  12.038
 2798SOL     OW 9834   0.459   3.014  11.913
 2798SOL    HW1 9835   0.388   2.987  11.978
 2798SOL    HW2 9836   0.433   2.986  11.820
 2799SOL     OW 9837   1.271   3.659  11.763
 2799SOL    HW1 9838   1.315   3.723  11.699
 2799SOL    HW2 9839   1.221   3.711  11.833
 2800SOL     OW 9840   1.032   2.411  11.188
 2800SOL    HW1 9841   0.991   2.493  11.149
 2800SOL    HW2 9842   1.096   2.437  11.261
 2801SOL     OW 9843   0.561   2.084  12.319
 2801SOL    HW1 9844   0.599   2.000  12.356
 2801SOL    HW2 9845   0.473   2.103  12.363
 2802SOL     OW 9846   0.866   2.316  11.814
 2802SOL    HW1 9847   0.834   2.388  11.752
 2802SOL    HW2 9848   0.890   2.235  11.761
 2803SOL     OW 9849   1.017   1.901  11.925
 2803SOL    HW1 9850   0.945   1.906  11.856
 2803SOL    HW2 9851   0.993   1.832  11.994
 2804SOL     OW 9852   1.429   3.035  12.039
 2804SOL    HW1 9853   1.374   2.951  12.032
 2804SOL    HW2 9854   1.455   3.064  11.947
 2805SOL     OW 9855   1.466   2.452  12.164
 2805SOL    HW1 9856   1.436   2.357  12.171
 2805SOL    HW2 9857   1.539   2.468  12.230
 2806SOL     OW 9858   1.857   2.695  11.549
 2806SOL    HW1 9859   1.899   2.631  11.613
 2806SOL    HW2 9860   1.819   2.644  11.471
 2807SOL     OW 9861   0.488   3.247  11.346
 2807SOL    HW1 9862   0.401   3.232  11.393
 2807SOL    HW2 9863   0.471   3.273  11.251
 2808SOL     OW 9864   1.664   3.142  11.829
 2808SOL    HW1 9865   1.763   3.150  11.843
 2808SOL    HW2 9866   1.619   3.226  11.860
 2809SOL     OW 9867   1.390   2.437  11.250
 2809SOL    HW1 9868   1.336   2.416  11.331
 2809SOL    HW2 9869   1.481   2.396  11.259
 2810SOL     OW 9870   0.527   2.118  11.500
 2810SOL    HW1 9871   0.554   2.059  11.425
 2810SOL    HW2 9872   0.527   2.213  11.469
 2811SOL     OW 9873   1.111   3.057  12.272
 2811SOL    HW1 9874   1.071   3.101  12.353
 2811SOL    HW2 9875   1.070   3.094  12.189
 2812SOL     OW 9876   1.638   2.961  12.251
 2812SOL    HW1 9877   1.643   3.042  12.310
 2812SOL    HW2 9878   1.552   2.963  12.200
 2813SOL     OW 9879   0.705   2.912  11.540
 2813SOL    HW1 9880   0.691   2.919  11.639
 2813SOL    HW2 9881   0.789   2.861  11.522
 2814SOL     OW 9882   0.410   2.675  12.423
 2814SOL    HW1 9883   0.496   2.687  12.473
 2814SOL    HW2 9884   0.368   2.588  12.450
 2815SOL     OW 9885   1.274   2.248  12.434
 2815SOL    HW1 9886   1.295   2.322  12.498
 2815SOL    HW2 9887   1.185   2.265  12.391
 2816SOL     OW 9888   0.367   2.962  11.673
 2816SOL    HW1 9889   0.360   3.045  11.617
 2816SOL    HW2 9890   0.371   2.882  11.613
 2817SOL     OW 9891   0.566   2.399  12.037
 2817SOL    HW1 9892   0.578   2.465  11.963
 2817SOL    HW2 9893   0.612   2.433  12.120
 2818SOL     OW 9894   1.252   3.210  11.560
 2818SOL    HW1 9895   1.302   3.287  11.600
 2818SOL    HW2 9896   1.157   3.212  11.592
 2819SOL     OW 9897   1.272   3.307  12.314
 2819SOL    HW1 9898   1.319   3.320  12.401
 2819SOL    HW2 9899   1.206   3.233  12.323
 2820SOL     OW 9900   1.582   2.501  11.644
 2820SOL    HW1 9901   1.551   2.562  11.717
 2820SOL    HW2 9902   1.632   2.553  11.575
 2821SOL     OW 9903   0.354   3.372  12.501
 2821SOL    HW1 9904   0.333   3.328  12.414
 2821SOL    HW2 9905   0.451   3.398  12.504
 2822SOL     OW 9906   0.573   2.732  12.201
 2822SOL    HW1 9907   0.617   2.821  12.192
 2822SOL    HW2 9908   0.510   2.732  12.278
 2823SOL     OW 9909   1.360   2.724  12.217
 2823SOL    HW1 9910   1.285   2.724  12.151
 2823SOL    HW2 9911   1.397   2.632  12.226
 2824SOL     OW 9912   1.209   2.387  11.447
 2824SOL    HW1 9913   1.222   2.303  11.501
 2824SOL    HW2 9914   1.180   2.461  11.507
 2825SOL     OW 9915   0.307   2.075  12.403
 2825SOL    HW1 9916   0.284   2.112  12.493
 2825SOL    HW2 9917   0.277   1.980  12.397
 2826SOL     OW 9918   0.037   3.172  12.454
 2826SOL    HW1 9919   0.090   3.123  12.522
 2826SOL    HW2 9920   0.059   3.270  12.459
 2827SOL     OW 9921   0.732   2.496  12.236
 2827SOL    HW1 9922   0.791   2.470  12.160
 2827SOL    HW2 9923   0.704   2.592  12.225
 2828SOL     OW 9924   0.307   1.925  11.790
 2828SOL    HW1 9925   0.296   2.019  11.823
 2828SOL    HW2 9926   0.302   1.862  11.867
 2829SOL     OW 9927   1.622   2.229  11.546
 2829SOL    HW1 9928   1.624   2.153  11.610
 2829SOL    HW2 9929   1.574   2.306  11.586
 2830SOL     OW 9930   1.023   2.628  12.138
 2830SOL    HW1 9931   1.038   2.649  12.234
 2830SOL    HW2 9932   0.993   2.533  12.129
 2831SOL     OW 9933   1.540   2.136  11.297
 2831SOL    HW1 9934   1.479   2.061  11.320
 2831SOL    HW2 9935   1.562   2.188  11.380
 2832SOL     OW 9936   1.303   2.700  11.214
 2832SOL    HW1 9937   1.337   2.607  11.229
 2832SOL    HW2 9938   1.321   2.727  11.119
 2833SOL     OW 9939   1.068   3.195  12.021
 2833SOL    HW1 9940   1.075   3.111  11.966
 2833SOL    HW2 9941   1.130   3.264  11.985
 2834SOL     OW 9942   0.319   2.672  12.121
 2834SOL    HW1 9943   0.412   2.708  12.126
 2834SOL    HW2 9944   0.313   2.587  12.173
 2835SOL     OW 9945   0.339   2.371  12.178
 2835SOL    HW1 9946   0.287   2.288  12.161
 2835SOL    HW2 9947   0.416   2.376  12.114
 2836SOL     OW 9948   1.160   2.069  12.649
 2836SOL    HW1 9949   1.160   2.133  12.726
 2836SOL    HW2 9950   1.188   2.117  12.566
 2837SOL     OW 9951   0.008   3.188  11.372
 2837SOL    HW1 9952  -0.085   3.209  11.341
 2837SOL    HW2 9953   0.018   3.089  11.385
 2838SOL     OW 9954   0.088   3.663  12.099
 2838SOL    HW1 9955   0.046   3.577  12.072
 2838SOL    HW2 9956   0.182   3.666  12.065
 2839SOL     OW 9957   0.504   3.430  12.082
 2839SOL    HW1 9958   0.570   3.504  12.091
 2839SOL    HW2 9959   0.548   3.351  12.040
 2840SOL     OW 9960   1.002   2.658  12.410
 2840SOL    HW1 9961   1.043   2.626  12.496
 2840SOL    HW2 9962   0.906   2.631  12.407
 2841SOL     OW 9963   0.040   2.406  12.286
 2841SOL    HW1 9964   0.125   2.373  12.245
 2841SOL    HW2 9965   0.053   2.421  12.384
 2842SOL     OW 9966   0.815   2.434  11.497
 2842SOL    HW1 9967   0.822   2.345  11.451
 2842SOL    HW2 9968   0.721   2.468  11.489
 2843SOL     OW 9969   1.657   2.466  12.378
 2843SOL    HW1 9970   1.619   2.397  12.440
 2843SOL    HW2 9971   1.739   2.430  12.334
 2844SOL     OW 9972   0.671   2.326  12.441
 2844SOL    HW1 9973   0.637   2.237  12.411
 2844SOL    HW2 9974   0.697   2.380  12.361
 2845SOL     OW 9975   0.930   3.540  12.637
 2845SOL    HW1 9976   0.906   3.522  12.542
 2845SOL    HW2 9977   0.960   3.634  12.647
 2846SOL     OW 9978   0.473   2.362  11.363
 2846SOL    HW1 9979   0.534   2.442  11.367
 2846SOL    HW2 9980   0.378   2.393  11.370
 2847SOL     OW 9981   1.347   2.921  12.406
 2847SOL    HW1 9982   1.371   2.858  12.332
 2847SOL    HW2 9983   1.257   2.961  12.388
 2848SOL     OW 9984   1.302   2.717  11.481
 2848SOL    HW1 9985   1.216   2.686  11.523
 2848SOL    HW2 9986   1.298   2.703  11.382
 2849SOL     OW 9987   1.759   3.609  12.326
 2849SOL    HW1 9988   1.820   3.639  12.253
 2849SOL    HW2 9989   1.721   3.520  12.304
 2850SOL     OW 9990   1.252   3.593  12.300
 2850SOL    HW1 9991   1.336   3.598  12.246
 2850SOL    HW2 9992   1.229   3.497  12.318
 2851SOL     OW 9993   0.083   3.120  12.194
 2851SOL    HW1 9994   0.078   3.119  12.294
 2851SOL    HW2 9995   0.000   3.079  12.156
 2852SOL     OW 9996   1.726   1.997  11.695
 2852SOL    HW1 9997   1.799   1.980  11.628
 2852SOL    HW2 9998   1.695   1.910  11.733
 2853SOL     OW 9999   1.388   3.435  11.649
 2853SOL    HW110000   1.455   3.447  11.575
 2853SOL    HW210001   1.348   3.524  11.672
 2854SOL     OW10002   1.280   2.789  11.844
 2854SOL    HW110003   1.340   2.708  11.846
 2854SOL    HW210004   1.320   2.858  11.784
 2855SOL     OW10005   0.672   3.478  11.326
 2855SOL    HW110006   0.681   3.488  11.227
 2855SOL    HW210007   0.632   3.389  11.347
 2856SOL     OW10008   1.650   3.582  12.566
 2856SOL    HW110009   1.703   3.592  12.482
 2856SOL    HW210010   1.623   3.672  12.600
 2857SOL     OW10011   1.841   2.037  12.135
 2857SOL    HW110012   1.880   1.952  12.099
 2857SOL    HW210013   1.743   2.039  12.116
 2858SOL     OW10014   0.263   2.188  11.892
 2858SOL    HW110015   0.184   2.239  11.858
 2858SOL    HW210016   0.254   2.173  11.990
 2859SOL     OW10017   1.194   3.474  11.203
 2859SOL    HW110018   1.200   3.381  11.240
 2859SOL    HW210019   1.135   3.474  11.123
 2860SOL     OW10020   0.822   2.864  12.544
 2860SOL    HW110021   0.862   2.863  12.452
 2860SOL    HW210022   0.832   2.956  12.584
 2861SOL     OW10023   0.916   2.772  11.463
 2861SOL    HW110024   0.979   2.810  11.395
 2861SOL    HW210025   0.956   2.689  11.502
 2862SOL     OW10026   1.504   3.469  11.216
 2862SOL    HW110027   1.412   3.506  11.223
 2862SOL    HW210028   1.542   3.489  11.126
 2863SOL     OW10029   1.039   2.960  11.868
 2863SOL    HW110030   0.969   2.913  11.922
 2863SOL    HW210031   1.098   2.892  11.825
 2864SOL     OW10032   1.014   2.098  12.143
 2864SOL    HW110033   1.006   2.062  12.050
 2864SOL    HW210034   1.012   2.022  12.208
 2865SOL     OW10035   0.590   3.349  11.663
 2865SOL    HW110036   0.632   3.291  11.593
 2865SOL    HW210037   0.546   3.428  11.619
 2866SOL     OW10038   1.709   2.247  12.553
 2866SOL    HW110039   1.782   2.316  12.557
 2866SOL    HW210040   1.737   2.172  12.494
 2867SOL     OW10041   0.255   3.210  11.462
 2867SOL    HW110042   0.159   3.211  11.435
 2867SOL    HW210043   0.267   3.263  11.546
 2868SOL     OW10044   0.075   2.207  11.205
 2868SOL    HW110045  -0.017   2.179  11.176
 2868SOL    HW210046   0.106   2.284  11.149
 2869SOL     OW10047   0.072   2.028  11.490
 2869SOL    HW110048   0.055   2.111  11.436
 2869SOL    HW210049   0.162   1.991  11.468
 2870SOL     OW10050   1.183   3.197  11.291
 2870SOL    HW110051   1.084   3.186  11.293
 2870SOL    HW210052   1.217   3.212  11.384
 2871SOL     OW10053   1.493   3.629  12.131
 2871SOL    HW110054   1.526   3.693  12.062
 2871SOL    HW210055   1.559   3.623  12.206
 2872SOL     OW10056   1.674   2.745  12.426
 2872SOL    HW110057   1.647   2.656  12.389
 2872SOL    HW210058   1.675   2.813  12.353
 2873SOL     OW10059   1.225   2.187  11.621
 2873SOL    HW110060   1.290   2.113  11.610
 2873SOL    HW210061   1.245   2.237  11.705
 2874SOL     OW10062   0.594   2.607  11.824
 2874SOL    HW110063   0.644   2.692  11.805
 2874SOL    HW210064   0.506   2.609  11.776
 2875SOL     OW10065   1.730   2.796  12.689
 2875SOL    HW110066   1.768   2.887  12.704
 2875SOL    HW210067   1.722   2.779  12.590
 2876SOL     OW10068   0.859   3.236  11.188
 2876SOL    HW110069   0.813   3.251  11.276
 2876SOL    HW210070   0.903   3.321  11.158
 2877SOL     OW10071   0.661   3.652  12.125
 2877SOL    HW110072   0.615   3.740  12.112
 2877SOL    HW210073   0.760   3.664  12.118
 2878SOL     OW10074   0.859   2.818  12.033
 2878SOL    HW110075   0.913   2.749  12.081
 2878SOL    HW210076   0.827   2.887  12.099
 2879SOL     OW10077   1.083   2.846  11.259
 2879SOL    HW110078   1.060   2.899  11.177
 2879SOL    HW210079   1.164   2.790  11.240
 2880SOL     OW10080   1.861   3.431  12.023
 2880SOL    HW110081   1.790   3.419  11.953
 2880SOL    HW210082   1.862   3.352  12.083
 2881SOL     OW10083   0.079   3.102  11.825
 2881SOL    HW110084   0.078   3.055  11.913
 2881SOL    HW210085   0.161   3.074  11.774
 2882SOL     OW10086   1.824   2.054  12.399
 2882SOL    HW110087   1.820   1.964  12.443
 2882SOL    HW210088   1.827   2.043  12.300
 2883SOL     OW10089   0.428   2.286  11.692
 2883SOL    HW110090   0.458   2.214  11.630
 2883SOL    HW210091   0.389   2.246  11.775
 2884SOL     OW10092   1.705   3.349  12.276
 2884SOL    HW110093   1.612   3.324  12.249
 2884SOL    HW210094   1.731   3.299  12.358
 2885SOL     OW10095   0.812   3.448  11.859
 2885SOL    HW110096   0.844   3.458  11.765
 2885SOL    HW210097   0.733   3.386  11.861
 2886SOL     OW10098   1.424   2.076  12.284
 2886SOL    HW110099   1.476   2.011  12.339
 2886SOL    HW210100   1.375   2.139  12.345
 2887SOL     OW10101   1.001   1.896  12.326
 2887SOL    HW110102   0.938   1.824  12.295
 2887SOL    HW210103   1.094   1.860  12.326
 2888SOL     OW10104   0.770   3.192  11.473
 2888SOL    HW110105   0.724   3.105  11.490
 2888SOL    HW210106   0.861   3.189  11.514
 2889SOL     OW10107   1.352   1.914  11.340
 2889SOL    HW110108   1.387   1.873  11.256
 2889SOL    HW210109   1.262   1.876  11.360
 2890SOL     OW10110   1.300   2.315  11.863
 2890SOL    HW110111   1.241   2.395  11.867
 2890SOL    HW210112   1.315   2.280  11.956
 2891SOL     OW10113   1.593   2.083  12.054
 2891SOL    HW110114   1.509   2.082  12.108
 2891SOL    HW210115   1.595   2.166  11.998
 2892SOL     OW10116   0.039   2.939  11.472
 2892SOL    HW110117   0.138   2.928  11.463
 2892SOL    HW210118  -0.001   2.853  11.504
 2893SOL     OW10119   0.875   3.508  11.509
 2893SOL    HW110120   0.798   3.473  11.455
 2893SOL    HW210121   0.843   3.579  11.571
 2894SOL     OW10122   0.230   4.352   0.113
 2894SOL    HW110123   0.137   4.350   0.150
 2894SOL    HW210124   0.231   4.313   0.021
 2895SOL     OW10125   0.225   3.999   0.996
 2895SOL    HW110126   0.260   3.982   1.088
 2895SOL    HW210127   0.137   3.954   0.984
 2896SOL     OW10128   0.019   4.092   0.647
 2896SOL    HW110129  -0.063   4.135   0.686
 2896SOL    HW210130  -0.009   4.019   0.584
 2897SOL     OW10131   0.569   4.999   1.165
 2897SOL    HW110132   0.476   4.992   1.128
 2897SOL    HW210133   0.580   5.088   1.209
 2898SOL     OW10134   1.555   5.235   0.703
 2898SOL    HW110135   1.498   5.219   0.784
 2898SOL    HW210136   1.496   5.245   0.623
 2899SOL     OW10137   1.135   4.427   0.717
 2899SOL    HW110138   1.192   4.505   0.692
 2899SOL    HW210139   1.075   4.453   0.793
 2900SOL     OW10140   1.755   4.331   0.231
 2900SOL    HW110141   1.743   4.318   0.132
 2900SOL    HW210142   1.725   4.250   0.280
 2901SOL     OW10143   0.768   4.868   1.023
 2901SOL    HW110144   0.690   4.885   1.083
 2901SOL    HW210145   0.802   4.955   0.987
 2902SOL     OW10146   0.850   4.522   1.823
 2902SOL    HW110147   0.846   4.598   1.888
 2902SOL    HW210148   0.872   4.558   1.732
 2903SOL     OW10149   0.685   4.736   0.665
 2903SOL    HW110150   0.754   4.720   0.735
 2903SOL    HW210151   0.612   4.793   0.703
 2904SOL     OW10152   0.686   4.885   1.803
 2904SOL    HW110153   0.746   4.964   1.817
 2904SOL    HW210154   0.600   4.916   1.762
 2905SOL     OW10155   0.335   5.159   1.061
 2905SOL    HW110156   0.257   5.128   1.008
 2905SOL    HW210157   0.393   5.217   1.004
 2906SOL     OW10158   1.460   5.229   1.339
 2906SOL    HW110159   1.484   5.323   1.365
 2906SOL    HW210160   1.444   5.175   1.421
 2907SOL     OW10161   0.438   4.116   1.499
 2907SOL    HW110162   0.520   4.060   1.508
 2907SOL    HW210163   0.357   4.058   1.503
 2908SOL     OW10164   1.603   4.171   0.737
 2908SOL    HW110165   1.529   4.217   0.687
 2908SOL    HW210166   1.654   4.239   0.790
 2909SOL     OW10167   0.231   5.437   0.483
 2909SOL    HW110168   0.265   5.514   0.537
 2909SOL    HW210169   0.275   5.437   0.393
 2910SOL     OW10170   1.127   5.065   1.690
 2910SOL    HW110171   1.174   5.065   1.778
 2910SOL    HW210172   1.079   4.978   1.679
 2911SOL     OW10173   0.230   5.158   0.538
 2911SOL    HW110174   0.204   5.254   0.538
 2911SOL    HW210175   0.159   5.104   0.583
 2912SOL     OW10176   0.240   4.815   0.886
 2912SOL    HW110177   0.254   4.731   0.938
 2912SOL    HW210178   0.185   4.879   0.941
 2913SOL     OW10179   0.620   5.510   1.439
 2913SOL    HW110180   0.528   5.493   1.474
 2913SOL    HW210181   0.648   5.602   1.465
 2914SOL     OW10182   0.606   4.688   0.123
 2914SOL    HW110183   0.613   4.772   0.069
 2914SOL    HW210184   0.652   4.701   0.211
 2915SOL     OW10185   1.594   3.838   1.480
 2915SOL    HW110186   1.576   3.905   1.408
 2915SOL    HW210187   1.591   3.884   1.569
 2916SOL     OW10188   0.122   4.367   0.563
 2916SOL    HW110189   0.077   4.279   0.580
 2916SOL    HW210190   0.121   4.421   0.647
 2917SOL     OW10191   1.842   5.491   0.359
 2917SOL    HW110192   1.896   5.462   0.439
 2917SOL    HW210193   1.872   5.581   0.330
 2918SOL     OW10194   0.027   5.320   0.117
 2918SOL    HW110195   0.008   5.224   0.138
 2918SOL    HW210196  -0.006   5.378   0.192
 2919SOL     OW10197   1.689   4.646   0.612
 2919SOL    HW110198   1.784   4.617   0.620
 2919SOL    HW210199   1.681   4.711   0.537
 2920SOL     OW10200   1.641   4.832   0.432
 2920SOL    HW110201   1.727   4.834   0.380
 2920SOL    HW210202   1.655   4.879   0.520
 2921SOL     OW10203   0.113   4.461   1.597
 2921SOL    HW110204   0.201   4.448   1.642
 2921SOL    HW210205   0.100   4.558   1.575
 2922SOL     OW10206   0.613   5.089   0.726
 2922SOL    HW110207   0.564   5.002   0.735
 2922SOL    HW210208   0.590   5.132   0.639
 2923SOL     OW10209   1.293   4.952   1.423
 2923SOL    HW110210   1.330   4.879   1.365
 2923SOL    HW210211   1.345   4.957   1.508
 2924SOL     OW10212   0.809   3.728   0.502
 2924SOL    HW110213   0.849   3.819   0.493
 2924SOL    HW210214   0.709   3.736   0.508
 2925SOL     OW10215   0.197   4.700   1.264
 2925SOL    HW110216   0.286   4.655   1.250
 2925SOL    HW210217   0.124   4.635   1.245
 2926SOL     OW10218   1.525   4.723   0.190
 2926SOL    HW110219   1.462   4.647   0.203
 2926SOL    HW210220   1.573   4.741   0.276
 2927SOL     OW10221   1.187   5.516   1.616
 2927SOL    HW110222   1.211   5.576   1.540
 2927SOL    HW210223   1.194   5.421   1.586
 2928SOL     OW10224   0.317   3.975   1.801
 2928SOL    HW110225   0.388   4.046   1.807
 2928SOL    HW210226   0.229   4.014   1.829
 2929SOL     OW10227   1.466   5.141   0.953
 2929SOL    HW110228   1.407   5.147   1.033
 2929SOL    HW210229   1.451   5.053   0.907
 2930SOL     OW10230   1.667   5.438   0.572
 2930SOL    HW110231   1.626   5.415   0.484
 2930SOL    HW210232   1.649   5.364   0.637
 2931SOL     OW10233   0.598   4.453   0.270
 2931SOL    HW110234   0.622   4.522   0.202
 2931SOL    HW210235   0.520   4.486   0.324
 2932SOL     OW10236   1.281   4.069   0.944
 2932SOL    HW110237   1.195   4.019   0.931
 2932SOL    HW210238   1.343   4.015   1.000
 2933SOL     OW10239   1.576   5.386   0.307
 2933SOL    HW110240   1.665   5.432   0.310
 2933SOL    HW210241   1.555   5.362   0.212
 2934SOL     OW10242   0.807   4.329   1.465
 2934SOL    HW110243   0.760   4.326   1.554
 2934SOL    HW210244   0.756   4.274   1.399
 2935SOL     OW10245   1.394   4.193   1.674
 2935SOL    HW110246   1.374   4.236   1.762
 2935SOL    HW210247   1.472   4.131   1.683
 2936SOL     OW10248   0.973   4.614   1.572
 2936SOL    HW110249   1.019   4.530   1.543
 2936SOL    HW210250   0.917   4.648   1.497
 2937SOL     OW10251   0.991   4.134   1.242
 2937SOL    HW110252   0.914   4.168   1.296
 2937SOL    HW210253   0.957   4.083   1.163
 2938SOL     OW10254   1.041   4.425   0.429
 2938SOL    HW110255   1.067   4.421   0.525
 2938SOL    HW210256   0.956   4.374   0.415
 2939SOL     OW10257   0.076   4.535   0.789
 2939SOL    HW110258   0.175   4.523   0.798
 2939SOL    HW210259   0.052   4.630   0.810
 2940SOL     OW10260   0.130   5.545   1.571
 2940SOL    HW110261   0.120   5.530   1.670
 2940SOL    HW210262   0.044   5.581   1.535
 2941SOL     OW10263   0.865   4.072   0.195
 2941SOL    HW110264   0.924   4.135   0.146
 2941SOL    HW210265   0.884   3.978   0.166
 2942SOL     OW10266   1.719   4.309   1.831
 2942SOL    HW110267   1.693   4.398   1.795
 2942SOL    HW210268   1.717   4.241   1.758
 2943SOL     OW10269   1.362   4.868   0.545
 2943SOL    HW110270   1.445   4.839   0.497
 2943SOL    HW210271   1.313   4.935   0.489
 2944SOL     OW10272   0.550   3.920   0.885
 2944SOL    HW110273   0.545   3.915   0.985
 2944SOL    HW210274   0.552   4.016   0.856
 2945SOL     OW10275   1.008   5.180   0.477
 2945SOL    HW110276   0.962   5.252   0.425
 2945SOL    HW210277   1.004   5.200   0.575
 2946SOL     OW10278   0.351   5.525   0.853
 2946SOL    HW110279   0.401   5.439   0.859
 2946SOL    HW210280   0.416   5.602   0.850
 2947SOL     OW10281   1.795   4.790   0.873
 2947SOL    HW110282   1.733   4.775   0.797
 2947SOL    HW210283   1.743   4.801   0.958
 2948SOL     OW10284   1.227   5.274   1.506
 2948SOL    HW110285   1.233   5.197   1.570
 2948SOL    HW210286   1.175   5.248   1.426
 2949SOL     OW10287   0.321   4.667   0.242
 2949SOL    HW110288   0.403   4.706   0.200
 2949SOL    HW210289   0.294   4.585   0.193
 2950SOL     OW10290   1.458   4.459   0.728
 2950SOL    HW110291   1.453   4.394   0.803
 2950SOL    HW210292   1.538   4.518   0.741
 2951SOL     OW10293   0.461   4.990   1.727
 2951SOL    HW110294   0.411   4.991   1.641
 2951SOL    HW210295   0.398   4.972   1.803
 2952SOL     OW10296   1.111   5.500   0.237
 2952SOL    HW110297   1.051   5.438   0.287
 2952SOL    HW210298   1.142   5.456   0.152
 2953SOL     OW10299   0.202   4.009   1.498
 2953SOL    HW110300   0.122   4.069   1.485
 2953SOL    HW210301   0.192   3.960   1.584
 2954SOL     OW10302   1.632   5.101   0.081
 2954SOL    HW110303   1.600   5.195   0.071
 2954SOL    HW210304   1.556   5.038   0.069
 2955SOL     OW10305   0.464   5.467   0.323
 2955SOL    HW110306   0.497   5.506   0.409
 2955SOL    HW210307   0.540   5.460   0.258
 2956SOL     OW10308   1.400   3.831   0.426
 2956SOL    HW110309   1.376   3.794   0.336
 2956SOL    HW210310   1.499   3.847   0.430
 2957SOL     OW10311   0.249   5.509   1.241
 2957SOL    HW110312   0.306   5.444   1.291
 2957SOL    HW210313   0.233   5.476   1.148
 2958SOL     OW10314   0.940   5.422   0.904
 2958SOL    HW110315   1.020   5.365   0.925
 2958SOL    HW210316   0.891   5.382   0.827
 2959SOL     OW10317   0.382   4.424   0.480
 2959SOL    HW110318   0.427   4.334   0.477
 2959SOL    HW210319   0.288   4.413   0.513
 2960SOL     OW10320   1.547   3.946   1.729
 2960SOL    HW110321   1.542   3.983   1.821
 2960SOL    HW210322   1.475   3.877   1.717
 2961SOL     OW10323   0.614   3.846   0.117
 2961SOL    HW110324   0.712   3.824   0.124
 2961SOL    HW210325   0.583   3.829   0.024
 2962SOL     OW10326   0.781   3.988   1.749
 2962SOL    HW110327   0.848   3.927   1.792
 2962SOL    HW210328   0.708   4.007   1.814
 2963SOL     OW10329   0.888   5.238   1.195
 2963SOL    HW110330   0.865   5.213   1.101
 2963SOL    HW210331   0.949   5.169   1.234
 2964SOL     OW10332   1.351   4.314   1.433
 2964SOL    HW110333   1.379   4.271   1.518
 2964SOL    HW210334   1.376   4.410   1.434
 2965SOL     OW10335   0.803   5.126   0.924
 2965SOL    HW110336   0.893   5.140   0.882
 2965SOL    HW210337   0.732   5.128   0.853
 2966SOL     OW10338   0.922   4.227   0.899
 2966SOL    HW110339   0.897   4.218   0.803
 2966SOL    HW210340   0.970   4.145   0.930
 2967SOL     OW10341   0.539   3.788   0.512
 2967SOL    HW110342   0.458   3.789   0.570
 2967SOL    HW210343   0.542   3.871   0.457
 2968SOL     OW10344   1.434   4.912   0.041
 2968SOL    HW110345   1.466   4.836   0.098
 2968SOL    HW210346   1.342   4.939   0.071
 2969SOL     OW10347   0.297   3.759   0.171
 2969SOL    HW110348   0.346   3.843   0.150
 2969SOL    HW210349   0.359   3.694   0.216
 2970SOL     OW10350   0.935   3.960   0.480
 2970SOL    HW110351   0.887   4.001   0.402
 2970SOL    HW210352   1.034   3.958   0.461
 2971SOL     OW10353   1.076   4.407   1.464
 2971SOL    HW110354   0.996   4.346   1.467
 2971SOL    HW210355   1.157   4.354   1.440
 2972SOL     OW10356   1.227   5.294   0.793
 2972SOL    HW110357   1.248   5.368   0.728
 2972SOL    HW210358   1.295   5.294   0.866
 2973SOL     OW10359   0.459   4.876   0.741
 2973SOL    HW110360   0.388   4.849   0.806
 2973SOL    HW210361   0.433   4.848   0.648
 2974SOL     OW10362   1.271   5.521   0.591
 2974SOL    HW110363   1.315   5.585   0.527
 2974SOL    HW210364   1.221   5.573   0.661
 2975SOL     OW10365   1.032   4.273   0.016
 2975SOL    HW110366   0.991   4.355  -0.023
 2975SOL    HW210367   1.096   4.299   0.089
 2976SOL     OW10368   0.078   4.280   1.386
 2976SOL    HW110369   0.170   4.279   1.345
 2976SOL    HW210370   0.072   4.354   1.453
 2977SOL     OW10371   0.561   3.946   1.147
 2977SOL    HW110372   0.599   3.862   1.184
 2977SOL    HW210373   0.473   3.965   1.191
 2978SOL     OW10374   0.866   4.178   0.642
 2978SOL    HW110375   0.834   4.250   0.580
 2978SOL    HW210376   0.890   4.097   0.589
 2979SOL     OW10377   1.017   3.763   0.753
 2979SOL    HW110378   0.945   3.768   0.684
 2979SOL    HW210379   0.993   3.694   0.822
 2980SOL     OW10380   1.429   4.897   0.867
 2980SOL    HW110381   1.374   4.813   0.860
 2980SOL    HW210382   1.455   4.926   0.775
 2981SOL     OW10383   1.466   4.314   0.992
 2981SOL    HW110384   1.436   4.219   0.999
 2981SOL    HW210385   1.539   4.330   1.058
 2982SOL     OW10386   1.857   4.557   0.377
 2982SOL    HW110387   1.899   4.493   0.441
 2982SOL    HW210388   1.819   4.506   0.299
 2983SOL     OW10389   0.488   5.109   0.174
 2983SOL    HW110390   0.401   5.094   0.221
 2983SOL    HW210391   0.471   5.135   0.079
 2984SOL     OW10392   1.664   5.004   0.657
 2984SOL    HW110393   1.763   5.012   0.671
 2984SOL    HW210394   1.619   5.088   0.688
 2985SOL     OW10395   1.390   4.299   0.078
 2985SOL    HW110396   1.336   4.278   0.159
 2985SOL    HW210397   1.481   4.258   0.087
 2986SOL     OW10398   0.527   3.980   0.328
 2986SOL    HW110399   0.554   3.921   0.253
 2986SOL    HW210400   0.527   4.075   0.297
 2987SOL     OW10401   1.754   4.947   1.588
 2987SOL    HW110402   1.845   4.908   1.575
 2987SOL    HW210403   1.762   5.043   1.612
 2988SOL     OW10404   1.064   5.071   1.340
 2988SOL    HW110405   0.984   5.048   1.395
 2988SOL    HW210406   1.147   5.045   1.389
 2989SOL     OW10407   1.592   5.353   1.625
 2989SOL    HW110408   1.619   5.387   1.535
 2989SOL    HW210409   1.671   5.315   1.671
 2990SOL     OW10410   1.111   4.919   1.100
 2990SOL    HW110411   1.071   4.963   1.181
 2990SOL    HW210412   1.070   4.956   1.017
 2991SOL     OW10413   1.638   4.823   1.079
 2991SOL    HW110414   1.643   4.904   1.138
 2991SOL    HW210415   1.552   4.825   1.028
 2992SOL     OW10416   0.915   3.813   1.402
 2992SOL    HW110417   0.940   3.793   1.307
 2992SOL    HW210418   0.987   3.869   1.444
 2993SOL     OW10419   0.980   4.840   1.719
 2993SOL    HW110420   0.881   4.846   1.729
 2993SOL    HW210421   1.003   4.760   1.663
 2994SOL     OW10422   0.705   4.774   0.368
 2994SOL    HW110423   0.691   4.781   0.467
 2994SOL    HW210424   0.789   4.723   0.350
 2995SOL     OW10425   0.410   4.537   1.251
 2995SOL    HW110426   0.496   4.549   1.301
 2995SOL    HW210427   0.368   4.450   1.278
 2996SOL     OW10428   1.274   4.110   1.262
 2996SOL    HW110429   1.295   4.184   1.326
 2996SOL    HW210430   1.185   4.127   1.219
 2997SOL     OW10431   0.064   5.288   1.331
 2997SOL    HW110432   0.018   5.370   1.297
 2997SOL    HW210433   0.162   5.307   1.340
 2998SOL     OW10434   0.367   4.824   0.501
 2998SOL    HW110435   0.360   4.907   0.445
 2998SOL    HW210436   0.371   4.744   0.441
 2999SOL     OW10437   0.566   4.261   0.865
 2999SOL    HW110438   0.578   4.327   0.791
 2999SOL    HW210439   0.612   4.295   0.948
 3000SOL     OW10440   1.252   5.072   0.388
 3000SOL    HW110441   1.302   5.149   0.428
 3000SOL    HW210442   1.157   5.074   0.420
 3001SOL     OW10443   1.272   5.169   1.142
 3001SOL    HW110444   1.319   5.182   1.229
 3001SOL    HW210445   1.206   5.095   1.151
 3002SOL     OW10446   1.582   4.363   0.472
 3002SOL    HW110447   1.551   4.424   0.545
 3002SOL    HW210448   1.632   4.415   0.403
 3003SOL     OW10449   0.354   5.234   1.329
 3003SOL    HW110450   0.333   5.190   1.242
 3003SOL    HW210451   0.451   5.260   1.332
 3004SOL     OW10452   0.402   4.475   1.598
 3004SOL    HW110453   0.470   4.530   1.551
 3004SOL    HW210454   0.442   4.387   1.625
 3005SOL     OW10455   1.587   4.503   1.670
 3005SOL    HW110456   1.495   4.541   1.665
 3005SOL    HW210457   1.647   4.550   1.605
 3006SOL     OW10458   1.013   3.829   1.770
 3006SOL    HW110459   1.019   3.914   1.718
 3006SOL    HW210460   1.045   3.753   1.713
 3007SOL     OW10461   0.504   3.774   1.740
 3007SOL    HW110462   0.462   3.717   1.670
 3007SOL    HW210463   0.438   3.843   1.772
 3008SOL     OW10464   0.573   4.594   1.029
 3008SOL    HW110465   0.617   4.683   1.020
 3008SOL    HW210466   0.510   4.594   1.106
 3009SOL     OW10467   1.360   4.586   1.045
 3009SOL    HW110468   1.285   4.586   0.979
 3009SOL    HW210469   1.397   4.494   1.054
 3010SOL     OW10470   1.209   4.249   0.275
 3010SOL    HW110471   1.222   4.165   0.329
 3010SOL    HW210472   1.180   4.323   0.335
 3011SOL     OW10473   0.307   3.937   1.231
 3011SOL    HW110474   0.284   3.974   1.321
 3011SOL    HW210475   0.277   3.842   1.225
 3012SOL     OW10476   0.037   5.034   1.282
 3012SOL    HW110477   0.090   4.985   1.350
 3012SOL    HW210478   0.059   5.132   1.287
 3013SOL     OW10479   0.732   4.358   1.064
 3013SOL    HW110480   0.791   4.332   0.988
 3013SOL    HW210481   0.704   4.454   1.053
 3014SOL     OW10482   1.728   4.659   1.854
 3014SOL    HW110483   1.682   4.652   1.765
 3014SOL    HW210484   1.666   4.703   1.920
 3015SOL     OW10485   0.307   3.787   0.618
 3015SOL    HW110486   0.296   3.881   0.651
 3015SOL    HW210487   0.302   3.724   0.695
 3016SOL     OW10488   1.622   4.091   0.374
 3016SOL    HW110489   1.624   4.015   0.438
 3016SOL    HW210490   1.574   4.168   0.414
 3017SOL     OW10491   1.023   4.490   0.966
 3017SOL    HW110492   1.038   4.511   1.062
 3017SOL    HW210493   0.993   4.395   0.957
 3018SOL     OW10494   0.980   5.297   1.700
 3018SOL    HW110495   0.960   5.341   1.612
 3018SOL    HW210496   1.019   5.206   1.684
 3019SOL     OW10497   1.859   5.242   1.605
 3019SOL    HW110498   1.873   5.269   1.510
 3019SOL    HW210499   1.942   5.264   1.658
 3020SOL     OW10500   0.350   4.622   1.804
 3020SOL    HW110501   0.426   4.666   1.852
 3020SOL    HW210502   0.385   4.575   1.722
 3021SOL     OW10503   1.540   3.998   0.125
 3021SOL    HW110504   1.479   3.923   0.148
 3021SOL    HW210505   1.562   4.050   0.208
 3022SOL     OW10506   1.303   4.562   0.042
 3022SOL    HW110507   1.337   4.469   0.057
 3022SOL    HW210508   1.321   4.589  -0.053
 3023SOL     OW10509   1.068   5.057   0.849
 3023SOL    HW110510   1.075   4.973   0.794
 3023SOL    HW210511   1.130   5.126   0.813
 3024SOL     OW10512   0.319   4.534   0.949
 3024SOL    HW110513   0.412   4.570   0.954
 3024SOL    HW210514   0.313   4.449   1.001
 3025SOL     OW10515   0.339   4.233   1.006
 3025SOL    HW110516   0.287   4.150   0.989
 3025SOL    HW210517   0.416   4.238   0.942
 3026SOL     OW10518   1.138   4.104   1.678
 3026SOL    HW110519   1.093   4.167   1.742
 3026SOL    HW210520   1.231   4.135   1.661
 3027SOL     OW10521   1.160   3.931   1.477
 3027SOL    HW110522   1.160   3.995   1.554
 3027SOL    HW210523   1.188   3.979   1.394
 3028SOL     OW10524   0.008   5.050   0.200
 3028SOL    HW110525  -0.085   5.071   0.169
 3028SOL    HW210526   0.018   4.951   0.213
 3029SOL     OW10527   0.088   5.525   0.927
 3029SOL    HW110528   0.046   5.439   0.900
 3029SOL    HW210529   0.182   5.528   0.893
 3030SOL     OW10530   0.504   5.292   0.910
 3030SOL    HW110531   0.570   5.366   0.919
 3030SOL    HW210532   0.548   5.213   0.868
 3031SOL     OW10533   1.002   4.520   1.238
 3031SOL    HW110534   1.043   4.488   1.324
 3031SOL    HW210535   0.906   4.493   1.235
 3032SOL     OW10536   0.040   4.268   1.114
 3032SOL    HW110537   0.125   4.235   1.073
 3032SOL    HW210538   0.053   4.283   1.212
 3033SOL     OW10539   0.189   4.244   1.722
 3033SOL    HW110540   0.248   4.204   1.652
 3033SOL    HW210541   0.131   4.315   1.681
 3034SOL     OW10542   1.369   4.674   1.660
 3034SOL    HW110543   1.408   4.763   1.680
 3034SOL    HW210544   1.379   4.654   1.563
 3035SOL     OW10545   0.815   4.296   0.325
 3035SOL    HW110546   0.822   4.207   0.279
 3035SOL    HW210547   0.721   4.330   0.317
 3036SOL     OW10548   1.657   4.328   1.206
 3036SOL    HW110549   1.619   4.259   1.268
 3036SOL    HW210550   1.739   4.292   1.162
 3037SOL     OW10551   0.252   5.288   1.744
 3037SOL    HW110552   0.222   5.345   1.820
 3037SOL    HW210553   0.245   5.191   1.770
 3038SOL     OW10554   0.671   4.188   1.269
 3038SOL    HW110555   0.637   4.099   1.239
 3038SOL    HW210556   0.697   4.242   1.189
 3039SOL     OW10557   0.930   5.402   1.465
 3039SOL    HW110558   0.906   5.384   1.370
 3039SOL    HW210559   0.960   5.496   1.475
 3040SOL     OW10560   0.473   4.224   0.191
 3040SOL    HW110561   0.534   4.304   0.195
 3040SOL    HW210562   0.378   4.255   0.198
 3041SOL     OW10563   0.159   4.861   1.466
 3041SOL    HW110564   0.181   4.800   1.542
 3041SOL    HW210565   0.169   4.812   1.380
 3042SOL     OW10566   1.347   4.783   1.234
 3042SOL    HW110567   1.371   4.720   1.160
 3042SOL    HW210568   1.257   4.823   1.216
 3043SOL     OW10569   1.302   4.579   0.309
 3043SOL    HW110570   1.216   4.548   0.351
 3043SOL    HW210571   1.298   4.565   0.210
 3044SOL     OW10572   1.759   5.471   1.154
 3044SOL    HW110573   1.820   5.501   1.081
 3044SOL    HW210574   1.721   5.382   1.132
 3045SOL     OW10575   1.252   5.455   1.128
 3045SOL    HW110576   1.336   5.460   1.074
 3045SOL    HW210577   1.229   5.359   1.146
 3046SOL     OW10578   0.083   4.982   1.022
 3046SOL    HW110579   0.078   4.981   1.122
 3046SOL    HW210580   0.000   4.941   0.984
 3047SOL     OW10581   0.688   5.386   1.716
 3047SOL    HW110582   0.632   5.467   1.725
 3047SOL    HW210583   0.740   5.390   1.630
 3048SOL     OW10584   0.903   3.810   0.133
 3048SOL    HW110585   0.954   3.811   0.047
 3048SOL    HW210586   0.959   3.768   0.204
 3049SOL     OW10587   1.726   3.859   0.523
 3049SOL    HW110588   1.799   3.842   0.456
 3049SOL    HW210589   1.695   3.772   0.561
 3050SOL     OW10590   1.388   5.297   0.477
 3050SOL    HW110591   1.455   5.309   0.403
 3050SOL    HW210592   1.348   5.386   0.500
 3051SOL     OW10593   0.130   5.518   1.851
 3051SOL    HW110594   0.089   5.444   1.904
 3051SOL    HW210595   0.194   5.569   1.909
 3052SOL     OW10596   1.280   4.651   0.672
 3052SOL    HW110597   1.340   4.570   0.674
 3052SOL    HW210598   1.320   4.720   0.612
 3053SOL     OW10599   0.830   4.997   1.422
 3053SOL    HW110600   0.825   5.030   1.517
 3053SOL    HW210601   0.744   5.016   1.376
 3054SOL     OW10602   0.672   5.340   0.154
 3054SOL    HW110603   0.681   5.350   0.055
 3054SOL    HW210604   0.632   5.251   0.175
 3055SOL     OW10605   1.650   5.444   1.394
 3055SOL    HW110606   1.703   5.454   1.310
 3055SOL    HW210607   1.623   5.534   1.428
 3056SOL     OW10608   1.841   3.899   0.963
 3056SOL    HW110609   1.880   3.814   0.927
 3056SOL    HW210610   1.743   3.901   0.944
 3057SOL     OW10611   0.263   4.050   0.720
 3057SOL    HW110612   0.184   4.101   0.686
 3057SOL    HW210613   0.254   4.035   0.818
 3058SOL     OW10614   1.194   5.336   0.031
 3058SOL    HW110615   1.200   5.243   0.068
 3058SOL    HW210616   1.135   5.336  -0.049
 3059SOL     OW10617   0.822   4.726   1.372
 3059SOL    HW110618   0.862   4.725   1.280
 3059SOL    HW210619   0.832   4.818   1.412
 3060SOL     OW10620   0.916   4.634   0.291
 3060SOL    HW110621   0.979   4.672   0.223
 3060SOL    HW210622   0.956   4.551   0.330
 3061SOL     OW10623   1.504   5.331   0.044
 3061SOL    HW110624   1.412   5.368   0.051
 3061SOL    HW210625   1.542   5.351  -0.046
 3062SOL     OW10626   0.372   5.012   1.490
 3062SOL    HW110627   0.359   5.105   1.456
 3062SOL    HW210628   0.288   4.960   1.477
 3063SOL     OW10629   1.614   5.016   1.289
 3063SOL    HW110630   1.674   5.019   1.369
 3063SOL    HW210631   1.539   5.080   1.302
 3064SOL     OW10632   1.039   4.822   0.696
 3064SOL    HW110633   0.969   4.775   0.750
 3064SOL    HW210634   1.098   4.754   0.653
 3065SOL     OW10635   1.014   3.960   0.971
 3065SOL    HW110636   1.006   3.924   0.878
 3065SOL    HW210637   1.012   3.884   1.036
 3066SOL     OW10638   0.590   5.211   0.491
 3066SOL    HW110639   0.632   5.153   0.421
 3066SOL    HW210640   0.546   5.290   0.447
 3067SOL     OW10641   1.709   4.109   1.381
 3067SOL    HW110642   1.782   4.178   1.385
 3067SOL    HW210643   1.737   4.034   1.322
 3068SOL     OW10644   0.255   5.072   0.290
 3068SOL    HW110645   0.159   5.073   0.263
 3068SOL    HW210646   0.267   5.125   0.374
 3069SOL     OW10647   0.105   4.737   1.726
 3069SOL    HW110648   0.028   4.704   1.780
 3069SOL    HW210649   0.190   4.707   1.768
 3070SOL     OW10650   0.672   3.927   1.489
 3070SOL    HW110651   0.762   3.911   1.449
 3070SOL    HW210652   0.680   3.932   1.588
 3071SOL     OW10653   0.075   4.069   0.033
 3071SOL    HW110654  -0.017   4.041   0.004
 3071SOL    HW210655   0.106   4.146  -0.023
 3072SOL     OW10656   1.440   4.580   1.398
 3072SOL    HW110657   1.383   4.632   1.335
 3072SOL    HW210658   1.536   4.592   1.374
 3073SOL     OW10659   0.072   3.890   0.318
 3073SOL    HW110660   0.055   3.973   0.264
 3073SOL    HW210661   0.162   3.853   0.296
 3074SOL     OW10662   1.183   5.059   0.119
 3074SOL    HW110663   1.084   5.048   0.121
 3074SOL    HW210664   1.217   5.074   0.212
 3075SOL     OW10665   0.613   4.566   1.431
 3075SOL    HW110666   0.669   4.647   1.414
 3075SOL    HW210667   0.672   4.486   1.434
 3076SOL     OW10668   1.493   5.491   0.959
 3076SOL    HW110669   1.526   5.555   0.890
 3076SOL    HW210670   1.559   5.485   1.034
 3077SOL     OW10671   0.716   4.289   1.708
 3077SOL    HW110672   0.735   4.354   1.782
 3077SOL    HW210673   0.776   4.209   1.717
 3078SOL     OW10674   1.450   4.944   1.633
 3078SOL    HW110675   1.441   4.934   1.732
 3078SOL    HW210676   1.546   4.937   1.607
 3079SOL     OW10677   0.390   5.465   1.560
 3079SOL    HW110678   0.299   5.506   1.558
 3079SOL    HW210679   0.383   5.371   1.592
 3080SOL     OW10680   1.674   4.607   1.254
 3080SOL    HW110681   1.647   4.518   1.217
 3080SOL    HW210682   1.675   4.675   1.181
 3081SOL     OW10683   1.225   4.049   0.449
 3081SOL    HW110684   1.290   3.975   0.438
 3081SOL    HW210685   1.245   4.099   0.533
 3082SOL     OW10686   0.594   4.469   0.652
 3082SOL    HW110687   0.644   4.554   0.633
 3082SOL    HW210688   0.506   4.471   0.604
 3083SOL     OW10689   1.777   4.066   1.642
 3083SOL    HW110690   1.760   4.097   1.548
 3083SOL    HW210691   1.693   4.029   1.680
 3084SOL     OW10692   1.730   4.658   1.517
 3084SOL    HW110693   1.768   4.749   1.532
 3084SOL    HW210694   1.722   4.641   1.418
 3085SOL     OW10695   0.859   5.098   0.016
 3085SOL    HW110696   0.813   5.113   0.104
 3085SOL    HW210697   0.903   5.183  -0.014
 3086SOL     OW10698   0.661   5.514   0.953
 3086SOL    HW110699   0.615   5.602   0.940
 3086SOL    HW210700   0.760   5.526   0.946
 3087SOL     OW10701   0.859   4.680   0.861
 3087SOL    HW110702   0.913   4.611   0.909
 3087SOL    HW210703   0.827   4.749   0.927
 3088SOL     OW10704   1.083   4.708   0.087
 3088SOL    HW110705   1.060   4.761   0.005
 3088SOL    HW210706   1.164   4.652   0.068
 3089SOL     OW10707   1.861   5.293   0.851
 3089SOL    HW110708   1.790   5.281   0.781
 3089SOL    HW210709   1.862   5.214   0.911
 3090SOL     OW10710   0.221   5.038   1.844
 3090SOL    HW110711   0.156   4.965   1.823
 3090SOL    HW210712   0.225   5.052   1.942
 3091SOL     OW10713   0.079   4.964   0.653
 3091SOL    HW110714   0.078   4.917   0.741
 3091SOL    HW210715   0.161   4.936   0.602
 3092SOL     OW10716   0.672   5.115   1.624
 3092SOL    HW110717   0.594   5.065   1.662
 3092SOL    HW210718   0.669   5.210   1.655
 3093SOL     OW10719   1.824   3.916   1.227
 3093SOL    HW110720   1.820   3.826   1.271
 3093SOL    HW210721   1.827   3.905   1.128
 3094SOL     OW10722   0.428   4.148   0.520
 3094SOL    HW110723   0.458   4.076   0.458
 3094SOL    HW210724   0.389   4.108   0.603
 3095SOL     OW10725   1.705   5.211   1.104
 3095SOL    HW110726   1.612   5.186   1.077
 3095SOL    HW210727   1.731   5.161   1.186
 3096SOL     OW10728   0.317   4.271   1.280
 3096SOL    HW110729   0.355   4.212   1.352
 3096SOL    HW210730   0.357   4.245   1.192
 3097SOL     OW10731   0.812   5.310   0.687
 3097SOL    HW110732   0.844   5.320   0.593
 3097SOL    HW210733   0.733   5.248   0.689
 3098SOL     OW10734   1.424   3.938   1.112
 3098SOL    HW110735   1.476   3.873   1.167
 3098SOL    HW210736   1.375   4.001   1.173
 3099SOL     OW10737   1.001   3.758   1.154
 3099SOL    HW110738   0.938   3.686   1.123
 3099SOL    HW210739   1.094   3.722   1.154
 3100SOL     OW10740   0.770   5.054   0.301
 3100SOL    HW110741   0.724   4.967   0.318
 3100SOL    HW210742   0.861   5.051   0.342
 3101SOL     OW10743   0.618   5.291   1.284
 3101SOL    HW110744   0.613   5.373   1.341
 3101SOL    HW210745   0.707   5.288   1.239
 3102SOL     OW10746   1.352   3.776   0.168
 3102SOL    HW110747   1.387   3.735   0.084
 3102SOL    HW210748   1.262   3.738   0.188
 3103SOL     OW10749   1.300   4.177   0.691
 3103SOL    HW110750   1.241   4.257   0.695
 3103SOL    HW210751   1.315   4.142   0.784
 3104SOL     OW10752   1.593   3.945   0.882
 3104SOL    HW110753   1.509   3.944   0.936
 3104SOL    HW210754   1.595   4.028   0.826
 3105SOL     OW10755   0.039   4.801   0.300
 3105SOL    HW110756   0.138   4.790   0.291
 3105SOL    HW210757  -0.001   4.715   0.332
 3106SOL     OW10758   0.875   5.370   0.337
 3106SOL    HW110759   0.798   5.335   0.283
 3106SOL    HW210760   0.843   5.441   0.399
 3107SOL     OW10761   0.230   4.352   1.975
 3107SOL    HW110762   0.137   4.350   2.012
 3107SOL    HW210763   0.231   4.313   1.883
 3108SOL     OW10764   0.225   3.999   2.858
 3108SOL    HW110765   0.260   3.982   2.950
 3108SOL    HW210766   0.137   3.954   2.846
 3109SOL     OW10767   0.019   4.092   2.509
 3109SOL    HW110768  -0.063   4.135   2.548
 3109SOL    HW210769  -0.009   4.019   2.446
 3110SOL     OW10770   0.569   4.999   3.027
 3110SOL    HW110771   0.476   4.992   2.990
 3110SOL    HW210772   0.580   5.088   3.071
 3111SOL     OW10773   1.555   5.235   2.565
 3111SOL    HW110774   1.498   5.219   2.646
 3111SOL    HW210775   1.496   5.245   2.485
 3112SOL     OW10776   1.135   4.427   2.579
 3112SOL    HW110777   1.192   4.505   2.554
 3112SOL    HW210778   1.075   4.453   2.655
 3113SOL     OW10779   1.755   4.331   2.093
 3113SOL    HW110780   1.743   4.318   1.994
 3113SOL    HW210781   1.725   4.250   2.142
 3114SOL     OW10782   0.768   4.868   2.885
 3114SOL    HW110783   0.690   4.885   2.945
 3114SOL    HW210784   0.802   4.955   2.849
 3115SOL     OW10785   0.850   4.522   3.685
 3115SOL    HW110786   0.846   4.598   3.750
 3115SOL    HW210787   0.872   4.558   3.594
 3116SOL     OW10788   0.685   4.736   2.527
 3116SOL    HW110789   0.754   4.720   2.597
 3116SOL    HW210790   0.612   4.793   2.565
 3117SOL     OW10791   0.686   4.885   3.665
 3117SOL    HW110792   0.746   4.964   3.679
 3117SOL    HW210793   0.600   4.916   3.624
 3118SOL     OW10794   0.335   5.159   2.923
 3118SOL    HW110795   0.257   5.128   2.870
 3118SOL    HW210796   0.393   5.217   2.866
 3119SOL     OW10797   1.460   5.229   3.201
 3119SOL    HW110798   1.484   5.323   3.227
 3119SOL    HW210799   1.444   5.175   3.283
 3120SOL     OW10800   0.438   4.116   3.361
 3120SOL    HW110801   0.520   4.060   3.370
 3120SOL    HW210802   0.357   4.058   3.365
 3121SOL     OW10803   1.603   4.171   2.599
 3121SOL    HW110804   1.529   4.217   2.549
 3121SOL    HW210805   1.654   4.239   2.652
 3122SOL     OW10806   0.231   5.437   2.345
 3122SOL    HW110807   0.265   5.514   2.399
 3122SOL    HW210808   0.275   5.437   2.255
 3123SOL     OW10809   1.127   5.065   3.552
 3123SOL    HW110810   1.174   5.065   3.640
 3123SOL    HW210811   1.079   4.978   3.541
 3124SOL     OW10812   0.230   5.158   2.400
 3124SOL    HW110813   0.204   5.254   2.400
 3124SOL    HW210814   0.159   5.104   2.445
 3125SOL     OW10815   0.240   4.815   2.748
 3125SOL    HW110816   0.254   4.731   2.800
 3125SOL    HW210817   0.185   4.879   2.803
 3126SOL     OW10818   0.620   5.510   3.301
 3126SOL    HW110819   0.528   5.493   3.336
 3126SOL    HW210820   0.648   5.602   3.327
 3127SOL     OW10821   0.606   4.688   1.985
 3127SOL    HW110822   0.613   4.772   1.931
 3127SOL    HW210823   0.652   4.701   2.073
 3128SOL     OW10824   1.594   3.838   3.342
 3128SOL    HW110825   1.576   3.905   3.270
 3128SOL    HW210826   1.591   3.884   3.431
 3129SOL     OW10827   0.122   4.367   2.425
 3129SOL    HW110828   0.077   4.279   2.442
 3129SOL    HW210829   0.121   4.421   2.509
 3130SOL     OW10830   1.842   5.491   2.221
 3130SOL    HW110831   1.896   5.462   2.301
 3130SOL    HW210832   1.872   5.581   2.192
 3131SOL     OW10833   0.027   5.320   1.979
 3131SOL    HW110834   0.008   5.224   2.000
 3131SOL    HW210835  -0.006   5.378   2.054
 3132SOL     OW10836   1.689   4.646   2.474
 3132SOL    HW110837   1.784   4.617   2.482
 3132SOL    HW210838   1.681   4.711   2.399
 3133SOL     OW10839   1.641   4.832   2.294
 3133SOL    HW110840   1.727   4.834   2.242
 3133SOL    HW210841   1.655   4.879   2.382
 3134SOL     OW10842   0.113   4.461   3.459
 3134SOL    HW110843   0.201   4.448   3.504
 3134SOL    HW210844   0.100   4.558   3.437
 3135SOL     OW10845   0.613   5.089   2.588
 3135SOL    HW110846   0.564   5.002   2.597
 3135SOL    HW210847   0.590   5.132   2.501
 3136SOL     OW10848   1.293   4.952   3.285
 3136SOL    HW110849   1.330   4.879   3.227
 3136SOL    HW210850   1.345   4.957   3.370
 3137SOL     OW10851   0.809   3.728   2.364
 3137SOL    HW110852   0.849   3.819   2.355
 3137SOL    HW210853   0.709   3.736   2.370
 3138SOL     OW10854   0.197   4.700   3.126
 3138SOL    HW110855   0.286   4.655   3.112
 3138SOL    HW210856   0.124   4.635   3.107
 3139SOL     OW10857   1.525   4.723   2.052
 3139SOL    HW110858   1.462   4.647   2.065
 3139SOL    HW210859   1.573   4.741   2.138
 3140SOL     OW10860   1.187   5.516   3.478
 3140SOL    HW110861   1.211   5.576   3.402
 3140SOL    HW210862   1.194   5.421   3.448
 3141SOL     OW10863   0.317   3.975   3.663
 3141SOL    HW110864   0.388   4.046   3.669
 3141SOL    HW210865   0.229   4.014   3.691
 3142SOL     OW10866   1.466   5.141   2.815
 3142SOL    HW110867   1.407   5.147   2.895
 3142SOL    HW210868   1.451   5.053   2.769
 3143SOL     OW10869   1.667   5.438   2.434
 3143SOL    HW110870   1.626   5.415   2.346
 3143SOL    HW210871   1.649   5.364   2.499
 3144SOL     OW10872   0.598   4.453   2.132
 3144SOL    HW110873   0.622   4.522   2.064
 3144SOL    HW210874   0.520   4.486   2.186
 3145SOL     OW10875   1.281   4.069   2.806
 3145SOL    HW110876   1.195   4.019   2.793
 3145SOL    HW210877   1.343   4.015   2.862
 3146SOL     OW10878   1.576   5.386   2.169
 3146SOL    HW110879   1.665   5.432   2.172
 3146SOL    HW210880   1.555   5.362   2.074
 3147SOL     OW10881   0.807   4.329   3.327
 3147SOL    HW110882   0.760   4.326   3.416
 3147SOL    HW210883   0.756   4.274   3.261
 3148SOL     OW10884   1.394   4.193   3.536
 3148SOL    HW110885   1.374   4.236   3.624
 3148SOL    HW210886   1.472   4.131   3.545
 3149SOL     OW10887   0.973   4.614   3.434
 3149SOL    HW110888   1.019   4.530   3.405
 3149SOL    HW210889   0.917   4.648   3.359
 3150SOL     OW10890   0.991   4.134   3.104
 3150SOL    HW110891   0.914   4.168   3.158
 3150SOL    HW210892   0.957   4.083   3.025
 3151SOL     OW10893   1.041   4.425   2.291
 3151SOL    HW110894   1.067   4.421   2.387
 3151SOL    HW210895   0.956   4.374   2.277
 3152SOL     OW10896   0.076   4.535   2.651
 3152SOL    HW110897   0.175   4.523   2.660
 3152SOL    HW210898   0.052   4.630   2.672
 3153SOL     OW10899   0.130   5.545   3.433
 3153SOL    HW110900   0.120   5.530   3.532
 3153SOL    HW210901   0.044   5.581   3.397
 3154SOL     OW10902   0.865   4.072   2.057
 3154SOL    HW110903   0.924   4.135   2.008
 3154SOL    HW210904   0.884   3.978   2.028
 3155SOL     OW10905   1.719   4.309   3.693
 3155SOL    HW110906   1.693   4.398   3.657
 3155SOL    HW210907   1.717   4.241   3.620
 3156SOL     OW10908   1.362   4.868   2.407
 3156SOL    HW110909   1.445   4.839   2.359
 3156SOL    HW210910   1.313   4.935   2.351
 3157SOL     OW10911   0.550   3.920   2.747
 3157SOL    HW110912   0.545   3.915   2.847
 3157SOL    HW210913   0.552   4.016   2.718
 3158SOL     OW10914   1.008   5.180   2.339
 3158SOL    HW110915   0.962   5.252   2.287
 3158SOL    HW210916   1.004   5.200   2.437
 3159SOL     OW10917   0.351   5.525   2.715
 3159SOL    HW110918   0.401   5.439   2.721
 3159SOL    HW210919   0.416   5.602   2.712
 3160SOL     OW10920   1.795   4.790   2.735
 3160SOL    HW110921   1.733   4.775   2.659
 3160SOL    HW210922   1.743   4.801   2.820
 3161SOL     OW10923   1.227   5.274   3.368
 3161SOL    HW110924   1.233   5.197   3.432
 3161SOL    HW210925   1.175   5.248   3.288
 3162SOL     OW10926   0.321   4.667   2.104
 3162SOL    HW110927   0.403   4.706   2.062
 3162SOL    HW210928   0.294   4.585   2.055
 3163SOL     OW10929   1.458   4.459   2.590
 3163SOL    HW110930   1.453   4.394   2.665
 3163SOL    HW210931   1.538   4.518   2.603
 3164SOL     OW10932   0.461   4.990   3.589
 3164SOL    HW110933   0.411   4.991   3.503
 3164SOL    HW210934   0.398   4.972   3.665
 3165SOL     OW10935   1.111   5.500   2.099
 3165SOL    HW110936   1.051   5.438   2.149
 3165SOL    HW210937   1.142   5.456   2.014
 3166SOL     OW10938   0.202   4.009   3.360
 3166SOL    HW110939   0.122   4.069   3.347
 3166SOL    HW210940   0.192   3.960   3.446
 3167SOL     OW10941   1.632   5.101   1.943
 3167SOL    HW110942   1.600   5.195   1.933
 3167SOL    HW210943   1.556   5.038   1.931
 3168SOL     OW10944   0.464   5.467   2.185
 3168SOL    HW110945   0.497   5.506   2.271
 3168SOL    HW210946   0.540   5.460   2.120
 3169SOL     OW10947   1.400   3.831   2.288
 3169SOL    HW110948   1.376   3.794   2.198
 3169SOL    HW210949   1.499   3.847   2.292
 3170SOL     OW10950   0.249   5.509   3.103
 3170SOL    HW110951   0.306   5.444   3.153
 3170SOL    HW210952   0.233   5.476   3.010
 3171SOL     OW10953   0.940   5.422   2.766
 3171SOL    HW110954   1.020   5.365   2.787
 3171SOL    HW210955   0.891   5.382   2.689
 3172SOL     OW10956   0.382   4.424   2.342
 3172SOL    HW110957   0.427   4.334   2.339
 3172SOL    HW210958   0.288   4.413   2.375
 3173SOL     OW10959   1.547   3.946   3.591
 3173SOL    HW110960   1.542   3.983   3.683
 3173SOL    HW210961   1.475   3.877   3.579
 3174SOL     OW10962   0.614   3.846   1.979
 3174SOL    HW110963   0.712   3.824   1.986
 3174SOL    HW210964   0.583   3.829   1.886
 3175SOL     OW10965   0.781   3.988   3.611
 3175SOL    HW110966   0.848   3.927   3.654
 3175SOL    HW210967   0.708   4.007   3.676
 3176SOL     OW10968   0.888   5.238   3.057
 3176SOL    HW110969   0.865   5.213   2.963
 3176SOL    HW210970   0.949   5.169   3.096
 3177SOL     OW10971   1.351   4.314   3.295
 3177SOL    HW110972   1.379   4.271   3.380
 3177SOL    HW210973   1.376   4.410   3.296
 3178SOL     OW10974   0.803   5.126   2.786
 3178SOL    HW110975   0.893   5.140   2.744
 3178SOL    HW210976   0.732   5.128   2.715
 3179SOL     OW10977   0.922   4.227   2.761
 3179SOL    HW110978   0.897   4.218   2.665
 3179SOL    HW210979   0.970   4.145   2.792
 3180SOL     OW10980   0.539   3.788   2.374
 3180SOL    HW110981   0.458   3.789   2.432
 3180SOL    HW210982   0.542   3.871   2.319
 3181SOL     OW10983   1.434   4.912   1.903
 3181SOL    HW110984   1.466   4.836   1.960
 3181SOL    HW210985   1.342   4.939   1.933
 3182SOL     OW10986   0.297   3.759   2.033
 3182SOL    HW110987   0.346   3.843   2.012
 3182SOL    HW210988   0.359   3.694   2.078
 3183SOL     OW10989   0.935   3.960   2.342
 3183SOL    HW110990   0.887   4.001   2.264
 3183SOL    HW210991   1.034   3.958   2.323
 3184SOL     OW10992   1.076   4.407   3.326
 3184SOL    HW110993   0.996   4.346   3.329
 3184SOL    HW210994   1.157   4.354   3.302
 3185SOL     OW10995   1.227   5.294   2.655
 3185SOL    HW110996   1.248   5.368   2.590
 3185SOL    HW210997   1.295   5.294   2.728
 3186SOL     OW10998   0.459   4.876   2.603
 3186SOL    HW110999   0.388   4.849   2.668
 3186SOL    HW211000   0.433   4.848   2.510
 3187SOL     OW11001   1.271   5.521   2.453
 3187SOL    HW111002   1.315   5.585   2.389
 3187SOL    HW211003   1.221   5.573   2.523
 3188SOL     OW11004   1.032   4.273   1.878
 3188SOL    HW111005   0.991   4.355   1.839
 3188SOL    HW211006   1.096   4.299   1.951
 3189SOL     OW11007   0.078   4.280   3.248
 3189SOL    HW111008   0.170   4.279   3.207
 3189SOL    HW211009   0.072   4.354   3.315
 3190SOL     OW11010   0.561   3.946   3.009
 3190SOL    HW111011   0.599   3.862   3.046
 3190SOL    HW211012   0.473   3.965   3.053
 3191SOL     OW11013   0.866   4.178   2.504
 3191SOL    HW111014   0.834   4.250   2.442
 3191SOL    HW211015   0.890   4.097   2.451
 3192SOL     OW11016   1.017   3.763   2.615
 3192SOL    HW111017   0.945   3.768   2.546
 3192SOL    HW211018   0.993   3.694   2.684
 3193SOL     OW11019   1.429   4.897   2.729
 3193SOL    HW111020   1.374   4.813   2.722
 3193SOL    HW211021   1.455   4.926   2.637
 3194SOL     OW11022   1.466   4.314   2.854
 3194SOL    HW111023   1.436   4.219   2.861
 3194SOL    HW211024   1.539   4.330   2.920
 3195SOL     OW11025   1.857   4.557   2.239
 3195SOL    HW111026   1.899   4.493   2.303
 3195SOL    HW211027   1.819   4.506   2.161
 3196SOL     OW11028   0.488   5.109   2.036
 3196SOL    HW111029   0.401   5.094   2.083
 3196SOL    HW211030   0.471   5.135   1.941
 3197SOL     OW11031   1.664   5.004   2.519
 3197SOL    HW111032   1.763   5.012   2.533
 3197SOL    HW211033   1.619   5.088   2.550
 3198SOL     OW11034   1.390   4.299   1.940
 3198SOL    HW111035   1.336   4.278   2.021
 3198SOL    HW211036   1.481   4.258   1.949
 3199SOL     OW11037   0.527   3.980   2.190
 3199SOL    HW111038   0.554   3.921   2.115
 3199SOL    HW211039   0.527   4.075   2.159
 3200SOL     OW11040   1.754   4.947   3.450
 3200SOL    HW111041   1.845   4.908   3.437
 3200SOL    HW211042   1.762   5.043   3.474
 3201SOL     OW11043   1.064   5.071   3.202
 3201SOL    HW111044   0.984   5.048   3.257
 3201SOL    HW211045   1.147   5.045   3.251
 3202SOL     OW11046   1.592   5.353   3.487
 3202SOL    HW111047   1.619   5.387   3.397
 3202SOL    HW211048   1.671   5.315   3.533
 3203SOL     OW11049   1.111   4.919   2.962
 3203SOL    HW111050   1.071   4.963   3.043
 3203SOL    HW211051   1.070   4.956   2.879
 3204SOL     OW11052   1.638   4.823   2.941
 3204SOL    HW111053   1.643   4.904   3.000
 3204SOL    HW211054   1.552   4.825   2.890
 3205SOL     OW11055   0.915   3.813   3.264
 3205SOL    HW111056   0.940   3.793   3.169
 3205SOL    HW211057   0.987   3.869   3.306
 3206SOL     OW11058   0.980   4.840   3.581
 3206SOL    HW111059   0.881   4.846   3.591
 3206SOL    HW211060   1.003   4.760   3.525
 3207SOL     OW11061   0.705   4.774   2.230
 3207SOL    HW111062   0.691   4.781   2.329
 3207SOL    HW211063   0.789   4.723   2.212
 3208SOL     OW11064   0.410   4.537   3.113
 3208SOL    HW111065   0.496   4.549   3.163
 3208SOL    HW211066   0.368   4.450   3.140
 3209SOL     OW11067   1.274   4.110   3.124
 3209SOL    HW111068   1.295   4.184   3.188
 3209SOL    HW211069   1.185   4.127   3.081
 3210SOL     OW11070   0.064   5.288   3.193
 3210SOL    HW111071   0.018   5.370   3.159
 3210SOL    HW211072   0.162   5.307   3.202
 3211SOL     OW11073   0.367   4.824   2.363
 3211SOL    HW111074   0.360   4.907   2.307
 3211SOL    HW211075   0.371   4.744   2.303
 3212SOL     OW11076   0.566   4.261   2.727
 3212SOL    HW111077   0.578   4.327   2.653
 3212SOL    HW211078   0.612   4.295   2.810
 3213SOL     OW11079   1.252   5.072   2.250
 3213SOL    HW111080   1.302   5.149   2.290
 3213SOL    HW211081   1.157   5.074   2.282
 3214SOL     OW11082   1.272   5.169   3.004
 3214SOL    HW111083   1.319   5.182   3.091
 3214SOL    HW211084   1.206   5.095   3.013
 3215SOL     OW11085   1.582   4.363   2.334
 3215SOL    HW111086   1.551   4.424   2.407
 3215SOL    HW211087   1.632   4.415   2.265
 3216SOL     OW11088   0.354   5.234   3.191
 3216SOL    HW111089   0.333   5.190   3.104
 3216SOL    HW211090   0.451   5.260   3.194
 3217SOL     OW11091   0.402   4.475   3.460
 3217SOL    HW111092   0.470   4.530   3.413
 3217SOL    HW211093   0.442   4.387   3.487
 3218SOL     OW11094   1.587   4.503   3.532
 3218SOL    HW111095   1.495   4.541   3.527
 3218SOL    HW211096   1.647   4.550   3.467
 3219SOL     OW11097   1.013   3.829   3.632
 3219SOL    HW111098   1.019   3.914   3.580
 3219SOL    HW211099   1.045   3.753   3.575
 3220SOL     OW11100   0.504   3.774   3.602
 3220SOL    HW111101   0.462   3.717   3.532
 3220SOL    HW211102   0.438   3.843   3.634
 3221SOL     OW11103   0.573   4.594   2.891
 3221SOL    HW111104   0.617   4.683   2.882
 3221SOL    HW211105   0.510   4.594   2.968
 3222SOL     OW11106   1.360   4.586   2.907
 3222SOL    HW111107   1.285   4.586   2.841
 3222SOL    HW211108   1.397   4.494   2.916
 3223SOL     OW11109   1.209   4.249   2.137
 3223SOL    HW111110   1.222   4.165   2.191
 3223SOL    HW211111   1.180   4.323   2.197
 3224SOL     OW11112   0.307   3.937   3.093
 3224SOL    HW111113   0.284   3.974   3.183
 3224SOL    HW211114   0.277   3.842   3.087
 3225SOL     OW11115   0.037   5.034   3.144
 3225SOL    HW111116   0.090   4.985   3.212
 3225SOL    HW211117   0.059   5.132   3.149
 3226SOL     OW11118   0.732   4.358   2.926
 3226SOL    HW111119   0.791   4.332   2.850
 3226SOL    HW211120   0.704   4.454   2.915
 3227SOL     OW11121   1.728   4.659   3.716
 3227SOL    HW111122   1.682   4.652   3.627
 3227SOL    HW211123   1.666   4.703   3.782
 3228SOL     OW11124   0.307   3.787   2.480
 3228SOL    HW111125   0.296   3.881   2.513
 3228SOL    HW211126   0.302   3.724   2.557
 3229SOL     OW11127   1.622   4.091   2.236
 3229SOL    HW111128   1.624   4.015   2.300
 3229SOL    HW211129   1.574   4.168   2.276
 3230SOL     OW11130   1.023   4.490   2.828
 3230SOL    HW111131   1.038   4.511   2.924
 3230SOL    HW211132   0.993   4.395   2.819
 3231SOL     OW11133   0.980   5.297   3.562
 3231SOL    HW111134   0.960   5.341   3.474
 3231SOL    HW211135   1.019   5.206   3.546
 3232SOL     OW11136   1.859   5.242   3.467
 3232SOL    HW111137   1.873   5.269   3.372
 3232SOL    HW211138   1.942   5.264   3.520
 3233SOL     OW11139   0.350   4.622   3.666
 3233SOL    HW111140   0.426   4.666   3.714
 3233SOL    HW211141   0.385   4.575   3.584
 3234SOL     OW11142   1.540   3.998   1.987
 3234SOL    HW111143   1.479   3.923   2.010
 3234SOL    HW211144   1.562   4.050   2.070
 3235SOL     OW11145   1.303   4.562   1.904
 3235SOL    HW111146   1.337   4.469   1.919
 3235SOL    HW211147   1.321   4.589   1.809
 3236SOL     OW11148   1.068   5.057   2.711
 3236SOL    HW111149   1.075   4.973   2.656
 3236SOL    HW211150   1.130   5.126   2.675
 3237SOL     OW11151   0.319   4.534   2.811
 3237SOL    HW111152   0.412   4.570   2.816
 3237SOL    HW211153   0.313   4.449   2.863
 3238SOL     OW11154   0.339   4.233   2.868
 3238SOL    HW111155   0.287   4.150   2.851
 3238SOL    HW211156   0.416   4.238   2.804
 3239SOL     OW11157   1.138   4.104   3.540
 3239SOL    HW111158   1.093   4.167   3.604
 3239SOL    HW211159   1.231   4.135   3.523
 3240SOL     OW11160   1.160   3.931   3.339
 3240SOL    HW111161   1.160   3.995   3.416
 3240SOL    HW211162   1.188   3.979   3.256
 3241SOL     OW11163   0.008   5.050   2.062
 3241SOL    HW111164  -0.085   5.071   2.031
 3241SOL    HW211165   0.018   4.951   2.075
 3242SOL     OW11166   0.088   5.525   2.789
 3242SOL    HW111167   0.046   5.439   2.762
 3242SOL    HW211168   0.182   5.528   2.755
 3243SOL     OW11169   0.504   5.292   2.772
 3243SOL    HW111170   0.570   5.366   2.781
 3243SOL    HW211171   0.548   5.213   2.730
 3244SOL     OW11172   1.002   4.520   3.100
 3244SOL    HW111173   1.043   4.488   3.186
 3244SOL    HW211174   0.906   4.493   3.097
 3245SOL     OW11175   0.040   4.268   2.976
 3245SOL    HW111176   0.125   4.235   2.935
 3245SOL    HW211177   0.053   4.283   3.074
 3246SOL     OW11178   0.189   4.244   3.584
 3246SOL    HW111179   0.248   4.204   3.514
 3246SOL    HW211180   0.131   4.315   3.543
 3247SOL     OW11181   1.369   4.674   3.522
 3247SOL    HW111182   1.408   4.763   3.542
 3247SOL    HW211183   1.379   4.654   3.425
 3248SOL     OW11184   0.815   4.296   2.187
 3248SOL    HW111185   0.822   4.207   2.141
 3248SOL    HW211186   0.721   4.330   2.179
 3249SOL     OW11187   1.657   4.328   3.068
 3249SOL    HW111188   1.619   4.259   3.130
 3249SOL    HW211189   1.739   4.292   3.024
 3250SOL     OW11190   0.252   5.288   3.606
 3250SOL    HW111191   0.222   5.345   3.682
 3250SOL    HW211192   0.245   5.191   3.632
 3251SOL     OW11193   0.671   4.188   3.131
 3251SOL    HW111194   0.637   4.099   3.101
 3251SOL    HW211195   0.697   4.242   3.051
 3252SOL     OW11196   0.930   5.402   3.327
 3252SOL    HW111197   0.906   5.384   3.232
 3252SOL    HW211198   0.960   5.496   3.337
 3253SOL     OW11199   0.473   4.224   2.053
 3253SOL    HW111200   0.534   4.304   2.057
 3253SOL    HW211201   0.378   4.255   2.060
 3254SOL     OW11202   0.159   4.861   3.328
 3254SOL    HW111203   0.181   4.800   3.404
 3254SOL    HW211204   0.169   4.812   3.242
 3255SOL     OW11205   1.347   4.783   3.096
 3255SOL    HW111206   1.371   4.720   3.022
 3255SOL    HW211207   1.257   4.823   3.078
 3256SOL     OW11208   1.302   4.579   2.171
 3256SOL    HW111209   1.216   4.548   2.213
 3256SOL    HW211210   1.298   4.565   2.072
 3257SOL     OW11211   1.759   5.471   3.016
 3257SOL    HW111212   1.820   5.501   2.943
 3257SOL    HW211213   1.721   5.382   2.994
 3258SOL     OW11214   1.252   5.455   2.990
 3258SOL    HW111215   1.336   5.460   2.936
 3258SOL    HW211216   1.229   5.359   3.008
 3259SOL     OW11217   0.083   4.982   2.884
 3259SOL    HW111218   0.078   4.981   2.984
 3259SOL    HW211219   0.000   4.941   2.846
 3260SOL     OW11220   0.688   5.386   3.578
 3260SOL    HW111221   0.632   5.467   3.587
 3260SOL    HW211222   0.740   5.390   3.492
 3261SOL     OW11223   1.726   3.859   2.385
 3261SOL    HW111224   1.799   3.842   2.318
 3261SOL    HW211225   1.695   3.772   2.423
 3262SOL     OW11226   1.388   5.297   2.339
 3262SOL    HW111227   1.455   5.309   2.265
 3262SOL    HW211228   1.348   5.386   2.362
 3263SOL     OW11229   0.130   5.518   3.713
 3263SOL    HW111230   0.089   5.444   3.766
 3263SOL    HW211231   0.194   5.569   3.771
 3264SOL     OW11232   1.280   4.651   2.534
 3264SOL    HW111233   1.340   4.570   2.536
 3264SOL    HW211234   1.320   4.720   2.474
 3265SOL     OW11235   0.830   4.997   3.284
 3265SOL    HW111236   0.825   5.030   3.379
 3265SOL    HW211237   0.744   5.016   3.238
 3266SOL     OW11238   0.672   5.340   2.016
 3266SOL    HW111239   0.681   5.350   1.917
 3266SOL    HW211240   0.632   5.251   2.037
 3267SOL     OW11241   1.650   5.444   3.256
 3267SOL    HW111242   1.703   5.454   3.172
 3267SOL    HW211243   1.623   5.534   3.290
 3268SOL     OW11244   1.841   3.899   2.825
 3268SOL    HW111245   1.880   3.814   2.789
 3268SOL    HW211246   1.743   3.901   2.806
 3269SOL     OW11247   0.263   4.050   2.582
 3269SOL    HW111248   0.184   4.101   2.548
 3269SOL    HW211249   0.254   4.035   2.680
 3270SOL     OW11250   1.194   5.336   1.893
 3270SOL    HW111251   1.200   5.243   1.930
 3270SOL    HW211252   1.135   5.336   1.813
 3271SOL     OW11253   0.822   4.726   3.234
 3271SOL    HW111254   0.862   4.725   3.142
 3271SOL    HW211255   0.832   4.818   3.274
 3272SOL     OW11256   0.916   4.634   2.153
 3272SOL    HW111257   0.979   4.672   2.085
 3272SOL    HW211258   0.956   4.551   2.192
 3273SOL     OW11259   1.504   5.331   1.906
 3273SOL    HW111260   1.412   5.368   1.913
 3273SOL    HW211261   1.542   5.351   1.816
 3274SOL     OW11262   0.372   5.012   3.352
 3274SOL    HW111263   0.359   5.105   3.318
 3274SOL    HW211264   0.288   4.960   3.339
 3275SOL     OW11265   1.614   5.016   3.151
 3275SOL    HW111266   1.674   5.019   3.231
 3275SOL    HW211267   1.539   5.080   3.164
 3276SOL     OW11268   1.039   4.822   2.558
 3276SOL    HW111269   0.969   4.775   2.612
 3276SOL    HW211270   1.098   4.754   2.515
 3277SOL     OW11271   1.014   3.960   2.833
 3277SOL    HW111272   1.006   3.924   2.740
 3277SOL    HW211273   1.012   3.884   2.898
 3278SOL     OW11274   0.590   5.211   2.353
 3278SOL    HW111275   0.632   5.153   2.283
 3278SOL    HW211276   0.546   5.290   2.309
 3279SOL     OW11277   1.709   4.109   3.243
 3279SOL    HW111278   1.782   4.178   3.247
 3279SOL    HW211279   1.737   4.034   3.184
 3280SOL     OW11280   0.255   5.072   2.152
 3280SOL    HW111281   0.159   5.073   2.125
 3280SOL    HW211282   0.267   5.125   2.236
 3281SOL     OW11283   0.105   4.737   3.588
 3281SOL    HW111284   0.028   4.704   3.642
 3281SOL    HW211285   0.190   4.707   3.630
 3282SOL     OW11286   0.672   3.927   3.351
 3282SOL    HW111287   0.762   3.911   3.311
 3282SOL    HW211288   0.680   3.932   3.450
 3283SOL     OW11289   0.075   4.069   1.895
 3283SOL    HW111290  -0.017   4.041   1.866
 3283SOL    HW211291   0.106   4.146   1.839
 3284SOL     OW11292   1.440   4.580   3.260
 3284SOL    HW111293   1.383   4.632   3.197
 3284SOL    HW211294   1.536   4.592   3.236
 3285SOL     OW11295   0.072   3.890   2.180
 3285SOL    HW111296   0.055   3.973   2.126
 3285SOL    HW211297   0.162   3.853   2.158
 3286SOL     OW11298   1.183   5.059   1.981
 3286SOL    HW111299   1.084   5.048   1.983
 3286SOL    HW211300   1.217   5.074   2.074
 3287SOL     OW11301   0.613   4.566   3.293
 3287SOL    HW111302   0.669   4.647   3.276
 3287SOL    HW211303   0.672   4.486   3.296
 3288SOL     OW11304   1.493   5.491   2.821
 3288SOL    HW111305   1.526   5.555   2.752
 3288SOL    HW211306   1.559   5.485   2.896
 3289SOL     OW11307   0.716   4.289   3.570
 3289SOL    HW111308   0.735   4.354   3.644
 3289SOL    HW211309   0.776   4.209   3.579
 3290SOL     OW11310   1.450   4.944   3.495
 3290SOL    HW111311   1.441   4.934   3.594
 3290SOL    HW211312   1.546   4.937   3.469
 3291SOL     OW11313   0.390   5.465   3.422
 3291SOL    HW111314   0.299   5.506   3.420
 3291SOL    HW211315   0.383   5.371   3.454
 3292SOL     OW11316   1.674   4.607   3.116
 3292SOL    HW111317   1.647   4.518   3.079
 3292SOL    HW211318   1.675   4.675   3.043
 3293SOL     OW11319   1.225   4.049   2.311
 3293SOL    HW111320   1.290   3.975   2.300
 3293SOL    HW211321   1.245   4.099   2.395
 3294SOL     OW11322   0.594   4.469   2.514
 3294SOL    HW111323   0.644   4.554   2.495
 3294SOL    HW211324   0.506   4.471   2.466
 3295SOL     OW11325   1.777   4.066   3.504
 3295SOL    HW111326   1.760   4.097   3.410
 3295SOL    HW211327   1.693   4.029   3.542
 3296SOL     OW11328   1.730   4.658   3.379
 3296SOL    HW111329   1.768   4.749   3.394
 3296SOL    HW211330   1.722   4.641   3.280
 3297SOL     OW11331   0.859   5.098   1.878
 3297SOL    HW111332   0.813   5.113   1.966
 3297SOL    HW211333   0.903   5.183   1.848
 3298SOL     OW11334   0.661   5.514   2.815
 3298SOL    HW111335   0.615   5.602   2.802
 3298SOL    HW211336   0.760   5.526   2.808
 3299SOL     OW11337   0.859   4.680   2.723
 3299SOL    HW111338   0.913   4.611   2.771
 3299SOL    HW211339   0.827   4.749   2.789
 3300SOL     OW11340   1.083   4.708   1.949
 3300SOL    HW111341   1.060   4.761   1.867
 3300SOL    HW211342   1.164   4.652   1.930
 3301SOL     OW11343   1.861   5.293   2.713
 3301SOL    HW111344   1.790   5.281   2.643
 3301SOL    HW211345   1.862   5.214   2.773
 3302SOL     OW11346   0.221   5.038   3.706
 3302SOL    HW111347   0.156   4.965   3.685
 3302SOL    HW211348   0.225   5.052   3.804
 3303SOL     OW11349   0.079   4.964   2.515
 3303SOL    HW111350   0.078   4.917   2.603
 3303SOL    HW211351   0.161   4.936   2.464
 3304SOL     OW11352   0.672   5.115   3.486
 3304SOL    HW111353   0.594   5.065   3.524
 3304SOL    HW211354   0.669   5.210   3.517
 3305SOL     OW11355   1.824   3.916   3.089
 3305SOL    HW111356   1.820   3.826   3.133
 3305SOL    HW211357   1.827   3.905   2.990
 3306SOL     OW11358   0.428   4.148   2.382
 3306SOL    HW111359   0.458   4.076   2.320
 3306SOL    HW211360   0.389   4.108   2.465
 3307SOL     OW11361   1.705   5.211   2.966
 3307SOL    HW111362   1.612   5.186   2.939
 3307SOL    HW211363   1.731   5.161   3.048
 3308SOL     OW11364   0.317   4.271   3.142
 3308SOL    HW111365   0.355   4.212   3.214
 3308SOL    HW211366   0.357   4.245   3.054
 3309SOL     OW11367   0.812   5.310   2.549
 3309SOL    HW111368   0.844   5.320   2.455
 3309SOL    HW211369   0.733   5.248   2.551
 3310SOL     OW11370   1.424   3.938   2.974
 3310SOL    HW111371   1.476   3.873   3.029
 3310SOL    HW211372   1.375   4.001   3.035
 3311SOL     OW11373   1.001   3.758   3.016
 3311SOL    HW111374   0.938   3.686   2.985
 3311SOL    HW211375   1.094   3.722   3.016
 3312SOL     OW11376   0.770   5.054   2.163
 3312SOL    HW111377   0.724   4.967   2.180
 3312SOL    HW211378   0.861   5.051   2.204
 3313SOL     OW11379   0.618   5.291   3.146
 3313SOL    HW111380   0.613   5.373   3.203
 3313SOL    HW211381   0.707   5.288   3.101
 3314SOL     OW11382   1.352   3.776   2.030
 3314SOL    HW111383   1.387   3.735   1.946
 3314SOL    HW211384   1.262   3.738   2.050
 3315SOL     OW11385   1.300   4.177   2.553
 3315SOL    HW111386   1.241   4.257   2.557
 3315SOL    HW211387   1.315   4.142   2.646
 3316SOL     OW11388   1.593   3.945   2.744
 3316SOL    HW111389   1.509   3.944   2.798
 3316SOL    HW211390   1.595   4.028   2.688
 3317SOL     OW11391   0.039   4.801   2.162
 3317SOL    HW111392   0.138   4.790   2.153
 3317SOL    HW211393  -0.001   4.715   2.194
 3318SOL     OW11394   0.875   5.370   2.199
 3318SOL    HW111395   0.798   5.335   2.145
 3318SOL    HW211396   0.843   5.441   2.261
 3319SOL     OW11397   0.230   4.352   3.837
 3319SOL    HW111398   0.137   4.350   3.874
 3319SOL    HW211399   0.231   4.313   3.745
 3320SOL     OW11400   0.225   3.999   4.720
 3320SOL    HW111401   0.260   3.982   4.812
 3320SOL    HW211402   0.137   3.954   4.708
 3321SOL     OW11403   0.019   4.092   4.371
 3321SOL    HW111404  -0.063   4.135   4.410
 3321SOL    HW211405  -0.009   4.019   4.308
 3322SOL     OW11406   0.569   4.999   4.889
 3322SOL    HW111407   0.476   4.992   4.852
 3322SOL    HW211408   0.580   5.088   4.933
 3323SOL     OW11409   1.555   5.235   4.427
 3323SOL    HW111410   1.498   5.219   4.508
 3323SOL    HW211411   1.496   5.245   4.347
 3324SOL     OW11412   1.135   4.427   4.441
 3324SOL    HW111413   1.192   4.505   4.416
 3324SOL    HW211414   1.075   4.453   4.517
 3325SOL     OW11415   1.755   4.331   3.955
 3325SOL    HW111416   1.743   4.318   3.856
 3325SOL    HW211417   1.725   4.250   4.004
 3326SOL     OW11418   0.768   4.868   4.747
 3326SOL    HW111419   0.690   4.885   4.807
 3326SOL    HW211420   0.802   4.955   4.711
 3327SOL     OW11421   0.850   4.522   5.547
 3327SOL    HW111422   0.846   4.598   5.612
 3327SOL    HW211423   0.872   4.558   5.456
 3328SOL     OW11424   0.685   4.736   4.389
 3328SOL    HW111425   0.754   4.720   4.459
 3328SOL    HW211426   0.612   4.793   4.427
 3329SOL     OW11427   0.686   4.885   5.527
 3329SOL    HW111428   0.746   4.964   5.541
 3329SOL    HW211429   0.600   4.916   5.486
 3330SOL     OW11430   0.335   5.159   4.785
 3330SOL    HW111431   0.257   5.128   4.732
 3330SOL    HW211432   0.393   5.217   4.728
 3331SOL     OW11433   1.460   5.229   5.063
 3331SOL    HW111434   1.484   5.323   5.089
 3331SOL    HW211435   1.444   5.175   5.145
 3332SOL     OW11436   0.438   4.116   5.223
 3332SOL    HW111437   0.520   4.060   5.232
 3332SOL    HW211438   0.357   4.058   5.227
 3333SOL     OW11439   1.603   4.171   4.461
 3333SOL    HW111440   1.529   4.217   4.411
 3333SOL    HW211441   1.654   4.239   4.514
 3334SOL     OW11442   0.231   5.437   4.207
 3334SOL    HW111443   0.265   5.514   4.261
 3334SOL    HW211444   0.275   5.437   4.117
 3335SOL     OW11445   1.127   5.065   5.414
 3335SOL    HW111446   1.174   5.065   5.502
 3335SOL    HW211447   1.079   4.978   5.403
 3336SOL     OW11448   0.230   5.158   4.262
 3336SOL    HW111449   0.204   5.254   4.262
 3336SOL    HW211450   0.159   5.104   4.307
 3337SOL     OW11451   0.240   4.815   4.610
 3337SOL    HW111452   0.254   4.731   4.662
 3337SOL    HW211453   0.185   4.879   4.665
 3338SOL     OW11454   0.620   5.510   5.163
 3338SOL    HW111455   0.528   5.493   5.198
 3338SOL    HW211456   0.648   5.602   5.189
 3339SOL     OW11457   0.606   4.688   3.847
 3339SOL    HW111458   0.613   4.772   3.793
 3339SOL    HW211459   0.652   4.701   3.935
 3340SOL     OW11460   1.594   3.838   5.204
 3340SOL    HW111461   1.576   3.905   5.132
 3340SOL    HW211462   1.591   3.884   5.293
 3341SOL     OW11463   0.122   4.367   4.287
 3341SOL    HW111464   0.077   4.279   4.304
 3341SOL    HW211465   0.121   4.421   4.371
 3342SOL     OW11466   1.842   5.491   4.083
 3342SOL    HW111467   1.896   5.462   4.163
 3342SOL    HW211468   1.872   5.581   4.054
 3343SOL     OW11469   0.027   5.320   3.841
 3343SOL    HW111470   0.008   5.224   3.862
 3343SOL    HW211471  -0.006   5.378   3.916
 3344SOL     OW11472   1.689   4.646   4.336
 3344SOL    HW111473   1.784   4.617   4.344
 3344SOL    HW211474   1.681   4.711   4.261
 3345SOL     OW11475   1.641   4.832   4.156
 3345SOL    HW111476   1.727   4.834   4.104
 3345SOL    HW211477   1.655   4.879   4.244
 3346SOL     OW11478   0.113   4.461   5.321
 3346SOL    HW111479   0.201   4.448   5.366
 3346SOL    HW211480   0.100   4.558   5.299
 3347SOL     OW11481   0.613   5.089   4.450
 3347SOL    HW111482   0.564   5.002   4.459
 3347SOL    HW211483   0.590   5.132   4.363
 3348SOL     OW11484   1.293   4.952   5.147
 3348SOL    HW111485   1.330   4.879   5.089
 3348SOL    HW211486   1.345   4.957   5.232
 3349SOL     OW11487   0.809   3.728   4.226
 3349SOL    HW111488   0.849   3.819   4.217
 3349SOL    HW211489   0.709   3.736   4.232
 3350SOL     OW11490   0.197   4.700   4.988
 3350SOL    HW111491   0.286   4.655   4.974
 3350SOL    HW211492   0.124   4.635   4.969
 3351SOL     OW11493   1.525   4.723   3.914
 3351SOL    HW111494   1.462   4.647   3.927
 3351SOL    HW211495   1.573   4.741   4.000
 3352SOL     OW11496   1.187   5.516   5.340
 3352SOL    HW111497   1.211   5.576   5.264
 3352SOL    HW211498   1.194   5.421   5.310
 3353SOL     OW11499   0.317   3.975   5.525
 3353SOL    HW111500   0.388   4.046   5.531
 3353SOL    HW211501   0.229   4.014   5.553
 3354SOL     OW11502   1.466   5.141   4.677
 3354SOL    HW111503   1.407   5.147   4.757
 3354SOL    HW211504   1.451   5.053   4.631
 3355SOL     OW11505   1.667   5.438   4.296
 3355SOL    HW111506   1.626   5.415   4.208
 3355SOL    HW211507   1.649   5.364   4.361
 3356SOL     OW11508   0.598   4.453   3.994
 3356SOL    HW111509   0.622   4.522   3.926
 3356SOL    HW211510   0.520   4.486   4.048
 3357SOL     OW11511   1.281   4.069   4.668
 3357SOL    HW111512   1.195   4.019   4.655
 3357SOL    HW211513   1.343   4.015   4.724
 3358SOL     OW11514   1.576   5.386   4.031
 3358SOL    HW111515   1.665   5.432   4.034
 3358SOL    HW211516   1.555   5.362   3.936
 3359SOL     OW11517   0.807   4.329   5.189
 3359SOL    HW111518   0.760   4.326   5.278
 3359SOL    HW211519   0.756   4.274   5.123
 3360SOL     OW11520   1.394   4.193   5.398
 3360SOL    HW111521   1.374   4.236   5.486
 3360SOL    HW211522   1.472   4.131   5.407
 3361SOL     OW11523   0.973   4.614   5.296
 3361SOL    HW111524   1.019   4.530   5.267
 3361SOL    HW211525   0.917   4.648   5.221
 3362SOL     OW11526   0.991   4.134   4.966
 3362SOL    HW111527   0.914   4.168   5.020
 3362SOL    HW211528   0.957   4.083   4.887
 3363SOL     OW11529   1.041   4.425   4.153
 3363SOL    HW111530   1.067   4.421   4.249
 3363SOL    HW211531   0.956   4.374   4.139
 3364SOL     OW11532   0.076   4.535   4.513
 3364SOL    HW111533   0.175   4.523   4.522
 3364SOL    HW211534   0.052   4.630   4.534
 3365SOL     OW11535   0.130   5.545   5.295
 3365SOL    HW111536   0.120   5.530   5.394
 3365SOL    HW211537   0.044   5.581   5.259
 3366SOL     OW11538   0.865   4.072   3.919
 3366SOL    HW111539   0.924   4.135   3.870
 3366SOL    HW211540   0.884   3.978   3.890
 3367SOL     OW11541   1.719   4.309   5.555
 3367SOL    HW111542   1.693   4.398   5.519
 3367SOL    HW211543   1.717   4.241   5.482
 3368SOL     OW11544   1.362   4.868   4.269
 3368SOL    HW111545   1.445   4.839   4.221
 3368SOL    HW211546   1.313   4.935   4.213
 3369SOL     OW11547   0.550   3.920   4.609
 3369SOL    HW111548   0.545   3.915   4.709
 3369SOL    HW211549   0.552   4.016   4.580
 3370SOL     OW11550   1.008   5.180   4.201
 3370SOL    HW111551   0.962   5.252   4.149
 3370SOL    HW211552   1.004   5.200   4.299
 3371SOL     OW11553   0.351   5.525   4.577
 3371SOL    HW111554   0.401   5.439   4.583
 3371SOL    HW211555   0.416   5.602   4.574
 3372SOL     OW11556   1.795   4.790   4.597
 3372SOL    HW111557   1.733   4.775   4.521
 3372SOL    HW211558   1.743   4.801   4.682
 3373SOL     OW11559   1.227   5.274   5.230
 3373SOL    HW111560   1.233   5.197   5.294
 3373SOL    HW211561   1.175   5.248   5.150
 3374SOL     OW11562   0.321   4.667   3.966
 3374SOL    HW111563   0.403   4.706   3.924
 3374SOL    HW211564   0.294   4.585   3.917
 3375SOL     OW11565   1.458   4.459   4.452
 3375SOL    HW111566   1.453   4.394   4.527
 3375SOL    HW211567   1.538   4.518   4.465
 3376SOL     OW11568   0.461   4.990   5.451
 3376SOL    HW111569   0.411   4.991   5.365
 3376SOL    HW211570   0.398   4.972   5.527
 3377SOL     OW11571   1.111   5.500   3.961
 3377SOL    HW111572   1.051   5.438   4.011
 3377SOL    HW211573   1.142   5.456   3.876
 3378SOL     OW11574   0.202   4.009   5.222
 3378SOL    HW111575   0.122   4.069   5.209
 3378SOL    HW211576   0.192   3.960   5.308
 3379SOL     OW11577   1.632   5.101   3.805
 3379SOL    HW111578   1.600   5.195   3.795
 3379SOL    HW211579   1.556   5.038   3.793
 3380SOL     OW11580   0.464   5.467   4.047
 3380SOL    HW111581   0.497   5.506   4.133
 3380SOL    HW211582   0.540   5.460   3.982
 3381SOL     OW11583   1.400   3.831   4.150
 3381SOL    HW111584   1.376   3.794   4.060
 3381SOL    HW211585   1.499   3.847   4.154
 3382SOL     OW11586   0.249   5.509   4.965
 3382SOL    HW111587   0.306   5.444   5.015
 3382SOL    HW211588   0.233   5.476   4.872
 3383SOL     OW11589   0.940   5.422   4.628
 3383SOL    HW111590   1.020   5.365   4.649
 3383SOL    HW211591   0.891   5.382   4.551
 3384SOL     OW11592   0.382   4.424   4.204
 3384SOL    HW111593   0.427   4.334   4.201
 3384SOL    HW211594   0.288   4.413   4.237
 3385SOL     OW11595   1.547   3.946   5.453
 3385SOL    HW111596   1.542   3.983   5.545
 3385SOL    HW211597   1.475   3.877   5.441
 3386SOL     OW11598   0.614   3.846   3.841
 3386SOL    HW111599   0.712   3.824   3.848
 3386SOL    HW211600   0.583   3.829   3.748
 3387SOL     OW11601   0.781   3.988   5.473
 3387SOL    HW111602   0.848   3.927   5.516
 3387SOL    HW211603   0.708   4.007   5.538
 3388SOL     OW11604   0.888   5.238   4.919
 3388SOL    HW111605   0.865   5.213   4.825
 3388SOL    HW211606   0.949   5.169   4.958
 3389SOL     OW11607   1.351   4.314   5.157
 3389SOL    HW111608   1.379   4.271   5.242
 3389SOL    HW211609   1.376   4.410   5.158
 3390SOL     OW11610   0.803   5.126   4.648
 3390SOL    HW111611   0.893   5.140   4.606
 3390SOL    HW211612   0.732   5.128   4.577
 3391SOL     OW11613   0.922   4.227   4.623
 3391SOL    HW111614   0.897   4.218   4.527
 3391SOL    HW211615   0.970   4.145   4.654
 3392SOL     OW11616   0.539   3.788   4.236
 3392SOL    HW111617   0.458   3.789   4.294
 3392SOL    HW211618   0.542   3.871   4.181
 3393SOL     OW11619   1.434   4.912   3.765
 3393SOL    HW111620   1.466   4.836   3.822
 3393SOL    HW211621   1.342   4.939   3.795
 3394SOL     OW11622   0.297   3.759   3.895
 3394SOL    HW111623   0.346   3.843   3.874
 3394SOL    HW211624   0.359   3.694   3.940
 3395SOL     OW11625   0.935   3.960   4.204
 3395SOL    HW111626   0.887   4.001   4.126
 3395SOL    HW211627   1.034   3.958   4.185
 3396SOL     OW11628   1.076   4.407   5.188
 3396SOL    HW111629   0.996   4.346   5.191
 3396SOL    HW211630   1.157   4.354   5.164
 3397SOL     OW11631   1.227   5.294   4.517
 3397SOL    HW111632   1.248   5.368   4.452
 3397SOL    HW211633   1.295   5.294   4.590
 3398SOL     OW11634   0.459   4.876   4.465
 3398SOL    HW111635   0.388   4.849   4.530
 3398SOL    HW211636   0.433   4.848   4.372
 3399SOL     OW11637   1.271   5.521   4.315
 3399SOL    HW111638   1.315   5.585   4.251
 3399SOL    HW211639   1.221   5.573   4.385
 3400SOL     OW11640   1.032   4.273   3.740
 3400SOL    HW111641   0.991   4.355   3.701
 3400SOL    HW211642   1.096   4.299   3.813
 3401SOL     OW11643   0.078   4.280   5.110
 3401SOL    HW111644   0.170   4.279   5.069
 3401SOL    HW211645   0.072   4.354   5.177
 3402SOL     OW11646   0.561   3.946   4.871
 3402SOL    HW111647   0.599   3.862   4.908
 3402SOL    HW211648   0.473   3.965   4.915
 3403SOL     OW11649   0.866   4.178   4.366
 3403SOL    HW111650   0.834   4.250   4.304
 3403SOL    HW211651   0.890   4.097   4.313
 3404SOL     OW11652   1.017   3.763   4.477
 3404SOL    HW111653   0.945   3.768   4.408
 3404SOL    HW211654   0.993   3.694   4.546
 3405SOL     OW11655   1.429   4.897   4.591
 3405SOL    HW111656   1.374   4.813   4.584
 3405SOL    HW211657   1.455   4.926   4.499
 3406SOL     OW11658   1.466   4.314   4.716
 3406SOL    HW111659   1.436   4.219   4.723
 3406SOL    HW211660   1.539   4.330   4.782
 3407SOL     OW11661   1.857   4.557   4.101
 3407SOL    HW111662   1.899   4.493   4.165
 3407SOL    HW211663   1.819   4.506   4.023
 3408SOL     OW11664   0.488   5.109   3.898
 3408SOL    HW111665   0.401   5.094   3.945
 3408SOL    HW211666   0.471   5.135   3.803
 3409SOL     OW11667   1.664   5.004   4.381
 3409SOL    HW111668   1.763   5.012   4.395
 3409SOL    HW211669   1.619   5.088   4.412
 3410SOL     OW11670   1.390   4.299   3.802
 3410SOL    HW111671   1.336   4.278   3.883
 3410SOL    HW211672   1.481   4.258   3.811
 3411SOL     OW11673   0.527   3.980   4.052
 3411SOL    HW111674   0.554   3.921   3.977
 3411SOL    HW211675   0.527   4.075   4.021
 3412SOL     OW11676   1.754   4.947   5.312
 3412SOL    HW111677   1.845   4.908   5.299
 3412SOL    HW211678   1.762   5.043   5.336
 3413SOL     OW11679   1.064   5.071   5.064
 3413SOL    HW111680   0.984   5.048   5.119
 3413SOL    HW211681   1.147   5.045   5.113
 3414SOL     OW11682   1.592   5.353   5.349
 3414SOL    HW111683   1.619   5.387   5.259
 3414SOL    HW211684   1.671   5.315   5.395
 3415SOL     OW11685   1.111   4.919   4.824
 3415SOL    HW111686   1.071   4.963   4.905
 3415SOL    HW211687   1.070   4.956   4.741
 3416SOL     OW11688   1.638   4.823   4.803
 3416SOL    HW111689   1.643   4.904   4.862
 3416SOL    HW211690   1.552   4.825   4.752
 3417SOL     OW11691   0.915   3.813   5.126
 3417SOL    HW111692   0.940   3.793   5.031
 3417SOL    HW211693   0.987   3.869   5.168
 3418SOL     OW11694   0.980   4.840   5.443
 3418SOL    HW111695   0.881   4.846   5.453
 3418SOL    HW211696   1.003   4.760   5.387
 3419SOL     OW11697   0.705   4.774   4.092
 3419SOL    HW111698   0.691   4.781   4.191
 3419SOL    HW211699   0.789   4.723   4.074
 3420SOL     OW11700   0.410   4.537   4.975
 3420SOL    HW111701   0.496   4.549   5.025
 3420SOL    HW211702   0.368   4.450   5.002
 3421SOL     OW11703   1.274   4.110   4.986
 3421SOL    HW111704   1.295   4.184   5.050
 3421SOL    HW211705   1.185   4.127   4.943
 3422SOL     OW11706   0.064   5.288   5.055
 3422SOL    HW111707   0.018   5.370   5.021
 3422SOL    HW211708   0.162   5.307   5.064
 3423SOL     OW11709   0.367   4.824   4.225
 3423SOL    HW111710   0.360   4.907   4.169
 3423SOL    HW211711   0.371   4.744   4.165
 3424SOL     OW11712   0.566   4.261   4.589
 3424SOL    HW111713   0.578   4.327   4.515
 3424SOL    HW211714   0.612   4.295   4.672
 3425SOL     OW11715   1.252   5.072   4.112
 3425SOL    HW111716   1.302   5.149   4.152
 3425SOL    HW211717   1.157   5.074   4.144
 3426SOL     OW11718   1.272   5.169   4.866
 3426SOL    HW111719   1.319   5.182   4.953
 3426SOL    HW211720   1.206   5.095   4.875
 3427SOL     OW11721   1.582   4.363   4.196
 3427SOL    HW111722   1.551   4.424   4.269
 3427SOL    HW211723   1.632   4.415   4.127
 3428SOL     OW11724   0.354   5.234   5.053
 3428SOL    HW111725   0.333   5.190   4.966
 3428SOL    HW211726   0.451   5.260   5.056
 3429SOL     OW11727   0.402   4.475   5.322
 3429SOL    HW111728   0.470   4.530   5.275
 3429SOL    HW211729   0.442   4.387   5.349
 3430SOL     OW11730   1.587   4.503   5.394
 3430SOL    HW111731   1.495   4.541   5.389
 3430SOL    HW211732   1.647   4.550   5.329
 3431SOL     OW11733   1.013   3.829   5.494
 3431SOL    HW111734   1.019   3.914   5.442
 3431SOL    HW211735   1.045   3.753   5.437
 3432SOL     OW11736   0.504   3.774   5.464
 3432SOL    HW111737   0.462   3.717   5.394
 3432SOL    HW211738   0.438   3.843   5.496
 3433SOL     OW11739   0.573   4.594   4.753
 3433SOL    HW111740   0.617   4.683   4.744
 3433SOL    HW211741   0.510   4.594   4.830
 3434SOL     OW11742   1.360   4.586   4.769
 3434SOL    HW111743   1.285   4.586   4.703
 3434SOL    HW211744   1.397   4.494   4.778
 3435SOL     OW11745   1.209   4.249   3.999
 3435SOL    HW111746   1.222   4.165   4.053
 3435SOL    HW211747   1.180   4.323   4.059
 3436SOL     OW11748   0.307   3.937   4.955
 3436SOL    HW111749   0.284   3.974   5.045
 3436SOL    HW211750   0.277   3.842   4.949
 3437SOL     OW11751   0.037   5.034   5.006
 3437SOL    HW111752   0.090   4.985   5.074
 3437SOL    HW211753   0.059   5.132   5.011
 3438SOL     OW11754   0.732   4.358   4.788
 3438SOL    HW111755   0.791   4.332   4.712
 3438SOL    HW211756   0.704   4.454   4.777
 3439SOL     OW11757   1.728   4.659   5.578
 3439SOL    HW111758   1.682   4.652   5.489
 3439SOL    HW211759   1.666   4.703   5.644
 3440SOL     OW11760   0.307   3.787   4.342
 3440SOL    HW111761   0.296   3.881   4.375
 3440SOL    HW211762   0.302   3.724   4.419
 3441SOL     OW11763   1.622   4.091   4.098
 3441SOL    HW111764   1.624   4.015   4.162
 3441SOL    HW211765   1.574   4.168   4.138
 3442SOL     OW11766   1.023   4.490   4.690
 3442SOL    HW111767   1.038   4.511   4.786
 3442SOL    HW211768   0.993   4.395   4.681
 3443SOL     OW11769   0.980   5.297   5.424
 3443SOL    HW111770   0.960   5.341   5.336
 3443SOL    HW211771   1.019   5.206   5.408
 3444SOL     OW11772   1.859   5.242   5.329
 3444SOL    HW111773   1.873   5.269   5.234
 3444SOL    HW211774   1.942   5.264   5.382
 3445SOL     OW11775   0.350   4.622   5.528
 3445SOL    HW111776   0.426   4.666   5.576
 3445SOL    HW211777   0.385   4.575   5.446
 3446SOL     OW11778   1.540   3.998   3.849
 3446SOL    HW111779   1.479   3.923   3.872
 3446SOL    HW211780   1.562   4.050   3.932
 3447SOL     OW11781   1.303   4.562   3.766
 3447SOL    HW111782   1.337   4.469   3.781
 3447SOL    HW211783   1.321   4.589   3.671
 3448SOL     OW11784   1.068   5.057   4.573
 3448SOL    HW111785   1.075   4.973   4.518
 3448SOL    HW211786   1.130   5.126   4.537
 3449SOL     OW11787   0.319   4.534   4.673
 3449SOL    HW111788   0.412   4.570   4.678
 3449SOL    HW211789   0.313   4.449   4.725
 3450SOL     OW11790   0.339   4.233   4.730
 3450SOL    HW111791   0.287   4.150   4.713
 3450SOL    HW211792   0.416   4.238   4.666
 3451SOL     OW11793   1.138   4.104   5.402
 3451SOL    HW111794   1.093   4.167   5.466
 3451SOL    HW211795   1.231   4.135   5.385
 3452SOL     OW11796   1.160   3.931   5.201
 3452SOL    HW111797   1.160   3.995   5.278
 3452SOL    HW211798   1.188   3.979   5.118
 3453SOL     OW11799   0.008   5.050   3.924
 3453SOL    HW111800  -0.085   5.071   3.893
 3453SOL    HW211801   0.018   4.951   3.937
 3454SOL     OW11802   0.088   5.525   4.651
 3454SOL    HW111803   0.046   5.439   4.624
 3454SOL    HW211804   0.182   5.528   4.617
 3455SOL     OW11805   0.504   5.292   4.634
 3455SOL    HW111806   0.570   5.366   4.643
 3455SOL    HW211807   0.548   5.213   4.592
 3456SOL     OW11808   1.002   4.520   4.962
 3456SOL    HW111809   1.043   4.488   5.048
 3456SOL    HW211810   0.906   4.493   4.959
 3457SOL     OW11811   0.040   4.268   4.838
 3457SOL    HW111812   0.125   4.235   4.797
 3457SOL    HW211813   0.053   4.283   4.936
 3458SOL     OW11814   0.189   4.244   5.446
 3458SOL    HW111815   0.248   4.204   5.376
 3458SOL    HW211816   0.131   4.315   5.405
 3459SOL     OW11817   1.369   4.674   5.384
 3459SOL    HW111818   1.408   4.763   5.404
 3459SOL    HW211819   1.379   4.654   5.287
 3460SOL     OW11820   0.815   4.296   4.049
 3460SOL    HW111821   0.822   4.207   4.003
 3460SOL    HW211822   0.721   4.330   4.041
 3461SOL     OW11823   1.657   4.328   4.930
 3461SOL    HW111824   1.619   4.259   4.992
 3461SOL    HW211825   1.739   4.292   4.886
 3462SOL     OW11826   0.252   5.288   5.468
 3462SOL    HW111827   0.222   5.345   5.544
 3462SOL    HW211828   0.245   5.191   5.494
 3463SOL     OW11829   0.671   4.188   4.993
 3463SOL    HW111830   0.637   4.099   4.963
 3463SOL    HW211831   0.697   4.242   4.913
 3464SOL     OW11832   0.930   5.402   5.189
 3464SOL    HW111833   0.906   5.384   5.094
 3464SOL    HW211834   0.960   5.496   5.199
 3465SOL     OW11835   0.473   4.224   3.915
 3465SOL    HW111836   0.534   4.304   3.919
 3465SOL    HW211837   0.378   4.255   3.922
 3466SOL     OW11838   0.159   4.861   5.190
 3466SOL    HW111839   0.181   4.800   5.266
 3466SOL    HW211840   0.169   4.812   5.104
 3467SOL     OW11841   1.347   4.783   4.958
 3467SOL    HW111842   1.371   4.720   4.884
 3467SOL    HW211843   1.257   4.823   4.940
 3468SOL     OW11844   1.302   4.579   4.033
 3468SOL    HW111845   1.216   4.548   4.075
 3468SOL    HW211846   1.298   4.565   3.934
 3469SOL     OW11847   1.759   5.471   4.878
 3469SOL    HW111848   1.820   5.501   4.805
 3469SOL    HW211849   1.721   5.382   4.856
 3470SOL     OW11850   1.252   5.455   4.852
 3470SOL    HW111851   1.336   5.460   4.798
 3470SOL    HW211852   1.229   5.359   4.870
 3471SOL     OW11853   0.083   4.982   4.746
 3471SOL    HW111854   0.078   4.981   4.846
 3471SOL    HW211855   0.000   4.941   4.708
 3472SOL     OW11856   0.688   5.386   5.440
 3472SOL    HW111857   0.632   5.467   5.449
 3472SOL    HW211858   0.740   5.390   5.354
 3473SOL     OW11859   1.726   3.859   4.247
 3473SOL    HW111860   1.799   3.842   4.180
 3473SOL    HW211861   1.695   3.772   4.285
 3474SOL     OW11862   1.388   5.297   4.201
 3474SOL    HW111863   1.455   5.309   4.127
 3474SOL    HW211864   1.348   5.386   4.224
 3475SOL     OW11865   0.130   5.518   5.575
 3475SOL    HW111866   0.089   5.444   5.628
 3475SOL    HW211867   0.194   5.569   5.633
 3476SOL     OW11868   1.280   4.651   4.396
 3476SOL    HW111869   1.340   4.570   4.398
 3476SOL    HW211870   1.320   4.720   4.336
 3477SOL     OW11871   0.830   4.997   5.146
 3477SOL    HW111872   0.825   5.030   5.241
 3477SOL    HW211873   0.744   5.016   5.100
 3478SOL     OW11874   0.672   5.340   3.878
 3478SOL    HW111875   0.681   5.350   3.779
 3478SOL    HW211876   0.632   5.251   3.899
 3479SOL     OW11877   1.650   5.444   5.118
 3479SOL    HW111878   1.703   5.454   5.034
 3479SOL    HW211879   1.623   5.534   5.152
 3480SOL     OW11880   1.841   3.899   4.687
 3480SOL    HW111881   1.880   3.814   4.651
 3480SOL    HW211882   1.743   3.901   4.668
 3481SOL     OW11883   0.263   4.050   4.444
 3481SOL    HW111884   0.184   4.101   4.410
 3481SOL    HW211885   0.254   4.035   4.542
 3482SOL     OW11886   1.194   5.336   3.755
 3482SOL    HW111887   1.200   5.243   3.792
 3482SOL    HW211888   1.135   5.336   3.675
 3483SOL     OW11889   0.822   4.726   5.096
 3483SOL    HW111890   0.862   4.725   5.004
 3483SOL    HW211891   0.832   4.818   5.136
 3484SOL     OW11892   0.916   4.634   4.015
 3484SOL    HW111893   0.979   4.672   3.947
 3484SOL    HW211894   0.956   4.551   4.054
 3485SOL     OW11895   1.504   5.331   3.768
 3485SOL    HW111896   1.412   5.368   3.775
 3485SOL    HW211897   1.542   5.351   3.678
 3486SOL     OW11898   0.372   5.012   5.214
 3486SOL    HW111899   0.359   5.105   5.180
 3486SOL    HW211900   0.288   4.960   5.201
 3487SOL     OW11901   1.614   5.016   5.013
 3487SOL    HW111902   1.674   5.019   5.093
 3487SOL    HW211903   1.539   5.080   5.026
 3488SOL     OW11904   1.039   4.822   4.420
 3488SOL    HW111905   0.969   4.775   4.474
 3488SOL    HW211906   1.098   4.754   4.377
 3489SOL     OW11907   1.014   3.960   4.695
 3489SOL    HW111908   1.006   3.924   4.602
 3489SOL    HW211909   1.012   3.884   4.760
 3490SOL     OW11910   0.590   5.211   4.215
 3490SOL    HW111911   0.632   5.153   4.145
 3490SOL    HW211912   0.546   5.290   4.171
 3491SOL     OW11913   1.709   4.109   5.105
 3491SOL    HW111914   1.782   4.178   5.109
 3491SOL    HW211915   1.737   4.034   5.046
 3492SOL     OW11916   0.255   5.072   4.014
 3492SOL    HW111917   0.159   5.073   3.987
 3492SOL    HW211918   0.267   5.125   4.098
 3493SOL     OW11919   0.105   4.737   5.450
 3493SOL    HW111920   0.028   4.704   5.504
 3493SOL    HW211921   0.190   4.707   5.492
 3494SOL     OW11922   0.672   3.927   5.213
 3494SOL    HW111923   0.762   3.911   5.173
 3494SOL    HW211924   0.680   3.932   5.312
 3495SOL     OW11925   0.075   4.069   3.757
 3495SOL    HW111926  -0.017   4.041   3.728
 3495SOL    HW211927   0.106   4.146   3.701
 3496SOL     OW11928   1.440   4.580   5.122
 3496SOL    HW111929   1.383   4.632   5.059
 3496SOL    HW211930   1.536   4.592   5.098
 3497SOL     OW11931   0.072   3.890   4.042
 3497SOL    HW111932   0.055   3.973   3.988
 3497SOL    HW211933   0.162   3.853   4.020
 3498SOL     OW11934   1.183   5.059   3.843
 3498SOL    HW111935   1.084   5.048   3.845
 3498SOL    HW211936   1.217   5.074   3.936
 3499SOL     OW11937   0.613   4.566   5.155
 3499SOL    HW111938   0.669   4.647   5.138
 3499SOL    HW211939   0.672   4.486   5.158
 3500SOL     OW11940   1.493   5.491   4.683
 3500SOL    HW111941   1.526   5.555   4.614
 3500SOL    HW211942   1.559   5.485   4.758
 3501SOL     OW11943   0.716   4.289   5.432
 3501SOL    HW111944   0.735   4.354   5.506
 3501SOL    HW211945   0.776   4.209   5.441
 3502SOL     OW11946   1.450   4.944   5.357
 3502SOL    HW111947   1.441   4.934   5.456
 3502SOL    HW211948   1.546   4.937   5.331
 3503SOL     OW11949   0.390   5.465   5.284
 3503SOL    HW111950   0.299   5.506   5.282
 3503SOL    HW211951   0.383   5.371   5.316
 3504SOL     OW11952   1.674   4.607   4.978
 3504SOL    HW111953   1.647   4.518   4.941
 3504SOL    HW211954   1.675   4.675   4.905
 3505SOL     OW11955   1.225   4.049   4.173
 3505SOL    HW111956   1.290   3.975   4.162
 3505SOL    HW211957   1.245   4.099   4.257
 3506SOL     OW11958   0.594   4.469   4.376
 3506SOL    HW111959   0.644   4.554   4.357
 3506SOL    HW211960   0.506   4.471   4.328
 3507SOL     OW11961   1.777   4.066   5.366
 3507SOL    HW111962   1.760   4.097   5.272
 3507SOL    HW211963   1.693   4.029   5.404
 3508SOL     OW11964   1.730   4.658   5.241
 3508SOL    HW111965   1.768   4.749   5.256
 3508SOL    HW211966   1.722   4.641   5.142
 3509SOL     OW11967   0.859   5.098   3.740
 3509SOL    HW111968   0.813   5.113   3.828
 3509SOL    HW211969   0.903   5.183   3.710
 3510SOL     OW11970   0.661   5.514   4.677
 3510SOL    HW111971   0.615   5.602   4.664
 3510SOL    HW211972   0.760   5.526   4.670
 3511SOL     OW11973   0.859   4.680   4.585
 3511SOL    HW111974   0.913   4.611   4.633
 3511SOL    HW211975   0.827   4.749   4.651
 3512SOL     OW11976   1.083   4.708   3.811
 3512SOL    HW111977   1.060   4.761   3.729
 3512SOL    HW211978   1.164   4.652   3.792
 3513SOL     OW11979   1.861   5.293   4.575
 3513SOL    HW111980   1.790   5.281   4.505
 3513SOL    HW211981   1.862   5.214   4.635
 3514SOL     OW11982   0.221   5.038   5.568
 3514SOL    HW111983   0.156   4.965   5.547
 3514SOL    HW211984   0.225   5.052   5.666
 3515SOL     OW11985   0.079   4.964   4.377
 3515SOL    HW111986   0.078   4.917   4.465
 3515SOL    HW211987   0.161   4.936   4.326
 3516SOL     OW11988   0.672   5.115   5.348
 3516SOL    HW111989   0.594   5.065   5.386
 3516SOL    HW211990   0.669   5.210   5.379
 3517SOL     OW11991   1.824   3.916   4.951
 3517SOL    HW111992   1.820   3.826   4.995
 3517SOL    HW211993   1.827   3.905   4.852
 3518SOL     OW11994   0.428   4.148   4.244
 3518SOL    HW111995   0.458   4.076   4.182
 3518SOL    HW211996   0.389   4.108   4.327
 3519SOL     OW11997   1.705   5.211   4.828
 3519SOL    HW111998   1.612   5.186   4.801
 3519SOL    HW211999   1.731   5.161   4.910
 3520SOL     OW12000   0.317   4.271   5.004
 3520SOL    HW112001   0.355   4.212   5.076
 3520SOL    HW212002   0.357   4.245   4.916
 3521SOL     OW12003   0.812   5.310   4.411
 3521SOL    HW112004   0.844   5.320   4.317
 3521SOL    HW212005   0.733   5.248   4.413
 3522SOL     OW12006   1.424   3.938   4.836
 3522SOL    HW112007   1.476   3.873   4.891
 3522SOL    HW212008   1.375   4.001   4.897
 3523SOL     OW12009   1.001   3.758   4.878
 3523SOL    HW112010   0.938   3.686   4.847
 3523SOL    HW212011   1.094   3.722   4.878
 3524SOL     OW12012   0.770   5.054   4.025
 3524SOL    HW112013   0.724   4.967   4.042
 3524SOL    HW212014   0.861   5.051   4.066
 3525SOL     OW12015   0.618   5.291   5.008
 3525SOL    HW112016   0.613   5.373   5.065
 3525SOL    HW212017   0.707   5.288   4.963
 3526SOL     OW12018   1.352   3.776   3.892
 3526SOL    HW112019   1.387   3.735   3.808
 3526SOL    HW212020   1.262   3.738   3.912
 3527SOL     OW12021   1.300   4.177   4.415
 3527SOL    HW112022   1.241   4.257   4.419
 3527SOL    HW212023   1.315   4.142   4.508
 3528SOL     OW12024   1.593   3.945   4.606
 3528SOL    HW112025   1.509   3.944   4.660
 3528SOL    HW212026   1.595   4.028   4.550
 3529SOL     OW12027   0.039   4.801   4.024
 3529SOL    HW112028   0.138   4.790   4.015
 3529SOL    HW212029  -0.001   4.715   4.056
 3530SOL     OW12030   0.875   5.370   4.061
 3530SOL    HW112031   0.798   5.335   4.007
 3530SOL    HW212032   0.843   5.441   4.123
 3531SOL     OW12033   0.225   3.999   6.582
 3531SOL    HW112034   0.260   3.982   6.674
 3531SOL    HW212035   0.137   3.954   6.570
 3532SOL     OW12036   0.019   4.092   6.233
 3532SOL    HW112037  -0.063   4.135   6.272
 3532SOL    HW212038  -0.009   4.019   6.170
 3533SOL     OW12039   0.569   4.999   6.751
 3533SOL    HW112040   0.476   4.992   6.714
 3533SOL    HW212041   0.580   5.088   6.795
 3534SOL     OW12042   1.555   5.235   6.289
 3534SOL    HW112043   1.498   5.219   6.370
 3534SOL    HW212044   1.496   5.245   6.209
 3535SOL     OW12045   1.135   4.427   6.303
 3535SOL    HW112046   1.192   4.505   6.278
 3535SOL    HW212047   1.075   4.453   6.379
 3536SOL     OW12048   1.755   4.331   5.817
 3536SOL    HW112049   1.743   4.318   5.718
 3536SOL    HW212050   1.725   4.250   5.866
 3537SOL     OW12051   0.768   4.868   6.609
 3537SOL    HW112052   0.690   4.885   6.669
 3537SOL    HW212053   0.802   4.955   6.573
 3538SOL     OW12054   0.850   4.522   7.409
 3538SOL    HW112055   0.846   4.598   7.474
 3538SOL    HW212056   0.872   4.558   7.318
 3539SOL     OW12057   0.685   4.736   6.251
 3539SOL    HW112058   0.754   4.720   6.321
 3539SOL    HW212059   0.612   4.793   6.289
 3540SOL     OW12060   0.686   4.885   7.389
 3540SOL    HW112061   0.746   4.964   7.403
 3540SOL    HW212062   0.600   4.916   7.348
 3541SOL     OW12063   0.335   5.159   6.647
 3541SOL    HW112064   0.257   5.128   6.594
 3541SOL    HW212065   0.393   5.217   6.590
 3542SOL     OW12066   1.460   5.229   6.925
 3542SOL    HW112067   1.484   5.323   6.951
 3542SOL    HW212068   1.444   5.175   7.007
 3543SOL     OW12069   0.438   4.116   7.085
 3543SOL    HW112070   0.520   4.060   7.094
 3543SOL    HW212071   0.357   4.058   7.089
 3544SOL     OW12072   1.603   4.171   6.323
 3544SOL    HW112073   1.529   4.217   6.273
 3544SOL    HW212074   1.654   4.239   6.376
 3545SOL     OW12075   0.231   5.437   6.069
 3545SOL    HW112076   0.265   5.514   6.123
 3545SOL    HW212077   0.275   5.437   5.979
 3546SOL     OW12078   1.127   5.065   7.276
 3546SOL    HW112079   1.174   5.065   7.364
 3546SOL    HW212080   1.079   4.978   7.265
 3547SOL     OW12081   0.230   5.158   6.124
 3547SOL    HW112082   0.204   5.254   6.124
 3547SOL    HW212083   0.159   5.104   6.169
 3548SOL     OW12084   0.240   4.815   6.472
 3548SOL    HW112085   0.254   4.731   6.524
 3548SOL    HW212086   0.185   4.879   6.527
 3549SOL     OW12087   0.620   5.510   7.025
 3549SOL    HW112088   0.528   5.493   7.060
 3549SOL    HW212089   0.648   5.602   7.051
 3550SOL     OW12090   0.606   4.688   5.709
 3550SOL    HW112091   0.613   4.772   5.655
 3550SOL    HW212092   0.652   4.701   5.797
 3551SOL     OW12093   1.594   3.838   7.066
 3551SOL    HW112094   1.576   3.905   6.994
 3551SOL    HW212095   1.591   3.884   7.155
 3552SOL     OW12096   0.122   4.367   6.149
 3552SOL    HW112097   0.077   4.279   6.166
 3552SOL    HW212098   0.121   4.421   6.233
 3553SOL     OW12099   1.842   5.491   5.945
 3553SOL    HW112100   1.896   5.462   6.025
 3553SOL    HW212101   1.872   5.581   5.916
 3554SOL     OW12102   0.027   5.320   5.703
 3554SOL    HW112103   0.008   5.224   5.724
 3554SOL    HW212104  -0.006   5.378   5.778
 3555SOL     OW12105   1.689   4.646   6.198
 3555SOL    HW112106   1.784   4.617   6.206
 3555SOL    HW212107   1.681   4.711   6.123
 3556SOL     OW12108   1.641   4.832   6.018
 3556SOL    HW112109   1.727   4.834   5.966
 3556SOL    HW212110   1.655   4.879   6.106
 3557SOL     OW12111   0.113   4.461   7.183
 3557SOL    HW112112   0.201   4.448   7.228
 3557SOL    HW212113   0.100   4.558   7.161
 3558SOL     OW12114   0.613   5.089   6.312
 3558SOL    HW112115   0.564   5.002   6.321
 3558SOL    HW212116   0.590   5.132   6.225
 3559SOL     OW12117   1.293   4.952   7.009
 3559SOL    HW112118   1.330   4.879   6.951
 3559SOL    HW212119   1.345   4.957   7.094
 3560SOL     OW12120   0.809   3.728   6.088
 3560SOL    HW112121   0.849   3.819   6.079
 3560SOL    HW212122   0.709   3.736   6.094
 3561SOL     OW12123   0.197   4.700   6.850
 3561SOL    HW112124   0.286   4.655   6.836
 3561SOL    HW212125   0.124   4.635   6.831
 3562SOL     OW12126   1.525   4.723   5.776
 3562SOL    HW112127   1.462   4.647   5.789
 3562SOL    HW212128   1.573   4.741   5.862
 3563SOL     OW12129   1.187   5.516   7.202
 3563SOL    HW112130   1.211   5.576   7.126
 3563SOL    HW212131   1.194   5.421   7.172
 3564SOL     OW12132   0.317   3.975   7.387
 3564SOL    HW112133   0.388   4.046   7.393
 3564SOL    HW212134   0.229   4.014   7.415
 3565SOL     OW12135   1.466   5.141   6.539
 3565SOL    HW112136   1.407   5.147   6.619
 3565SOL    HW212137   1.451   5.053   6.493
 3566SOL     OW12138   1.667   5.438   6.158
 3566SOL    HW112139   1.626   5.415   6.070
 3566SOL    HW212140   1.649   5.364   6.223
 3567SOL     OW12141   0.598   4.453   5.856
 3567SOL    HW112142   0.622   4.522   5.788
 3567SOL    HW212143   0.520   4.486   5.910
 3568SOL     OW12144   1.281   4.069   6.530
 3568SOL    HW112145   1.195   4.019   6.517
 3568SOL    HW212146   1.343   4.015   6.586
 3569SOL     OW12147   1.576   5.386   5.893
 3569SOL    HW112148   1.665   5.432   5.896
 3569SOL    HW212149   1.555   5.362   5.798
 3570SOL     OW12150   0.807   4.329   7.051
 3570SOL    HW112151   0.760   4.326   7.140
 3570SOL    HW212152   0.756   4.274   6.985
 3571SOL     OW12153   1.394   4.193   7.260
 3571SOL    HW112154   1.374   4.236   7.348
 3571SOL    HW212155   1.472   4.131   7.269
 3572SOL     OW12156   0.973   4.614   7.158
 3572SOL    HW112157   1.019   4.530   7.129
 3572SOL    HW212158   0.917   4.648   7.083
 3573SOL     OW12159   0.991   4.134   6.828
 3573SOL    HW112160   0.914   4.168   6.882
 3573SOL    HW212161   0.957   4.083   6.749
 3574SOL     OW12162   1.041   4.425   6.015
 3574SOL    HW112163   1.067   4.421   6.111
 3574SOL    HW212164   0.956   4.374   6.001
 3575SOL     OW12165   0.076   4.535   6.375
 3575SOL    HW112166   0.175   4.523   6.384
 3575SOL    HW212167   0.052   4.630   6.396
 3576SOL     OW12168   0.130   5.545   7.157
 3576SOL    HW112169   0.120   5.530   7.256
 3576SOL    HW212170   0.044   5.581   7.121
 3577SOL     OW12171   0.865   4.072   5.781
 3577SOL    HW112172   0.924   4.135   5.732
 3577SOL    HW212173   0.884   3.978   5.752
 3578SOL     OW12174   1.719   4.309   7.417
 3578SOL    HW112175   1.693   4.398   7.381
 3578SOL    HW212176   1.717   4.241   7.344
 3579SOL     OW12177   1.362   4.868   6.131
 3579SOL    HW112178   1.445   4.839   6.083
 3579SOL    HW212179   1.313   4.935   6.075
 3580SOL     OW12180   0.550   3.920   6.471
 3580SOL    HW112181   0.545   3.915   6.571
 3580SOL    HW212182   0.552   4.016   6.442
 3581SOL     OW12183   1.008   5.180   6.063
 3581SOL    HW112184   0.962   5.252   6.011
 3581SOL    HW212185   1.004   5.200   6.161
 3582SOL     OW12186   0.351   5.525   6.439
 3582SOL    HW112187   0.401   5.439   6.445
 3582SOL    HW212188   0.416   5.602   6.436
 3583SOL     OW12189   1.795   4.790   6.459
 3583SOL    HW112190   1.733   4.775   6.383
 3583SOL    HW212191   1.743   4.801   6.544
 3584SOL     OW12192   1.227   5.274   7.092
 3584SOL    HW112193   1.233   5.197   7.156
 3584SOL    HW212194   1.175   5.248   7.012
 3585SOL     OW12195   0.321   4.667   5.828
 3585SOL    HW112196   0.403   4.706   5.786
 3585SOL    HW212197   0.294   4.585   5.779
 3586SOL     OW12198   1.458   4.459   6.314
 3586SOL    HW112199   1.453   4.394   6.389
 3586SOL    HW212200   1.538   4.518   6.327
 3587SOL     OW12201   0.461   4.990   7.313
 3587SOL    HW112202   0.411   4.991   7.227
 3587SOL    HW212203   0.398   4.972   7.389
 3588SOL     OW12204   1.111   5.500   5.823
 3588SOL    HW112205   1.051   5.438   5.873
 3588SOL    HW212206   1.142   5.456   5.738
 3589SOL     OW12207   0.202   4.009   7.084
 3589SOL    HW112208   0.122   4.069   7.071
 3589SOL    HW212209   0.192   3.960   7.170
 3590SOL     OW12210   1.632   5.101   5.667
 3590SOL    HW112211   1.600   5.195   5.657
 3590SOL    HW212212   1.556   5.038   5.655
 3591SOL     OW12213   0.464   5.467   5.909
 3591SOL    HW112214   0.497   5.506   5.995
 3591SOL    HW212215   0.540   5.460   5.844
 3592SOL     OW12216   1.400   3.831   6.012
 3592SOL    HW112217   1.376   3.794   5.922
 3592SOL    HW212218   1.499   3.847   6.016
 3593SOL     OW12219   0.249   5.509   6.827
 3593SOL    HW112220   0.306   5.444   6.877
 3593SOL    HW212221   0.233   5.476   6.734
 3594SOL     OW12222   0.940   5.422   6.490
 3594SOL    HW112223   1.020   5.365   6.511
 3594SOL    HW212224   0.891   5.382   6.413
 3595SOL     OW12225   0.382   4.424   6.066
 3595SOL    HW112226   0.427   4.334   6.063
 3595SOL    HW212227   0.288   4.413   6.099
 3596SOL     OW12228   1.547   3.946   7.315
 3596SOL    HW112229   1.542   3.983   7.407
 3596SOL    HW212230   1.475   3.877   7.303
 3597SOL     OW12231   0.614   3.846   5.703
 3597SOL    HW112232   0.712   3.824   5.710
 3597SOL    HW212233   0.583   3.829   5.610
 3598SOL     OW12234   0.781   3.988   7.335
 3598SOL    HW112235   0.848   3.927   7.378
 3598SOL    HW212236   0.708   4.007   7.400
 3599SOL     OW12237   0.888   5.238   6.781
 3599SOL    HW112238   0.865   5.213   6.687
 3599SOL    HW212239   0.949   5.169   6.820
 3600SOL     OW12240   1.351   4.314   7.019
 3600SOL    HW112241   1.379   4.271   7.104
 3600SOL    HW212242   1.376   4.410   7.020
 3601SOL     OW12243   0.803   5.126   6.510
 3601SOL    HW112244   0.893   5.140   6.468
 3601SOL    HW212245   0.732   5.128   6.439
 3602SOL     OW12246   0.922   4.227   6.485
 3602SOL    HW112247   0.897   4.218   6.389
 3602SOL    HW212248   0.970   4.145   6.516
 3603SOL     OW12249   0.539   3.788   6.098
 3603SOL    HW112250   0.458   3.789   6.156
 3603SOL    HW212251   0.542   3.871   6.043
 3604SOL     OW12252   1.434   4.912   5.627
 3604SOL    HW112253   1.466   4.836   5.684
 3604SOL    HW212254   1.342   4.939   5.657
 3605SOL     OW12255   0.297   3.759   5.757
 3605SOL    HW112256   0.346   3.843   5.736
 3605SOL    HW212257   0.359   3.694   5.802
 3606SOL     OW12258   0.935   3.960   6.066
 3606SOL    HW112259   0.887   4.001   5.988
 3606SOL    HW212260   1.034   3.958   6.047
 3607SOL     OW12261   1.076   4.407   7.050
 3607SOL    HW112262   0.996   4.346   7.053
 3607SOL    HW212263   1.157   4.354   7.026
 3608SOL     OW12264   1.227   5.294   6.379
 3608SOL    HW112265   1.248   5.368   6.314
 3608SOL    HW212266   1.295   5.294   6.452
 3609SOL     OW12267   0.459   4.876   6.327
 3609SOL    HW112268   0.388   4.849   6.392
 3609SOL    HW212269   0.433   4.848   6.234
 3610SOL     OW12270   1.271   5.521   6.177
 3610SOL    HW112271   1.315   5.585   6.113
 3610SOL    HW212272   1.221   5.573   6.247
 3611SOL     OW12273   1.032   4.273   5.602
 3611SOL    HW112274   0.991   4.355   5.563
 3611SOL    HW212275   1.096   4.299   5.675
 3612SOL     OW12276   0.078   4.280   6.972
 3612SOL    HW112277   0.170   4.279   6.931
 3612SOL    HW212278   0.072   4.354   7.039
 3613SOL     OW12279   0.561   3.946   6.733
 3613SOL    HW112280   0.599   3.862   6.770
 3613SOL    HW212281   0.473   3.965   6.777
 3614SOL     OW12282   0.866   4.178   6.228
 3614SOL    HW112283   0.834   4.250   6.166
 3614SOL    HW212284   0.890   4.097   6.175
 3615SOL     OW12285   1.017   3.763   6.339
 3615SOL    HW112286   0.945   3.768   6.270
 3615SOL    HW212287   0.993   3.694   6.408
 3616SOL     OW12288   1.429   4.897   6.453
 3616SOL    HW112289   1.374   4.813   6.446
 3616SOL    HW212290   1.455   4.926   6.361
 3617SOL     OW12291   1.466   4.314   6.578
 3617SOL    HW112292   1.436   4.219   6.585
 3617SOL    HW212293   1.539   4.330   6.644
 3618SOL     OW12294   1.857   4.557   5.963
 3618SOL    HW112295   1.899   4.493   6.027
 3618SOL    HW212296   1.819   4.506   5.885
 3619SOL     OW12297   0.488   5.109   5.760
 3619SOL    HW112298   0.401   5.094   5.807
 3619SOL    HW212299   0.471   5.135   5.665
 3620SOL     OW12300   1.664   5.004   6.243
 3620SOL    HW112301   1.763   5.012   6.257
 3620SOL    HW212302   1.619   5.088   6.274
 3621SOL     OW12303   1.390   4.299   5.664
 3621SOL    HW112304   1.336   4.278   5.745
 3621SOL    HW212305   1.481   4.258   5.673
 3622SOL     OW12306   0.527   3.980   5.914
 3622SOL    HW112307   0.554   3.921   5.839
 3622SOL    HW212308   0.527   4.075   5.883
 3623SOL     OW12309   1.754   4.947   7.174
 3623SOL    HW112310   1.845   4.908   7.161
 3623SOL    HW212311   1.762   5.043   7.198
 3624SOL     OW12312   1.064   5.071   6.926
 3624SOL    HW112313   0.984   5.048   6.981
 3624SOL    HW212314   1.147   5.045   6.975
 3625SOL     OW12315   1.592   5.353   7.211
 3625SOL    HW112316   1.619   5.387   7.121
 3625SOL    HW212317   1.671   5.315   7.257
 3626SOL     OW12318   1.111   4.919   6.686
 3626SOL    HW112319   1.071   4.963   6.767
 3626SOL    HW212320   1.070   4.956   6.603
 3627SOL     OW12321   1.638   4.823   6.665
 3627SOL    HW112322   1.643   4.904   6.724
 3627SOL    HW212323   1.552   4.825   6.614
 3628SOL     OW12324   0.915   3.813   6.988
 3628SOL    HW112325   0.940   3.793   6.893
 3628SOL    HW212326   0.987   3.869   7.030
 3629SOL     OW12327   0.980   4.840   7.305
 3629SOL    HW112328   0.881   4.846   7.315
 3629SOL    HW212329   1.003   4.760   7.249
 3630SOL     OW12330   0.705   4.774   5.954
 3630SOL    HW112331   0.691   4.781   6.053
 3630SOL    HW212332   0.789   4.723   5.936
 3631SOL     OW12333   0.410   4.537   6.837
 3631SOL    HW112334   0.496   4.549   6.887
 3631SOL    HW212335   0.368   4.450   6.864
 3632SOL     OW12336   1.274   4.110   6.848
 3632SOL    HW112337   1.295   4.184   6.912
 3632SOL    HW212338   1.185   4.127   6.805
 3633SOL     OW12339   0.064   5.288   6.917
 3633SOL    HW112340   0.018   5.370   6.883
 3633SOL    HW212341   0.162   5.307   6.926
 3634SOL     OW12342   0.367   4.824   6.087
 3634SOL    HW112343   0.360   4.907   6.031
 3634SOL    HW212344   0.371   4.744   6.027
 3635SOL     OW12345   0.566   4.261   6.451
 3635SOL    HW112346   0.578   4.327   6.377
 3635SOL    HW212347   0.612   4.295   6.534
 3636SOL     OW12348   1.252   5.072   5.974
 3636SOL    HW112349   1.302   5.149   6.014
 3636SOL    HW212350   1.157   5.074   6.006
 3637SOL     OW12351   1.272   5.169   6.728
 3637SOL    HW112352   1.319   5.182   6.815
 3637SOL    HW212353   1.206   5.095   6.737
 3638SOL     OW12354   1.582   4.363   6.058
 3638SOL    HW112355   1.551   4.424   6.131
 3638SOL    HW212356   1.632   4.415   5.989
 3639SOL     OW12357   0.354   5.234   6.915
 3639SOL    HW112358   0.333   5.190   6.828
 3639SOL    HW212359   0.451   5.260   6.918
 3640SOL     OW12360   0.402   4.475   7.184
 3640SOL    HW112361   0.470   4.530   7.137
 3640SOL    HW212362   0.442   4.387   7.211
 3641SOL     OW12363   1.587   4.503   7.256
 3641SOL    HW112364   1.495   4.541   7.251
 3641SOL    HW212365   1.647   4.550   7.191
 3642SOL     OW12366   1.013   3.829   7.356
 3642SOL    HW112367   1.019   3.914   7.304
 3642SOL    HW212368   1.045   3.753   7.299
 3643SOL     OW12369   0.504   3.774   7.326
 3643SOL    HW112370   0.462   3.717   7.256
 3643SOL    HW212371   0.438   3.843   7.358
 3644SOL     OW12372   0.573   4.594   6.615
 3644SOL    HW112373   0.617   4.683   6.606
 3644SOL    HW212374   0.510   4.594   6.692
 3645SOL     OW12375   1.360   4.586   6.631
 3645SOL    HW112376   1.285   4.586   6.565
 3645SOL    HW212377   1.397   4.494   6.640
 3646SOL     OW12378   1.209   4.249   5.861
 3646SOL    HW112379   1.222   4.165   5.915
 3646SOL    HW212380   1.180   4.323   5.921
 3647SOL     OW12381   0.307   3.937   6.817
 3647SOL    HW112382   0.284   3.974   6.907
 3647SOL    HW212383   0.277   3.842   6.811
 3648SOL     OW12384   0.037   5.034   6.868
 3648SOL    HW112385   0.090   4.985   6.936
 3648SOL    HW212386   0.059   5.132   6.873
 3649SOL     OW12387   0.732   4.358   6.650
 3649SOL    HW112388   0.791   4.332   6.574
 3649SOL    HW212389   0.704   4.454   6.639
 3650SOL     OW12390   1.728   4.659   7.440
 3650SOL    HW112391   1.682   4.652   7.351
 3650SOL    HW212392   1.666   4.703   7.506
 3651SOL     OW12393   0.307   3.787   6.204
 3651SOL    HW112394   0.296   3.881   6.237
 3651SOL    HW212395   0.302   3.724   6.281
 3652SOL     OW12396   1.622   4.091   5.960
 3652SOL    HW112397   1.624   4.015   6.024
 3652SOL    HW212398   1.574   4.168   6.000
 3653SOL     OW12399   1.023   4.490   6.552
 3653SOL    HW112400   1.038   4.511   6.648
 3653SOL    HW212401   0.993   4.395   6.543
 3654SOL     OW12402   0.980   5.297   7.286
 3654SOL    HW112403   0.960   5.341   7.198
 3654SOL    HW212404   1.019   5.206   7.270
 3655SOL     OW12405   1.859   5.242   7.191
 3655SOL    HW112406   1.873   5.269   7.096
 3655SOL    HW212407   1.942   5.264   7.244
 3656SOL     OW12408   0.350   4.622   7.390
 3656SOL    HW112409   0.426   4.666   7.438
 3656SOL    HW212410   0.385   4.575   7.308
 3657SOL     OW12411   1.540   3.998   5.711
 3657SOL    HW112412   1.479   3.923   5.734
 3657SOL    HW212413   1.562   4.050   5.794
 3658SOL     OW12414   1.303   4.562   5.628
 3658SOL    HW112415   1.337   4.469   5.643
 3658SOL    HW212416   1.321   4.589   5.533
 3659SOL     OW12417   1.068   5.057   6.435
 3659SOL    HW112418   1.075   4.973   6.380
 3659SOL    HW212419   1.130   5.126   6.399
 3660SOL     OW12420   0.319   4.534   6.535
 3660SOL    HW112421   0.412   4.570   6.540
 3660SOL    HW212422   0.313   4.449   6.587
 3661SOL     OW12423   0.339   4.233   6.592
 3661SOL    HW112424   0.287   4.150   6.575
 3661SOL    HW212425   0.416   4.238   6.528
 3662SOL     OW12426   1.138   4.104   7.264
 3662SOL    HW112427   1.093   4.167   7.328
 3662SOL    HW212428   1.231   4.135   7.247
 3663SOL     OW12429   1.160   3.931   7.063
 3663SOL    HW112430   1.160   3.995   7.140
 3663SOL    HW212431   1.188   3.979   6.980
 3664SOL     OW12432   0.008   5.050   5.786
 3664SOL    HW112433  -0.085   5.071   5.755
 3664SOL    HW212434   0.018   4.951   5.799
 3665SOL     OW12435   0.088   5.525   6.513
 3665SOL    HW112436   0.046   5.439   6.486
 3665SOL    HW212437   0.182   5.528   6.479
 3666SOL     OW12438   0.504   5.292   6.496
 3666SOL    HW112439   0.570   5.366   6.505
 3666SOL    HW212440   0.548   5.213   6.454
 3667SOL     OW12441   1.002   4.520   6.824
 3667SOL    HW112442   1.043   4.488   6.910
 3667SOL    HW212443   0.906   4.493   6.821
 3668SOL     OW12444   0.040   4.268   6.700
 3668SOL    HW112445   0.125   4.235   6.659
 3668SOL    HW212446   0.053   4.283   6.798
 3669SOL     OW12447   0.189   4.244   7.308
 3669SOL    HW112448   0.248   4.204   7.238
 3669SOL    HW212449   0.131   4.315   7.267
 3670SOL     OW12450   1.369   4.674   7.246
 3670SOL    HW112451   1.408   4.763   7.266
 3670SOL    HW212452   1.379   4.654   7.149
 3671SOL     OW12453   0.815   4.296   5.911
 3671SOL    HW112454   0.822   4.207   5.865
 3671SOL    HW212455   0.721   4.330   5.903
 3672SOL     OW12456   1.657   4.328   6.792
 3672SOL    HW112457   1.619   4.259   6.854
 3672SOL    HW212458   1.739   4.292   6.748
 3673SOL     OW12459   0.252   5.288   7.330
 3673SOL    HW112460   0.222   5.345   7.406
 3673SOL    HW212461   0.245   5.191   7.356
 3674SOL     OW12462   0.671   4.188   6.855
 3674SOL    HW112463   0.637   4.099   6.825
 3674SOL    HW212464   0.697   4.242   6.775
 3675SOL     OW12465   0.930   5.402   7.051
 3675SOL    HW112466   0.906   5.384   6.956
 3675SOL    HW212467   0.960   5.496   7.061
 3676SOL     OW12468   0.473   4.224   5.777
 3676SOL    HW112469   0.534   4.304   5.781
 3676SOL    HW212470   0.378   4.255   5.784
 3677SOL     OW12471   0.159   4.861   7.052
 3677SOL    HW112472   0.181   4.800   7.128
 3677SOL    HW212473   0.169   4.812   6.966
 3678SOL     OW12474   1.347   4.783   6.820
 3678SOL    HW112475   1.371   4.720   6.746
 3678SOL    HW212476   1.257   4.823   6.802
 3679SOL     OW12477   1.302   4.579   5.895
 3679SOL    HW112478   1.216   4.548   5.937
 3679SOL    HW212479   1.298   4.565   5.796
 3680SOL     OW12480   1.759   5.471   6.740
 3680SOL    HW112481   1.820   5.501   6.667
 3680SOL    HW212482   1.721   5.382   6.718
 3681SOL     OW12483   1.252   5.455   6.714
 3681SOL    HW112484   1.336   5.460   6.660
 3681SOL    HW212485   1.229   5.359   6.732
 3682SOL     OW12486   0.083   4.982   6.608
 3682SOL    HW112487   0.078   4.981   6.708
 3682SOL    HW212488   0.000   4.941   6.570
 3683SOL     OW12489   0.688   5.386   7.302
 3683SOL    HW112490   0.632   5.467   7.311
 3683SOL    HW212491   0.740   5.390   7.216
 3684SOL     OW12492   1.726   3.859   6.109
 3684SOL    HW112493   1.799   3.842   6.042
 3684SOL    HW212494   1.695   3.772   6.147
 3685SOL     OW12495   1.388   5.297   6.063
 3685SOL    HW112496   1.455   5.309   5.989
 3685SOL    HW212497   1.348   5.386   6.086
 3686SOL     OW12498   0.130   5.518   7.437
 3686SOL    HW112499   0.089   5.444   7.490
 3686SOL    HW212500   0.194   5.569   7.495
 3687SOL     OW12501   1.280   4.651   6.258
 3687SOL    HW112502   1.340   4.570   6.260
 3687SOL    HW212503   1.320   4.720   6.198
 3688SOL     OW12504   0.830   4.997   7.008
 3688SOL    HW112505   0.825   5.030   7.103
 3688SOL    HW212506   0.744   5.016   6.962
 3689SOL     OW12507   0.672   5.340   5.740
 3689SOL    HW112508   0.681   5.350   5.641
 3689SOL    HW212509   0.632   5.251   5.761
 3690SOL     OW12510   1.650   5.444   6.980
 3690SOL    HW112511   1.703   5.454   6.896
 3690SOL    HW212512   1.623   5.534   7.014
 3691SOL     OW12513   1.841   3.899   6.549
 3691SOL    HW112514   1.880   3.814   6.513
 3691SOL    HW212515   1.743   3.901   6.530
 3692SOL     OW12516   0.263   4.050   6.306
 3692SOL    HW112517   0.184   4.101   6.272
 3692SOL    HW212518   0.254   4.035   6.404
 3693SOL     OW12519   1.194   5.336   5.617
 3693SOL    HW112520   1.200   5.243   5.654
 3693SOL    HW212521   1.135   5.336   5.537
 3694SOL     OW12522   0.822   4.726   6.958
 3694SOL    HW112523   0.862   4.725   6.866
 3694SOL    HW212524   0.832   4.818   6.998
 3695SOL     OW12525   0.916   4.634   5.877
 3695SOL    HW112526   0.979   4.672   5.809
 3695SOL    HW212527   0.956   4.551   5.916
 3696SOL     OW12528   1.504   5.331   5.630
 3696SOL    HW112529   1.412   5.368   5.637
 3696SOL    HW212530   1.542   5.351   5.540
 3697SOL     OW12531   0.372   5.012   7.076
 3697SOL    HW112532   0.359   5.105   7.042
 3697SOL    HW212533   0.288   4.960   7.063
 3698SOL     OW12534   1.614   5.016   6.875
 3698SOL    HW112535   1.674   5.019   6.955
 3698SOL    HW212536   1.539   5.080   6.888
 3699SOL     OW12537   1.039   4.822   6.282
 3699SOL    HW112538   0.969   4.775   6.336
 3699SOL    HW212539   1.098   4.754   6.239
 3700SOL     OW12540   1.014   3.960   6.557
 3700SOL    HW112541   1.006   3.924   6.464
 3700SOL    HW212542   1.012   3.884   6.622
 3701SOL     OW12543   0.590   5.211   6.077
 3701SOL    HW112544   0.632   5.153   6.007
 3701SOL    HW212545   0.546   5.290   6.033
 3702SOL     OW12546   1.709   4.109   6.967
 3702SOL    HW112547   1.782   4.178   6.971
 3702SOL    HW212548   1.737   4.034   6.908
 3703SOL     OW12549   0.255   5.072   5.876
 3703SOL    HW112550   0.159   5.073   5.849
 3703SOL    HW212551   0.267   5.125   5.960
 3704SOL     OW12552   0.105   4.737   7.312
 3704SOL    HW112553   0.028   4.704   7.366
 3704SOL    HW212554   0.190   4.707   7.354
 3705SOL     OW12555   0.672   3.927   7.075
 3705SOL    HW112556   0.762   3.911   7.035
 3705SOL    HW212557   0.680   3.932   7.174
 3706SOL     OW12558   0.075   4.069   5.619
 3706SOL    HW112559  -0.017   4.041   5.590
 3706SOL    HW212560   0.106   4.146   5.563
 3707SOL     OW12561   1.440   4.580   6.984
 3707SOL    HW112562   1.383   4.632   6.921
 3707SOL    HW212563   1.536   4.592   6.960
 3708SOL     OW12564   0.072   3.890   5.904
 3708SOL    HW112565   0.055   3.973   5.850
 3708SOL    HW212566   0.162   3.853   5.882
 3709SOL     OW12567   1.183   5.059   5.705
 3709SOL    HW112568   1.084   5.048   5.707
 3709SOL    HW212569   1.217   5.074   5.798
 3710SOL     OW12570   0.613   4.566   7.017
 3710SOL    HW112571   0.669   4.647   7.000
 3710SOL    HW212572   0.672   4.486   7.020
 3711SOL     OW12573   1.493   5.491   6.545
 3711SOL    HW112574   1.526   5.555   6.476
 3711SOL    HW212575   1.559   5.485   6.620
 3712SOL     OW12576   0.716   4.289   7.294
 3712SOL    HW112577   0.735   4.354   7.368
 3712SOL    HW212578   0.776   4.209   7.303
 3713SOL     OW12579   1.450   4.944   7.219
 3713SOL    HW112580   1.441   4.934   7.318
 3713SOL    HW212581   1.546   4.937   7.193
 3714SOL     OW12582   0.390   5.465   7.146
 3714SOL    HW112583   0.299   5.506   7.144
 3714SOL    HW212584   0.383   5.371   7.178
 3715SOL     OW12585   1.674   4.607   6.840
 3715SOL    HW112586   1.647   4.518   6.803
 3715SOL    HW212587   1.675   4.675   6.767
 3716SOL     OW12588   1.225   4.049   6.035
 3716SOL    HW112589   1.290   3.975   6.024
 3716SOL    HW212590   1.245   4.099   6.119
 3717SOL     OW12591   0.594   4.469   6.238
 3717SOL    HW112592   0.644   4.554   6.219
 3717SOL    HW212593   0.506   4.471   6.190
 3718SOL     OW12594   1.777   4.066   7.228
 3718SOL    HW112595   1.760   4.097   7.134
 3718SOL    HW212596   1.693   4.029   7.266
 3719SOL     OW12597   1.730   4.658   7.103
 3719SOL    HW112598   1.768   4.749   7.118
 3719SOL    HW212599   1.722   4.641   7.004
 3720SOL     OW12600   0.859   5.098   5.602
 3720SOL    HW112601   0.813   5.113   5.690
 3720SOL    HW212602   0.903   5.183   5.572
 3721SOL     OW12603   0.661   5.514   6.539
 3721SOL    HW112604   0.615   5.602   6.526
 3721SOL    HW212605   0.760   5.526   6.532
 3722SOL     OW12606   0.859   4.680   6.447
 3722SOL    HW112607   0.913   4.611   6.495
 3722SOL    HW212608   0.827   4.749   6.513
 3723SOL     OW12609   1.083   4.708   5.673
 3723SOL    HW112610   1.060   4.761   5.591
 3723SOL    HW212611   1.164   4.652   5.654
 3724SOL     OW12612   1.861   5.293   6.437
 3724SOL    HW112613   1.790   5.281   6.367
 3724SOL    HW212614   1.862   5.214   6.497
 3725SOL     OW12615   0.221   5.038   7.430
 3725SOL    HW112616   0.156   4.965   7.409
 3725SOL    HW212617   0.225   5.052   7.528
 3726SOL     OW12618   0.079   4.964   6.239
 3726SOL    HW112619   0.078   4.917   6.327
 3726SOL    HW212620   0.161   4.936   6.188
 3727SOL     OW12621   0.672   5.115   7.210
 3727SOL    HW112622   0.594   5.065   7.248
 3727SOL    HW212623   0.669   5.210   7.241
 3728SOL     OW12624   1.824   3.916   6.813
 3728SOL    HW112625   1.820   3.826   6.857
 3728SOL    HW212626   1.827   3.905   6.714
 3729SOL     OW12627   0.428   4.148   6.106
 3729SOL    HW112628   0.458   4.076   6.044
 3729SOL    HW212629   0.389   4.108   6.189
 3730SOL     OW12630   1.705   5.211   6.690
 3730SOL    HW112631   1.612   5.186   6.663
 3730SOL    HW212632   1.731   5.161   6.772
 3731SOL     OW12633   0.317   4.271   6.866
 3731SOL    HW112634   0.355   4.212   6.938
 3731SOL    HW212635   0.357   4.245   6.778
 3732SOL     OW12636   0.812   5.310   6.273
 3732SOL    HW112637   0.844   5.320   6.179
 3732SOL    HW212638   0.733   5.248   6.275
 3733SOL     OW12639   1.424   3.938   6.698
 3733SOL    HW112640   1.476   3.873   6.753
 3733SOL    HW212641   1.375   4.001   6.759
 3734SOL     OW12642   1.001   3.758   6.740
 3734SOL    HW112643   0.938   3.686   6.709
 3734SOL    HW212644   1.094   3.722   6.740
 3735SOL     OW12645   0.770   5.054   5.887
 3735SOL    HW112646   0.724   4.967   5.904
 3735SOL    HW212647   0.861   5.051   5.928
 3736SOL     OW12648   0.618   5.291   6.870
 3736SOL    HW112649   0.613   5.373   6.927
 3736SOL    HW212650   0.707   5.288   6.825
 3737SOL     OW12651   1.352   3.776   5.754
 3737SOL    HW112652   1.387   3.735   5.670
 3737SOL    HW212653   1.262   3.738   5.774
 3738SOL     OW12654   1.300   4.177   6.277
 3738SOL    HW112655   1.241   4.257   6.281
 3738SOL    HW212656   1.315   4.142   6.370
 3739SOL     OW12657   1.593   3.945   6.468
 3739SOL    HW112658   1.509   3.944   6.522
 3739SOL    HW212659   1.595   4.028   6.412
 3740SOL     OW12660   0.039   4.801   5.886
 3740SOL    HW112661   0.138   4.790   5.877
 3740SOL    HW212662  -0.001   4.715   5.918
 3741SOL     OW12663   0.875   5.370   5.923
 3741SOL    HW112664   0.798   5.335   5.869
 3741SOL    HW212665   0.843   5.441   5.985
 3742SOL     OW12666   0.230   4.352   7.561
 3742SOL    HW112667   0.137   4.350   7.598
 3742SOL    HW212668   0.231   4.313   7.469
 3743SOL     OW12669   0.225   3.999   8.444
 3743SOL    HW112670   0.260   3.982   8.536
 3743SOL    HW212671   0.137   3.954   8.432
 3744SOL     OW12672   0.019   4.092   8.095
 3744SOL    HW112673  -0.063   4.135   8.134
 3744SOL    HW212674  -0.009   4.019   8.032
 3745SOL     OW12675   0.569   4.999   8.613
 3745SOL    HW112676   0.476   4.992   8.576
 3745SOL    HW212677   0.580   5.088   8.657
 3746SOL     OW12678   1.555   5.235   8.151
 3746SOL    HW112679   1.498   5.219   8.232
 3746SOL    HW212680   1.496   5.245   8.071
 3747SOL     OW12681   1.135   4.427   8.165
 3747SOL    HW112682   1.192   4.505   8.140
 3747SOL    HW212683   1.075   4.453   8.241
 3748SOL     OW12684   1.755   4.331   7.679
 3748SOL    HW112685   1.743   4.318   7.580
 3748SOL    HW212686   1.725   4.250   7.728
 3749SOL     OW12687   0.768   4.868   8.471
 3749SOL    HW112688   0.690   4.885   8.531
 3749SOL    HW212689   0.802   4.955   8.435
 3750SOL     OW12690   0.850   4.522   9.271
 3750SOL    HW112691   0.846   4.598   9.336
 3750SOL    HW212692   0.872   4.558   9.180
 3751SOL     OW12693   0.685   4.736   8.113
 3751SOL    HW112694   0.754   4.720   8.183
 3751SOL    HW212695   0.612   4.793   8.151
 3752SOL     OW12696   0.686   4.885   9.251
 3752SOL    HW112697   0.746   4.964   9.265
 3752SOL    HW212698   0.600   4.916   9.210
 3753SOL     OW12699   0.335   5.159   8.509
 3753SOL    HW112700   0.257   5.128   8.456
 3753SOL    HW212701   0.393   5.217   8.452
 3754SOL     OW12702   1.460   5.229   8.787
 3754SOL    HW112703   1.484   5.323   8.813
 3754SOL    HW212704   1.444   5.175   8.869
 3755SOL     OW12705   0.438   4.116   8.947
 3755SOL    HW112706   0.520   4.060   8.956
 3755SOL    HW212707   0.357   4.058   8.951
 3756SOL     OW12708   1.603   4.171   8.185
 3756SOL    HW112709   1.529   4.217   8.135
 3756SOL    HW212710   1.654   4.239   8.238
 3757SOL     OW12711   0.231   5.437   7.931
 3757SOL    HW112712   0.265   5.514   7.985
 3757SOL    HW212713   0.275   5.437   7.841
 3758SOL     OW12714   1.127   5.065   9.138
 3758SOL    HW112715   1.174   5.065   9.226
 3758SOL    HW212716   1.079   4.978   9.127
 3759SOL     OW12717   0.230   5.158   7.986
 3759SOL    HW112718   0.204   5.254   7.986
 3759SOL    HW212719   0.159   5.104   8.031
 3760SOL     OW12720   0.240   4.815   8.334
 3760SOL    HW112721   0.254   4.731   8.386
 3760SOL    HW212722   0.185   4.879   8.389
 3761SOL     OW12723   0.620   5.510   8.887
 3761SOL    HW112724   0.528   5.493   8.922
 3761SOL    HW212725   0.648   5.602   8.913
 3762SOL     OW12726   0.606   4.688   7.571
 3762SOL    HW112727   0.613   4.772   7.517
 3762SOL    HW212728   0.652   4.701   7.659
 3763SOL     OW12729   1.594   3.838   8.928
 3763SOL    HW112730   1.576   3.905   8.856
 3763SOL    HW212731   1.591   3.884   9.017
 3764SOL     OW12732   0.122   4.367   8.011
 3764SOL    HW112733   0.077   4.279   8.028
 3764SOL    HW212734   0.121   4.421   8.095
 3765SOL     OW12735   1.842   5.491   7.807
 3765SOL    HW112736   1.896   5.462   7.887
 3765SOL    HW212737   1.872   5.581   7.778
 3766SOL     OW12738   0.027   5.320   7.565
 3766SOL    HW112739   0.008   5.224   7.586
 3766SOL    HW212740  -0.006   5.378   7.640
 3767SOL     OW12741   1.689   4.646   8.060
 3767SOL    HW112742   1.784   4.617   8.068
 3767SOL    HW212743   1.681   4.711   7.985
 3768SOL     OW12744   1.641   4.832   7.880
 3768SOL    HW112745   1.727   4.834   7.828
 3768SOL    HW212746   1.655   4.879   7.968
 3769SOL     OW12747   0.113   4.461   9.045
 3769SOL    HW112748   0.201   4.448   9.090
 3769SOL    HW212749   0.100   4.558   9.023
 3770SOL     OW12750   0.613   5.089   8.174
 3770SOL    HW112751   0.564   5.002   8.183
 3770SOL    HW212752   0.590   5.132   8.087
 3771SOL     OW12753   1.293   4.952   8.871
 3771SOL    HW112754   1.330   4.879   8.813
 3771SOL    HW212755   1.345   4.957   8.956
 3772SOL     OW12756   0.809   3.728   7.950
 3772SOL    HW112757   0.849   3.819   7.941
 3772SOL    HW212758   0.709   3.736   7.956
 3773SOL     OW12759   0.197   4.700   8.712
 3773SOL    HW112760   0.286   4.655   8.698
 3773SOL    HW212761   0.124   4.635   8.693
 3774SOL     OW12762   1.525   4.723   7.638
 3774SOL    HW112763   1.462   4.647   7.651
 3774SOL    HW212764   1.573   4.741   7.724
 3775SOL     OW12765   1.187   5.516   9.064
 3775SOL    HW112766   1.211   5.576   8.988
 3775SOL    HW212767   1.194   5.421   9.034
 3776SOL     OW12768   0.317   3.975   9.249
 3776SOL    HW112769   0.388   4.046   9.255
 3776SOL    HW212770   0.229   4.014   9.277
 3777SOL     OW12771   1.466   5.141   8.401
 3777SOL    HW112772   1.407   5.147   8.481
 3777SOL    HW212773   1.451   5.053   8.355
 3778SOL     OW12774   1.667   5.438   8.020
 3778SOL    HW112775   1.626   5.415   7.932
 3778SOL    HW212776   1.649   5.364   8.085
 3779SOL     OW12777   0.598   4.453   7.718
 3779SOL    HW112778   0.622   4.522   7.650
 3779SOL    HW212779   0.520   4.486   7.772
 3780SOL     OW12780   1.281   4.069   8.392
 3780SOL    HW112781   1.195   4.019   8.379
 3780SOL    HW212782   1.343   4.015   8.448
 3781SOL     OW12783   1.576   5.386   7.755
 3781SOL    HW112784   1.665   5.432   7.758
 3781SOL    HW212785   1.555   5.362   7.660
 3782SOL     OW12786   0.807   4.329   8.913
 3782SOL    HW112787   0.760   4.326   9.002
 3782SOL    HW212788   0.756   4.274   8.847
 3783SOL     OW12789   1.394   4.193   9.122
 3783SOL    HW112790   1.374   4.236   9.210
 3783SOL    HW212791   1.472   4.131   9.131
 3784SOL     OW12792   0.973   4.614   9.020
 3784SOL    HW112793   1.019   4.530   8.991
 3784SOL    HW212794   0.917   4.648   8.945
 3785SOL     OW12795   0.991   4.134   8.690
 3785SOL    HW112796   0.914   4.168   8.744
 3785SOL    HW212797   0.957   4.083   8.611
 3786SOL     OW12798   1.041   4.425   7.877
 3786SOL    HW112799   1.067   4.421   7.973
 3786SOL    HW212800   0.956   4.374   7.863
 3787SOL     OW12801   0.076   4.535   8.237
 3787SOL    HW112802   0.175   4.523   8.246
 3787SOL    HW212803   0.052   4.630   8.258
 3788SOL     OW12804   0.130   5.545   9.019
 3788SOL    HW112805   0.120   5.530   9.118
 3788SOL    HW212806   0.044   5.581   8.983
 3789SOL     OW12807   0.865   4.072   7.643
 3789SOL    HW112808   0.924   4.135   7.594
 3789SOL    HW212809   0.884   3.978   7.614
 3790SOL     OW12810   1.719   4.309   9.279
 3790SOL    HW112811   1.693   4.398   9.243
 3790SOL    HW212812   1.717   4.241   9.206
 3791SOL     OW12813   1.362   4.868   7.993
 3791SOL    HW112814   1.445   4.839   7.945
 3791SOL    HW212815   1.313   4.935   7.937
 3792SOL     OW12816   0.550   3.920   8.333
 3792SOL    HW112817   0.545   3.915   8.433
 3792SOL    HW212818   0.552   4.016   8.304
 3793SOL     OW12819   1.008   5.180   7.925
 3793SOL    HW112820   0.962   5.252   7.873
 3793SOL    HW212821   1.004   5.200   8.023
 3794SOL     OW12822   0.351   5.525   8.301
 3794SOL    HW112823   0.401   5.439   8.307
 3794SOL    HW212824   0.416   5.602   8.298
 3795SOL     OW12825   1.795   4.790   8.321
 3795SOL    HW112826   1.733   4.775   8.245
 3795SOL    HW212827   1.743   4.801   8.406
 3796SOL     OW12828   1.227   5.274   8.954
 3796SOL    HW112829   1.233   5.197   9.018
 3796SOL    HW212830   1.175   5.248   8.874
 3797SOL     OW12831   0.321   4.667   7.690
 3797SOL    HW112832   0.403   4.706   7.648
 3797SOL    HW212833   0.294   4.585   7.641
 3798SOL     OW12834   1.458   4.459   8.176
 3798SOL    HW112835   1.453   4.394   8.251
 3798SOL    HW212836   1.538   4.518   8.189
 3799SOL     OW12837   0.461   4.990   9.175
 3799SOL    HW112838   0.411   4.991   9.089
 3799SOL    HW212839   0.398   4.972   9.251
 3800SOL     OW12840   1.111   5.500   7.685
 3800SOL    HW112841   1.051   5.438   7.735
 3800SOL    HW212842   1.142   5.456   7.600
 3801SOL     OW12843   0.202   4.009   8.946
 3801SOL    HW112844   0.122   4.069   8.933
 3801SOL    HW212845   0.192   3.960   9.032
 3802SOL     OW12846   1.632   5.101   7.529
 3802SOL    HW112847   1.600   5.195   7.519
 3802SOL    HW212848   1.556   5.038   7.517
 3803SOL     OW12849   0.464   5.467   7.771
 3803SOL    HW112850   0.497   5.506   7.857
 3803SOL    HW212851   0.540   5.460   7.706
 3804SOL     OW12852   1.400   3.831   7.874
 3804SOL    HW112853   1.376   3.794   7.784
 3804SOL    HW212854   1.499   3.847   7.878
 3805SOL     OW12855   0.249   5.509   8.689
 3805SOL    HW112856   0.306   5.444   8.739
 3805SOL    HW212857   0.233   5.476   8.596
 3806SOL     OW12858   0.940   5.422   8.352
 3806SOL    HW112859   1.020   5.365   8.373
 3806SOL    HW212860   0.891   5.382   8.275
 3807SOL     OW12861   0.382   4.424   7.928
 3807SOL    HW112862   0.427   4.334   7.925
 3807SOL    HW212863   0.288   4.413   7.961
 3808SOL     OW12864   1.547   3.946   9.177
 3808SOL    HW112865   1.542   3.983   9.269
 3808SOL    HW212866   1.475   3.877   9.165
 3809SOL     OW12867   0.614   3.846   7.565
 3809SOL    HW112868   0.712   3.824   7.572
 3809SOL    HW212869   0.583   3.829   7.472
 3810SOL     OW12870   0.781   3.988   9.197
 3810SOL    HW112871   0.848   3.927   9.240
 3810SOL    HW212872   0.708   4.007   9.262
 3811SOL     OW12873   0.888   5.238   8.643
 3811SOL    HW112874   0.865   5.213   8.549
 3811SOL    HW212875   0.949   5.169   8.682
 3812SOL     OW12876   1.351   4.314   8.881
 3812SOL    HW112877   1.379   4.271   8.966
 3812SOL    HW212878   1.376   4.410   8.882
 3813SOL     OW12879   0.803   5.126   8.372
 3813SOL    HW112880   0.893   5.140   8.330
 3813SOL    HW212881   0.732   5.128   8.301
 3814SOL     OW12882   0.922   4.227   8.347
 3814SOL    HW112883   0.897   4.218   8.251
 3814SOL    HW212884   0.970   4.145   8.378
 3815SOL     OW12885   0.539   3.788   7.960
 3815SOL    HW112886   0.458   3.789   8.018
 3815SOL    HW212887   0.542   3.871   7.905
 3816SOL     OW12888   1.434   4.912   7.489
 3816SOL    HW112889   1.466   4.836   7.546
 3816SOL    HW212890   1.342   4.939   7.519
 3817SOL     OW12891   0.297   3.759   7.619
 3817SOL    HW112892   0.346   3.843   7.598
 3817SOL    HW212893   0.359   3.694   7.664
 3818SOL     OW12894   0.935   3.960   7.928
 3818SOL    HW112895   0.887   4.001   7.850
 3818SOL    HW212896   1.034   3.958   7.909
 3819SOL     OW12897   1.076   4.407   8.912
 3819SOL    HW112898   0.996   4.346   8.915
 3819SOL    HW212899   1.157   4.354   8.888
 3820SOL     OW12900   1.227   5.294   8.241
 3820SOL    HW112901   1.248   5.368   8.176
 3820SOL    HW212902   1.295   5.294   8.314
 3821SOL     OW12903   0.459   4.876   8.189
 3821SOL    HW112904   0.388   4.849   8.254
 3821SOL    HW212905   0.433   4.848   8.096
 3822SOL     OW12906   1.271   5.521   8.039
 3822SOL    HW112907   1.315   5.585   7.975
 3822SOL    HW212908   1.221   5.573   8.109
 3823SOL     OW12909   1.032   4.273   7.464
 3823SOL    HW112910   0.991   4.355   7.425
 3823SOL    HW212911   1.096   4.299   7.537
 3824SOL     OW12912   0.078   4.280   8.834
 3824SOL    HW112913   0.170   4.279   8.793
 3824SOL    HW212914   0.072   4.354   8.901
 3825SOL     OW12915   0.561   3.946   8.595
 3825SOL    HW112916   0.599   3.862   8.632
 3825SOL    HW212917   0.473   3.965   8.639
 3826SOL     OW12918   0.866   4.178   8.090
 3826SOL    HW112919   0.834   4.250   8.028
 3826SOL    HW212920   0.890   4.097   8.037
 3827SOL     OW12921   1.017   3.763   8.201
 3827SOL    HW112922   0.945   3.768   8.132
 3827SOL    HW212923   0.993   3.694   8.270
 3828SOL     OW12924   1.429   4.897   8.315
 3828SOL    HW112925   1.374   4.813   8.308
 3828SOL    HW212926   1.455   4.926   8.223
 3829SOL     OW12927   1.466   4.314   8.440
 3829SOL    HW112928   1.436   4.219   8.447
 3829SOL    HW212929   1.539   4.330   8.506
 3830SOL     OW12930   1.857   4.557   7.825
 3830SOL    HW112931   1.899   4.493   7.889
 3830SOL    HW212932   1.819   4.506   7.747
 3831SOL     OW12933   0.488   5.109   7.622
 3831SOL    HW112934   0.401   5.094   7.669
 3831SOL    HW212935   0.471   5.135   7.527
 3832SOL     OW12936   1.664   5.004   8.105
 3832SOL    HW112937   1.763   5.012   8.119
 3832SOL    HW212938   1.619   5.088   8.136
 3833SOL     OW12939   1.390   4.299   7.526
 3833SOL    HW112940   1.336   4.278   7.607
 3833SOL    HW212941   1.481   4.258   7.535
 3834SOL     OW12942   0.527   3.980   7.776
 3834SOL    HW112943   0.554   3.921   7.701
 3834SOL    HW212944   0.527   4.075   7.745
 3835SOL     OW12945   1.754   4.947   9.036
 3835SOL    HW112946   1.845   4.908   9.023
 3835SOL    HW212947   1.762   5.043   9.060
 3836SOL     OW12948   1.064   5.071   8.788
 3836SOL    HW112949   0.984   5.048   8.843
 3836SOL    HW212950   1.147   5.045   8.837
 3837SOL     OW12951   1.592   5.353   9.073
 3837SOL    HW112952   1.619   5.387   8.983
 3837SOL    HW212953   1.671   5.315   9.119
 3838SOL     OW12954   1.111   4.919   8.548
 3838SOL    HW112955   1.071   4.963   8.629
 3838SOL    HW212956   1.070   4.956   8.465
 3839SOL     OW12957   1.638   4.823   8.527
 3839SOL    HW112958   1.643   4.904   8.586
 3839SOL    HW212959   1.552   4.825   8.476
 3840SOL     OW12960   0.915   3.813   8.850
 3840SOL    HW112961   0.940   3.793   8.755
 3840SOL    HW212962   0.987   3.869   8.892
 3841SOL     OW12963   0.980   4.840   9.167
 3841SOL    HW112964   0.881   4.846   9.177
 3841SOL    HW212965   1.003   4.760   9.111
 3842SOL     OW12966   0.705   4.774   7.816
 3842SOL    HW112967   0.691   4.781   7.915
 3842SOL    HW212968   0.789   4.723   7.798
 3843SOL     OW12969   0.410   4.537   8.699
 3843SOL    HW112970   0.496   4.549   8.749
 3843SOL    HW212971   0.368   4.450   8.726
 3844SOL     OW12972   1.274   4.110   8.710
 3844SOL    HW112973   1.295   4.184   8.774
 3844SOL    HW212974   1.185   4.127   8.667
 3845SOL     OW12975   0.064   5.288   8.779
 3845SOL    HW112976   0.018   5.370   8.745
 3845SOL    HW212977   0.162   5.307   8.788
 3846SOL     OW12978   0.367   4.824   7.949
 3846SOL    HW112979   0.360   4.907   7.893
 3846SOL    HW212980   0.371   4.744   7.889
 3847SOL     OW12981   0.566   4.261   8.313
 3847SOL    HW112982   0.578   4.327   8.239
 3847SOL    HW212983   0.612   4.295   8.396
 3848SOL     OW12984   1.252   5.072   7.836
 3848SOL    HW112985   1.302   5.149   7.876
 3848SOL    HW212986   1.157   5.074   7.868
 3849SOL     OW12987   1.272   5.169   8.590
 3849SOL    HW112988   1.319   5.182   8.677
 3849SOL    HW212989   1.206   5.095   8.599
 3850SOL     OW12990   1.582   4.363   7.920
 3850SOL    HW112991   1.551   4.424   7.993
 3850SOL    HW212992   1.632   4.415   7.851
 3851SOL     OW12993   0.354   5.234   8.777
 3851SOL    HW112994   0.333   5.190   8.690
 3851SOL    HW212995   0.451   5.260   8.780
 3852SOL     OW12996   0.402   4.475   9.046
 3852SOL    HW112997   0.470   4.530   8.999
 3852SOL    HW212998   0.442   4.387   9.073
 3853SOL     OW12999   1.587   4.503   9.118
 3853SOL    HW113000   1.495   4.541   9.113
 3853SOL    HW213001   1.647   4.550   9.053
 3854SOL     OW13002   1.013   3.829   9.218
 3854SOL    HW113003   1.019   3.914   9.166
 3854SOL    HW213004   1.045   3.753   9.161
 3855SOL     OW13005   0.504   3.774   9.188
 3855SOL    HW113006   0.462   3.717   9.118
 3855SOL    HW213007   0.438   3.843   9.220
 3856SOL     OW13008   0.573   4.594   8.477
 3856SOL    HW113009   0.617   4.683   8.468
 3856SOL    HW213010   0.510   4.594   8.554
 3857SOL     OW13011   1.360   4.586   8.493
 3857SOL    HW113012   1.285   4.586   8.427
 3857SOL    HW213013   1.397   4.494   8.502
 3858SOL     OW13014   1.209   4.249   7.723
 3858SOL    HW113015   1.222   4.165   7.777
 3858SOL    HW213016   1.180   4.323   7.783
 3859SOL     OW13017   0.307   3.937   8.679
 3859SOL    HW113018   0.284   3.974   8.769
 3859SOL    HW213019   0.277   3.842   8.673
 3860SOL     OW13020   0.037   5.034   8.730
 3860SOL    HW113021   0.090   4.985   8.798
 3860SOL    HW213022   0.059   5.132   8.735
 3861SOL     OW13023   0.732   4.358   8.512
 3861SOL    HW113024   0.791   4.332   8.436
 3861SOL    HW213025   0.704   4.454   8.501
 3862SOL     OW13026   1.728   4.659   9.302
 3862SOL    HW113027   1.682   4.652   9.213
 3862SOL    HW213028   1.666   4.703   9.368
 3863SOL     OW13029   0.307   3.787   8.066
 3863SOL    HW113030   0.296   3.881   8.099
 3863SOL    HW213031   0.302   3.724   8.143
 3864SOL     OW13032   1.622   4.091   7.822
 3864SOL    HW113033   1.624   4.015   7.886
 3864SOL    HW213034   1.574   4.168   7.862
 3865SOL     OW13035   1.023   4.490   8.414
 3865SOL    HW113036   1.038   4.511   8.510
 3865SOL    HW213037   0.993   4.395   8.405
 3866SOL     OW13038   0.980   5.297   9.148
 3866SOL    HW113039   0.960   5.341   9.060
 3866SOL    HW213040   1.019   5.206   9.132
 3867SOL     OW13041   1.859   5.242   9.053
 3867SOL    HW113042   1.873   5.269   8.958
 3867SOL    HW213043   1.942   5.264   9.106
 3868SOL     OW13044   0.350   4.622   9.252
 3868SOL    HW113045   0.426   4.666   9.300
 3868SOL    HW213046   0.385   4.575   9.170
 3869SOL     OW13047   1.540   3.998   7.573
 3869SOL    HW113048   1.479   3.923   7.596
 3869SOL    HW213049   1.562   4.050   7.656
 3870SOL     OW13050   1.303   4.562   7.490
 3870SOL    HW113051   1.337   4.469   7.505
 3870SOL    HW213052   1.321   4.589   7.395
 3871SOL     OW13053   1.068   5.057   8.297
 3871SOL    HW113054   1.075   4.973   8.242
 3871SOL    HW213055   1.130   5.126   8.261
 3872SOL     OW13056   0.319   4.534   8.397
 3872SOL    HW113057   0.412   4.570   8.402
 3872SOL    HW213058   0.313   4.449   8.449
 3873SOL     OW13059   0.339   4.233   8.454
 3873SOL    HW113060   0.287   4.150   8.437
 3873SOL    HW213061   0.416   4.238   8.390
 3874SOL     OW13062   1.138   4.104   9.126
 3874SOL    HW113063   1.093   4.167   9.190
 3874SOL    HW213064   1.231   4.135   9.109
 3875SOL     OW13065   1.160   3.931   8.925
 3875SOL    HW113066   1.160   3.995   9.002
 3875SOL    HW213067   1.188   3.979   8.842
 3876SOL     OW13068   0.008   5.050   7.648
 3876SOL    HW113069  -0.085   5.071   7.617
 3876SOL    HW213070   0.018   4.951   7.661
 3877SOL     OW13071   0.088   5.525   8.375
 3877SOL    HW113072   0.046   5.439   8.348
 3877SOL    HW213073   0.182   5.528   8.341
 3878SOL     OW13074   0.504   5.292   8.358
 3878SOL    HW113075   0.570   5.366   8.367
 3878SOL    HW213076   0.548   5.213   8.316
 3879SOL     OW13077   1.002   4.520   8.686
 3879SOL    HW113078   1.043   4.488   8.772
 3879SOL    HW213079   0.906   4.493   8.683
 3880SOL     OW13080   0.040   4.268   8.562
 3880SOL    HW113081   0.125   4.235   8.521
 3880SOL    HW213082   0.053   4.283   8.660
 3881SOL     OW13083   0.189   4.244   9.170
 3881SOL    HW113084   0.248   4.204   9.100
 3881SOL    HW213085   0.131   4.315   9.129
 3882SOL     OW13086   1.369   4.674   9.108
 3882SOL    HW113087   1.408   4.763   9.128
 3882SOL    HW213088   1.379   4.654   9.011
 3883SOL     OW13089   0.815   4.296   7.773
 3883SOL    HW113090   0.822   4.207   7.727
 3883SOL    HW213091   0.721   4.330   7.765
 3884SOL     OW13092   1.657   4.328   8.654
 3884SOL    HW113093   1.619   4.259   8.716
 3884SOL    HW213094   1.739   4.292   8.610
 3885SOL     OW13095   0.252   5.288   9.192
 3885SOL    HW113096   0.222   5.345   9.268
 3885SOL    HW213097   0.245   5.191   9.218
 3886SOL     OW13098   0.671   4.188   8.717
 3886SOL    HW113099   0.637   4.099   8.687
 3886SOL    HW213100   0.697   4.242   8.637
 3887SOL     OW13101   0.930   5.402   8.913
 3887SOL    HW113102   0.906   5.384   8.818
 3887SOL    HW213103   0.960   5.496   8.923
 3888SOL     OW13104   0.473   4.224   7.639
 3888SOL    HW113105   0.534   4.304   7.643
 3888SOL    HW213106   0.378   4.255   7.646
 3889SOL     OW13107   0.159   4.861   8.914
 3889SOL    HW113108   0.181   4.800   8.990
 3889SOL    HW213109   0.169   4.812   8.828
 3890SOL     OW13110   1.347   4.783   8.682
 3890SOL    HW113111   1.371   4.720   8.608
 3890SOL    HW213112   1.257   4.823   8.664
 3891SOL     OW13113   1.302   4.579   7.757
 3891SOL    HW113114   1.216   4.548   7.799
 3891SOL    HW213115   1.298   4.565   7.658
 3892SOL     OW13116   1.759   5.471   8.602
 3892SOL    HW113117   1.820   5.501   8.529
 3892SOL    HW213118   1.721   5.382   8.580
 3893SOL     OW13119   1.252   5.455   8.576
 3893SOL    HW113120   1.336   5.460   8.522
 3893SOL    HW213121   1.229   5.359   8.594
 3894SOL     OW13122   0.083   4.982   8.470
 3894SOL    HW113123   0.078   4.981   8.570
 3894SOL    HW213124   0.000   4.941   8.432
 3895SOL     OW13125   0.688   5.386   9.164
 3895SOL    HW113126   0.632   5.467   9.173
 3895SOL    HW213127   0.740   5.390   9.078
 3896SOL     OW13128   1.726   3.859   7.971
 3896SOL    HW113129   1.799   3.842   7.904
 3896SOL    HW213130   1.695   3.772   8.009
 3897SOL     OW13131   1.388   5.297   7.925
 3897SOL    HW113132   1.455   5.309   7.851
 3897SOL    HW213133   1.348   5.386   7.948
 3898SOL     OW13134   0.130   5.518   9.299
 3898SOL    HW113135   0.089   5.444   9.352
 3898SOL    HW213136   0.194   5.569   9.357
 3899SOL     OW13137   1.280   4.651   8.120
 3899SOL    HW113138   1.340   4.570   8.122
 3899SOL    HW213139   1.320   4.720   8.060
 3900SOL     OW13140   0.830   4.997   8.870
 3900SOL    HW113141   0.825   5.030   8.965
 3900SOL    HW213142   0.744   5.016   8.824
 3901SOL     OW13143   0.672   5.340   7.602
 3901SOL    HW113144   0.681   5.350   7.503
 3901SOL    HW213145   0.632   5.251   7.623
 3902SOL     OW13146   1.650   5.444   8.842
 3902SOL    HW113147   1.703   5.454   8.758
 3902SOL    HW213148   1.623   5.534   8.876
 3903SOL     OW13149   1.841   3.899   8.411
 3903SOL    HW113150   1.880   3.814   8.375
 3903SOL    HW213151   1.743   3.901   8.392
 3904SOL     OW13152   0.263   4.050   8.168
 3904SOL    HW113153   0.184   4.101   8.134
 3904SOL    HW213154   0.254   4.035   8.266
 3905SOL     OW13155   1.194   5.336   7.479
 3905SOL    HW113156   1.200   5.243   7.516
 3905SOL    HW213157   1.135   5.336   7.399
 3906SOL     OW13158   0.822   4.726   8.820
 3906SOL    HW113159   0.862   4.725   8.728
 3906SOL    HW213160   0.832   4.818   8.860
 3907SOL     OW13161   0.916   4.634   7.739
 3907SOL    HW113162   0.979   4.672   7.671
 3907SOL    HW213163   0.956   4.551   7.778
 3908SOL     OW13164   1.504   5.331   7.492
 3908SOL    HW113165   1.412   5.368   7.499
 3908SOL    HW213166   1.542   5.351   7.402
 3909SOL     OW13167   0.372   5.012   8.938
 3909SOL    HW113168   0.359   5.105   8.904
 3909SOL    HW213169   0.288   4.960   8.925
 3910SOL     OW13170   1.614   5.016   8.737
 3910SOL    HW113171   1.674   5.019   8.817
 3910SOL    HW213172   1.539   5.080   8.750
 3911SOL     OW13173   1.039   4.822   8.144
 3911SOL    HW113174   0.969   4.775   8.198
 3911SOL    HW213175   1.098   4.754   8.101
 3912SOL     OW13176   1.014   3.960   8.419
 3912SOL    HW113177   1.006   3.924   8.326
 3912SOL    HW213178   1.012   3.884   8.484
 3913SOL     OW13179   0.590   5.211   7.939
 3913SOL    HW113180   0.632   5.153   7.869
 3913SOL    HW213181   0.546   5.290   7.895
 3914SOL     OW13182   1.709   4.109   8.829
 3914SOL    HW113183   1.782   4.178   8.833
 3914SOL    HW213184   1.737   4.034   8.770
 3915SOL     OW13185   0.255   5.072   7.738
 3915SOL    HW113186   0.159   5.073   7.711
 3915SOL    HW213187   0.267   5.125   7.822
 3916SOL     OW13188   0.105   4.737   9.174
 3916SOL    HW113189   0.028   4.704   9.228
 3916SOL    HW213190   0.190   4.707   9.216
 3917SOL     OW13191   0.672   3.927   8.937
 3917SOL    HW113192   0.762   3.911   8.897
 3917SOL    HW213193   0.680   3.932   9.036
 3918SOL     OW13194   0.075   4.069   7.481
 3918SOL    HW113195  -0.017   4.041   7.452
 3918SOL    HW213196   0.106   4.146   7.425
 3919SOL     OW13197   1.440   4.580   8.846
 3919SOL    HW113198   1.383   4.632   8.783
 3919SOL    HW213199   1.536   4.592   8.822
 3920SOL     OW13200   0.072   3.890   7.766
 3920SOL    HW113201   0.055   3.973   7.712
 3920SOL    HW213202   0.162   3.853   7.744
 3921SOL     OW13203   1.183   5.059   7.567
 3921SOL    HW113204   1.084   5.048   7.569
 3921SOL    HW213205   1.217   5.074   7.660
 3922SOL     OW13206   0.613   4.566   8.879
 3922SOL    HW113207   0.669   4.647   8.862
 3922SOL    HW213208   0.672   4.486   8.882
 3923SOL     OW13209   1.493   5.491   8.407
 3923SOL    HW113210   1.526   5.555   8.338
 3923SOL    HW213211   1.559   5.485   8.482
 3924SOL     OW13212   0.716   4.289   9.156
 3924SOL    HW113213   0.735   4.354   9.230
 3924SOL    HW213214   0.776   4.209   9.165
 3925SOL     OW13215   1.450   4.944   9.081
 3925SOL    HW113216   1.441   4.934   9.180
 3925SOL    HW213217   1.546   4.937   9.055
 3926SOL     OW13218   0.390   5.465   9.008
 3926SOL    HW113219   0.299   5.506   9.006
 3926SOL    HW213220   0.383   5.371   9.040
 3927SOL     OW13221   1.674   4.607   8.702
 3927SOL    HW113222   1.647   4.518   8.665
 3927SOL    HW213223   1.675   4.675   8.629
 3928SOL     OW13224   1.225   4.049   7.897
 3928SOL    HW113225   1.290   3.975   7.886
 3928SOL    HW213226   1.245   4.099   7.981
 3929SOL     OW13227   0.594   4.469   8.100
 3929SOL    HW113228   0.644   4.554   8.081
 3929SOL    HW213229   0.506   4.471   8.052
 3930SOL     OW13230   1.777   4.066   9.090
 3930SOL    HW113231   1.760   4.097   8.996
 3930SOL    HW213232   1.693   4.029   9.128
 3931SOL     OW13233   1.730   4.658   8.965
 3931SOL    HW113234   1.768   4.749   8.980
 3931SOL    HW213235   1.722   4.641   8.866
 3932SOL     OW13236   0.859   5.098   7.464
 3932SOL    HW113237   0.813   5.113   7.552
 3932SOL    HW213238   0.903   5.183   7.434
 3933SOL     OW13239   0.661   5.514   8.401
 3933SOL    HW113240   0.615   5.602   8.388
 3933SOL    HW213241   0.760   5.526   8.394
 3934SOL     OW13242   0.859   4.680   8.309
 3934SOL    HW113243   0.913   4.611   8.357
 3934SOL    HW213244   0.827   4.749   8.375
 3935SOL     OW13245   1.083   4.708   7.535
 3935SOL    HW113246   1.060   4.761   7.453
 3935SOL    HW213247   1.164   4.652   7.516
 3936SOL     OW13248   1.861   5.293   8.299
 3936SOL    HW113249   1.790   5.281   8.229
 3936SOL    HW213250   1.862   5.214   8.359
 3937SOL     OW13251   0.221   5.038   9.292
 3937SOL    HW113252   0.156   4.965   9.271
 3937SOL    HW213253   0.225   5.052   9.390
 3938SOL     OW13254   0.079   4.964   8.101
 3938SOL    HW113255   0.078   4.917   8.189
 3938SOL    HW213256   0.161   4.936   8.050
 3939SOL     OW13257   0.672   5.115   9.072
 3939SOL    HW113258   0.594   5.065   9.110
 3939SOL    HW213259   0.669   5.210   9.103
 3940SOL     OW13260   1.824   3.916   8.675
 3940SOL    HW113261   1.820   3.826   8.719
 3940SOL    HW213262   1.827   3.905   8.576
 3941SOL     OW13263   0.428   4.148   7.968
 3941SOL    HW113264   0.458   4.076   7.906
 3941SOL    HW213265   0.389   4.108   8.051
 3942SOL     OW13266   1.705   5.211   8.552
 3942SOL    HW113267   1.612   5.186   8.525
 3942SOL    HW213268   1.731   5.161   8.634
 3943SOL     OW13269   0.317   4.271   8.728
 3943SOL    HW113270   0.355   4.212   8.800
 3943SOL    HW213271   0.357   4.245   8.640
 3944SOL     OW13272   0.812   5.310   8.135
 3944SOL    HW113273   0.844   5.320   8.041
 3944SOL    HW213274   0.733   5.248   8.137
 3945SOL     OW13275   1.424   3.938   8.560
 3945SOL    HW113276   1.476   3.873   8.615
 3945SOL    HW213277   1.375   4.001   8.621
 3946SOL     OW13278   1.001   3.758   8.602
 3946SOL    HW113279   0.938   3.686   8.571
 3946SOL    HW213280   1.094   3.722   8.602
 3947SOL     OW13281   0.770   5.054   7.749
 3947SOL    HW113282   0.724   4.967   7.766
 3947SOL    HW213283   0.861   5.051   7.790
 3948SOL     OW13284   0.618   5.291   8.732
 3948SOL    HW113285   0.613   5.373   8.789
 3948SOL    HW213286   0.707   5.288   8.687
 3949SOL     OW13287   1.352   3.776   7.616
 3949SOL    HW113288   1.387   3.735   7.532
 3949SOL    HW213289   1.262   3.738   7.636
 3950SOL     OW13290   1.300   4.177   8.139
 3950SOL    HW113291   1.241   4.257   8.143
 3950SOL    HW213292   1.315   4.142   8.232
 3951SOL     OW13293   1.593   3.945   8.330
 3951SOL    HW113294   1.509   3.944   8.384
 3951SOL    HW213295   1.595   4.028   8.274
 3952SOL     OW13296   0.039   4.801   7.748
 3952SOL    HW113297   0.138   4.790   7.739
 3952SOL    HW213298  -0.001   4.715   7.780
 3953SOL     OW13299   0.875   5.370   7.785
 3953SOL    HW113300   0.798   5.335   7.731
 3953SOL    HW213301   0.843   5.441   7.847
 3954SOL     OW13302   0.230   4.352   9.423
 3954SOL    HW113303   0.137   4.350   9.460
 3954SOL    HW213304   0.231   4.313   9.331
 3955SOL     OW13305   0.225   3.999  10.306
 3955SOL    HW113306   0.260   3.982  10.398
 3955SOL    HW213307   0.137   3.954  10.294
 3956SOL     OW13308   0.019   4.092   9.957
 3956SOL    HW113309  -0.063   4.135   9.996
 3956SOL    HW213310  -0.009   4.019   9.894
 3957SOL     OW13311   0.569   4.999  10.475
 3957SOL    HW113312   0.476   4.992  10.438
 3957SOL    HW213313   0.580   5.088  10.519
 3958SOL     OW13314   1.555   5.235  10.013
 3958SOL    HW113315   1.498   5.219  10.094
 3958SOL    HW213316   1.496   5.245   9.933
 3959SOL     OW13317   1.135   4.427  10.027
 3959SOL    HW113318   1.192   4.505  10.002
 3959SOL    HW213319   1.075   4.453  10.103
 3960SOL     OW13320   1.755   4.331   9.541
 3960SOL    HW113321   1.743   4.318   9.442
 3960SOL    HW213322   1.725   4.250   9.590
 3961SOL     OW13323   0.768   4.868  10.333
 3961SOL    HW113324   0.690   4.885  10.393
 3961SOL    HW213325   0.802   4.955  10.297
 3962SOL     OW13326   0.850   4.522  11.133
 3962SOL    HW113327   0.846   4.598  11.198
 3962SOL    HW213328   0.872   4.558  11.042
 3963SOL     OW13329   0.685   4.736   9.975
 3963SOL    HW113330   0.754   4.720  10.045
 3963SOL    HW213331   0.612   4.793  10.013
 3964SOL     OW13332   0.686   4.885  11.113
 3964SOL    HW113333   0.746   4.964  11.127
 3964SOL    HW213334   0.600   4.916  11.072
 3965SOL     OW13335   0.335   5.159  10.371
 3965SOL    HW113336   0.257   5.128  10.318
 3965SOL    HW213337   0.393   5.217  10.314
 3966SOL     OW13338   1.460   5.229  10.649
 3966SOL    HW113339   1.484   5.323  10.675
 3966SOL    HW213340   1.444   5.175  10.731
 3967SOL     OW13341   0.438   4.116  10.809
 3967SOL    HW113342   0.520   4.060  10.818
 3967SOL    HW213343   0.357   4.058  10.813
 3968SOL     OW13344   1.603   4.171  10.047
 3968SOL    HW113345   1.529   4.217   9.997
 3968SOL    HW213346   1.654   4.239  10.100
 3969SOL     OW13347   0.231   5.437   9.793
 3969SOL    HW113348   0.265   5.514   9.847
 3969SOL    HW213349   0.275   5.437   9.703
 3970SOL     OW13350   1.127   5.065  11.000
 3970SOL    HW113351   1.174   5.065  11.088
 3970SOL    HW213352   1.079   4.978  10.989
 3971SOL     OW13353   0.230   5.158   9.848
 3971SOL    HW113354   0.204   5.254   9.848
 3971SOL    HW213355   0.159   5.104   9.893
 3972SOL     OW13356   0.240   4.815  10.196
 3972SOL    HW113357   0.254   4.731  10.248
 3972SOL    HW213358   0.185   4.879  10.251
 3973SOL     OW13359   0.620   5.510  10.749
 3973SOL    HW113360   0.528   5.493  10.784
 3973SOL    HW213361   0.648   5.602  10.775
 3974SOL     OW13362   0.606   4.688   9.433
 3974SOL    HW113363   0.613   4.772   9.379
 3974SOL    HW213364   0.652   4.701   9.521
 3975SOL     OW13365   1.594   3.838  10.790
 3975SOL    HW113366   1.576   3.905  10.718
 3975SOL    HW213367   1.591   3.884  10.879
 3976SOL     OW13368   0.122   4.367   9.873
 3976SOL    HW113369   0.077   4.279   9.890
 3976SOL    HW213370   0.121   4.421   9.957
 3977SOL     OW13371   1.842   5.491   9.669
 3977SOL    HW113372   1.896   5.462   9.749
 3977SOL    HW213373   1.872   5.581   9.640
 3978SOL     OW13374   0.027   5.320   9.427
 3978SOL    HW113375   0.008   5.224   9.448
 3978SOL    HW213376  -0.006   5.378   9.502
 3979SOL     OW13377   1.689   4.646   9.922
 3979SOL    HW113378   1.784   4.617   9.930
 3979SOL    HW213379   1.681   4.711   9.847
 3980SOL     OW13380   1.641   4.832   9.742
 3980SOL    HW113381   1.727   4.834   9.690
 3980SOL    HW213382   1.655   4.879   9.830
 3981SOL     OW13383   0.113   4.461  10.907
 3981SOL    HW113384   0.201   4.448  10.952
 3981SOL    HW213385   0.100   4.558  10.885
 3982SOL     OW13386   0.613   5.089  10.036
 3982SOL    HW113387   0.564   5.002  10.045
 3982SOL    HW213388   0.590   5.132   9.949
 3983SOL     OW13389   1.293   4.952  10.733
 3983SOL    HW113390   1.330   4.879  10.675
 3983SOL    HW213391   1.345   4.957  10.818
 3984SOL     OW13392   0.809   3.728   9.812
 3984SOL    HW113393   0.849   3.819   9.803
 3984SOL    HW213394   0.709   3.736   9.818
 3985SOL     OW13395   0.197   4.700  10.574
 3985SOL    HW113396   0.286   4.655  10.560
 3985SOL    HW213397   0.124   4.635  10.555
 3986SOL     OW13398   1.525   4.723   9.500
 3986SOL    HW113399   1.462   4.647   9.513
 3986SOL    HW213400   1.573   4.741   9.586
 3987SOL     OW13401   1.187   5.516  10.926
 3987SOL    HW113402   1.211   5.576  10.850
 3987SOL    HW213403   1.194   5.421  10.896
 3988SOL     OW13404   0.317   3.975  11.111
 3988SOL    HW113405   0.388   4.046  11.117
 3988SOL    HW213406   0.229   4.014  11.139
 3989SOL     OW13407   1.466   5.141  10.263
 3989SOL    HW113408   1.407   5.147  10.343
 3989SOL    HW213409   1.451   5.053  10.217
 3990SOL     OW13410   1.667   5.438   9.882
 3990SOL    HW113411   1.626   5.415   9.794
 3990SOL    HW213412   1.649   5.364   9.947
 3991SOL     OW13413   0.598   4.453   9.580
 3991SOL    HW113414   0.622   4.522   9.512
 3991SOL    HW213415   0.520   4.486   9.634
 3992SOL     OW13416   1.281   4.069  10.254
 3992SOL    HW113417   1.195   4.019  10.241
 3992SOL    HW213418   1.343   4.015  10.310
 3993SOL     OW13419   1.576   5.386   9.617
 3993SOL    HW113420   1.665   5.432   9.620
 3993SOL    HW213421   1.555   5.362   9.522
 3994SOL     OW13422   0.807   4.329  10.775
 3994SOL    HW113423   0.760   4.326  10.864
 3994SOL    HW213424   0.756   4.274  10.709
 3995SOL     OW13425   1.394   4.193  10.984
 3995SOL    HW113426   1.374   4.236  11.072
 3995SOL    HW213427   1.472   4.131  10.993
 3996SOL     OW13428   0.973   4.614  10.882
 3996SOL    HW113429   1.019   4.530  10.853
 3996SOL    HW213430   0.917   4.648  10.807
 3997SOL     OW13431   0.991   4.134  10.552
 3997SOL    HW113432   0.914   4.168  10.606
 3997SOL    HW213433   0.957   4.083  10.473
 3998SOL     OW13434   1.041   4.425   9.739
 3998SOL    HW113435   1.067   4.421   9.835
 3998SOL    HW213436   0.956   4.374   9.725
 3999SOL     OW13437   0.076   4.535  10.099
 3999SOL    HW113438   0.175   4.523  10.108
 3999SOL    HW213439   0.052   4.630  10.120
 4000SOL     OW13440   0.130   5.545  10.881
 4000SOL    HW113441   0.120   5.530  10.980
 4000SOL    HW213442   0.044   5.581  10.845
 4001SOL     OW13443   0.865   4.072   9.505
 4001SOL    HW113444   0.924   4.135   9.456
 4001SOL    HW213445   0.884   3.978   9.476
 4002SOL     OW13446   1.719   4.309  11.141
 4002SOL    HW113447   1.693   4.398  11.105
 4002SOL    HW213448   1.717   4.241  11.068
 4003SOL     OW13449   1.362   4.868   9.855
 4003SOL    HW113450   1.445   4.839   9.807
 4003SOL    HW213451   1.313   4.935   9.799
 4004SOL     OW13452   0.550   3.920  10.195
 4004SOL    HW113453   0.545   3.915  10.295
 4004SOL    HW213454   0.552   4.016  10.166
 4005SOL     OW13455   1.008   5.180   9.787
 4005SOL    HW113456   0.962   5.252   9.735
 4005SOL    HW213457   1.004   5.200   9.885
 4006SOL     OW13458   0.351   5.525  10.163
 4006SOL    HW113459   0.401   5.439  10.169
 4006SOL    HW213460   0.416   5.602  10.160
 4007SOL     OW13461   1.795   4.790  10.183
 4007SOL    HW113462   1.733   4.775  10.107
 4007SOL    HW213463   1.743   4.801  10.268
 4008SOL     OW13464   1.227   5.274  10.816
 4008SOL    HW113465   1.233   5.197  10.880
 4008SOL    HW213466   1.175   5.248  10.736
 4009SOL     OW13467   0.321   4.667   9.552
 4009SOL    HW113468   0.403   4.706   9.510
 4009SOL    HW213469   0.294   4.585   9.503
 4010SOL     OW13470   1.458   4.459  10.038
 4010SOL    HW113471   1.453   4.394  10.113
 4010SOL    HW213472   1.538   4.518  10.051
 4011SOL     OW13473   0.461   4.990  11.037
 4011SOL    HW113474   0.411   4.991  10.951
 4011SOL    HW213475   0.398   4.972  11.113
 4012SOL     OW13476   1.111   5.500   9.547
 4012SOL    HW113477   1.051   5.438   9.597
 4012SOL    HW213478   1.142   5.456   9.462
 4013SOL     OW13479   0.202   4.009  10.808
 4013SOL    HW113480   0.122   4.069  10.795
 4013SOL    HW213481   0.192   3.960  10.894
 4014SOL     OW13482   1.632   5.101   9.391
 4014SOL    HW113483   1.600   5.195   9.381
 4014SOL    HW213484   1.556   5.038   9.379
 4015SOL     OW13485   0.464   5.467   9.633
 4015SOL    HW113486   0.497   5.506   9.719
 4015SOL    HW213487   0.540   5.460   9.568
 4016SOL     OW13488   1.400   3.831   9.736
 4016SOL    HW113489   1.376   3.794   9.646
 4016SOL    HW213490   1.499   3.847   9.740
 4017SOL     OW13491   0.249   5.509  10.551
 4017SOL    HW113492   0.306   5.444  10.601
 4017SOL    HW213493   0.233   5.476  10.458
 4018SOL     OW13494   0.940   5.422  10.214
 4018SOL    HW113495   1.020   5.365  10.235
 4018SOL    HW213496   0.891   5.382  10.137
 4019SOL     OW13497   0.382   4.424   9.790
 4019SOL    HW113498   0.427   4.334   9.787
 4019SOL    HW213499   0.288   4.413   9.823
 4020SOL     OW13500   1.547   3.946  11.039
 4020SOL    HW113501   1.542   3.983  11.131
 4020SOL    HW213502   1.475   3.877  11.027
 4021SOL     OW13503   0.614   3.846   9.427
 4021SOL    HW113504   0.712   3.824   9.434
 4021SOL    HW213505   0.583   3.829   9.334
 4022SOL     OW13506   0.781   3.988  11.059
 4022SOL    HW113507   0.848   3.927  11.102
 4022SOL    HW213508   0.708   4.007  11.124
 4023SOL     OW13509   0.888   5.238  10.505
 4023SOL    HW113510   0.865   5.213  10.411
 4023SOL    HW213511   0.949   5.169  10.544
 4024SOL     OW13512   1.351   4.314  10.743
 4024SOL    HW113513   1.379   4.271  10.828
 4024SOL    HW213514   1.376   4.410  10.744
 4025SOL     OW13515   0.803   5.126  10.234
 4025SOL    HW113516   0.893   5.140  10.192
 4025SOL    HW213517   0.732   5.128  10.163
 4026SOL     OW13518   0.922   4.227  10.209
 4026SOL    HW113519   0.897   4.218  10.113
 4026SOL    HW213520   0.970   4.145  10.240
 4027SOL     OW13521   0.539   3.788   9.822
 4027SOL    HW113522   0.458   3.789   9.880
 4027SOL    HW213523   0.542   3.871   9.767
 4028SOL     OW13524   1.434   4.912   9.351
 4028SOL    HW113525   1.466   4.836   9.408
 4028SOL    HW213526   1.342   4.939   9.381
 4029SOL     OW13527   0.297   3.759   9.481
 4029SOL    HW113528   0.346   3.843   9.460
 4029SOL    HW213529   0.359   3.694   9.526
 4030SOL     OW13530   0.935   3.960   9.790
 4030SOL    HW113531   0.887   4.001   9.712
 4030SOL    HW213532   1.034   3.958   9.771
 4031SOL     OW13533   1.076   4.407  10.774
 4031SOL    HW113534   0.996   4.346  10.777
 4031SOL    HW213535   1.157   4.354  10.750
 4032SOL     OW13536   1.227   5.294  10.103
 4032SOL    HW113537   1.248   5.368  10.038
 4032SOL    HW213538   1.295   5.294  10.176
 4033SOL     OW13539   0.459   4.876  10.051
 4033SOL    HW113540   0.388   4.849  10.116
 4033SOL    HW213541   0.433   4.848   9.958
 4034SOL     OW13542   1.271   5.521   9.901
 4034SOL    HW113543   1.315   5.585   9.837
 4034SOL    HW213544   1.221   5.573   9.971
 4035SOL     OW13545   1.032   4.273   9.326
 4035SOL    HW113546   0.991   4.355   9.287
 4035SOL    HW213547   1.096   4.299   9.399
 4036SOL     OW13548   0.078   4.280  10.696
 4036SOL    HW113549   0.170   4.279  10.655
 4036SOL    HW213550   0.072   4.354  10.763
 4037SOL     OW13551   0.561   3.946  10.457
 4037SOL    HW113552   0.599   3.862  10.494
 4037SOL    HW213553   0.473   3.965  10.501
 4038SOL     OW13554   0.866   4.178   9.952
 4038SOL    HW113555   0.834   4.250   9.890
 4038SOL    HW213556   0.890   4.097   9.899
 4039SOL     OW13557   1.017   3.763  10.063
 4039SOL    HW113558   0.945   3.768   9.994
 4039SOL    HW213559   0.993   3.694  10.132
 4040SOL     OW13560   1.429   4.897  10.177
 4040SOL    HW113561   1.374   4.813  10.170
 4040SOL    HW213562   1.455   4.926  10.085
 4041SOL     OW13563   1.466   4.314  10.302
 4041SOL    HW113564   1.436   4.219  10.309
 4041SOL    HW213565   1.539   4.330  10.368
 4042SOL     OW13566   1.857   4.557   9.687
 4042SOL    HW113567   1.899   4.493   9.751
 4042SOL    HW213568   1.819   4.506   9.609
 4043SOL     OW13569   0.488   5.109   9.484
 4043SOL    HW113570   0.401   5.094   9.531
 4043SOL    HW213571   0.471   5.135   9.389
 4044SOL     OW13572   1.664   5.004   9.967
 4044SOL    HW113573   1.763   5.012   9.981
 4044SOL    HW213574   1.619   5.088   9.998
 4045SOL     OW13575   1.390   4.299   9.388
 4045SOL    HW113576   1.336   4.278   9.469
 4045SOL    HW213577   1.481   4.258   9.397
 4046SOL     OW13578   0.527   3.980   9.638
 4046SOL    HW113579   0.554   3.921   9.563
 4046SOL    HW213580   0.527   4.075   9.607
 4047SOL     OW13581   1.754   4.947  10.898
 4047SOL    HW113582   1.845   4.908  10.885
 4047SOL    HW213583   1.762   5.043  10.922
 4048SOL     OW13584   1.064   5.071  10.650
 4048SOL    HW113585   0.984   5.048  10.705
 4048SOL    HW213586   1.147   5.045  10.699
 4049SOL     OW13587   1.592   5.353  10.935
 4049SOL    HW113588   1.619   5.387  10.845
 4049SOL    HW213589   1.671   5.315  10.981
 4050SOL     OW13590   1.111   4.919  10.410
 4050SOL    HW113591   1.071   4.963  10.491
 4050SOL    HW213592   1.070   4.956  10.327
 4051SOL     OW13593   1.638   4.823  10.389
 4051SOL    HW113594   1.643   4.904  10.448
 4051SOL    HW213595   1.552   4.825  10.338
 4052SOL     OW13596   0.915   3.813  10.712
 4052SOL    HW113597   0.940   3.793  10.617
 4052SOL    HW213598   0.987   3.869  10.754
 4053SOL     OW13599   0.980   4.840  11.029
 4053SOL    HW113600   0.881   4.846  11.039
 4053SOL    HW213601   1.003   4.760  10.973
 4054SOL     OW13602   0.705   4.774   9.678
 4054SOL    HW113603   0.691   4.781   9.777
 4054SOL    HW213604   0.789   4.723   9.660
 4055SOL     OW13605   0.410   4.537  10.561
 4055SOL    HW113606   0.496   4.549  10.611
 4055SOL    HW213607   0.368   4.450  10.588
 4056SOL     OW13608   1.274   4.110  10.572
 4056SOL    HW113609   1.295   4.184  10.636
 4056SOL    HW213610   1.185   4.127  10.529
 4057SOL     OW13611   0.064   5.288  10.641
 4057SOL    HW113612   0.018   5.370  10.607
 4057SOL    HW213613   0.162   5.307  10.650
 4058SOL     OW13614   0.367   4.824   9.811
 4058SOL    HW113615   0.360   4.907   9.755
 4058SOL    HW213616   0.371   4.744   9.751
 4059SOL     OW13617   0.566   4.261  10.175
 4059SOL    HW113618   0.578   4.327  10.101
 4059SOL    HW213619   0.612   4.295  10.258
 4060SOL     OW13620   1.252   5.072   9.698
 4060SOL    HW113621   1.302   5.149   9.738
 4060SOL    HW213622   1.157   5.074   9.730
 4061SOL     OW13623   1.272   5.169  10.452
 4061SOL    HW113624   1.319   5.182  10.539
 4061SOL    HW213625   1.206   5.095  10.461
 4062SOL     OW13626   1.582   4.363   9.782
 4062SOL    HW113627   1.551   4.424   9.855
 4062SOL    HW213628   1.632   4.415   9.713
 4063SOL     OW13629   0.354   5.234  10.639
 4063SOL    HW113630   0.333   5.190  10.552
 4063SOL    HW213631   0.451   5.260  10.642
 4064SOL     OW13632   0.402   4.475  10.908
 4064SOL    HW113633   0.470   4.530  10.861
 4064SOL    HW213634   0.442   4.387  10.935
 4065SOL     OW13635   1.587   4.503  10.980
 4065SOL    HW113636   1.495   4.541  10.975
 4065SOL    HW213637   1.647   4.550  10.915
 4066SOL     OW13638   1.013   3.829  11.080
 4066SOL    HW113639   1.019   3.914  11.028
 4066SOL    HW213640   1.045   3.753  11.023
 4067SOL     OW13641   0.504   3.774  11.050
 4067SOL    HW113642   0.462   3.717  10.980
 4067SOL    HW213643   0.438   3.843  11.082
 4068SOL     OW13644   0.573   4.594  10.339
 4068SOL    HW113645   0.617   4.683  10.330
 4068SOL    HW213646   0.510   4.594  10.416
 4069SOL     OW13647   1.360   4.586  10.355
 4069SOL    HW113648   1.285   4.586  10.289
 4069SOL    HW213649   1.397   4.494  10.364
 4070SOL     OW13650   1.209   4.249   9.585
 4070SOL    HW113651   1.222   4.165   9.639
 4070SOL    HW213652   1.180   4.323   9.645
 4071SOL     OW13653   0.307   3.937  10.541
 4071SOL    HW113654   0.284   3.974  10.631
 4071SOL    HW213655   0.277   3.842  10.535
 4072SOL     OW13656   0.037   5.034  10.592
 4072SOL    HW113657   0.090   4.985  10.660
 4072SOL    HW213658   0.059   5.132  10.597
 4073SOL     OW13659   0.732   4.358  10.374
 4073SOL    HW113660   0.791   4.332  10.298
 4073SOL    HW213661   0.704   4.454  10.363
 4074SOL     OW13662   1.728   4.659  11.164
 4074SOL    HW113663   1.682   4.652  11.075
 4074SOL    HW213664   1.666   4.703  11.230
 4075SOL     OW13665   0.307   3.787   9.928
 4075SOL    HW113666   0.296   3.881   9.961
 4075SOL    HW213667   0.302   3.724  10.005
 4076SOL     OW13668   1.622   4.091   9.684
 4076SOL    HW113669   1.624   4.015   9.748
 4076SOL    HW213670   1.574   4.168   9.724
 4077SOL     OW13671   1.023   4.490  10.276
 4077SOL    HW113672   1.038   4.511  10.372
 4077SOL    HW213673   0.993   4.395  10.267
 4078SOL     OW13674   0.980   5.297  11.010
 4078SOL    HW113675   0.960   5.341  10.922
 4078SOL    HW213676   1.019   5.206  10.994
 4079SOL     OW13677   1.859   5.242  10.915
 4079SOL    HW113678   1.873   5.269  10.820
 4079SOL    HW213679   1.942   5.264  10.968
 4080SOL     OW13680   0.350   4.622  11.114
 4080SOL    HW113681   0.426   4.666  11.162
 4080SOL    HW213682   0.385   4.575  11.032
 4081SOL     OW13683   1.540   3.998   9.435
 4081SOL    HW113684   1.479   3.923   9.458
 4081SOL    HW213685   1.562   4.050   9.518
 4082SOL     OW13686   1.303   4.562   9.352
 4082SOL    HW113687   1.337   4.469   9.367
 4082SOL    HW213688   1.321   4.589   9.257
 4083SOL     OW13689   1.068   5.057  10.159
 4083SOL    HW113690   1.075   4.973  10.104
 4083SOL    HW213691   1.130   5.126  10.123
 4084SOL     OW13692   0.319   4.534  10.259
 4084SOL    HW113693   0.412   4.570  10.264
 4084SOL    HW213694   0.313   4.449  10.311
 4085SOL     OW13695   0.339   4.233  10.316
 4085SOL    HW113696   0.287   4.150  10.299
 4085SOL    HW213697   0.416   4.238  10.252
 4086SOL     OW13698   1.138   4.104  10.988
 4086SOL    HW113699   1.093   4.167  11.052
 4086SOL    HW213700   1.231   4.135  10.971
 4087SOL     OW13701   1.160   3.931  10.787
 4087SOL    HW113702   1.160   3.995  10.864
 4087SOL    HW213703   1.188   3.979  10.704
 4088SOL     OW13704   0.008   5.050   9.510
 4088SOL    HW113705  -0.085   5.071   9.479
 4088SOL    HW213706   0.018   4.951   9.523
 4089SOL     OW13707   0.088   5.525  10.237
 4089SOL    HW113708   0.046   5.439  10.210
 4089SOL    HW213709   0.182   5.528  10.203
 4090SOL     OW13710   0.504   5.292  10.220
 4090SOL    HW113711   0.570   5.366  10.229
 4090SOL    HW213712   0.548   5.213  10.178
 4091SOL     OW13713   1.002   4.520  10.548
 4091SOL    HW113714   1.043   4.488  10.634
 4091SOL    HW213715   0.906   4.493  10.545
 4092SOL     OW13716   0.040   4.268  10.424
 4092SOL    HW113717   0.125   4.235  10.383
 4092SOL    HW213718   0.053   4.283  10.522
 4093SOL     OW13719   0.189   4.244  11.032
 4093SOL    HW113720   0.248   4.204  10.962
 4093SOL    HW213721   0.131   4.315  10.991
 4094SOL     OW13722   1.369   4.674  10.970
 4094SOL    HW113723   1.408   4.763  10.990
 4094SOL    HW213724   1.379   4.654  10.873
 4095SOL     OW13725   0.815   4.296   9.635
 4095SOL    HW113726   0.822   4.207   9.589
 4095SOL    HW213727   0.721   4.330   9.627
 4096SOL     OW13728   1.657   4.328  10.516
 4096SOL    HW113729   1.619   4.259  10.578
 4096SOL    HW213730   1.739   4.292  10.472
 4097SOL     OW13731   0.252   5.288  11.054
 4097SOL    HW113732   0.222   5.345  11.130
 4097SOL    HW213733   0.245   5.191  11.080
 4098SOL     OW13734   0.671   4.188  10.579
 4098SOL    HW113735   0.637   4.099  10.549
 4098SOL    HW213736   0.697   4.242  10.499
 4099SOL     OW13737   0.930   5.402  10.775
 4099SOL    HW113738   0.906   5.384  10.680
 4099SOL    HW213739   0.960   5.496  10.785
 4100SOL     OW13740   0.473   4.224   9.501
 4100SOL    HW113741   0.534   4.304   9.505
 4100SOL    HW213742   0.378   4.255   9.508
 4101SOL     OW13743   0.159   4.861  10.776
 4101SOL    HW113744   0.181   4.800  10.852
 4101SOL    HW213745   0.169   4.812  10.690
 4102SOL     OW13746   1.347   4.783  10.544
 4102SOL    HW113747   1.371   4.720  10.470
 4102SOL    HW213748   1.257   4.823  10.526
 4103SOL     OW13749   1.302   4.579   9.619
 4103SOL    HW113750   1.216   4.548   9.661
 4103SOL    HW213751   1.298   4.565   9.520
 4104SOL     OW13752   1.759   5.471  10.464
 4104SOL    HW113753   1.820   5.501  10.391
 4104SOL    HW213754   1.721   5.382  10.442
 4105SOL     OW13755   1.252   5.455  10.438
 4105SOL    HW113756   1.336   5.460  10.384
 4105SOL    HW213757   1.229   5.359  10.456
 4106SOL     OW13758   0.083   4.982  10.332
 4106SOL    HW113759   0.078   4.981  10.432
 4106SOL    HW213760   0.000   4.941  10.294
 4107SOL     OW13761   0.688   5.386  11.026
 4107SOL    HW113762   0.632   5.467  11.035
 4107SOL    HW213763   0.740   5.390  10.940
 4108SOL     OW13764   1.726   3.859   9.833
 4108SOL    HW113765   1.799   3.842   9.766
 4108SOL    HW213766   1.695   3.772   9.871
 4109SOL     OW13767   1.388   5.297   9.787
 4109SOL    HW113768   1.455   5.309   9.713
 4109SOL    HW213769   1.348   5.386   9.810
 4110SOL     OW13770   0.130   5.518  11.161
 4110SOL    HW113771   0.089   5.444  11.214
 4110SOL    HW213772   0.194   5.569  11.219
 4111SOL     OW13773   1.280   4.651   9.982
 4111SOL    HW113774   1.340   4.570   9.984
 4111SOL    HW213775   1.320   4.720   9.922
 4112SOL     OW13776   0.830   4.997  10.732
 4112SOL    HW113777   0.825   5.030  10.827
 4112SOL    HW213778   0.744   5.016  10.686
 4113SOL     OW13779   0.672   5.340   9.464
 4113SOL    HW113780   0.681   5.350   9.365
 4113SOL    HW213781   0.632   5.251   9.485
 4114SOL     OW13782   1.650   5.444  10.704
 4114SOL    HW113783   1.703   5.454  10.620
 4114SOL    HW213784   1.623   5.534  10.738
 4115SOL     OW13785   1.841   3.899  10.273
 4115SOL    HW113786   1.880   3.814  10.237
 4115SOL    HW213787   1.743   3.901  10.254
 4116SOL     OW13788   0.263   4.050  10.030
 4116SOL    HW113789   0.184   4.101   9.996
 4116SOL    HW213790   0.254   4.035  10.128
 4117SOL     OW13791   1.194   5.336   9.341
 4117SOL    HW113792   1.200   5.243   9.378
 4117SOL    HW213793   1.135   5.336   9.261
 4118SOL     OW13794   0.822   4.726  10.682
 4118SOL    HW113795   0.862   4.725  10.590
 4118SOL    HW213796   0.832   4.818  10.722
 4119SOL     OW13797   0.916   4.634   9.601
 4119SOL    HW113798   0.979   4.672   9.533
 4119SOL    HW213799   0.956   4.551   9.640
 4120SOL     OW13800   1.504   5.331   9.354
 4120SOL    HW113801   1.412   5.368   9.361
 4120SOL    HW213802   1.542   5.351   9.264
 4121SOL     OW13803   0.372   5.012  10.800
 4121SOL    HW113804   0.359   5.105  10.766
 4121SOL    HW213805   0.288   4.960  10.787
 4122SOL     OW13806   1.614   5.016  10.599
 4122SOL    HW113807   1.674   5.019  10.679
 4122SOL    HW213808   1.539   5.080  10.612
 4123SOL     OW13809   1.039   4.822  10.006
 4123SOL    HW113810   0.969   4.775  10.060
 4123SOL    HW213811   1.098   4.754   9.963
 4124SOL     OW13812   1.014   3.960  10.281
 4124SOL    HW113813   1.006   3.924  10.188
 4124SOL    HW213814   1.012   3.884  10.346
 4125SOL     OW13815   0.590   5.211   9.801
 4125SOL    HW113816   0.632   5.153   9.731
 4125SOL    HW213817   0.546   5.290   9.757
 4126SOL     OW13818   1.709   4.109  10.691
 4126SOL    HW113819   1.782   4.178  10.695
 4126SOL    HW213820   1.737   4.034  10.632
 4127SOL     OW13821   0.255   5.072   9.600
 4127SOL    HW113822   0.159   5.073   9.573
 4127SOL    HW213823   0.267   5.125   9.684
 4128SOL     OW13824   0.105   4.737  11.036
 4128SOL    HW113825   0.028   4.704  11.090
 4128SOL    HW213826   0.190   4.707  11.078
 4129SOL     OW13827   0.672   3.927  10.799
 4129SOL    HW113828   0.762   3.911  10.759
 4129SOL    HW213829   0.680   3.932  10.898
 4130SOL     OW13830   0.075   4.069   9.343
 4130SOL    HW113831  -0.017   4.041   9.314
 4130SOL    HW213832   0.106   4.146   9.287
 4131SOL     OW13833   1.440   4.580  10.708
 4131SOL    HW113834   1.383   4.632  10.645
 4131SOL    HW213835   1.536   4.592  10.684
 4132SOL     OW13836   0.072   3.890   9.628
 4132SOL    HW113837   0.055   3.973   9.574
 4132SOL    HW213838   0.162   3.853   9.606
 4133SOL     OW13839   1.183   5.059   9.429
 4133SOL    HW113840   1.084   5.048   9.431
 4133SOL    HW213841   1.217   5.074   9.522
 4134SOL     OW13842   0.613   4.566  10.741
 4134SOL    HW113843   0.669   4.647  10.724
 4134SOL    HW213844   0.672   4.486  10.744
 4135SOL     OW13845   1.493   5.491  10.269
 4135SOL    HW113846   1.526   5.555  10.200
 4135SOL    HW213847   1.559   5.485  10.344
 4136SOL     OW13848   0.716   4.289  11.018
 4136SOL    HW113849   0.735   4.354  11.092
 4136SOL    HW213850   0.776   4.209  11.027
 4137SOL     OW13851   1.450   4.944  10.943
 4137SOL    HW113852   1.441   4.934  11.042
 4137SOL    HW213853   1.546   4.937  10.917
 4138SOL     OW13854   0.390   5.465  10.870
 4138SOL    HW113855   0.299   5.506  10.868
 4138SOL    HW213856   0.383   5.371  10.902
 4139SOL     OW13857   1.674   4.607  10.564
 4139SOL    HW113858   1.647   4.518  10.527
 4139SOL    HW213859   1.675   4.675  10.491
 4140SOL     OW13860   1.225   4.049   9.759
 4140SOL    HW113861   1.290   3.975   9.748
 4140SOL    HW213862   1.245   4.099   9.843
 4141SOL     OW13863   0.594   4.469   9.962
 4141SOL    HW113864   0.644   4.554   9.943
 4141SOL    HW213865   0.506   4.471   9.914
 4142SOL     OW13866   1.777   4.066  10.952
 4142SOL    HW113867   1.760   4.097  10.858
 4142SOL    HW213868   1.693   4.029  10.990
 4143SOL     OW13869   1.730   4.658  10.827
 4143SOL    HW113870   1.768   4.749  10.842
 4143SOL    HW213871   1.722   4.641  10.728
 4144SOL     OW13872   0.859   5.098   9.326
 4144SOL    HW113873   0.813   5.113   9.414
 4144SOL    HW213874   0.903   5.183   9.296
 4145SOL     OW13875   0.661   5.514  10.263
 4145SOL    HW113876   0.615   5.602  10.250
 4145SOL    HW213877   0.760   5.526  10.256
 4146SOL     OW13878   0.859   4.680  10.171
 4146SOL    HW113879   0.913   4.611  10.219
 4146SOL    HW213880   0.827   4.749  10.237
 4147SOL     OW13881   1.083   4.708   9.397
 4147SOL    HW113882   1.060   4.761   9.315
 4147SOL    HW213883   1.164   4.652   9.378
 4148SOL     OW13884   1.861   5.293  10.161
 4148SOL    HW113885   1.790   5.281  10.091
 4148SOL    HW213886   1.862   5.214  10.221
 4149SOL     OW13887   0.221   5.038  11.154
 4149SOL    HW113888   0.156   4.965  11.133
 4149SOL    HW213889   0.225   5.052  11.252
 4150SOL     OW13890   0.079   4.964   9.963
 4150SOL    HW113891   0.078   4.917  10.051
 4150SOL    HW213892   0.161   4.936   9.912
 4151SOL     OW13893   0.672   5.115  10.934
 4151SOL    HW113894   0.594   5.065  10.972
 4151SOL    HW213895   0.669   5.210  10.965
 4152SOL     OW13896   1.824   3.916  10.537
 4152SOL    HW113897   1.820   3.826  10.581
 4152SOL    HW213898   1.827   3.905  10.438
 4153SOL     OW13899   0.428   4.148   9.830
 4153SOL    HW113900   0.458   4.076   9.768
 4153SOL    HW213901   0.389   4.108   9.913
 4154SOL     OW13902   1.705   5.211  10.414
 4154SOL    HW113903   1.612   5.186  10.387
 4154SOL    HW213904   1.731   5.161  10.496
 4155SOL     OW13905   0.317   4.271  10.590
 4155SOL    HW113906   0.355   4.212  10.662
 4155SOL    HW213907   0.357   4.245  10.502
 4156SOL     OW13908   0.812   5.310   9.997
 4156SOL    HW113909   0.844   5.320   9.903
 4156SOL    HW213910   0.733   5.248   9.999
 4157SOL     OW13911   1.424   3.938  10.422
 4157SOL    HW113912   1.476   3.873  10.477
 4157SOL    HW213913   1.375   4.001  10.483
 4158SOL     OW13914   1.001   3.758  10.464
 4158SOL    HW113915   0.938   3.686  10.433
 4158SOL    HW213916   1.094   3.722  10.464
 4159SOL     OW13917   0.770   5.054   9.611
 4159SOL    HW113918   0.724   4.967   9.628
 4159SOL    HW213919   0.861   5.051   9.652
 4160SOL     OW13920   0.618   5.291  10.594
 4160SOL    HW113921   0.613   5.373  10.651
 4160SOL    HW213922   0.707   5.288  10.549
 4161SOL     OW13923   1.352   3.776   9.478
 4161SOL    HW113924   1.387   3.735   9.394
 4161SOL    HW213925   1.262   3.738   9.498
 4162SOL     OW13926   1.300   4.177  10.001
 4162SOL    HW113927   1.241   4.257  10.005
 4162SOL    HW213928   1.315   4.142  10.094
 4163SOL     OW13929   1.593   3.945  10.192
 4163SOL    HW113930   1.509   3.944  10.246
 4163SOL    HW213931   1.595   4.028  10.136
 4164SOL     OW13932   0.039   4.801   9.610
 4164SOL    HW113933   0.138   4.790   9.601
 4164SOL    HW213934  -0.001   4.715   9.642
 4165SOL     OW13935   0.875   5.370   9.647
 4165SOL    HW113936   0.798   5.335   9.593
 4165SOL    HW213937   0.843   5.441   9.709
 4166SOL     OW13938   0.230   4.352  11.285
 4166SOL    HW113939   0.137   4.350  11.322
 4166SOL    HW213940   0.231   4.313  11.193
 4167SOL     OW13941   0.225   3.999  12.168
 4167SOL    HW113942   0.260   3.982  12.260
 4167SOL    HW213943   0.137   3.954  12.156
 4168SOL     OW13944   0.019   4.092  11.819
 4168SOL    HW113945  -0.063   4.135  11.858
 4168SOL    HW213946  -0.009   4.019  11.756
 4169SOL     OW13947   0.569   4.999  12.337
 4169SOL    HW113948   0.476   4.992  12.300
 4169SOL    HW213949   0.580   5.088  12.381
 4170SOL     OW13950   1.555   5.235  11.875
 4170SOL    HW113951   1.498   5.219  11.956
 4170SOL    HW213952   1.496   5.245  11.795
 4171SOL     OW13953   1.135   4.427  11.889
 4171SOL    HW113954   1.192   4.505  11.864
 4171SOL    HW213955   1.075   4.453  11.965
 4172SOL     OW13956   1.755   4.331  11.403
 4172SOL    HW113957   1.743   4.318  11.304
 4172SOL    HW213958   1.725   4.250  11.452
 4173SOL     OW13959   0.768   4.868  12.195
 4173SOL    HW113960   0.690   4.885  12.255
 4173SOL    HW213961   0.802   4.955  12.159
 4174SOL     OW13962   0.685   4.736  11.837
 4174SOL    HW113963   0.754   4.720  11.907
 4174SOL    HW213964   0.612   4.793  11.875
 4175SOL     OW13965   0.335   5.159  12.233
 4175SOL    HW113966   0.257   5.128  12.180
 4175SOL    HW213967   0.393   5.217  12.176
 4176SOL     OW13968   1.603   4.171  11.909
 4176SOL    HW113969   1.529   4.217  11.859
 4176SOL    HW213970   1.654   4.239  11.962
 4177SOL     OW13971   0.231   5.437  11.655
 4177SOL    HW113972   0.265   5.514  11.709
 4177SOL    HW213973   0.275   5.437  11.565
 4178SOL     OW13974   0.230   5.158  11.710
 4178SOL    HW113975   0.204   5.254  11.710
 4178SOL    HW213976   0.159   5.104  11.755
 4179SOL     OW13977   0.240   4.815  12.058
 4179SOL    HW113978   0.254   4.731  12.110
 4179SOL    HW213979   0.185   4.879  12.113
 4180SOL     OW13980   0.606   4.688  11.295
 4180SOL    HW113981   0.613   4.772  11.241
 4180SOL    HW213982   0.652   4.701  11.383
 4181SOL     OW13983   0.122   4.367  11.735
 4181SOL    HW113984   0.077   4.279  11.752
 4181SOL    HW213985   0.121   4.421  11.819
 4182SOL     OW13986   1.842   5.491  11.531
 4182SOL    HW113987   1.896   5.462  11.611
 4182SOL    HW213988   1.872   5.581  11.502
 4183SOL     OW13989   0.027   5.320  11.289
 4183SOL    HW113990   0.008   5.224  11.310
 4183SOL    HW213991  -0.006   5.378  11.364
 4184SOL     OW13992   1.689   4.646  11.784
 4184SOL    HW113993   1.784   4.617  11.792
 4184SOL    HW213994   1.681   4.711  11.709
 4185SOL     OW13995   1.641   4.832  11.604
 4185SOL    HW113996   1.727   4.834  11.552
 4185SOL    HW213997   1.655   4.879  11.692
 4186SOL     OW13998   0.113   4.461  12.769
 4186SOL    HW113999   0.201   4.448  12.814
 4186SOL    HW214000   0.100   4.558  12.747
 4187SOL     OW14001   0.613   5.089  11.898
 4187SOL    HW114002   0.564   5.002  11.907
 4187SOL    HW214003   0.590   5.132  11.811
 4188SOL     OW14004   0.809   3.728  11.674
 4188SOL    HW114005   0.849   3.819  11.665
 4188SOL    HW214006   0.709   3.736  11.680
 4189SOL     OW14007   0.197   4.700  12.436
 4189SOL    HW114008   0.286   4.655  12.422
 4189SOL    HW214009   0.124   4.635  12.417
 4190SOL     OW14010   1.525   4.723  11.362
 4190SOL    HW114011   1.462   4.647  11.375
 4190SOL    HW214012   1.573   4.741  11.448
 4191SOL     OW14013   1.667   5.438  11.744
 4191SOL    HW114014   1.626   5.415  11.656
 4191SOL    HW214015   1.649   5.364  11.809
 4192SOL     OW14016   0.598   4.453  11.442
 4192SOL    HW114017   0.622   4.522  11.374
 4192SOL    HW214018   0.520   4.486  11.496
 4193SOL     OW14019   1.281   4.069  12.116
 4193SOL    HW114020   1.195   4.019  12.103
 4193SOL    HW214021   1.343   4.015  12.172
 4194SOL     OW14022   1.576   5.386  11.479
 4194SOL    HW114023   1.665   5.432  11.482
 4194SOL    HW214024   1.555   5.362  11.384
 4195SOL     OW14025   0.991   4.134  12.414
 4195SOL    HW114026   0.914   4.168  12.468
 4195SOL    HW214027   0.957   4.083  12.335
 4196SOL     OW14028   1.041   4.425  11.601
 4196SOL    HW114029   1.067   4.421  11.697
 4196SOL    HW214030   0.956   4.374  11.587
 4197SOL     OW14031   0.076   4.535  11.961
 4197SOL    HW114032   0.175   4.523  11.970
 4197SOL    HW214033   0.052   4.630  11.982
 4198SOL     OW14034   0.130   5.545  12.743
 4198SOL    HW114035   0.120   5.530  12.842
 4198SOL    HW214036   0.044   5.581  12.707
 4199SOL     OW14037   0.865   4.072  11.367
 4199SOL    HW114038   0.924   4.135  11.318
 4199SOL    HW214039   0.884   3.978  11.338
 4200SOL     OW14040   1.362   4.868  11.717
 4200SOL    HW114041   1.445   4.839  11.669
 4200SOL    HW214042   1.313   4.935  11.661
 4201SOL     OW14043   0.550   3.920  12.057
 4201SOL    HW114044   0.545   3.915  12.157
 4201SOL    HW214045   0.552   4.016  12.028
 4202SOL     OW14046   1.008   5.180  11.649
 4202SOL    HW114047   0.962   5.252  11.597
 4202SOL    HW214048   1.004   5.200  11.747
 4203SOL     OW14049   0.351   5.525  12.025
 4203SOL    HW114050   0.401   5.439  12.031
 4203SOL    HW214051   0.416   5.602  12.022
 4204SOL     OW14052   1.795   4.790  12.045
 4204SOL    HW114053   1.733   4.775  11.969
 4204SOL    HW214054   1.743   4.801  12.130
 4205SOL     OW14055   0.321   4.667  11.414
 4205SOL    HW114056   0.403   4.706  11.372
 4205SOL    HW214057   0.294   4.585  11.365
 4206SOL     OW14058   1.458   4.459  11.900
 4206SOL    HW114059   1.453   4.394  11.975
 4206SOL    HW214060   1.538   4.518  11.913
 4207SOL     OW14061   1.111   5.500  11.409
 4207SOL    HW114062   1.051   5.438  11.459
 4207SOL    HW214063   1.142   5.456  11.324
 4208SOL     OW14064   1.632   5.101  11.253
 4208SOL    HW114065   1.600   5.195  11.243
 4208SOL    HW214066   1.556   5.038  11.241
 4209SOL     OW14067   0.464   5.467  11.495
 4209SOL    HW114068   0.497   5.506  11.581
 4209SOL    HW214069   0.540   5.460  11.430
 4210SOL     OW14070   1.400   3.831  11.598
 4210SOL    HW114071   1.376   3.794  11.508
 4210SOL    HW214072   1.499   3.847  11.602
 4211SOL     OW14073   0.249   5.509  12.413
 4211SOL    HW114074   0.306   5.444  12.463
 4211SOL    HW214075   0.233   5.476  12.320
 4212SOL     OW14076   0.940   5.422  12.076
 4212SOL    HW114077   1.020   5.365  12.097
 4212SOL    HW214078   0.891   5.382  11.999
 4213SOL     OW14079   0.382   4.424  11.652
 4213SOL    HW114080   0.427   4.334  11.649
 4213SOL    HW214081   0.288   4.413  11.685
 4214SOL     OW14082   0.614   3.846  11.289
 4214SOL    HW114083   0.712   3.824  11.296
 4214SOL    HW214084   0.583   3.829  11.196
 4215SOL     OW14085   0.803   5.126  12.096
 4215SOL    HW114086   0.893   5.140  12.054
 4215SOL    HW214087   0.732   5.128  12.025
 4216SOL     OW14088   0.922   4.227  12.071
 4216SOL    HW114089   0.897   4.218  11.975
 4216SOL    HW214090   0.970   4.145  12.102
 4217SOL     OW14091   0.539   3.788  11.684
 4217SOL    HW114092   0.458   3.789  11.742
 4217SOL    HW214093   0.542   3.871  11.629
 4218SOL     OW14094   1.434   4.912  11.213
 4218SOL    HW114095   1.466   4.836  11.270
 4218SOL    HW214096   1.342   4.939  11.243
 4219SOL     OW14097   0.297   3.759  11.343
 4219SOL    HW114098   0.346   3.843  11.322
 4219SOL    HW214099   0.359   3.694  11.388
 4220SOL     OW14100   0.935   3.960  11.652
 4220SOL    HW114101   0.887   4.001  11.574
 4220SOL    HW214102   1.034   3.958  11.633
 4221SOL     OW14103   1.227   5.294  11.965
 4221SOL    HW114104   1.248   5.368  11.900
 4221SOL    HW214105   1.295   5.294  12.038
 4222SOL     OW14106   0.459   4.876  11.913
 4222SOL    HW114107   0.388   4.849  11.978
 4222SOL    HW214108   0.433   4.848  11.820
 4223SOL     OW14109   1.271   5.521  11.763
 4223SOL    HW114110   1.315   5.585  11.699
 4223SOL    HW214111   1.221   5.573  11.833
 4224SOL     OW14112   1.032   4.273  11.188
 4224SOL    HW114113   0.991   4.355  11.149
 4224SOL    HW214114   1.096   4.299  11.261
 4225SOL     OW14115   0.561   3.946  12.319
 4225SOL    HW114116   0.599   3.862  12.356
 4225SOL    HW214117   0.473   3.965  12.363
 4226SOL     OW14118   0.866   4.178  11.814
 4226SOL    HW114119   0.834   4.250  11.752
 4226SOL    HW214120   0.890   4.097  11.761
 4227SOL     OW14121   1.017   3.763  11.925
 4227SOL    HW114122   0.945   3.768  11.856
 4227SOL    HW214123   0.993   3.694  11.994
 4228SOL     OW14124   1.429   4.897  12.039
 4228SOL    HW114125   1.374   4.813  12.032
 4228SOL    HW214126   1.455   4.926  11.947
 4229SOL     OW14127   1.466   4.314  12.164
 4229SOL    HW114128   1.436   4.219  12.171
 4229SOL    HW214129   1.539   4.330  12.230
 4230SOL     OW14130   1.857   4.557  11.549
 4230SOL    HW114131   1.899   4.493  11.613
 4230SOL    HW214132   1.819   4.506  11.471
 4231SOL     OW14133   0.488   5.109  11.346
 4231SOL    HW114134   0.401   5.094  11.393
 4231SOL    HW214135   0.471   5.135  11.251
 4232SOL     OW14136   1.664   5.004  11.829
 4232SOL    HW114137   1.763   5.012  11.843
 4232SOL    HW214138   1.619   5.088  11.860
 4233SOL     OW14139   1.390   4.299  11.250
 4233SOL    HW114140   1.336   4.278  11.331
 4233SOL    HW214141   1.481   4.258  11.259
 4234SOL     OW14142   0.527   3.980  11.500
 4234SOL    HW114143   0.554   3.921  11.425
 4234SOL    HW214144   0.527   4.075  11.469
 4235SOL     OW14145   1.111   4.919  12.272
 4235SOL    HW114146   1.071   4.963  12.353
 4235SOL    HW214147   1.070   4.956  12.189
 4236SOL     OW14148   1.638   4.823  12.251
 4236SOL    HW114149   1.643   4.904  12.310
 4236SOL    HW214150   1.552   4.825  12.200
 4237SOL     OW14151   0.705   4.774  11.540
 4237SOL    HW114152   0.691   4.781  11.639
 4237SOL    HW214153   0.789   4.723  11.522
 4238SOL     OW14154   0.410   4.537  12.423
 4238SOL    HW114155   0.496   4.549  12.473
 4238SOL    HW214156   0.368   4.450  12.450
 4239SOL     OW14157   1.274   4.110  12.434
 4239SOL    HW114158   1.295   4.184  12.498
 4239SOL    HW214159   1.185   4.127  12.391
 4240SOL     OW14160   0.367   4.824  11.673
 4240SOL    HW114161   0.360   4.907  11.617
 4240SOL    HW214162   0.371   4.744  11.613
 4241SOL     OW14163   0.566   4.261  12.037
 4241SOL    HW114164   0.578   4.327  11.963
 4241SOL    HW214165   0.612   4.295  12.120
 4242SOL     OW14166   1.252   5.072  11.560
 4242SOL    HW114167   1.302   5.149  11.600
 4242SOL    HW214168   1.157   5.074  11.592
 4243SOL     OW14169   1.272   5.169  12.314
 4243SOL    HW114170   1.319   5.182  12.401
 4243SOL    HW214171   1.206   5.095  12.323
 4244SOL     OW14172   1.582   4.363  11.644
 4244SOL    HW114173   1.551   4.424  11.717
 4244SOL    HW214174   1.632   4.415  11.575
 4245SOL     OW14175   0.354   5.234  12.501
 4245SOL    HW114176   0.333   5.190  12.414
 4245SOL    HW214177   0.451   5.260  12.504
 4246SOL     OW14178   0.573   4.594  12.201
 4246SOL    HW114179   0.617   4.683  12.192
 4246SOL    HW214180   0.510   4.594  12.278
 4247SOL     OW14181   1.360   4.586  12.217
 4247SOL    HW114182   1.285   4.586  12.151
 4247SOL    HW214183   1.397   4.494  12.226
 4248SOL     OW14184   1.209   4.249  11.447
 4248SOL    HW114185   1.222   4.165  11.501
 4248SOL    HW214186   1.180   4.323  11.507
 4249SOL     OW14187   0.307   3.937  12.403
 4249SOL    HW114188   0.284   3.974  12.493
 4249SOL    HW214189   0.277   3.842  12.397
 4250SOL     OW14190   0.037   5.034  12.454
 4250SOL    HW114191   0.090   4.985  12.522
 4250SOL    HW214192   0.059   5.132  12.459
 4251SOL     OW14193   0.732   4.358  12.236
 4251SOL    HW114194   0.791   4.332  12.160
 4251SOL    HW214195   0.704   4.454  12.225
 4252SOL     OW14196   0.307   3.787  11.790
 4252SOL    HW114197   0.296   3.881  11.823
 4252SOL    HW214198   0.302   3.724  11.867
 4253SOL     OW14199   1.622   4.091  11.546
 4253SOL    HW114200   1.624   4.015  11.610
 4253SOL    HW214201   1.574   4.168  11.586
 4254SOL     OW14202   1.023   4.490  12.138
 4254SOL    HW114203   1.038   4.511  12.234
 4254SOL    HW214204   0.993   4.395  12.129
 4255SOL     OW14205   1.540   3.998  11.297
 4255SOL    HW114206   1.479   3.923  11.320
 4255SOL    HW214207   1.562   4.050  11.380
 4256SOL     OW14208   1.303   4.562  11.214
 4256SOL    HW114209   1.337   4.469  11.229
 4256SOL    HW214210   1.321   4.589  11.119
 4257SOL     OW14211   1.068   5.057  12.021
 4257SOL    HW114212   1.075   4.973  11.966
 4257SOL    HW214213   1.130   5.126  11.985
 4258SOL     OW14214   0.319   4.534  12.121
 4258SOL    HW114215   0.412   4.570  12.126
 4258SOL    HW214216   0.313   4.449  12.173
 4259SOL     OW14217   0.339   4.233  12.178
 4259SOL    HW114218   0.287   4.150  12.161
 4259SOL    HW214219   0.416   4.238  12.114
 4260SOL     OW14220   1.160   3.931  12.649
 4260SOL    HW114221   1.160   3.995  12.726
 4260SOL    HW214222   1.188   3.979  12.566
 4261SOL     OW14223   0.008   5.050  11.372
 4261SOL    HW114224  -0.085   5.071  11.341
 4261SOL    HW214225   0.018   4.951  11.385
 4262SOL     OW14226   0.088   5.525  12.099
 4262SOL    HW114227   0.046   5.439  12.072
 4262SOL    HW214228   0.182   5.528  12.065
 4263SOL     OW14229   0.504   5.292  12.082
 4263SOL    HW114230   0.570   5.366  12.091
 4263SOL    HW214231   0.548   5.213  12.040
 4264SOL     OW14232   1.002   4.520  12.410
 4264SOL    HW114233   1.043   4.488  12.496
 4264SOL    HW214234   0.906   4.493  12.407
 4265SOL     OW14235   0.040   4.268  12.286
 4265SOL    HW114236   0.125   4.235  12.245
 4265SOL    HW214237   0.053   4.283  12.384
 4266SOL     OW14238   0.815   4.296  11.497
 4266SOL    HW114239   0.822   4.207  11.451
 4266SOL    HW214240   0.721   4.330  11.489
 4267SOL     OW14241   1.657   4.328  12.378
 4267SOL    HW114242   1.619   4.259  12.440
 4267SOL    HW214243   1.739   4.292  12.334
 4268SOL     OW14244   0.671   4.188  12.441
 4268SOL    HW114245   0.637   4.099  12.411
 4268SOL    HW214246   0.697   4.242  12.361
 4269SOL     OW14247   0.930   5.402  12.637
 4269SOL    HW114248   0.906   5.384  12.542
 4269SOL    HW214249   0.960   5.496  12.647
 4270SOL     OW14250   0.473   4.224  11.363
 4270SOL    HW114251   0.534   4.304  11.367
 4270SOL    HW214252   0.378   4.255  11.370
 4271SOL     OW14253   1.347   4.783  12.406
 4271SOL    HW114254   1.371   4.720  12.332
 4271SOL    HW214255   1.257   4.823  12.388
 4272SOL     OW14256   1.302   4.579  11.481
 4272SOL    HW114257   1.216   4.548  11.523
 4272SOL    HW214258   1.298   4.565  11.382
 4273SOL     OW14259   1.759   5.471  12.326
 4273SOL    HW114260   1.820   5.501  12.253
 4273SOL    HW214261   1.721   5.382  12.304
 4274SOL     OW14262   1.252   5.455  12.300
 4274SOL    HW114263   1.336   5.460  12.246
 4274SOL    HW214264   1.229   5.359  12.318
 4275SOL     OW14265   0.083   4.982  12.194
 4275SOL    HW114266   0.078   4.981  12.294
 4275SOL    HW214267   0.000   4.941  12.156
 4276SOL     OW14268   1.726   3.859  11.695
 4276SOL    HW114269   1.799   3.842  11.628
 4276SOL    HW214270   1.695   3.772  11.733
 4277SOL     OW14271   1.388   5.297  11.649
 4277SOL    HW114272   1.455   5.309  11.575
 4277SOL    HW214273   1.348   5.386  11.672
 4278SOL     OW14274   1.280   4.651  11.844
 4278SOL    HW114275   1.340   4.570  11.846
 4278SOL    HW214276   1.320   4.720  11.784
 4279SOL     OW14277   0.672   5.340  11.326
 4279SOL    HW114278   0.681   5.350  11.227
 4279SOL    HW214279   0.632   5.251  11.347
 4280SOL     OW14280   1.650   5.444  12.566
 4280SOL    HW114281   1.703   5.454  12.482
 4280SOL    HW214282   1.623   5.534  12.600
 4281SOL     OW14283   1.841   3.899  12.135
 4281SOL    HW114284   1.880   3.814  12.099
 4281SOL    HW214285   1.743   3.901  12.116
 4282SOL     OW14286   0.263   4.050  11.892
 4282SOL    HW114287   0.184   4.101  11.858
 4282SOL    HW214288   0.254   4.035  11.990
 4283SOL     OW14289   1.194   5.336  11.203
 4283SOL    HW114290   1.200   5.243  11.240
 4283SOL    HW214291   1.135   5.336  11.123
 4284SOL     OW14292   0.822   4.726  12.544
 4284SOL    HW114293   0.862   4.725  12.452
 4284SOL    HW214294   0.832   4.818  12.584
 4285SOL     OW14295   0.916   4.634  11.463
 4285SOL    HW114296   0.979   4.672  11.395
 4285SOL    HW214297   0.956   4.551  11.502
 4286SOL     OW14298   1.504   5.331  11.216
 4286SOL    HW114299   1.412   5.368  11.223
 4286SOL    HW214300   1.542   5.351  11.126
 4287SOL     OW14301   1.039   4.822  11.868
 4287SOL    HW114302   0.969   4.775  11.922
 4287SOL    HW214303   1.098   4.754  11.825
 4288SOL     OW14304   1.014   3.960  12.143
 4288SOL    HW114305   1.006   3.924  12.050
 4288SOL    HW214306   1.012   3.884  12.208
 4289SOL     OW14307   0.590   5.211  11.663
 4289SOL    HW114308   0.632   5.153  11.593
 4289SOL    HW214309   0.546   5.290  11.619
 4290SOL     OW14310   1.709   4.109  12.553
 4290SOL    HW114311   1.782   4.178  12.557
 4290SOL    HW214312   1.737   4.034  12.494
 4291SOL     OW14313   0.255   5.072  11.462
 4291SOL    HW114314   0.159   5.073  11.435
 4291SOL    HW214315   0.267   5.125  11.546
 4292SOL     OW14316   0.075   4.069  11.205
 4292SOL    HW114317  -0.017   4.041  11.176
 4292SOL    HW214318   0.106   4.146  11.149
 4293SOL     OW14319   0.072   3.890  11.490
 4293SOL    HW114320   0.055   3.973  11.436
 4293SOL    HW214321   0.162   3.853  11.468
 4294SOL     OW14322   1.183   5.059  11.291
 4294SOL    HW114323   1.084   5.048  11.293
 4294SOL    HW214324   1.217   5.074  11.384
 4295SOL     OW14325   1.493   5.491  12.131
 4295SOL    HW114326   1.526   5.555  12.062
 4295SOL    HW214327   1.559   5.485  12.206
 4296SOL     OW14328   1.674   4.607  12.426
 4296SOL    HW114329   1.647   4.518  12.389
 4296SOL    HW214330   1.675   4.675  12.353
 4297SOL     OW14331   1.225   4.049  11.621
 4297SOL    HW114332   1.290   3.975  11.610
 4297SOL    HW214333   1.245   4.099  11.705
 4298SOL     OW14334   0.594   4.469  11.824
 4298SOL    HW114335   0.644   4.554  11.805
 4298SOL    HW214336   0.506   4.471  11.776
 4299SOL     OW14337   1.730   4.658  12.689
 4299SOL    HW114338   1.768   4.749  12.704
 4299SOL    HW214339   1.722   4.641  12.590
 4300SOL     OW14340   0.859   5.098  11.188
 4300SOL    HW114341   0.813   5.113  11.276
 4300SOL    HW214342   0.903   5.183  11.158
 4301SOL     OW14343   0.661   5.514  12.125
 4301SOL    HW114344   0.615   5.602  12.112
 4301SOL    HW214345   0.760   5.526  12.118
 4302SOL     OW14346   0.859   4.680  12.033
 4302SOL    HW114347   0.913   4.611  12.081
 4302SOL    HW214348   0.827   4.749  12.099
 4303SOL     OW14349   1.083   4.708  11.259
 4303SOL    HW114350   1.060   4.761  11.177
 4303SOL    HW214351   1.164   4.652  11.240
 4304SOL     OW14352   1.861   5.293  12.023
 4304SOL    HW114353   1.790   5.281  11.953
 4304SOL    HW214354   1.862   5.214  12.083
 4305SOL     OW14355   0.079   4.964  11.825
 4305SOL    HW114356   0.078   4.917  11.913
 4305SOL    HW214357   0.161   4.936  11.774
 4306SOL     OW14358   1.824   3.916  12.399
 4306SOL    HW114359   1.820   3.826  12.443
 4306SOL    HW214360   1.827   3.905  12.300
 4307SOL     OW14361   0.428   4.148  11.692
 4307SOL    HW114362   0.458   4.076  11.630
 4307SOL    HW214363   0.389   4.108  11.775
 4308SOL     OW14364   1.705   5.211  12.276
 4308SOL    HW114365   1.612   5.186  12.249
 4308SOL    HW214366   1.731   5.161  12.358
 4309SOL     OW14367   0.812   5.310  11.859
 4309SOL    HW114368   0.844   5.320  11.765
 4309SOL    HW214369   0.733   5.248  11.861
 4310SOL     OW14370   1.424   3.938  12.284
 4310SOL    HW114371   1.476   3.873  12.339
 4310SOL    HW214372   1.375   4.001  12.345
 4311SOL     OW14373   1.001   3.758  12.326
 4311SOL    HW114374   0.938   3.686  12.295
 4311SOL    HW214375   1.094   3.722  12.326
 4312SOL     OW14376   0.770   5.054  11.473
 4312SOL    HW114377   0.724   4.967  11.490
 4312SOL    HW214378   0.861   5.051  11.514
 4313SOL     OW14379   1.352   3.776  11.340
 4313SOL    HW114380   1.387   3.735  11.256
 4313SOL    HW214381   1.262   3.738  11.360
 4314SOL     OW14382   1.300   4.177  11.863
 4314SOL    HW114383   1.241   4.257  11.867
 4314SOL    HW214384   1.315   4.142  11.956
 4315SOL     OW14385   1.593   3.945  12.054
 4315SOL    HW114386   1.509   3.944  12.108
 4315SOL    HW214387   1.595   4.028  11.998
 4316SOL     OW14388   0.039   4.801  11.472
 4316SOL    HW114389   0.138   4.790  11.463
 4316SOL    HW214390  -0.001   4.715  11.504
 4317SOL     OW14391   0.875   5.370  11.509
 4317SOL    HW114392   0.798   5.335  11.455
 4317SOL    HW214393   0.843   5.441  11.571
 4318SOL     OW14394   0.230   6.214   0.113
 4318SOL    HW114395   0.137   6.212   0.150
 4318SOL    HW214396   0.231   6.175   0.021
 4319SOL     OW14397   0.225   5.861   0.996
 4319SOL    HW114398   0.260   5.844   1.088
 4319SOL    HW214399   0.137   5.816   0.984
 4320SOL     OW14400   0.019   5.954   0.647
 4320SOL    HW114401  -0.063   5.997   0.686
 4320SOL    HW214402  -0.009   5.881   0.584
 4321SOL     OW14403   0.569   6.861   1.165
 4321SOL    HW114404   0.476   6.854   1.128
 4321SOL    HW214405   0.580   6.950   1.209
 4322SOL     OW14406   1.555   7.097   0.703
 4322SOL    HW114407   1.498   7.081   0.784
 4322SOL    HW214408   1.496   7.107   0.623
 4323SOL     OW14409   1.135   6.289   0.717
 4323SOL    HW114410   1.192   6.367   0.692
 4323SOL    HW214411   1.075   6.315   0.793
 4324SOL     OW14412   1.755   6.193   0.231
 4324SOL    HW114413   1.743   6.180   0.132
 4324SOL    HW214414   1.725   6.112   0.280
 4325SOL     OW14415   0.768   6.730   1.023
 4325SOL    HW114416   0.690   6.747   1.083
 4325SOL    HW214417   0.802   6.817   0.987
 4326SOL     OW14418   0.850   6.384   1.823
 4326SOL    HW114419   0.846   6.460   1.888
 4326SOL    HW214420   0.872   6.420   1.732
 4327SOL     OW14421   0.685   6.598   0.665
 4327SOL    HW114422   0.754   6.582   0.735
 4327SOL    HW214423   0.612   6.655   0.703
 4328SOL     OW14424   0.686   6.747   1.803
 4328SOL    HW114425   0.746   6.826   1.817
 4328SOL    HW214426   0.600   6.778   1.762
 4329SOL     OW14427   0.335   7.021   1.061
 4329SOL    HW114428   0.257   6.990   1.008
 4329SOL    HW214429   0.393   7.079   1.004
 4330SOL     OW14430   1.460   7.091   1.339
 4330SOL    HW114431   1.484   7.185   1.365
 4330SOL    HW214432   1.444   7.037   1.421
 4331SOL     OW14433   0.438   5.978   1.499
 4331SOL    HW114434   0.520   5.922   1.508
 4331SOL    HW214435   0.357   5.920   1.503
 4332SOL     OW14436   1.603   6.033   0.737
 4332SOL    HW114437   1.529   6.079   0.687
 4332SOL    HW214438   1.654   6.101   0.790
 4333SOL     OW14439   0.231   7.299   0.483
 4333SOL    HW114440   0.265   7.376   0.537
 4333SOL    HW214441   0.275   7.299   0.393
 4334SOL     OW14442   1.127   6.927   1.690
 4334SOL    HW114443   1.174   6.927   1.778
 4334SOL    HW214444   1.079   6.840   1.679
 4335SOL     OW14445   0.230   7.020   0.538
 4335SOL    HW114446   0.204   7.116   0.538
 4335SOL    HW214447   0.159   6.966   0.583
 4336SOL     OW14448   0.240   6.677   0.886
 4336SOL    HW114449   0.254   6.593   0.938
 4336SOL    HW214450   0.185   6.741   0.941
 4337SOL     OW14451   0.620   7.372   1.439
 4337SOL    HW114452   0.528   7.355   1.474
 4337SOL    HW214453   0.648   7.464   1.465
 4338SOL     OW14454   0.606   6.550   0.123
 4338SOL    HW114455   0.613   6.634   0.069
 4338SOL    HW214456   0.652   6.563   0.211
 4339SOL     OW14457   1.594   5.700   1.480
 4339SOL    HW114458   1.576   5.767   1.408
 4339SOL    HW214459   1.591   5.746   1.569
 4340SOL     OW14460   0.122   6.229   0.563
 4340SOL    HW114461   0.077   6.141   0.580
 4340SOL    HW214462   0.121   6.283   0.647
 4341SOL     OW14463   1.842   7.353   0.359
 4341SOL    HW114464   1.896   7.324   0.439
 4341SOL    HW214465   1.872   7.443   0.330
 4342SOL     OW14466   0.027   7.182   0.117
 4342SOL    HW114467   0.008   7.086   0.138
 4342SOL    HW214468  -0.006   7.240   0.192
 4343SOL     OW14469   1.689   6.508   0.612
 4343SOL    HW114470   1.784   6.479   0.620
 4343SOL    HW214471   1.681   6.573   0.537
 4344SOL     OW14472   1.641   6.694   0.432
 4344SOL    HW114473   1.727   6.696   0.380
 4344SOL    HW214474   1.655   6.741   0.520
 4345SOL     OW14475   0.113   6.323   1.597
 4345SOL    HW114476   0.201   6.310   1.642
 4345SOL    HW214477   0.100   6.420   1.575
 4346SOL     OW14478   0.613   6.951   0.726
 4346SOL    HW114479   0.564   6.864   0.735
 4346SOL    HW214480   0.590   6.994   0.639
 4347SOL     OW14481   1.293   6.814   1.423
 4347SOL    HW114482   1.330   6.741   1.365
 4347SOL    HW214483   1.345   6.819   1.508
 4348SOL     OW14484   0.809   5.590   0.502
 4348SOL    HW114485   0.849   5.681   0.493
 4348SOL    HW214486   0.709   5.598   0.508
 4349SOL     OW14487   0.197   6.562   1.264
 4349SOL    HW114488   0.286   6.517   1.250
 4349SOL    HW214489   0.124   6.497   1.245
 4350SOL     OW14490   1.525   6.585   0.190
 4350SOL    HW114491   1.462   6.509   0.203
 4350SOL    HW214492   1.573   6.603   0.276
 4351SOL     OW14493   1.187   7.378   1.616
 4351SOL    HW114494   1.211   7.438   1.540
 4351SOL    HW214495   1.194   7.283   1.586
 4352SOL     OW14496   0.317   5.837   1.801
 4352SOL    HW114497   0.388   5.908   1.807
 4352SOL    HW214498   0.229   5.876   1.829
 4353SOL     OW14499   1.466   7.003   0.953
 4353SOL    HW114500   1.407   7.009   1.033
 4353SOL    HW214501   1.451   6.915   0.907
 4354SOL     OW14502   1.667   7.300   0.572
 4354SOL    HW114503   1.626   7.277   0.484
 4354SOL    HW214504   1.649   7.226   0.637
 4355SOL     OW14505   0.598   6.315   0.270
 4355SOL    HW114506   0.622   6.384   0.202
 4355SOL    HW214507   0.520   6.348   0.324
 4356SOL     OW14508   1.281   5.931   0.944
 4356SOL    HW114509   1.195   5.881   0.931
 4356SOL    HW214510   1.343   5.877   1.000
 4357SOL     OW14511   1.576   7.248   0.307
 4357SOL    HW114512   1.665   7.294   0.310
 4357SOL    HW214513   1.555   7.224   0.212
 4358SOL     OW14514   0.807   6.191   1.465
 4358SOL    HW114515   0.760   6.188   1.554
 4358SOL    HW214516   0.756   6.136   1.399
 4359SOL     OW14517   1.394   6.055   1.674
 4359SOL    HW114518   1.374   6.098   1.762
 4359SOL    HW214519   1.472   5.993   1.683
 4360SOL     OW14520   0.973   6.476   1.572
 4360SOL    HW114521   1.019   6.392   1.543
 4360SOL    HW214522   0.917   6.510   1.497
 4361SOL     OW14523   0.991   5.996   1.242
 4361SOL    HW114524   0.914   6.030   1.296
 4361SOL    HW214525   0.957   5.945   1.163
 4362SOL     OW14526   1.041   6.287   0.429
 4362SOL    HW114527   1.067   6.283   0.525
 4362SOL    HW214528   0.956   6.236   0.415
 4363SOL     OW14529   0.076   6.397   0.789
 4363SOL    HW114530   0.175   6.385   0.798
 4363SOL    HW214531   0.052   6.492   0.810
 4364SOL     OW14532   0.130   7.407   1.571
 4364SOL    HW114533   0.120   7.392   1.670
 4364SOL    HW214534   0.044   7.443   1.535
 4365SOL     OW14535   0.865   5.934   0.195
 4365SOL    HW114536   0.924   5.997   0.146
 4365SOL    HW214537   0.884   5.840   0.166
 4366SOL     OW14538   1.719   6.171   1.831
 4366SOL    HW114539   1.693   6.260   1.795
 4366SOL    HW214540   1.717   6.103   1.758
 4367SOL     OW14541   1.362   6.730   0.545
 4367SOL    HW114542   1.445   6.701   0.497
 4367SOL    HW214543   1.313   6.797   0.489
 4368SOL     OW14544   0.550   5.782   0.885
 4368SOL    HW114545   0.545   5.777   0.985
 4368SOL    HW214546   0.552   5.878   0.856
 4369SOL     OW14547   1.008   7.042   0.477
 4369SOL    HW114548   0.962   7.114   0.425
 4369SOL    HW214549   1.004   7.062   0.575
 4370SOL     OW14550   0.351   7.387   0.853
 4370SOL    HW114551   0.401   7.301   0.859
 4370SOL    HW214552   0.416   7.464   0.850
 4371SOL     OW14553   1.795   6.652   0.873
 4371SOL    HW114554   1.733   6.637   0.797
 4371SOL    HW214555   1.743   6.663   0.958
 4372SOL     OW14556   1.227   7.136   1.506
 4372SOL    HW114557   1.233   7.059   1.570
 4372SOL    HW214558   1.175   7.110   1.426
 4373SOL     OW14559   0.321   6.529   0.242
 4373SOL    HW114560   0.403   6.568   0.200
 4373SOL    HW214561   0.294   6.447   0.193
 4374SOL     OW14562   1.458   6.321   0.728
 4374SOL    HW114563   1.453   6.256   0.803
 4374SOL    HW214564   1.538   6.380   0.741
 4375SOL     OW14565   0.461   6.852   1.727
 4375SOL    HW114566   0.411   6.853   1.641
 4375SOL    HW214567   0.398   6.834   1.803
 4376SOL     OW14568   1.111   7.362   0.237
 4376SOL    HW114569   1.051   7.300   0.287
 4376SOL    HW214570   1.142   7.318   0.152
 4377SOL     OW14571   0.202   5.871   1.498
 4377SOL    HW114572   0.122   5.931   1.485
 4377SOL    HW214573   0.192   5.822   1.584
 4378SOL     OW14574   1.632   6.963   0.081
 4378SOL    HW114575   1.600   7.057   0.071
 4378SOL    HW214576   1.556   6.900   0.069
 4379SOL     OW14577   0.464   7.329   0.323
 4379SOL    HW114578   0.497   7.368   0.409
 4379SOL    HW214579   0.540   7.322   0.258
 4380SOL     OW14580   1.400   5.693   0.426
 4380SOL    HW114581   1.376   5.656   0.336
 4380SOL    HW214582   1.499   5.709   0.430
 4381SOL     OW14583   0.249   7.371   1.241
 4381SOL    HW114584   0.306   7.306   1.291
 4381SOL    HW214585   0.233   7.338   1.148
 4382SOL     OW14586   0.940   7.284   0.904
 4382SOL    HW114587   1.020   7.227   0.925
 4382SOL    HW214588   0.891   7.244   0.827
 4383SOL     OW14589   0.382   6.286   0.480
 4383SOL    HW114590   0.427   6.196   0.477
 4383SOL    HW214591   0.288   6.275   0.513
 4384SOL     OW14592   1.547   5.808   1.729
 4384SOL    HW114593   1.542   5.845   1.821
 4384SOL    HW214594   1.475   5.739   1.717
 4385SOL     OW14595   0.614   5.708   0.117
 4385SOL    HW114596   0.712   5.686   0.124
 4385SOL    HW214597   0.583   5.691   0.024
 4386SOL     OW14598   0.781   5.850   1.749
 4386SOL    HW114599   0.848   5.789   1.792
 4386SOL    HW214600   0.708   5.869   1.814
 4387SOL     OW14601   0.888   7.100   1.195
 4387SOL    HW114602   0.865   7.075   1.101
 4387SOL    HW214603   0.949   7.031   1.234
 4388SOL     OW14604   1.351   6.176   1.433
 4388SOL    HW114605   1.379   6.133   1.518
 4388SOL    HW214606   1.376   6.272   1.434
 4389SOL     OW14607   0.803   6.988   0.924
 4389SOL    HW114608   0.893   7.002   0.882
 4389SOL    HW214609   0.732   6.990   0.853
 4390SOL     OW14610   0.922   6.089   0.899
 4390SOL    HW114611   0.897   6.080   0.803
 4390SOL    HW214612   0.970   6.007   0.930
 4391SOL     OW14613   0.539   5.650   0.512
 4391SOL    HW114614   0.458   5.651   0.570
 4391SOL    HW214615   0.542   5.733   0.457
 4392SOL     OW14616   1.434   6.774   0.041
 4392SOL    HW114617   1.466   6.698   0.098
 4392SOL    HW214618   1.342   6.801   0.071
 4393SOL     OW14619   0.297   5.621   0.171
 4393SOL    HW114620   0.346   5.705   0.150
 4393SOL    HW214621   0.359   5.556   0.216
 4394SOL     OW14622   0.935   5.822   0.480
 4394SOL    HW114623   0.887   5.863   0.402
 4394SOL    HW214624   1.034   5.820   0.461
 4395SOL     OW14625   1.076   6.269   1.464
 4395SOL    HW114626   0.996   6.208   1.467
 4395SOL    HW214627   1.157   6.216   1.440
 4396SOL     OW14628   1.227   7.156   0.793
 4396SOL    HW114629   1.248   7.230   0.728
 4396SOL    HW214630   1.295   7.156   0.866
 4397SOL     OW14631   0.459   6.738   0.741
 4397SOL    HW114632   0.388   6.711   0.806
 4397SOL    HW214633   0.433   6.710   0.648
 4398SOL     OW14634   1.271   7.383   0.591
 4398SOL    HW114635   1.315   7.447   0.527
 4398SOL    HW214636   1.221   7.435   0.661
 4399SOL     OW14637   1.032   6.135   0.016
 4399SOL    HW114638   0.991   6.217  -0.023
 4399SOL    HW214639   1.096   6.161   0.089
 4400SOL     OW14640   0.078   6.142   1.386
 4400SOL    HW114641   0.170   6.141   1.345
 4400SOL    HW214642   0.072   6.216   1.453
 4401SOL     OW14643   0.561   5.808   1.147
 4401SOL    HW114644   0.599   5.724   1.184
 4401SOL    HW214645   0.473   5.827   1.191
 4402SOL     OW14646   0.866   6.040   0.642
 4402SOL    HW114647   0.834   6.112   0.580
 4402SOL    HW214648   0.890   5.959   0.589
 4403SOL     OW14649   1.017   5.625   0.753
 4403SOL    HW114650   0.945   5.630   0.684
 4403SOL    HW214651   0.993   5.556   0.822
 4404SOL     OW14652   1.429   6.759   0.867
 4404SOL    HW114653   1.374   6.675   0.860
 4404SOL    HW214654   1.455   6.788   0.775
 4405SOL     OW14655   1.466   6.176   0.992
 4405SOL    HW114656   1.436   6.081   0.999
 4405SOL    HW214657   1.539   6.192   1.058
 4406SOL     OW14658   1.857   6.419   0.377
 4406SOL    HW114659   1.899   6.355   0.441
 4406SOL    HW214660   1.819   6.368   0.299
 4407SOL     OW14661   0.488   6.971   0.174
 4407SOL    HW114662   0.401   6.956   0.221
 4407SOL    HW214663   0.471   6.997   0.079
 4408SOL     OW14664   1.664   6.866   0.657
 4408SOL    HW114665   1.763   6.874   0.671
 4408SOL    HW214666   1.619   6.950   0.688
 4409SOL     OW14667   1.390   6.161   0.078
 4409SOL    HW114668   1.336   6.140   0.159
 4409SOL    HW214669   1.481   6.120   0.087
 4410SOL     OW14670   0.527   5.842   0.328
 4410SOL    HW114671   0.554   5.783   0.253
 4410SOL    HW214672   0.527   5.937   0.297
 4411SOL     OW14673   1.754   6.809   1.588
 4411SOL    HW114674   1.845   6.770   1.575
 4411SOL    HW214675   1.762   6.905   1.612
 4412SOL     OW14676   1.064   6.933   1.340
 4412SOL    HW114677   0.984   6.910   1.395
 4412SOL    HW214678   1.147   6.907   1.389
 4413SOL     OW14679   1.592   7.215   1.625
 4413SOL    HW114680   1.619   7.249   1.535
 4413SOL    HW214681   1.671   7.177   1.671
 4414SOL     OW14682   1.111   6.781   1.100
 4414SOL    HW114683   1.071   6.825   1.181
 4414SOL    HW214684   1.070   6.818   1.017
 4415SOL     OW14685   1.638   6.685   1.079
 4415SOL    HW114686   1.643   6.766   1.138
 4415SOL    HW214687   1.552   6.687   1.028
 4416SOL     OW14688   0.915   5.675   1.402
 4416SOL    HW114689   0.940   5.655   1.307
 4416SOL    HW214690   0.987   5.731   1.444
 4417SOL     OW14691   0.980   6.702   1.719
 4417SOL    HW114692   0.881   6.708   1.729
 4417SOL    HW214693   1.003   6.622   1.663
 4418SOL     OW14694   0.705   6.636   0.368
 4418SOL    HW114695   0.691   6.643   0.467
 4418SOL    HW214696   0.789   6.585   0.350
 4419SOL     OW14697   0.410   6.399   1.251
 4419SOL    HW114698   0.496   6.411   1.301
 4419SOL    HW214699   0.368   6.312   1.278
 4420SOL     OW14700   1.274   5.972   1.262
 4420SOL    HW114701   1.295   6.046   1.326
 4420SOL    HW214702   1.185   5.989   1.219
 4421SOL     OW14703   0.064   7.150   1.331
 4421SOL    HW114704   0.018   7.232   1.297
 4421SOL    HW214705   0.162   7.169   1.340
 4422SOL     OW14706   0.367   6.686   0.501
 4422SOL    HW114707   0.360   6.769   0.445
 4422SOL    HW214708   0.371   6.606   0.441
 4423SOL     OW14709   0.566   6.123   0.865
 4423SOL    HW114710   0.578   6.189   0.791
 4423SOL    HW214711   0.612   6.157   0.948
 4424SOL     OW14712   1.252   6.934   0.388
 4424SOL    HW114713   1.302   7.011   0.428
 4424SOL    HW214714   1.157   6.936   0.420
 4425SOL     OW14715   1.272   7.031   1.142
 4425SOL    HW114716   1.319   7.044   1.229
 4425SOL    HW214717   1.206   6.957   1.151
 4426SOL     OW14718   1.582   6.225   0.472
 4426SOL    HW114719   1.551   6.286   0.545
 4426SOL    HW214720   1.632   6.277   0.403
 4427SOL     OW14721   0.354   7.096   1.329
 4427SOL    HW114722   0.333   7.052   1.242
 4427SOL    HW214723   0.451   7.122   1.332
 4428SOL     OW14724   0.402   6.337   1.598
 4428SOL    HW114725   0.470   6.392   1.551
 4428SOL    HW214726   0.442   6.249   1.625
 4429SOL     OW14727   1.587   6.365   1.670
 4429SOL    HW114728   1.495   6.403   1.665
 4429SOL    HW214729   1.647   6.412   1.605
 4430SOL     OW14730   1.013   5.691   1.770
 4430SOL    HW114731   1.019   5.776   1.718
 4430SOL    HW214732   1.045   5.615   1.713
 4431SOL     OW14733   0.504   5.636   1.740
 4431SOL    HW114734   0.462   5.579   1.670
 4431SOL    HW214735   0.438   5.705   1.772
 4432SOL     OW14736   0.573   6.456   1.029
 4432SOL    HW114737   0.617   6.545   1.020
 4432SOL    HW214738   0.510   6.456   1.106
 4433SOL     OW14739   1.360   6.448   1.045
 4433SOL    HW114740   1.285   6.448   0.979
 4433SOL    HW214741   1.397   6.356   1.054
 4434SOL     OW14742   1.209   6.111   0.275
 4434SOL    HW114743   1.222   6.027   0.329
 4434SOL    HW214744   1.180   6.185   0.335
 4435SOL     OW14745   0.307   5.799   1.231
 4435SOL    HW114746   0.284   5.836   1.321
 4435SOL    HW214747   0.277   5.704   1.225
 4436SOL     OW14748   0.037   6.896   1.282
 4436SOL    HW114749   0.090   6.847   1.350
 4436SOL    HW214750   0.059   6.994   1.287
 4437SOL     OW14751   0.732   6.220   1.064
 4437SOL    HW114752   0.791   6.194   0.988
 4437SOL    HW214753   0.704   6.316   1.053
 4438SOL     OW14754   1.728   6.521   1.854
 4438SOL    HW114755   1.682   6.514   1.765
 4438SOL    HW214756   1.666   6.565   1.920
 4439SOL     OW14757   0.307   5.649   0.618
 4439SOL    HW114758   0.296   5.743   0.651
 4439SOL    HW214759   0.302   5.586   0.695
 4440SOL     OW14760   1.622   5.953   0.374
 4440SOL    HW114761   1.624   5.877   0.438
 4440SOL    HW214762   1.574   6.030   0.414
 4441SOL     OW14763   1.023   6.352   0.966
 4441SOL    HW114764   1.038   6.373   1.062
 4441SOL    HW214765   0.993   6.257   0.957
 4442SOL     OW14766   0.980   7.159   1.700
 4442SOL    HW114767   0.960   7.203   1.612
 4442SOL    HW214768   1.019   7.068   1.684
 4443SOL     OW14769   1.859   7.104   1.605
 4443SOL    HW114770   1.873   7.131   1.510
 4443SOL    HW214771   1.942   7.126   1.658
 4444SOL     OW14772   0.350   6.484   1.804
 4444SOL    HW114773   0.426   6.528   1.852
 4444SOL    HW214774   0.385   6.437   1.722
 4445SOL     OW14775   1.540   5.860   0.125
 4445SOL    HW114776   1.479   5.785   0.148
 4445SOL    HW214777   1.562   5.912   0.208
 4446SOL     OW14778   1.303   6.424   0.042
 4446SOL    HW114779   1.337   6.331   0.057
 4446SOL    HW214780   1.321   6.451  -0.053
 4447SOL     OW14781   1.068   6.919   0.849
 4447SOL    HW114782   1.075   6.835   0.794
 4447SOL    HW214783   1.130   6.988   0.813
 4448SOL     OW14784   0.319   6.396   0.949
 4448SOL    HW114785   0.412   6.432   0.954
 4448SOL    HW214786   0.313   6.311   1.001
 4449SOL     OW14787   0.339   6.095   1.006
 4449SOL    HW114788   0.287   6.012   0.989
 4449SOL    HW214789   0.416   6.100   0.942
 4450SOL     OW14790   1.138   5.966   1.678
 4450SOL    HW114791   1.093   6.029   1.742
 4450SOL    HW214792   1.231   5.997   1.661
 4451SOL     OW14793   1.160   5.793   1.477
 4451SOL    HW114794   1.160   5.857   1.554
 4451SOL    HW214795   1.188   5.841   1.394
 4452SOL     OW14796   0.008   6.912   0.200
 4452SOL    HW114797  -0.085   6.933   0.169
 4452SOL    HW214798   0.018   6.813   0.213
 4453SOL     OW14799   0.088   7.387   0.927
 4453SOL    HW114800   0.046   7.301   0.900
 4453SOL    HW214801   0.182   7.390   0.893
 4454SOL     OW14802   0.504   7.154   0.910
 4454SOL    HW114803   0.570   7.228   0.919
 4454SOL    HW214804   0.548   7.075   0.868
 4455SOL     OW14805   1.002   6.382   1.238
 4455SOL    HW114806   1.043   6.350   1.324
 4455SOL    HW214807   0.906   6.355   1.235
 4456SOL     OW14808   0.040   6.130   1.114
 4456SOL    HW114809   0.125   6.097   1.073
 4456SOL    HW214810   0.053   6.145   1.212
 4457SOL     OW14811   0.189   6.106   1.722
 4457SOL    HW114812   0.248   6.066   1.652
 4457SOL    HW214813   0.131   6.177   1.681
 4458SOL     OW14814   1.369   6.536   1.660
 4458SOL    HW114815   1.408   6.625   1.680
 4458SOL    HW214816   1.379   6.516   1.563
 4459SOL     OW14817   0.815   6.158   0.325
 4459SOL    HW114818   0.822   6.069   0.279
 4459SOL    HW214819   0.721   6.192   0.317
 4460SOL     OW14820   1.657   6.190   1.206
 4460SOL    HW114821   1.619   6.121   1.268
 4460SOL    HW214822   1.739   6.154   1.162
 4461SOL     OW14823   0.252   7.150   1.744
 4461SOL    HW114824   0.222   7.207   1.820
 4461SOL    HW214825   0.245   7.053   1.770
 4462SOL     OW14826   0.671   6.050   1.269
 4462SOL    HW114827   0.637   5.961   1.239
 4462SOL    HW214828   0.697   6.104   1.189
 4463SOL     OW14829   0.930   7.264   1.465
 4463SOL    HW114830   0.906   7.246   1.370
 4463SOL    HW214831   0.960   7.358   1.475
 4464SOL     OW14832   0.473   6.086   0.191
 4464SOL    HW114833   0.534   6.166   0.195
 4464SOL    HW214834   0.378   6.117   0.198
 4465SOL     OW14835   0.159   6.723   1.466
 4465SOL    HW114836   0.181   6.662   1.542
 4465SOL    HW214837   0.169   6.674   1.380
 4466SOL     OW14838   1.347   6.645   1.234
 4466SOL    HW114839   1.371   6.582   1.160
 4466SOL    HW214840   1.257   6.685   1.216
 4467SOL     OW14841   1.302   6.441   0.309
 4467SOL    HW114842   1.216   6.410   0.351
 4467SOL    HW214843   1.298   6.427   0.210
 4468SOL     OW14844   1.759   7.333   1.154
 4468SOL    HW114845   1.820   7.363   1.081
 4468SOL    HW214846   1.721   7.244   1.132
 4469SOL     OW14847   1.252   7.317   1.128
 4469SOL    HW114848   1.336   7.322   1.074
 4469SOL    HW214849   1.229   7.221   1.146
 4470SOL     OW14850   0.083   6.844   1.022
 4470SOL    HW114851   0.078   6.843   1.122
 4470SOL    HW214852   0.000   6.803   0.984
 4471SOL     OW14853   0.688   7.248   1.716
 4471SOL    HW114854   0.632   7.329   1.725
 4471SOL    HW214855   0.740   7.252   1.630
 4472SOL     OW14856   0.903   5.672   0.133
 4472SOL    HW114857   0.954   5.673   0.047
 4472SOL    HW214858   0.959   5.630   0.204
 4473SOL     OW14859   1.726   5.721   0.523
 4473SOL    HW114860   1.799   5.704   0.456
 4473SOL    HW214861   1.695   5.634   0.561
 4474SOL     OW14862   1.388   7.159   0.477
 4474SOL    HW114863   1.455   7.171   0.403
 4474SOL    HW214864   1.348   7.248   0.500
 4475SOL     OW14865   0.130   7.380   1.851
 4475SOL    HW114866   0.089   7.306   1.904
 4475SOL    HW214867   0.194   7.431   1.909
 4476SOL     OW14868   1.280   6.513   0.672
 4476SOL    HW114869   1.340   6.432   0.674
 4476SOL    HW214870   1.320   6.582   0.612
 4477SOL     OW14871   0.830   6.859   1.422
 4477SOL    HW114872   0.825   6.892   1.517
 4477SOL    HW214873   0.744   6.878   1.376
 4478SOL     OW14874   0.672   7.202   0.154
 4478SOL    HW114875   0.681   7.212   0.055
 4478SOL    HW214876   0.632   7.113   0.175
 4479SOL     OW14877   1.650   7.306   1.394
 4479SOL    HW114878   1.703   7.316   1.310
 4479SOL    HW214879   1.623   7.396   1.428
 4480SOL     OW14880   1.841   5.761   0.963
 4480SOL    HW114881   1.880   5.676   0.927
 4480SOL    HW214882   1.743   5.763   0.944
 4481SOL     OW14883   0.263   5.912   0.720
 4481SOL    HW114884   0.184   5.963   0.686
 4481SOL    HW214885   0.254   5.897   0.818
 4482SOL     OW14886   1.194   7.198   0.031
 4482SOL    HW114887   1.200   7.105   0.068
 4482SOL    HW214888   1.135   7.198  -0.049
 4483SOL     OW14889   0.822   6.588   1.372
 4483SOL    HW114890   0.862   6.587   1.280
 4483SOL    HW214891   0.832   6.680   1.412
 4484SOL     OW14892   0.916   6.496   0.291
 4484SOL    HW114893   0.979   6.534   0.223
 4484SOL    HW214894   0.956   6.413   0.330
 4485SOL     OW14895   1.504   7.193   0.044
 4485SOL    HW114896   1.412   7.230   0.051
 4485SOL    HW214897   1.542   7.213  -0.046
 4486SOL     OW14898   0.372   6.874   1.490
 4486SOL    HW114899   0.359   6.967   1.456
 4486SOL    HW214900   0.288   6.822   1.477
 4487SOL     OW14901   1.614   6.878   1.289
 4487SOL    HW114902   1.674   6.881   1.369
 4487SOL    HW214903   1.539   6.942   1.302
 4488SOL     OW14904   1.039   6.684   0.696
 4488SOL    HW114905   0.969   6.637   0.750
 4488SOL    HW214906   1.098   6.616   0.653
 4489SOL     OW14907   1.014   5.822   0.971
 4489SOL    HW114908   1.006   5.786   0.878
 4489SOL    HW214909   1.012   5.746   1.036
 4490SOL     OW14910   0.590   7.073   0.491
 4490SOL    HW114911   0.632   7.015   0.421
 4490SOL    HW214912   0.546   7.152   0.447
 4491SOL     OW14913   1.709   5.971   1.381
 4491SOL    HW114914   1.782   6.040   1.385
 4491SOL    HW214915   1.737   5.896   1.322
 4492SOL     OW14916   0.255   6.934   0.290
 4492SOL    HW114917   0.159   6.935   0.263
 4492SOL    HW214918   0.267   6.987   0.374
 4493SOL     OW14919   0.105   6.599   1.726
 4493SOL    HW114920   0.028   6.566   1.780
 4493SOL    HW214921   0.190   6.569   1.768
 4494SOL     OW14922   0.672   5.789   1.489
 4494SOL    HW114923   0.762   5.773   1.449
 4494SOL    HW214924   0.680   5.794   1.588
 4495SOL     OW14925   0.075   5.931   0.033
 4495SOL    HW114926  -0.017   5.903   0.004
 4495SOL    HW214927   0.106   6.008  -0.023
 4496SOL     OW14928   1.440   6.442   1.398
 4496SOL    HW114929   1.383   6.494   1.335
 4496SOL    HW214930   1.536   6.454   1.374
 4497SOL     OW14931   0.072   5.752   0.318
 4497SOL    HW114932   0.055   5.835   0.264
 4497SOL    HW214933   0.162   5.715   0.296
 4498SOL     OW14934   1.183   6.921   0.119
 4498SOL    HW114935   1.084   6.910   0.121
 4498SOL    HW214936   1.217   6.936   0.212
 4499SOL     OW14937   0.613   6.428   1.431
 4499SOL    HW114938   0.669   6.509   1.414
 4499SOL    HW214939   0.672   6.348   1.434
 4500SOL     OW14940   1.493   7.353   0.959
 4500SOL    HW114941   1.526   7.417   0.890
 4500SOL    HW214942   1.559   7.347   1.034
 4501SOL     OW14943   0.716   6.151   1.708
 4501SOL    HW114944   0.735   6.216   1.782
 4501SOL    HW214945   0.776   6.071   1.717
 4502SOL     OW14946   1.450   6.806   1.633
 4502SOL    HW114947   1.441   6.796   1.732
 4502SOL    HW214948   1.546   6.799   1.607
 4503SOL     OW14949   0.390   7.327   1.560
 4503SOL    HW114950   0.299   7.368   1.558
 4503SOL    HW214951   0.383   7.233   1.592
 4504SOL     OW14952   1.674   6.469   1.254
 4504SOL    HW114953   1.647   6.380   1.217
 4504SOL    HW214954   1.675   6.537   1.181
 4505SOL     OW14955   1.225   5.911   0.449
 4505SOL    HW114956   1.290   5.837   0.438
 4505SOL    HW214957   1.245   5.961   0.533
 4506SOL     OW14958   0.594   6.331   0.652
 4506SOL    HW114959   0.644   6.416   0.633
 4506SOL    HW214960   0.506   6.333   0.604
 4507SOL     OW14961   1.777   5.928   1.642
 4507SOL    HW114962   1.760   5.959   1.548
 4507SOL    HW214963   1.693   5.891   1.680
 4508SOL     OW14964   1.730   6.520   1.517
 4508SOL    HW114965   1.768   6.611   1.532
 4508SOL    HW214966   1.722   6.503   1.418
 4509SOL     OW14967   0.859   6.960   0.016
 4509SOL    HW114968   0.813   6.975   0.104
 4509SOL    HW214969   0.903   7.045  -0.014
 4510SOL     OW14970   0.661   7.376   0.953
 4510SOL    HW114971   0.615   7.464   0.940
 4510SOL    HW214972   0.760   7.388   0.946
 4511SOL     OW14973   0.859   6.542   0.861
 4511SOL    HW114974   0.913   6.473   0.909
 4511SOL    HW214975   0.827   6.611   0.927
 4512SOL     OW14976   1.083   6.570   0.087
 4512SOL    HW114977   1.060   6.623   0.005
 4512SOL    HW214978   1.164   6.514   0.068
 4513SOL     OW14979   1.861   7.155   0.851
 4513SOL    HW114980   1.790   7.143   0.781
 4513SOL    HW214981   1.862   7.076   0.911
 4514SOL     OW14982   0.221   6.900   1.844
 4514SOL    HW114983   0.156   6.827   1.823
 4514SOL    HW214984   0.225   6.914   1.942
 4515SOL     OW14985   0.079   6.826   0.653
 4515SOL    HW114986   0.078   6.779   0.741
 4515SOL    HW214987   0.161   6.798   0.602
 4516SOL     OW14988   0.672   6.977   1.624
 4516SOL    HW114989   0.594   6.927   1.662
 4516SOL    HW214990   0.669   7.072   1.655
 4517SOL     OW14991   1.824   5.778   1.227
 4517SOL    HW114992   1.820   5.688   1.271
 4517SOL    HW214993   1.827   5.767   1.128
 4518SOL     OW14994   0.428   6.010   0.520
 4518SOL    HW114995   0.458   5.938   0.458
 4518SOL    HW214996   0.389   5.970   0.603
 4519SOL     OW14997   1.705   7.073   1.104
 4519SOL    HW114998   1.612   7.048   1.077
 4519SOL    HW214999   1.731   7.023   1.186
 4520SOL     OW15000   0.317   6.133   1.280
 4520SOL    HW115001   0.355   6.074   1.352
 4520SOL    HW215002   0.357   6.107   1.192
 4521SOL     OW15003   0.812   7.172   0.687
 4521SOL    HW115004   0.844   7.182   0.593
 4521SOL    HW215005   0.733   7.110   0.689
 4522SOL     OW15006   1.424   5.800   1.112
 4522SOL    HW115007   1.476   5.735   1.167
 4522SOL    HW215008   1.375   5.863   1.173
 4523SOL     OW15009   1.001   5.620   1.154
 4523SOL    HW115010   0.938   5.548   1.123
 4523SOL    HW215011   1.094   5.584   1.154
 4524SOL     OW15012   0.770   6.916   0.301
 4524SOL    HW115013   0.724   6.829   0.318
 4524SOL    HW215014   0.861   6.913   0.342
 4525SOL     OW15015   0.618   7.153   1.284
 4525SOL    HW115016   0.613   7.235   1.341
 4525SOL    HW215017   0.707   7.150   1.239
 4526SOL     OW15018   1.352   5.638   0.168
 4526SOL    HW115019   1.387   5.597   0.084
 4526SOL    HW215020   1.262   5.600   0.188
 4527SOL     OW15021   1.300   6.039   0.691
 4527SOL    HW115022   1.241   6.119   0.695
 4527SOL    HW215023   1.315   6.004   0.784
 4528SOL     OW15024   1.593   5.807   0.882
 4528SOL    HW115025   1.509   5.806   0.936
 4528SOL    HW215026   1.595   5.890   0.826
 4529SOL     OW15027   0.039   6.663   0.300
 4529SOL    HW115028   0.138   6.652   0.291
 4529SOL    HW215029  -0.001   6.577   0.332
 4530SOL     OW15030   0.875   7.232   0.337
 4530SOL    HW115031   0.798   7.197   0.283
 4530SOL    HW215032   0.843   7.303   0.399
 4531SOL     OW15033   0.230   6.214   1.975
 4531SOL    HW115034   0.137   6.212   2.012
 4531SOL    HW215035   0.231   6.175   1.883
 4532SOL     OW15036   0.225   5.861   2.858
 4532SOL    HW115037   0.260   5.844   2.950
 4532SOL    HW215038   0.137   5.816   2.846
 4533SOL     OW15039   0.019   5.954   2.509
 4533SOL    HW115040  -0.063   5.997   2.548
 4533SOL    HW215041  -0.009   5.881   2.446
 4534SOL     OW15042   0.569   6.861   3.027
 4534SOL    HW115043   0.476   6.854   2.990
 4534SOL    HW215044   0.580   6.950   3.071
 4535SOL     OW15045   1.555   7.097   2.565
 4535SOL    HW115046   1.498   7.081   2.646
 4535SOL    HW215047   1.496   7.107   2.485
 4536SOL     OW15048   1.135   6.289   2.579
 4536SOL    HW115049   1.192   6.367   2.554
 4536SOL    HW215050   1.075   6.315   2.655
 4537SOL     OW15051   1.755   6.193   2.093
 4537SOL    HW115052   1.743   6.180   1.994
 4537SOL    HW215053   1.725   6.112   2.142
 4538SOL     OW15054   0.768   6.730   2.885
 4538SOL    HW115055   0.690   6.747   2.945
 4538SOL    HW215056   0.802   6.817   2.849
 4539SOL     OW15057   0.850   6.384   3.685
 4539SOL    HW115058   0.846   6.460   3.750
 4539SOL    HW215059   0.872   6.420   3.594
 4540SOL     OW15060   0.685   6.598   2.527
 4540SOL    HW115061   0.754   6.582   2.597
 4540SOL    HW215062   0.612   6.655   2.565
 4541SOL     OW15063   0.686   6.747   3.665
 4541SOL    HW115064   0.746   6.826   3.679
 4541SOL    HW215065   0.600   6.778   3.624
 4542SOL     OW15066   0.335   7.021   2.923
 4542SOL    HW115067   0.257   6.990   2.870
 4542SOL    HW215068   0.393   7.079   2.866
 4543SOL     OW15069   1.460   7.091   3.201
 4543SOL    HW115070   1.484   7.185   3.227
 4543SOL    HW215071   1.444   7.037   3.283
 4544SOL     OW15072   0.438   5.978   3.361
 4544SOL    HW115073   0.520   5.922   3.370
 4544SOL    HW215074   0.357   5.920   3.365
 4545SOL     OW15075   1.603   6.033   2.599
 4545SOL    HW115076   1.529   6.079   2.549
 4545SOL    HW215077   1.654   6.101   2.652
 4546SOL     OW15078   0.231   7.299   2.345
 4546SOL    HW115079   0.265   7.376   2.399
 4546SOL    HW215080   0.275   7.299   2.255
 4547SOL     OW15081   1.127   6.927   3.552
 4547SOL    HW115082   1.174   6.927   3.640
 4547SOL    HW215083   1.079   6.840   3.541
 4548SOL     OW15084   0.230   7.020   2.400
 4548SOL    HW115085   0.204   7.116   2.400
 4548SOL    HW215086   0.159   6.966   2.445
 4549SOL     OW15087   0.240   6.677   2.748
 4549SOL    HW115088   0.254   6.593   2.800
 4549SOL    HW215089   0.185   6.741   2.803
 4550SOL     OW15090   0.620   7.372   3.301
 4550SOL    HW115091   0.528   7.355   3.336
 4550SOL    HW215092   0.648   7.464   3.327
 4551SOL     OW15093   0.606   6.550   1.985
 4551SOL    HW115094   0.613   6.634   1.931
 4551SOL    HW215095   0.652   6.563   2.073
 4552SOL     OW15096   1.594   5.700   3.342
 4552SOL    HW115097   1.576   5.767   3.270
 4552SOL    HW215098   1.591   5.746   3.431
 4553SOL     OW15099   0.122   6.229   2.425
 4553SOL    HW115100   0.077   6.141   2.442
 4553SOL    HW215101   0.121   6.283   2.509
 4554SOL     OW15102   1.842   7.353   2.221
 4554SOL    HW115103   1.896   7.324   2.301
 4554SOL    HW215104   1.872   7.443   2.192
 4555SOL     OW15105   0.027   7.182   1.979
 4555SOL    HW115106   0.008   7.086   2.000
 4555SOL    HW215107  -0.006   7.240   2.054
 4556SOL     OW15108   1.689   6.508   2.474
 4556SOL    HW115109   1.784   6.479   2.482
 4556SOL    HW215110   1.681   6.573   2.399
 4557SOL     OW15111   1.641   6.694   2.294
 4557SOL    HW115112   1.727   6.696   2.242
 4557SOL    HW215113   1.655   6.741   2.382
 4558SOL     OW15114   0.113   6.323   3.459
 4558SOL    HW115115   0.201   6.310   3.504
 4558SOL    HW215116   0.100   6.420   3.437
 4559SOL     OW15117   0.613   6.951   2.588
 4559SOL    HW115118   0.564   6.864   2.597
 4559SOL    HW215119   0.590   6.994   2.501
 4560SOL     OW15120   1.293   6.814   3.285
 4560SOL    HW115121   1.330   6.741   3.227
 4560SOL    HW215122   1.345   6.819   3.370
 4561SOL     OW15123   0.809   5.590   2.364
 4561SOL    HW115124   0.849   5.681   2.355
 4561SOL    HW215125   0.709   5.598   2.370
 4562SOL     OW15126   0.197   6.562   3.126
 4562SOL    HW115127   0.286   6.517   3.112
 4562SOL    HW215128   0.124   6.497   3.107
 4563SOL     OW15129   1.525   6.585   2.052
 4563SOL    HW115130   1.462   6.509   2.065
 4563SOL    HW215131   1.573   6.603   2.138
 4564SOL     OW15132   1.187   7.378   3.478
 4564SOL    HW115133   1.211   7.438   3.402
 4564SOL    HW215134   1.194   7.283   3.448
 4565SOL     OW15135   0.317   5.837   3.663
 4565SOL    HW115136   0.388   5.908   3.669
 4565SOL    HW215137   0.229   5.876   3.691
 4566SOL     OW15138   1.466   7.003   2.815
 4566SOL    HW115139   1.407   7.009   2.895
 4566SOL    HW215140   1.451   6.915   2.769
 4567SOL     OW15141   1.667   7.300   2.434
 4567SOL    HW115142   1.626   7.277   2.346
 4567SOL    HW215143   1.649   7.226   2.499
 4568SOL     OW15144   0.598   6.315   2.132
 4568SOL    HW115145   0.622   6.384   2.064
 4568SOL    HW215146   0.520   6.348   2.186
 4569SOL     OW15147   1.281   5.931   2.806
 4569SOL    HW115148   1.195   5.881   2.793
 4569SOL    HW215149   1.343   5.877   2.862
 4570SOL     OW15150   1.576   7.248   2.169
 4570SOL    HW115151   1.665   7.294   2.172
 4570SOL    HW215152   1.555   7.224   2.074
 4571SOL     OW15153   0.807   6.191   3.327
 4571SOL    HW115154   0.760   6.188   3.416
 4571SOL    HW215155   0.756   6.136   3.261
 4572SOL     OW15156   1.394   6.055   3.536
 4572SOL    HW115157   1.374   6.098   3.624
 4572SOL    HW215158   1.472   5.993   3.545
 4573SOL     OW15159   0.973   6.476   3.434
 4573SOL    HW115160   1.019   6.392   3.405
 4573SOL    HW215161   0.917   6.510   3.359
 4574SOL     OW15162   0.991   5.996   3.104
 4574SOL    HW115163   0.914   6.030   3.158
 4574SOL    HW215164   0.957   5.945   3.025
 4575SOL     OW15165   1.041   6.287   2.291
 4575SOL    HW115166   1.067   6.283   2.387
 4575SOL    HW215167   0.956   6.236   2.277
 4576SOL     OW15168   0.076   6.397   2.651
 4576SOL    HW115169   0.175   6.385   2.660
 4576SOL    HW215170   0.052   6.492   2.672
 4577SOL     OW15171   0.130   7.407   3.433
 4577SOL    HW115172   0.120   7.392   3.532
 4577SOL    HW215173   0.044   7.443   3.397
 4578SOL     OW15174   0.865   5.934   2.057
 4578SOL    HW115175   0.924   5.997   2.008
 4578SOL    HW215176   0.884   5.840   2.028
 4579SOL     OW15177   1.719   6.171   3.693
 4579SOL    HW115178   1.693   6.260   3.657
 4579SOL    HW215179   1.717   6.103   3.620
 4580SOL     OW15180   1.362   6.730   2.407
 4580SOL    HW115181   1.445   6.701   2.359
 4580SOL    HW215182   1.313   6.797   2.351
 4581SOL     OW15183   0.550   5.782   2.747
 4581SOL    HW115184   0.545   5.777   2.847
 4581SOL    HW215185   0.552   5.878   2.718
 4582SOL     OW15186   1.008   7.042   2.339
 4582SOL    HW115187   0.962   7.114   2.287
 4582SOL    HW215188   1.004   7.062   2.437
 4583SOL     OW15189   0.351   7.387   2.715
 4583SOL    HW115190   0.401   7.301   2.721
 4583SOL    HW215191   0.416   7.464   2.712
 4584SOL     OW15192   1.795   6.652   2.735
 4584SOL    HW115193   1.733   6.637   2.659
 4584SOL    HW215194   1.743   6.663   2.820
 4585SOL     OW15195   1.227   7.136   3.368
 4585SOL    HW115196   1.233   7.059   3.432
 4585SOL    HW215197   1.175   7.110   3.288
 4586SOL     OW15198   0.321   6.529   2.104
 4586SOL    HW115199   0.403   6.568   2.062
 4586SOL    HW215200   0.294   6.447   2.055
 4587SOL     OW15201   1.458   6.321   2.590
 4587SOL    HW115202   1.453   6.256   2.665
 4587SOL    HW215203   1.538   6.380   2.603
 4588SOL     OW15204   0.461   6.852   3.589
 4588SOL    HW115205   0.411   6.853   3.503
 4588SOL    HW215206   0.398   6.834   3.665
 4589SOL     OW15207   1.111   7.362   2.099
 4589SOL    HW115208   1.051   7.300   2.149
 4589SOL    HW215209   1.142   7.318   2.014
 4590SOL     OW15210   0.202   5.871   3.360
 4590SOL    HW115211   0.122   5.931   3.347
 4590SOL    HW215212   0.192   5.822   3.446
 4591SOL     OW15213   1.632   6.963   1.943
 4591SOL    HW115214   1.600   7.057   1.933
 4591SOL    HW215215   1.556   6.900   1.931
 4592SOL     OW15216   0.464   7.329   2.185
 4592SOL    HW115217   0.497   7.368   2.271
 4592SOL    HW215218   0.540   7.322   2.120
 4593SOL     OW15219   1.400   5.693   2.288
 4593SOL    HW115220   1.376   5.656   2.198
 4593SOL    HW215221   1.499   5.709   2.292
 4594SOL     OW15222   0.249   7.371   3.103
 4594SOL    HW115223   0.306   7.306   3.153
 4594SOL    HW215224   0.233   7.338   3.010
 4595SOL     OW15225   0.940   7.284   2.766
 4595SOL    HW115226   1.020   7.227   2.787
 4595SOL    HW215227   0.891   7.244   2.689
 4596SOL     OW15228   0.382   6.286   2.342
 4596SOL    HW115229   0.427   6.196   2.339
 4596SOL    HW215230   0.288   6.275   2.375
 4597SOL     OW15231   1.547   5.808   3.591
 4597SOL    HW115232   1.542   5.845   3.683
 4597SOL    HW215233   1.475   5.739   3.579
 4598SOL     OW15234   0.614   5.708   1.979
 4598SOL    HW115235   0.712   5.686   1.986
 4598SOL    HW215236   0.583   5.691   1.886
 4599SOL     OW15237   0.781   5.850   3.611
 4599SOL    HW115238   0.848   5.789   3.654
 4599SOL    HW215239   0.708   5.869   3.676
 4600SOL     OW15240   0.888   7.100   3.057
 4600SOL    HW115241   0.865   7.075   2.963
 4600SOL    HW215242   0.949   7.031   3.096
 4601SOL     OW15243   1.351   6.176   3.295
 4601SOL    HW115244   1.379   6.133   3.380
 4601SOL    HW215245   1.376   6.272   3.296
 4602SOL     OW15246   0.803   6.988   2.786
 4602SOL    HW115247   0.893   7.002   2.744
 4602SOL    HW215248   0.732   6.990   2.715
 4603SOL     OW15249   0.922   6.089   2.761
 4603SOL    HW115250   0.897   6.080   2.665
 4603SOL    HW215251   0.970   6.007   2.792
 4604SOL     OW15252   0.539   5.650   2.374
 4604SOL    HW115253   0.458   5.651   2.432
 4604SOL    HW215254   0.542   5.733   2.319
 4605SOL     OW15255   1.434   6.774   1.903
 4605SOL    HW115256   1.466   6.698   1.960
 4605SOL    HW215257   1.342   6.801   1.933
 4606SOL     OW15258   0.297   5.621   2.033
 4606SOL    HW115259   0.346   5.705   2.012
 4606SOL    HW215260   0.359   5.556   2.078
 4607SOL     OW15261   0.935   5.822   2.342
 4607SOL    HW115262   0.887   5.863   2.264
 4607SOL    HW215263   1.034   5.820   2.323
 4608SOL     OW15264   1.076   6.269   3.326
 4608SOL    HW115265   0.996   6.208   3.329
 4608SOL    HW215266   1.157   6.216   3.302
 4609SOL     OW15267   1.227   7.156   2.655
 4609SOL    HW115268   1.248   7.230   2.590
 4609SOL    HW215269   1.295   7.156   2.728
 4610SOL     OW15270   0.459   6.738   2.603
 4610SOL    HW115271   0.388   6.711   2.668
 4610SOL    HW215272   0.433   6.710   2.510
 4611SOL     OW15273   1.271   7.383   2.453
 4611SOL    HW115274   1.315   7.447   2.389
 4611SOL    HW215275   1.221   7.435   2.523
 4612SOL     OW15276   1.032   6.135   1.878
 4612SOL    HW115277   0.991   6.217   1.839
 4612SOL    HW215278   1.096   6.161   1.951
 4613SOL     OW15279   0.078   6.142   3.248
 4613SOL    HW115280   0.170   6.141   3.207
 4613SOL    HW215281   0.072   6.216   3.315
 4614SOL     OW15282   0.561   5.808   3.009
 4614SOL    HW115283   0.599   5.724   3.046
 4614SOL    HW215284   0.473   5.827   3.053
 4615SOL     OW15285   0.866   6.040   2.504
 4615SOL    HW115286   0.834   6.112   2.442
 4615SOL    HW215287   0.890   5.959   2.451
 4616SOL     OW15288   1.017   5.625   2.615
 4616SOL    HW115289   0.945   5.630   2.546
 4616SOL    HW215290   0.993   5.556   2.684
 4617SOL     OW15291   1.429   6.759   2.729
 4617SOL    HW115292   1.374   6.675   2.722
 4617SOL    HW215293   1.455   6.788   2.637
 4618SOL     OW15294   1.466   6.176   2.854
 4618SOL    HW115295   1.436   6.081   2.861
 4618SOL    HW215296   1.539   6.192   2.920
 4619SOL     OW15297   1.857   6.419   2.239
 4619SOL    HW115298   1.899   6.355   2.303
 4619SOL    HW215299   1.819   6.368   2.161
 4620SOL     OW15300   0.488   6.971   2.036
 4620SOL    HW115301   0.401   6.956   2.083
 4620SOL    HW215302   0.471   6.997   1.941
 4621SOL     OW15303   1.664   6.866   2.519
 4621SOL    HW115304   1.763   6.874   2.533
 4621SOL    HW215305   1.619   6.950   2.550
 4622SOL     OW15306   1.390   6.161   1.940
 4622SOL    HW115307   1.336   6.140   2.021
 4622SOL    HW215308   1.481   6.120   1.949
 4623SOL     OW15309   0.527   5.842   2.190
 4623SOL    HW115310   0.554   5.783   2.115
 4623SOL    HW215311   0.527   5.937   2.159
 4624SOL     OW15312   1.754   6.809   3.450
 4624SOL    HW115313   1.845   6.770   3.437
 4624SOL    HW215314   1.762   6.905   3.474
 4625SOL     OW15315   1.064   6.933   3.202
 4625SOL    HW115316   0.984   6.910   3.257
 4625SOL    HW215317   1.147   6.907   3.251
 4626SOL     OW15318   1.592   7.215   3.487
 4626SOL    HW115319   1.619   7.249   3.397
 4626SOL    HW215320   1.671   7.177   3.533
 4627SOL     OW15321   1.111   6.781   2.962
 4627SOL    HW115322   1.071   6.825   3.043
 4627SOL    HW215323   1.070   6.818   2.879
 4628SOL     OW15324   1.638   6.685   2.941
 4628SOL    HW115325   1.643   6.766   3.000
 4628SOL    HW215326   1.552   6.687   2.890
 4629SOL     OW15327   0.915   5.675   3.264
 4629SOL    HW115328   0.940   5.655   3.169
 4629SOL    HW215329   0.987   5.731   3.306
 4630SOL     OW15330   0.980   6.702   3.581
 4630SOL    HW115331   0.881   6.708   3.591
 4630SOL    HW215332   1.003   6.622   3.525
 4631SOL     OW15333   0.705   6.636   2.230
 4631SOL    HW115334   0.691   6.643   2.329
 4631SOL    HW215335   0.789   6.585   2.212
 4632SOL     OW15336   0.410   6.399   3.113
 4632SOL    HW115337   0.496   6.411   3.163
 4632SOL    HW215338   0.368   6.312   3.140
 4633SOL     OW15339   1.274   5.972   3.124
 4633SOL    HW115340   1.295   6.046   3.188
 4633SOL    HW215341   1.185   5.989   3.081
 4634SOL     OW15342   0.064   7.150   3.193
 4634SOL    HW115343   0.018   7.232   3.159
 4634SOL    HW215344   0.162   7.169   3.202
 4635SOL     OW15345   0.367   6.686   2.363
 4635SOL    HW115346   0.360   6.769   2.307
 4635SOL    HW215347   0.371   6.606   2.303
 4636SOL     OW15348   0.566   6.123   2.727
 4636SOL    HW115349   0.578   6.189   2.653
 4636SOL    HW215350   0.612   6.157   2.810
 4637SOL     OW15351   1.252   6.934   2.250
 4637SOL    HW115352   1.302   7.011   2.290
 4637SOL    HW215353   1.157   6.936   2.282
 4638SOL     OW15354   1.272   7.031   3.004
 4638SOL    HW115355   1.319   7.044   3.091
 4638SOL    HW215356   1.206   6.957   3.013
 4639SOL     OW15357   1.582   6.225   2.334
 4639SOL    HW115358   1.551   6.286   2.407
 4639SOL    HW215359   1.632   6.277   2.265
 4640SOL     OW15360   0.354   7.096   3.191
 4640SOL    HW115361   0.333   7.052   3.104
 4640SOL    HW215362   0.451   7.122   3.194
 4641SOL     OW15363   0.402   6.337   3.460
 4641SOL    HW115364   0.470   6.392   3.413
 4641SOL    HW215365   0.442   6.249   3.487
 4642SOL     OW15366   1.587   6.365   3.532
 4642SOL    HW115367   1.495   6.403   3.527
 4642SOL    HW215368   1.647   6.412   3.467
 4643SOL     OW15369   1.013   5.691   3.632
 4643SOL    HW115370   1.019   5.776   3.580
 4643SOL    HW215371   1.045   5.615   3.575
 4644SOL     OW15372   0.504   5.636   3.602
 4644SOL    HW115373   0.462   5.579   3.532
 4644SOL    HW215374   0.438   5.705   3.634
 4645SOL     OW15375   0.573   6.456   2.891
 4645SOL    HW115376   0.617   6.545   2.882
 4645SOL    HW215377   0.510   6.456   2.968
 4646SOL     OW15378   1.360   6.448   2.907
 4646SOL    HW115379   1.285   6.448   2.841
 4646SOL    HW215380   1.397   6.356   2.916
 4647SOL     OW15381   1.209   6.111   2.137
 4647SOL    HW115382   1.222   6.027   2.191
 4647SOL    HW215383   1.180   6.185   2.197
 4648SOL     OW15384   0.307   5.799   3.093
 4648SOL    HW115385   0.284   5.836   3.183
 4648SOL    HW215386   0.277   5.704   3.087
 4649SOL     OW15387   0.037   6.896   3.144
 4649SOL    HW115388   0.090   6.847   3.212
 4649SOL    HW215389   0.059   6.994   3.149
 4650SOL     OW15390   0.732   6.220   2.926
 4650SOL    HW115391   0.791   6.194   2.850
 4650SOL    HW215392   0.704   6.316   2.915
 4651SOL     OW15393   1.728   6.521   3.716
 4651SOL    HW115394   1.682   6.514   3.627
 4651SOL    HW215395   1.666   6.565   3.782
 4652SOL     OW15396   0.307   5.649   2.480
 4652SOL    HW115397   0.296   5.743   2.513
 4652SOL    HW215398   0.302   5.586   2.557
 4653SOL     OW15399   1.622   5.953   2.236
 4653SOL    HW115400   1.624   5.877   2.300
 4653SOL    HW215401   1.574   6.030   2.276
 4654SOL     OW15402   1.023   6.352   2.828
 4654SOL    HW115403   1.038   6.373   2.924
 4654SOL    HW215404   0.993   6.257   2.819
 4655SOL     OW15405   0.980   7.159   3.562
 4655SOL    HW115406   0.960   7.203   3.474
 4655SOL    HW215407   1.019   7.068   3.546
 4656SOL     OW15408   1.859   7.104   3.467
 4656SOL    HW115409   1.873   7.131   3.372
 4656SOL    HW215410   1.942   7.126   3.520
 4657SOL     OW15411   0.350   6.484   3.666
 4657SOL    HW115412   0.426   6.528   3.714
 4657SOL    HW215413   0.385   6.437   3.584
 4658SOL     OW15414   1.540   5.860   1.987
 4658SOL    HW115415   1.479   5.785   2.010
 4658SOL    HW215416   1.562   5.912   2.070
 4659SOL     OW15417   1.303   6.424   1.904
 4659SOL    HW115418   1.337   6.331   1.919
 4659SOL    HW215419   1.321   6.451   1.809
 4660SOL     OW15420   1.068   6.919   2.711
 4660SOL    HW115421   1.075   6.835   2.656
 4660SOL    HW215422   1.130   6.988   2.675
 4661SOL     OW15423   0.319   6.396   2.811
 4661SOL    HW115424   0.412   6.432   2.816
 4661SOL    HW215425   0.313   6.311   2.863
 4662SOL     OW15426   0.339   6.095   2.868
 4662SOL    HW115427   0.287   6.012   2.851
 4662SOL    HW215428   0.416   6.100   2.804
 4663SOL     OW15429   1.138   5.966   3.540
 4663SOL    HW115430   1.093   6.029   3.604
 4663SOL    HW215431   1.231   5.997   3.523
 4664SOL     OW15432   1.160   5.793   3.339
 4664SOL    HW115433   1.160   5.857   3.416
 4664SOL    HW215434   1.188   5.841   3.256
 4665SOL     OW15435   0.008   6.912   2.062
 4665SOL    HW115436  -0.085   6.933   2.031
 4665SOL    HW215437   0.018   6.813   2.075
 4666SOL     OW15438   0.088   7.387   2.789
 4666SOL    HW115439   0.046   7.301   2.762
 4666SOL    HW215440   0.182   7.390   2.755
 4667SOL     OW15441   0.504   7.154   2.772
 4667SOL    HW115442   0.570   7.228   2.781
 4667SOL    HW215443   0.548   7.075   2.730
 4668SOL     OW15444   1.002   6.382   3.100
 4668SOL    HW115445   1.043   6.350   3.186
 4668SOL    HW215446   0.906   6.355   3.097
 4669SOL     OW15447   0.040   6.130   2.976
 4669SOL    HW115448   0.125   6.097   2.935
 4669SOL    HW215449   0.053   6.145   3.074
 4670SOL     OW15450   0.189   6.106   3.584
 4670SOL    HW115451   0.248   6.066   3.514
 4670SOL    HW215452   0.131   6.177   3.543
 4671SOL     OW15453   1.369   6.536   3.522
 4671SOL    HW115454   1.408   6.625   3.542
 4671SOL    HW215455   1.379   6.516   3.425
 4672SOL     OW15456   0.815   6.158   2.187
 4672SOL    HW115457   0.822   6.069   2.141
 4672SOL    HW215458   0.721   6.192   2.179
 4673SOL     OW15459   1.657   6.190   3.068
 4673SOL    HW115460   1.619   6.121   3.130
 4673SOL    HW215461   1.739   6.154   3.024
 4674SOL     OW15462   0.252   7.150   3.606
 4674SOL    HW115463   0.222   7.207   3.682
 4674SOL    HW215464   0.245   7.053   3.632
 4675SOL     OW15465   0.671   6.050   3.131
 4675SOL    HW115466   0.637   5.961   3.101
 4675SOL    HW215467   0.697   6.104   3.051
 4676SOL     OW15468   0.930   7.264   3.327
 4676SOL    HW115469   0.906   7.246   3.232
 4676SOL    HW215470   0.960   7.358   3.337
 4677SOL     OW15471   0.473   6.086   2.053
 4677SOL    HW115472   0.534   6.166   2.057
 4677SOL    HW215473   0.378   6.117   2.060
 4678SOL     OW15474   0.159   6.723   3.328
 4678SOL    HW115475   0.181   6.662   3.404
 4678SOL    HW215476   0.169   6.674   3.242
 4679SOL     OW15477   1.347   6.645   3.096
 4679SOL    HW115478   1.371   6.582   3.022
 4679SOL    HW215479   1.257   6.685   3.078
 4680SOL     OW15480   1.302   6.441   2.171
 4680SOL    HW115481   1.216   6.410   2.213
 4680SOL    HW215482   1.298   6.427   2.072
 4681SOL     OW15483   1.759   7.333   3.016
 4681SOL    HW115484   1.820   7.363   2.943
 4681SOL    HW215485   1.721   7.244   2.994
 4682SOL     OW15486   1.252   7.317   2.990
 4682SOL    HW115487   1.336   7.322   2.936
 4682SOL    HW215488   1.229   7.221   3.008
 4683SOL     OW15489   0.083   6.844   2.884
 4683SOL    HW115490   0.078   6.843   2.984
 4683SOL    HW215491   0.000   6.803   2.846
 4684SOL     OW15492   0.688   7.248   3.578
 4684SOL    HW115493   0.632   7.329   3.587
 4684SOL    HW215494   0.740   7.252   3.492
 4685SOL     OW15495   1.726   5.721   2.385
 4685SOL    HW115496   1.799   5.704   2.318
 4685SOL    HW215497   1.695   5.634   2.423
 4686SOL     OW15498   1.388   7.159   2.339
 4686SOL    HW115499   1.455   7.171   2.265
 4686SOL    HW215500   1.348   7.248   2.362
 4687SOL     OW15501   0.130   7.380   3.713
 4687SOL    HW115502   0.089   7.306   3.766
 4687SOL    HW215503   0.194   7.431   3.771
 4688SOL     OW15504   1.280   6.513   2.534
 4688SOL    HW115505   1.340   6.432   2.536
 4688SOL    HW215506   1.320   6.582   2.474
 4689SOL     OW15507   0.830   6.859   3.284
 4689SOL    HW115508   0.825   6.892   3.379
 4689SOL    HW215509   0.744   6.878   3.238
 4690SOL     OW15510   0.672   7.202   2.016
 4690SOL    HW115511   0.681   7.212   1.917
 4690SOL    HW215512   0.632   7.113   2.037
 4691SOL     OW15513   1.650   7.306   3.256
 4691SOL    HW115514   1.703   7.316   3.172
 4691SOL    HW215515   1.623   7.396   3.290
 4692SOL     OW15516   1.841   5.761   2.825
 4692SOL    HW115517   1.880   5.676   2.789
 4692SOL    HW215518   1.743   5.763   2.806
 4693SOL     OW15519   0.263   5.912   2.582
 4693SOL    HW115520   0.184   5.963   2.548
 4693SOL    HW215521   0.254   5.897   2.680
 4694SOL     OW15522   1.194   7.198   1.893
 4694SOL    HW115523   1.200   7.105   1.930
 4694SOL    HW215524   1.135   7.198   1.813
 4695SOL     OW15525   0.822   6.588   3.234
 4695SOL    HW115526   0.862   6.587   3.142
 4695SOL    HW215527   0.832   6.680   3.274
 4696SOL     OW15528   0.916   6.496   2.153
 4696SOL    HW115529   0.979   6.534   2.085
 4696SOL    HW215530   0.956   6.413   2.192
 4697SOL     OW15531   1.504   7.193   1.906
 4697SOL    HW115532   1.412   7.230   1.913
 4697SOL    HW215533   1.542   7.213   1.816
 4698SOL     OW15534   0.372   6.874   3.352
 4698SOL    HW115535   0.359   6.967   3.318
 4698SOL    HW215536   0.288   6.822   3.339
 4699SOL     OW15537   1.614   6.878   3.151
 4699SOL    HW115538   1.674   6.881   3.231
 4699SOL    HW215539   1.539   6.942   3.164
 4700SOL     OW15540   1.039   6.684   2.558
 4700SOL    HW115541   0.969   6.637   2.612
 4700SOL    HW215542   1.098   6.616   2.515
 4701SOL     OW15543   1.014   5.822   2.833
 4701SOL    HW115544   1.006   5.786   2.740
 4701SOL    HW215545   1.012   5.746   2.898
 4702SOL     OW15546   0.590   7.073   2.353
 4702SOL    HW115547   0.632   7.015   2.283
 4702SOL    HW215548   0.546   7.152   2.309
 4703SOL     OW15549   1.709   5.971   3.243
 4703SOL    HW115550   1.782   6.040   3.247
 4703SOL    HW215551   1.737   5.896   3.184
 4704SOL     OW15552   0.255   6.934   2.152
 4704SOL    HW115553   0.159   6.935   2.125
 4704SOL    HW215554   0.267   6.987   2.236
 4705SOL     OW15555   0.105   6.599   3.588
 4705SOL    HW115556   0.028   6.566   3.642
 4705SOL    HW215557   0.190   6.569   3.630
 4706SOL     OW15558   0.672   5.789   3.351
 4706SOL    HW115559   0.762   5.773   3.311
 4706SOL    HW215560   0.680   5.794   3.450
 4707SOL     OW15561   0.075   5.931   1.895
 4707SOL    HW115562  -0.017   5.903   1.866
 4707SOL    HW215563   0.106   6.008   1.839
 4708SOL     OW15564   1.440   6.442   3.260
 4708SOL    HW115565   1.383   6.494   3.197
 4708SOL    HW215566   1.536   6.454   3.236
 4709SOL     OW15567   0.072   5.752   2.180
 4709SOL    HW115568   0.055   5.835   2.126
 4709SOL    HW215569   0.162   5.715   2.158
 4710SOL     OW15570   1.183   6.921   1.981
 4710SOL    HW115571   1.084   6.910   1.983
 4710SOL    HW215572   1.217   6.936   2.074
 4711SOL     OW15573   0.613   6.428   3.293
 4711SOL    HW115574   0.669   6.509   3.276
 4711SOL    HW215575   0.672   6.348   3.296
 4712SOL     OW15576   1.493   7.353   2.821
 4712SOL    HW115577   1.526   7.417   2.752
 4712SOL    HW215578   1.559   7.347   2.896
 4713SOL     OW15579   0.716   6.151   3.570
 4713SOL    HW115580   0.735   6.216   3.644
 4713SOL    HW215581   0.776   6.071   3.579
 4714SOL     OW15582   1.450   6.806   3.495
 4714SOL    HW115583   1.441   6.796   3.594
 4714SOL    HW215584   1.546   6.799   3.469
 4715SOL     OW15585   0.390   7.327   3.422
 4715SOL    HW115586   0.299   7.368   3.420
 4715SOL    HW215587   0.383   7.233   3.454
 4716SOL     OW15588   1.674   6.469   3.116
 4716SOL    HW115589   1.647   6.380   3.079
 4716SOL    HW215590   1.675   6.537   3.043
 4717SOL     OW15591   1.225   5.911   2.311
 4717SOL    HW115592   1.290   5.837   2.300
 4717SOL    HW215593   1.245   5.961   2.395
 4718SOL     OW15594   0.594   6.331   2.514
 4718SOL    HW115595   0.644   6.416   2.495
 4718SOL    HW215596   0.506   6.333   2.466
 4719SOL     OW15597   1.777   5.928   3.504
 4719SOL    HW115598   1.760   5.959   3.410
 4719SOL    HW215599   1.693   5.891   3.542
 4720SOL     OW15600   1.730   6.520   3.379
 4720SOL    HW115601   1.768   6.611   3.394
 4720SOL    HW215602   1.722   6.503   3.280
 4721SOL     OW15603   0.859   6.960   1.878
 4721SOL    HW115604   0.813   6.975   1.966
 4721SOL    HW215605   0.903   7.045   1.848
 4722SOL     OW15606   0.661   7.376   2.815
 4722SOL    HW115607   0.615   7.464   2.802
 4722SOL    HW215608   0.760   7.388   2.808
 4723SOL     OW15609   0.859   6.542   2.723
 4723SOL    HW115610   0.913   6.473   2.771
 4723SOL    HW215611   0.827   6.611   2.789
 4724SOL     OW15612   1.083   6.570   1.949
 4724SOL    HW115613   1.060   6.623   1.867
 4724SOL    HW215614   1.164   6.514   1.930
 4725SOL     OW15615   1.861   7.155   2.713
 4725SOL    HW115616   1.790   7.143   2.643
 4725SOL    HW215617   1.862   7.076   2.773
 4726SOL     OW15618   0.221   6.900   3.706
 4726SOL    HW115619   0.156   6.827   3.685
 4726SOL    HW215620   0.225   6.914   3.804
 4727SOL     OW15621   0.079   6.826   2.515
 4727SOL    HW115622   0.078   6.779   2.603
 4727SOL    HW215623   0.161   6.798   2.464
 4728SOL     OW15624   0.672   6.977   3.486
 4728SOL    HW115625   0.594   6.927   3.524
 4728SOL    HW215626   0.669   7.072   3.517
 4729SOL     OW15627   1.824   5.778   3.089
 4729SOL    HW115628   1.820   5.688   3.133
 4729SOL    HW215629   1.827   5.767   2.990
 4730SOL     OW15630   0.428   6.010   2.382
 4730SOL    HW115631   0.458   5.938   2.320
 4730SOL    HW215632   0.389   5.970   2.465
 4731SOL     OW15633   1.705   7.073   2.966
 4731SOL    HW115634   1.612   7.048   2.939
 4731SOL    HW215635   1.731   7.023   3.048
 4732SOL     OW15636   0.317   6.133   3.142
 4732SOL    HW115637   0.355   6.074   3.214
 4732SOL    HW215638   0.357   6.107   3.054
 4733SOL     OW15639   0.812   7.172   2.549
 4733SOL    HW115640   0.844   7.182   2.455
 4733SOL    HW215641   0.733   7.110   2.551
 4734SOL     OW15642   1.424   5.800   2.974
 4734SOL    HW115643   1.476   5.735   3.029
 4734SOL    HW215644   1.375   5.863   3.035
 4735SOL     OW15645   1.001   5.620   3.016
 4735SOL    HW115646   0.938   5.548   2.985
 4735SOL    HW215647   1.094   5.584   3.016
 4736SOL     OW15648   0.770   6.916   2.163
 4736SOL    HW115649   0.724   6.829   2.180
 4736SOL    HW215650   0.861   6.913   2.204
 4737SOL     OW15651   0.618   7.153   3.146
 4737SOL    HW115652   0.613   7.235   3.203
 4737SOL    HW215653   0.707   7.150   3.101
 4738SOL     OW15654   1.352   5.638   2.030
 4738SOL    HW115655   1.387   5.597   1.946
 4738SOL    HW215656   1.262   5.600   2.050
 4739SOL     OW15657   1.300   6.039   2.553
 4739SOL    HW115658   1.241   6.119   2.557
 4739SOL    HW215659   1.315   6.004   2.646
 4740SOL     OW15660   1.593   5.807   2.744
 4740SOL    HW115661   1.509   5.806   2.798
 4740SOL    HW215662   1.595   5.890   2.688
 4741SOL     OW15663   0.039   6.663   2.162
 4741SOL    HW115664   0.138   6.652   2.153
 4741SOL    HW215665  -0.001   6.577   2.194
 4742SOL     OW15666   0.875   7.232   2.199
 4742SOL    HW115667   0.798   7.197   2.145
 4742SOL    HW215668   0.843   7.303   2.261
 4743SOL     OW15669   0.230   6.214   3.837
 4743SOL    HW115670   0.137   6.212   3.874
 4743SOL    HW215671   0.231   6.175   3.745
 4744SOL     OW15672   0.225   5.861   4.720
 4744SOL    HW115673   0.260   5.844   4.812
 4744SOL    HW215674   0.137   5.816   4.708
 4745SOL     OW15675   0.019   5.954   4.371
 4745SOL    HW115676  -0.063   5.997   4.410
 4745SOL    HW215677  -0.009   5.881   4.308
 4746SOL     OW15678   0.569   6.861   4.889
 4746SOL    HW115679   0.476   6.854   4.852
 4746SOL    HW215680   0.580   6.950   4.933
 4747SOL     OW15681   1.555   7.097   4.427
 4747SOL    HW115682   1.498   7.081   4.508
 4747SOL    HW215683   1.496   7.107   4.347
 4748SOL     OW15684   1.135   6.289   4.441
 4748SOL    HW115685   1.192   6.367   4.416
 4748SOL    HW215686   1.075   6.315   4.517
 4749SOL     OW15687   1.755   6.193   3.955
 4749SOL    HW115688   1.743   6.180   3.856
 4749SOL    HW215689   1.725   6.112   4.004
 4750SOL     OW15690   0.768   6.730   4.747
 4750SOL    HW115691   0.690   6.747   4.807
 4750SOL    HW215692   0.802   6.817   4.711
 4751SOL     OW15693   0.850   6.384   5.547
 4751SOL    HW115694   0.846   6.460   5.612
 4751SOL    HW215695   0.872   6.420   5.456
 4752SOL     OW15696   0.685   6.598   4.389
 4752SOL    HW115697   0.754   6.582   4.459
 4752SOL    HW215698   0.612   6.655   4.427
 4753SOL     OW15699   0.686   6.747   5.527
 4753SOL    HW115700   0.746   6.826   5.541
 4753SOL    HW215701   0.600   6.778   5.486
 4754SOL     OW15702   0.335   7.021   4.785
 4754SOL    HW115703   0.257   6.990   4.732
 4754SOL    HW215704   0.393   7.079   4.728
 4755SOL     OW15705   1.460   7.091   5.063
 4755SOL    HW115706   1.484   7.185   5.089
 4755SOL    HW215707   1.444   7.037   5.145
 4756SOL     OW15708   0.438   5.978   5.223
 4756SOL    HW115709   0.520   5.922   5.232
 4756SOL    HW215710   0.357   5.920   5.227
 4757SOL     OW15711   1.603   6.033   4.461
 4757SOL    HW115712   1.529   6.079   4.411
 4757SOL    HW215713   1.654   6.101   4.514
 4758SOL     OW15714   0.231   7.299   4.207
 4758SOL    HW115715   0.265   7.376   4.261
 4758SOL    HW215716   0.275   7.299   4.117
 4759SOL     OW15717   1.127   6.927   5.414
 4759SOL    HW115718   1.174   6.927   5.502
 4759SOL    HW215719   1.079   6.840   5.403
 4760SOL     OW15720   0.230   7.020   4.262
 4760SOL    HW115721   0.204   7.116   4.262
 4760SOL    HW215722   0.159   6.966   4.307
 4761SOL     OW15723   0.240   6.677   4.610
 4761SOL    HW115724   0.254   6.593   4.662
 4761SOL    HW215725   0.185   6.741   4.665
 4762SOL     OW15726   0.620   7.372   5.163
 4762SOL    HW115727   0.528   7.355   5.198
 4762SOL    HW215728   0.648   7.464   5.189
 4763SOL     OW15729   0.606   6.550   3.847
 4763SOL    HW115730   0.613   6.634   3.793
 4763SOL    HW215731   0.652   6.563   3.935
 4764SOL     OW15732   1.594   5.700   5.204
 4764SOL    HW115733   1.576   5.767   5.132
 4764SOL    HW215734   1.591   5.746   5.293
 4765SOL     OW15735   0.122   6.229   4.287
 4765SOL    HW115736   0.077   6.141   4.304
 4765SOL    HW215737   0.121   6.283   4.371
 4766SOL     OW15738   1.842   7.353   4.083
 4766SOL    HW115739   1.896   7.324   4.163
 4766SOL    HW215740   1.872   7.443   4.054
 4767SOL     OW15741   0.027   7.182   3.841
 4767SOL    HW115742   0.008   7.086   3.862
 4767SOL    HW215743  -0.006   7.240   3.916
 4768SOL     OW15744   1.689   6.508   4.336
 4768SOL    HW115745   1.784   6.479   4.344
 4768SOL    HW215746   1.681   6.573   4.261
 4769SOL     OW15747   1.641   6.694   4.156
 4769SOL    HW115748   1.727   6.696   4.104
 4769SOL    HW215749   1.655   6.741   4.244
 4770SOL     OW15750   0.113   6.323   5.321
 4770SOL    HW115751   0.201   6.310   5.366
 4770SOL    HW215752   0.100   6.420   5.299
 4771SOL     OW15753   0.613   6.951   4.450
 4771SOL    HW115754   0.564   6.864   4.459
 4771SOL    HW215755   0.590   6.994   4.363
 4772SOL     OW15756   1.293   6.814   5.147
 4772SOL    HW115757   1.330   6.741   5.089
 4772SOL    HW215758   1.345   6.819   5.232
 4773SOL     OW15759   0.809   5.590   4.226
 4773SOL    HW115760   0.849   5.681   4.217
 4773SOL    HW215761   0.709   5.598   4.232
 4774SOL     OW15762   0.197   6.562   4.988
 4774SOL    HW115763   0.286   6.517   4.974
 4774SOL    HW215764   0.124   6.497   4.969
 4775SOL     OW15765   1.525   6.585   3.914
 4775SOL    HW115766   1.462   6.509   3.927
 4775SOL    HW215767   1.573   6.603   4.000
 4776SOL     OW15768   1.187   7.378   5.340
 4776SOL    HW115769   1.211   7.438   5.264
 4776SOL    HW215770   1.194   7.283   5.310
 4777SOL     OW15771   0.317   5.837   5.525
 4777SOL    HW115772   0.388   5.908   5.531
 4777SOL    HW215773   0.229   5.876   5.553
 4778SOL     OW15774   1.466   7.003   4.677
 4778SOL    HW115775   1.407   7.009   4.757
 4778SOL    HW215776   1.451   6.915   4.631
 4779SOL     OW15777   1.667   7.300   4.296
 4779SOL    HW115778   1.626   7.277   4.208
 4779SOL    HW215779   1.649   7.226   4.361
 4780SOL     OW15780   0.598   6.315   3.994
 4780SOL    HW115781   0.622   6.384   3.926
 4780SOL    HW215782   0.520   6.348   4.048
 4781SOL     OW15783   1.281   5.931   4.668
 4781SOL    HW115784   1.195   5.881   4.655
 4781SOL    HW215785   1.343   5.877   4.724
 4782SOL     OW15786   1.576   7.248   4.031
 4782SOL    HW115787   1.665   7.294   4.034
 4782SOL    HW215788   1.555   7.224   3.936
 4783SOL     OW15789   0.807   6.191   5.189
 4783SOL    HW115790   0.760   6.188   5.278
 4783SOL    HW215791   0.756   6.136   5.123
 4784SOL     OW15792   1.394   6.055   5.398
 4784SOL    HW115793   1.374   6.098   5.486
 4784SOL    HW215794   1.472   5.993   5.407
 4785SOL     OW15795   0.973   6.476   5.296
 4785SOL    HW115796   1.019   6.392   5.267
 4785SOL    HW215797   0.917   6.510   5.221
 4786SOL     OW15798   0.991   5.996   4.966
 4786SOL    HW115799   0.914   6.030   5.020
 4786SOL    HW215800   0.957   5.945   4.887
 4787SOL     OW15801   1.041   6.287   4.153
 4787SOL    HW115802   1.067   6.283   4.249
 4787SOL    HW215803   0.956   6.236   4.139
 4788SOL     OW15804   0.076   6.397   4.513
 4788SOL    HW115805   0.175   6.385   4.522
 4788SOL    HW215806   0.052   6.492   4.534
 4789SOL     OW15807   0.130   7.407   5.295
 4789SOL    HW115808   0.120   7.392   5.394
 4789SOL    HW215809   0.044   7.443   5.259
 4790SOL     OW15810   0.865   5.934   3.919
 4790SOL    HW115811   0.924   5.997   3.870
 4790SOL    HW215812   0.884   5.840   3.890
 4791SOL     OW15813   1.719   6.171   5.555
 4791SOL    HW115814   1.693   6.260   5.519
 4791SOL    HW215815   1.717   6.103   5.482
 4792SOL     OW15816   1.362   6.730   4.269
 4792SOL    HW115817   1.445   6.701   4.221
 4792SOL    HW215818   1.313   6.797   4.213
 4793SOL     OW15819   0.550   5.782   4.609
 4793SOL    HW115820   0.545   5.777   4.709
 4793SOL    HW215821   0.552   5.878   4.580
 4794SOL     OW15822   1.008   7.042   4.201
 4794SOL    HW115823   0.962   7.114   4.149
 4794SOL    HW215824   1.004   7.062   4.299
 4795SOL     OW15825   0.351   7.387   4.577
 4795SOL    HW115826   0.401   7.301   4.583
 4795SOL    HW215827   0.416   7.464   4.574
 4796SOL     OW15828   1.795   6.652   4.597
 4796SOL    HW115829   1.733   6.637   4.521
 4796SOL    HW215830   1.743   6.663   4.682
 4797SOL     OW15831   1.227   7.136   5.230
 4797SOL    HW115832   1.233   7.059   5.294
 4797SOL    HW215833   1.175   7.110   5.150
 4798SOL     OW15834   0.321   6.529   3.966
 4798SOL    HW115835   0.403   6.568   3.924
 4798SOL    HW215836   0.294   6.447   3.917
 4799SOL     OW15837   1.458   6.321   4.452
 4799SOL    HW115838   1.453   6.256   4.527
 4799SOL    HW215839   1.538   6.380   4.465
 4800SOL     OW15840   0.461   6.852   5.451
 4800SOL    HW115841   0.411   6.853   5.365
 4800SOL    HW215842   0.398   6.834   5.527
 4801SOL     OW15843   1.111   7.362   3.961
 4801SOL    HW115844   1.051   7.300   4.011
 4801SOL    HW215845   1.142   7.318   3.876
 4802SOL     OW15846   0.202   5.871   5.222
 4802SOL    HW115847   0.122   5.931   5.209
 4802SOL    HW215848   0.192   5.822   5.308
 4803SOL     OW15849   1.632   6.963   3.805
 4803SOL    HW115850   1.600   7.057   3.795
 4803SOL    HW215851   1.556   6.900   3.793
 4804SOL     OW15852   0.464   7.329   4.047
 4804SOL    HW115853   0.497   7.368   4.133
 4804SOL    HW215854   0.540   7.322   3.982
 4805SOL     OW15855   1.400   5.693   4.150
 4805SOL    HW115856   1.376   5.656   4.060
 4805SOL    HW215857   1.499   5.709   4.154
 4806SOL     OW15858   0.249   7.371   4.965
 4806SOL    HW115859   0.306   7.306   5.015
 4806SOL    HW215860   0.233   7.338   4.872
 4807SOL     OW15861   0.940   7.284   4.628
 4807SOL    HW115862   1.020   7.227   4.649
 4807SOL    HW215863   0.891   7.244   4.551
 4808SOL     OW15864   0.382   6.286   4.204
 4808SOL    HW115865   0.427   6.196   4.201
 4808SOL    HW215866   0.288   6.275   4.237
 4809SOL     OW15867   1.547   5.808   5.453
 4809SOL    HW115868   1.542   5.845   5.545
 4809SOL    HW215869   1.475   5.739   5.441
 4810SOL     OW15870   0.614   5.708   3.841
 4810SOL    HW115871   0.712   5.686   3.848
 4810SOL    HW215872   0.583   5.691   3.748
 4811SOL     OW15873   0.781   5.850   5.473
 4811SOL    HW115874   0.848   5.789   5.516
 4811SOL    HW215875   0.708   5.869   5.538
 4812SOL     OW15876   0.888   7.100   4.919
 4812SOL    HW115877   0.865   7.075   4.825
 4812SOL    HW215878   0.949   7.031   4.958
 4813SOL     OW15879   1.351   6.176   5.157
 4813SOL    HW115880   1.379   6.133   5.242
 4813SOL    HW215881   1.376   6.272   5.158
 4814SOL     OW15882   0.803   6.988   4.648
 4814SOL    HW115883   0.893   7.002   4.606
 4814SOL    HW215884   0.732   6.990   4.577
 4815SOL     OW15885   0.922   6.089   4.623
 4815SOL    HW115886   0.897   6.080   4.527
 4815SOL    HW215887   0.970   6.007   4.654
 4816SOL     OW15888   0.539   5.650   4.236
 4816SOL    HW115889   0.458   5.651   4.294
 4816SOL    HW215890   0.542   5.733   4.181
 4817SOL     OW15891   1.434   6.774   3.765
 4817SOL    HW115892   1.466   6.698   3.822
 4817SOL    HW215893   1.342   6.801   3.795
 4818SOL     OW15894   0.297   5.621   3.895
 4818SOL    HW115895   0.346   5.705   3.874
 4818SOL    HW215896   0.359   5.556   3.940
 4819SOL     OW15897   0.935   5.822   4.204
 4819SOL    HW115898   0.887   5.863   4.126
 4819SOL    HW215899   1.034   5.820   4.185
 4820SOL     OW15900   1.076   6.269   5.188
 4820SOL    HW115901   0.996   6.208   5.191
 4820SOL    HW215902   1.157   6.216   5.164
 4821SOL     OW15903   1.227   7.156   4.517
 4821SOL    HW115904   1.248   7.230   4.452
 4821SOL    HW215905   1.295   7.156   4.590
 4822SOL     OW15906   0.459   6.738   4.465
 4822SOL    HW115907   0.388   6.711   4.530
 4822SOL    HW215908   0.433   6.710   4.372
 4823SOL     OW15909   1.271   7.383   4.315
 4823SOL    HW115910   1.315   7.447   4.251
 4823SOL    HW215911   1.221   7.435   4.385
 4824SOL     OW15912   1.032   6.135   3.740
 4824SOL    HW115913   0.991   6.217   3.701
 4824SOL    HW215914   1.096   6.161   3.813
 4825SOL     OW15915   0.078   6.142   5.110
 4825SOL    HW115916   0.170   6.141   5.069
 4825SOL    HW215917   0.072   6.216   5.177
 4826SOL     OW15918   0.561   5.808   4.871
 4826SOL    HW115919   0.599   5.724   4.908
 4826SOL    HW215920   0.473   5.827   4.915
 4827SOL     OW15921   0.866   6.040   4.366
 4827SOL    HW115922   0.834   6.112   4.304
 4827SOL    HW215923   0.890   5.959   4.313
 4828SOL     OW15924   1.017   5.625   4.477
 4828SOL    HW115925   0.945   5.630   4.408
 4828SOL    HW215926   0.993   5.556   4.546
 4829SOL     OW15927   1.429   6.759   4.591
 4829SOL    HW115928   1.374   6.675   4.584
 4829SOL    HW215929   1.455   6.788   4.499
 4830SOL     OW15930   1.466   6.176   4.716
 4830SOL    HW115931   1.436   6.081   4.723
 4830SOL    HW215932   1.539   6.192   4.782
 4831SOL     OW15933   1.857   6.419   4.101
 4831SOL    HW115934   1.899   6.355   4.165
 4831SOL    HW215935   1.819   6.368   4.023
 4832SOL     OW15936   0.488   6.971   3.898
 4832SOL    HW115937   0.401   6.956   3.945
 4832SOL    HW215938   0.471   6.997   3.803
 4833SOL     OW15939   1.664   6.866   4.381
 4833SOL    HW115940   1.763   6.874   4.395
 4833SOL    HW215941   1.619   6.950   4.412
 4834SOL     OW15942   1.390   6.161   3.802
 4834SOL    HW115943   1.336   6.140   3.883
 4834SOL    HW215944   1.481   6.120   3.811
 4835SOL     OW15945   0.527   5.842   4.052
 4835SOL    HW115946   0.554   5.783   3.977
 4835SOL    HW215947   0.527   5.937   4.021
 4836SOL     OW15948   1.754   6.809   5.312
 4836SOL    HW115949   1.845   6.770   5.299
 4836SOL    HW215950   1.762   6.905   5.336
 4837SOL     OW15951   1.064   6.933   5.064
 4837SOL    HW115952   0.984   6.910   5.119
 4837SOL    HW215953   1.147   6.907   5.113
 4838SOL     OW15954   1.592   7.215   5.349
 4838SOL    HW115955   1.619   7.249   5.259
 4838SOL    HW215956   1.671   7.177   5.395
 4839SOL     OW15957   1.111   6.781   4.824
 4839SOL    HW115958   1.071   6.825   4.905
 4839SOL    HW215959   1.070   6.818   4.741
 4840SOL     OW15960   1.638   6.685   4.803
 4840SOL    HW115961   1.643   6.766   4.862
 4840SOL    HW215962   1.552   6.687   4.752
 4841SOL     OW15963   0.915   5.675   5.126
 4841SOL    HW115964   0.940   5.655   5.031
 4841SOL    HW215965   0.987   5.731   5.168
 4842SOL     OW15966   0.980   6.702   5.443
 4842SOL    HW115967   0.881   6.708   5.453
 4842SOL    HW215968   1.003   6.622   5.387
 4843SOL     OW15969   0.705   6.636   4.092
 4843SOL    HW115970   0.691   6.643   4.191
 4843SOL    HW215971   0.789   6.585   4.074
 4844SOL     OW15972   0.410   6.399   4.975
 4844SOL    HW115973   0.496   6.411   5.025
 4844SOL    HW215974   0.368   6.312   5.002
 4845SOL     OW15975   1.274   5.972   4.986
 4845SOL    HW115976   1.295   6.046   5.050
 4845SOL    HW215977   1.185   5.989   4.943
 4846SOL     OW15978   0.064   7.150   5.055
 4846SOL    HW115979   0.018   7.232   5.021
 4846SOL    HW215980   0.162   7.169   5.064
 4847SOL     OW15981   0.367   6.686   4.225
 4847SOL    HW115982   0.360   6.769   4.169
 4847SOL    HW215983   0.371   6.606   4.165
 4848SOL     OW15984   0.566   6.123   4.589
 4848SOL    HW115985   0.578   6.189   4.515
 4848SOL    HW215986   0.612   6.157   4.672
 4849SOL     OW15987   1.252   6.934   4.112
 4849SOL    HW115988   1.302   7.011   4.152
 4849SOL    HW215989   1.157   6.936   4.144
 4850SOL     OW15990   1.272   7.031   4.866
 4850SOL    HW115991   1.319   7.044   4.953
 4850SOL    HW215992   1.206   6.957   4.875
 4851SOL     OW15993   1.582   6.225   4.196
 4851SOL    HW115994   1.551   6.286   4.269
 4851SOL    HW215995   1.632   6.277   4.127
 4852SOL     OW15996   0.354   7.096   5.053
 4852SOL    HW115997   0.333   7.052   4.966
 4852SOL    HW215998   0.451   7.122   5.056
 4853SOL     OW15999   0.402   6.337   5.322
 4853SOL    HW116000   0.470   6.392   5.275
 4853SOL    HW216001   0.442   6.249   5.349
 4854SOL     OW16002   1.587   6.365   5.394
 4854SOL    HW116003   1.495   6.403   5.389
 4854SOL    HW216004   1.647   6.412   5.329
 4855SOL     OW16005   1.013   5.691   5.494
 4855SOL    HW116006   1.019   5.776   5.442
 4855SOL    HW216007   1.045   5.615   5.437
 4856SOL     OW16008   0.504   5.636   5.464
 4856SOL    HW116009   0.462   5.579   5.394
 4856SOL    HW216010   0.438   5.705   5.496
 4857SOL     OW16011   0.573   6.456   4.753
 4857SOL    HW116012   0.617   6.545   4.744
 4857SOL    HW216013   0.510   6.456   4.830
 4858SOL     OW16014   1.360   6.448   4.769
 4858SOL    HW116015   1.285   6.448   4.703
 4858SOL    HW216016   1.397   6.356   4.778
 4859SOL     OW16017   1.209   6.111   3.999
 4859SOL    HW116018   1.222   6.027   4.053
 4859SOL    HW216019   1.180   6.185   4.059
 4860SOL     OW16020   0.307   5.799   4.955
 4860SOL    HW116021   0.284   5.836   5.045
 4860SOL    HW216022   0.277   5.704   4.949
 4861SOL     OW16023   0.037   6.896   5.006
 4861SOL    HW116024   0.090   6.847   5.074
 4861SOL    HW216025   0.059   6.994   5.011
 4862SOL     OW16026   0.732   6.220   4.788
 4862SOL    HW116027   0.791   6.194   4.712
 4862SOL    HW216028   0.704   6.316   4.777
 4863SOL     OW16029   1.728   6.521   5.578
 4863SOL    HW116030   1.682   6.514   5.489
 4863SOL    HW216031   1.666   6.565   5.644
 4864SOL     OW16032   0.307   5.649   4.342
 4864SOL    HW116033   0.296   5.743   4.375
 4864SOL    HW216034   0.302   5.586   4.419
 4865SOL     OW16035   1.622   5.953   4.098
 4865SOL    HW116036   1.624   5.877   4.162
 4865SOL    HW216037   1.574   6.030   4.138
 4866SOL     OW16038   1.023   6.352   4.690
 4866SOL    HW116039   1.038   6.373   4.786
 4866SOL    HW216040   0.993   6.257   4.681
 4867SOL     OW16041   0.980   7.159   5.424
 4867SOL    HW116042   0.960   7.203   5.336
 4867SOL    HW216043   1.019   7.068   5.408
 4868SOL     OW16044   1.859   7.104   5.329
 4868SOL    HW116045   1.873   7.131   5.234
 4868SOL    HW216046   1.942   7.126   5.382
 4869SOL     OW16047   0.350   6.484   5.528
 4869SOL    HW116048   0.426   6.528   5.576
 4869SOL    HW216049   0.385   6.437   5.446
 4870SOL     OW16050   1.540   5.860   3.849
 4870SOL    HW116051   1.479   5.785   3.872
 4870SOL    HW216052   1.562   5.912   3.932
 4871SOL     OW16053   1.303   6.424   3.766
 4871SOL    HW116054   1.337   6.331   3.781
 4871SOL    HW216055   1.321   6.451   3.671
 4872SOL     OW16056   1.068   6.919   4.573
 4872SOL    HW116057   1.075   6.835   4.518
 4872SOL    HW216058   1.130   6.988   4.537
 4873SOL     OW16059   0.319   6.396   4.673
 4873SOL    HW116060   0.412   6.432   4.678
 4873SOL    HW216061   0.313   6.311   4.725
 4874SOL     OW16062   0.339   6.095   4.730
 4874SOL    HW116063   0.287   6.012   4.713
 4874SOL    HW216064   0.416   6.100   4.666
 4875SOL     OW16065   1.138   5.966   5.402
 4875SOL    HW116066   1.093   6.029   5.466
 4875SOL    HW216067   1.231   5.997   5.385
 4876SOL     OW16068   1.160   5.793   5.201
 4876SOL    HW116069   1.160   5.857   5.278
 4876SOL    HW216070   1.188   5.841   5.118
 4877SOL     OW16071   0.008   6.912   3.924
 4877SOL    HW116072  -0.085   6.933   3.893
 4877SOL    HW216073   0.018   6.813   3.937
 4878SOL     OW16074   0.088   7.387   4.651
 4878SOL    HW116075   0.046   7.301   4.624
 4878SOL    HW216076   0.182   7.390   4.617
 4879SOL     OW16077   0.504   7.154   4.634
 4879SOL    HW116078   0.570   7.228   4.643
 4879SOL    HW216079   0.548   7.075   4.592
 4880SOL     OW16080   1.002   6.382   4.962
 4880SOL    HW116081   1.043   6.350   5.048
 4880SOL    HW216082   0.906   6.355   4.959
 4881SOL     OW16083   0.040   6.130   4.838
 4881SOL    HW116084   0.125   6.097   4.797
 4881SOL    HW216085   0.053   6.145   4.936
 4882SOL     OW16086   0.189   6.106   5.446
 4882SOL    HW116087   0.248   6.066   5.376
 4882SOL    HW216088   0.131   6.177   5.405
 4883SOL     OW16089   1.369   6.536   5.384
 4883SOL    HW116090   1.408   6.625   5.404
 4883SOL    HW216091   1.379   6.516   5.287
 4884SOL     OW16092   0.815   6.158   4.049
 4884SOL    HW116093   0.822   6.069   4.003
 4884SOL    HW216094   0.721   6.192   4.041
 4885SOL     OW16095   1.657   6.190   4.930
 4885SOL    HW116096   1.619   6.121   4.992
 4885SOL    HW216097   1.739   6.154   4.886
 4886SOL     OW16098   0.252   7.150   5.468
 4886SOL    HW116099   0.222   7.207   5.544
 4886SOL    HW216100   0.245   7.053   5.494
 4887SOL     OW16101   0.671   6.050   4.993
 4887SOL    HW116102   0.637   5.961   4.963
 4887SOL    HW216103   0.697   6.104   4.913
 4888SOL     OW16104   0.930   7.264   5.189
 4888SOL    HW116105   0.906   7.246   5.094
 4888SOL    HW216106   0.960   7.358   5.199
 4889SOL     OW16107   0.473   6.086   3.915
 4889SOL    HW116108   0.534   6.166   3.919
 4889SOL    HW216109   0.378   6.117   3.922
 4890SOL     OW16110   0.159   6.723   5.190
 4890SOL    HW116111   0.181   6.662   5.266
 4890SOL    HW216112   0.169   6.674   5.104
 4891SOL     OW16113   1.347   6.645   4.958
 4891SOL    HW116114   1.371   6.582   4.884
 4891SOL    HW216115   1.257   6.685   4.940
 4892SOL     OW16116   1.302   6.441   4.033
 4892SOL    HW116117   1.216   6.410   4.075
 4892SOL    HW216118   1.298   6.427   3.934
 4893SOL     OW16119   1.759   7.333   4.878
 4893SOL    HW116120   1.820   7.363   4.805
 4893SOL    HW216121   1.721   7.244   4.856
 4894SOL     OW16122   1.252   7.317   4.852
 4894SOL    HW116123   1.336   7.322   4.798
 4894SOL    HW216124   1.229   7.221   4.870
 4895SOL     OW16125   0.083   6.844   4.746
 4895SOL    HW116126   0.078   6.843   4.846
 4895SOL    HW216127   0.000   6.803   4.708
 4896SOL     OW16128   0.688   7.248   5.440
 4896SOL    HW116129   0.632   7.329   5.449
 4896SOL    HW216130   0.740   7.252   5.354
 4897SOL     OW16131   1.726   5.721   4.247
 4897SOL    HW116132   1.799   5.704   4.180
 4897SOL    HW216133   1.695   5.634   4.285
 4898SOL     OW16134   1.388   7.159   4.201
 4898SOL    HW116135   1.455   7.171   4.127
 4898SOL    HW216136   1.348   7.248   4.224
 4899SOL     OW16137   0.130   7.380   5.575
 4899SOL    HW116138   0.089   7.306   5.628
 4899SOL    HW216139   0.194   7.431   5.633
 4900SOL     OW16140   1.280   6.513   4.396
 4900SOL    HW116141   1.340   6.432   4.398
 4900SOL    HW216142   1.320   6.582   4.336
 4901SOL     OW16143   0.830   6.859   5.146
 4901SOL    HW116144   0.825   6.892   5.241
 4901SOL    HW216145   0.744   6.878   5.100
 4902SOL     OW16146   0.672   7.202   3.878
 4902SOL    HW116147   0.681   7.212   3.779
 4902SOL    HW216148   0.632   7.113   3.899
 4903SOL     OW16149   1.650   7.306   5.118
 4903SOL    HW116150   1.703   7.316   5.034
 4903SOL    HW216151   1.623   7.396   5.152
 4904SOL     OW16152   1.841   5.761   4.687
 4904SOL    HW116153   1.880   5.676   4.651
 4904SOL    HW216154   1.743   5.763   4.668
 4905SOL     OW16155   0.263   5.912   4.444
 4905SOL    HW116156   0.184   5.963   4.410
 4905SOL    HW216157   0.254   5.897   4.542
 4906SOL     OW16158   1.194   7.198   3.755
 4906SOL    HW116159   1.200   7.105   3.792
 4906SOL    HW216160   1.135   7.198   3.675
 4907SOL     OW16161   0.822   6.588   5.096
 4907SOL    HW116162   0.862   6.587   5.004
 4907SOL    HW216163   0.832   6.680   5.136
 4908SOL     OW16164   0.916   6.496   4.015
 4908SOL    HW116165   0.979   6.534   3.947
 4908SOL    HW216166   0.956   6.413   4.054
 4909SOL     OW16167   1.504   7.193   3.768
 4909SOL    HW116168   1.412   7.230   3.775
 4909SOL    HW216169   1.542   7.213   3.678
 4910SOL     OW16170   0.372   6.874   5.214
 4910SOL    HW116171   0.359   6.967   5.180
 4910SOL    HW216172   0.288   6.822   5.201
 4911SOL     OW16173   1.614   6.878   5.013
 4911SOL    HW116174   1.674   6.881   5.093
 4911SOL    HW216175   1.539   6.942   5.026
 4912SOL     OW16176   1.039   6.684   4.420
 4912SOL    HW116177   0.969   6.637   4.474
 4912SOL    HW216178   1.098   6.616   4.377
 4913SOL     OW16179   1.014   5.822   4.695
 4913SOL    HW116180   1.006   5.786   4.602
 4913SOL    HW216181   1.012   5.746   4.760
 4914SOL     OW16182   0.590   7.073   4.215
 4914SOL    HW116183   0.632   7.015   4.145
 4914SOL    HW216184   0.546   7.152   4.171
 4915SOL     OW16185   1.709   5.971   5.105
 4915SOL    HW116186   1.782   6.040   5.109
 4915SOL    HW216187   1.737   5.896   5.046
 4916SOL     OW16188   0.255   6.934   4.014
 4916SOL    HW116189   0.159   6.935   3.987
 4916SOL    HW216190   0.267   6.987   4.098
 4917SOL     OW16191   0.105   6.599   5.450
 4917SOL    HW116192   0.028   6.566   5.504
 4917SOL    HW216193   0.190   6.569   5.492
 4918SOL     OW16194   0.672   5.789   5.213
 4918SOL    HW116195   0.762   5.773   5.173
 4918SOL    HW216196   0.680   5.794   5.312
 4919SOL     OW16197   0.075   5.931   3.757
 4919SOL    HW116198  -0.017   5.903   3.728
 4919SOL    HW216199   0.106   6.008   3.701
 4920SOL     OW16200   1.440   6.442   5.122
 4920SOL    HW116201   1.383   6.494   5.059
 4920SOL    HW216202   1.536   6.454   5.098
 4921SOL     OW16203   0.072   5.752   4.042
 4921SOL    HW116204   0.055   5.835   3.988
 4921SOL    HW216205   0.162   5.715   4.020
 4922SOL     OW16206   1.183   6.921   3.843
 4922SOL    HW116207   1.084   6.910   3.845
 4922SOL    HW216208   1.217   6.936   3.936
 4923SOL     OW16209   0.613   6.428   5.155
 4923SOL    HW116210   0.669   6.509   5.138
 4923SOL    HW216211   0.672   6.348   5.158
 4924SOL     OW16212   1.493   7.353   4.683
 4924SOL    HW116213   1.526   7.417   4.614
 4924SOL    HW216214   1.559   7.347   4.758
 4925SOL     OW16215   0.716   6.151   5.432
 4925SOL    HW116216   0.735   6.216   5.506
 4925SOL    HW216217   0.776   6.071   5.441
 4926SOL     OW16218   1.450   6.806   5.357
 4926SOL    HW116219   1.441   6.796   5.456
 4926SOL    HW216220   1.546   6.799   5.331
 4927SOL     OW16221   0.390   7.327   5.284
 4927SOL    HW116222   0.299   7.368   5.282
 4927SOL    HW216223   0.383   7.233   5.316
 4928SOL     OW16224   1.674   6.469   4.978
 4928SOL    HW116225   1.647   6.380   4.941
 4928SOL    HW216226   1.675   6.537   4.905
 4929SOL     OW16227   1.225   5.911   4.173
 4929SOL    HW116228   1.290   5.837   4.162
 4929SOL    HW216229   1.245   5.961   4.257
 4930SOL     OW16230   0.594   6.331   4.376
 4930SOL    HW116231   0.644   6.416   4.357
 4930SOL    HW216232   0.506   6.333   4.328
 4931SOL     OW16233   1.777   5.928   5.366
 4931SOL    HW116234   1.760   5.959   5.272
 4931SOL    HW216235   1.693   5.891   5.404
 4932SOL     OW16236   1.730   6.520   5.241
 4932SOL    HW116237   1.768   6.611   5.256
 4932SOL    HW216238   1.722   6.503   5.142
 4933SOL     OW16239   0.859   6.960   3.740
 4933SOL    HW116240   0.813   6.975   3.828
 4933SOL    HW216241   0.903   7.045   3.710
 4934SOL     OW16242   0.661   7.376   4.677
 4934SOL    HW116243   0.615   7.464   4.664
 4934SOL    HW216244   0.760   7.388   4.670
 4935SOL     OW16245   0.859   6.542   4.585
 4935SOL    HW116246   0.913   6.473   4.633
 4935SOL    HW216247   0.827   6.611   4.651
 4936SOL     OW16248   1.083   6.570   3.811
 4936SOL    HW116249   1.060   6.623   3.729
 4936SOL    HW216250   1.164   6.514   3.792
 4937SOL     OW16251   1.861   7.155   4.575
 4937SOL    HW116252   1.790   7.143   4.505
 4937SOL    HW216253   1.862   7.076   4.635
 4938SOL     OW16254   0.221   6.900   5.568
 4938SOL    HW116255   0.156   6.827   5.547
 4938SOL    HW216256   0.225   6.914   5.666
 4939SOL     OW16257   0.079   6.826   4.377
 4939SOL    HW116258   0.078   6.779   4.465
 4939SOL    HW216259   0.161   6.798   4.326
 4940SOL     OW16260   0.672   6.977   5.348
 4940SOL    HW116261   0.594   6.927   5.386
 4940SOL    HW216262   0.669   7.072   5.379
 4941SOL     OW16263   1.824   5.778   4.951
 4941SOL    HW116264   1.820   5.688   4.995
 4941SOL    HW216265   1.827   5.767   4.852
 4942SOL     OW16266   0.428   6.010   4.244
 4942SOL    HW116267   0.458   5.938   4.182
 4942SOL    HW216268   0.389   5.970   4.327
 4943SOL     OW16269   1.705   7.073   4.828
 4943SOL    HW116270   1.612   7.048   4.801
 4943SOL    HW216271   1.731   7.023   4.910
 4944SOL     OW16272   0.317   6.133   5.004
 4944SOL    HW116273   0.355   6.074   5.076
 4944SOL    HW216274   0.357   6.107   4.916
 4945SOL     OW16275   0.812   7.172   4.411
 4945SOL    HW116276   0.844   7.182   4.317
 4945SOL    HW216277   0.733   7.110   4.413
 4946SOL     OW16278   1.424   5.800   4.836
 4946SOL    HW116279   1.476   5.735   4.891
 4946SOL    HW216280   1.375   5.863   4.897
 4947SOL     OW16281   1.001   5.620   4.878
 4947SOL    HW116282   0.938   5.548   4.847
 4947SOL    HW216283   1.094   5.584   4.878
 4948SOL     OW16284   0.770   6.916   4.025
 4948SOL    HW116285   0.724   6.829   4.042
 4948SOL    HW216286   0.861   6.913   4.066
 4949SOL     OW16287   0.618   7.153   5.008
 4949SOL    HW116288   0.613   7.235   5.065
 4949SOL    HW216289   0.707   7.150   4.963
 4950SOL     OW16290   1.352   5.638   3.892
 4950SOL    HW116291   1.387   5.597   3.808
 4950SOL    HW216292   1.262   5.600   3.912
 4951SOL     OW16293   1.300   6.039   4.415
 4951SOL    HW116294   1.241   6.119   4.419
 4951SOL    HW216295   1.315   6.004   4.508
 4952SOL     OW16296   1.593   5.807   4.606
 4952SOL    HW116297   1.509   5.806   4.660
 4952SOL    HW216298   1.595   5.890   4.550
 4953SOL     OW16299   0.039   6.663   4.024
 4953SOL    HW116300   0.138   6.652   4.015
 4953SOL    HW216301  -0.001   6.577   4.056
 4954SOL     OW16302   0.875   7.232   4.061
 4954SOL    HW116303   0.798   7.197   4.007
 4954SOL    HW216304   0.843   7.303   4.123
 4955SOL     OW16305   0.230   6.214   5.699
 4955SOL    HW116306   0.137   6.212   5.736
 4955SOL    HW216307   0.231   6.175   5.607
 4956SOL     OW16308   0.225   5.861   6.582
 4956SOL    HW116309   0.260   5.844   6.674
 4956SOL    HW216310   0.137   5.816   6.570
 4957SOL     OW16311   0.019   5.954   6.233
 4957SOL    HW116312  -0.063   5.997   6.272
 4957SOL    HW216313  -0.009   5.881   6.170
 4958SOL     OW16314   0.569   6.861   6.751
 4958SOL    HW116315   0.476   6.854   6.714
 4958SOL    HW216316   0.580   6.950   6.795
 4959SOL     OW16317   1.555   7.097   6.289
 4959SOL    HW116318   1.498   7.081   6.370
 4959SOL    HW216319   1.496   7.107   6.209
 4960SOL     OW16320   1.135   6.289   6.303
 4960SOL    HW116321   1.192   6.367   6.278
 4960SOL    HW216322   1.075   6.315   6.379
 4961SOL     OW16323   1.755   6.193   5.817
 4961SOL    HW116324   1.743   6.180   5.718
 4961SOL    HW216325   1.725   6.112   5.866
 4962SOL     OW16326   0.768   6.730   6.609
 4962SOL    HW116327   0.690   6.747   6.669
 4962SOL    HW216328   0.802   6.817   6.573
 4963SOL     OW16329   0.850   6.384   7.409
 4963SOL    HW116330   0.846   6.460   7.474
 4963SOL    HW216331   0.872   6.420   7.318
 4964SOL     OW16332   0.685   6.598   6.251
 4964SOL    HW116333   0.754   6.582   6.321
 4964SOL    HW216334   0.612   6.655   6.289
 4965SOL     OW16335   0.686   6.747   7.389
 4965SOL    HW116336   0.746   6.826   7.403
 4965SOL    HW216337   0.600   6.778   7.348
 4966SOL     OW16338   0.335   7.021   6.647
 4966SOL    HW116339   0.257   6.990   6.594
 4966SOL    HW216340   0.393   7.079   6.590
 4967SOL     OW16341   1.460   7.091   6.925
 4967SOL    HW116342   1.484   7.185   6.951
 4967SOL    HW216343   1.444   7.037   7.007
 4968SOL     OW16344   0.438   5.978   7.085
 4968SOL    HW116345   0.520   5.922   7.094
 4968SOL    HW216346   0.357   5.920   7.089
 4969SOL     OW16347   1.603   6.033   6.323
 4969SOL    HW116348   1.529   6.079   6.273
 4969SOL    HW216349   1.654   6.101   6.376
 4970SOL     OW16350   0.231   7.299   6.069
 4970SOL    HW116351   0.265   7.376   6.123
 4970SOL    HW216352   0.275   7.299   5.979
 4971SOL     OW16353   1.127   6.927   7.276
 4971SOL    HW116354   1.174   6.927   7.364
 4971SOL    HW216355   1.079   6.840   7.265
 4972SOL     OW16356   0.230   7.020   6.124
 4972SOL    HW116357   0.204   7.116   6.124
 4972SOL    HW216358   0.159   6.966   6.169
 4973SOL     OW16359   0.240   6.677   6.472
 4973SOL    HW116360   0.254   6.593   6.524
 4973SOL    HW216361   0.185   6.741   6.527
 4974SOL     OW16362   0.620   7.372   7.025
 4974SOL    HW116363   0.528   7.355   7.060
 4974SOL    HW216364   0.648   7.464   7.051
 4975SOL     OW16365   0.606   6.550   5.709
 4975SOL    HW116366   0.613   6.634   5.655
 4975SOL    HW216367   0.652   6.563   5.797
 4976SOL     OW16368   1.594   5.700   7.066
 4976SOL    HW116369   1.576   5.767   6.994
 4976SOL    HW216370   1.591   5.746   7.155
 4977SOL     OW16371   0.122   6.229   6.149
 4977SOL    HW116372   0.077   6.141   6.166
 4977SOL    HW216373   0.121   6.283   6.233
 4978SOL     OW16374   1.842   7.353   5.945
 4978SOL    HW116375   1.896   7.324   6.025
 4978SOL    HW216376   1.872   7.443   5.916
 4979SOL     OW16377   0.027   7.182   5.703
 4979SOL    HW116378   0.008   7.086   5.724
 4979SOL    HW216379  -0.006   7.240   5.778
 4980SOL     OW16380   1.689   6.508   6.198
 4980SOL    HW116381   1.784   6.479   6.206
 4980SOL    HW216382   1.681   6.573   6.123
 4981SOL     OW16383   1.641   6.694   6.018
 4981SOL    HW116384   1.727   6.696   5.966
 4981SOL    HW216385   1.655   6.741   6.106
 4982SOL     OW16386   0.113   6.323   7.183
 4982SOL    HW116387   0.201   6.310   7.228
 4982SOL    HW216388   0.100   6.420   7.161
 4983SOL     OW16389   0.613   6.951   6.312
 4983SOL    HW116390   0.564   6.864   6.321
 4983SOL    HW216391   0.590   6.994   6.225
 4984SOL     OW16392   1.293   6.814   7.009
 4984SOL    HW116393   1.330   6.741   6.951
 4984SOL    HW216394   1.345   6.819   7.094
 4985SOL     OW16395   0.809   5.590   6.088
 4985SOL    HW116396   0.849   5.681   6.079
 4985SOL    HW216397   0.709   5.598   6.094
 4986SOL     OW16398   0.197   6.562   6.850
 4986SOL    HW116399   0.286   6.517   6.836
 4986SOL    HW216400   0.124   6.497   6.831
 4987SOL     OW16401   1.525   6.585   5.776
 4987SOL    HW116402   1.462   6.509   5.789
 4987SOL    HW216403   1.573   6.603   5.862
 4988SOL     OW16404   1.187   7.378   7.202
 4988SOL    HW116405   1.211   7.438   7.126
 4988SOL    HW216406   1.194   7.283   7.172
 4989SOL     OW16407   0.317   5.837   7.387
 4989SOL    HW116408   0.388   5.908   7.393
 4989SOL    HW216409   0.229   5.876   7.415
 4990SOL     OW16410   1.466   7.003   6.539
 4990SOL    HW116411   1.407   7.009   6.619
 4990SOL    HW216412   1.451   6.915   6.493
 4991SOL     OW16413   1.667   7.300   6.158
 4991SOL    HW116414   1.626   7.277   6.070
 4991SOL    HW216415   1.649   7.226   6.223
 4992SOL     OW16416   0.598   6.315   5.856
 4992SOL    HW116417   0.622   6.384   5.788
 4992SOL    HW216418   0.520   6.348   5.910
 4993SOL     OW16419   1.281   5.931   6.530
 4993SOL    HW116420   1.195   5.881   6.517
 4993SOL    HW216421   1.343   5.877   6.586
 4994SOL     OW16422   1.576   7.248   5.893
 4994SOL    HW116423   1.665   7.294   5.896
 4994SOL    HW216424   1.555   7.224   5.798
 4995SOL     OW16425   0.807   6.191   7.051
 4995SOL    HW116426   0.760   6.188   7.140
 4995SOL    HW216427   0.756   6.136   6.985
 4996SOL     OW16428   1.394   6.055   7.260
 4996SOL    HW116429   1.374   6.098   7.348
 4996SOL    HW216430   1.472   5.993   7.269
 4997SOL     OW16431   0.973   6.476   7.158
 4997SOL    HW116432   1.019   6.392   7.129
 4997SOL    HW216433   0.917   6.510   7.083
 4998SOL     OW16434   0.991   5.996   6.828
 4998SOL    HW116435   0.914   6.030   6.882
 4998SOL    HW216436   0.957   5.945   6.749
 4999SOL     OW16437   1.041   6.287   6.015
 4999SOL    HW116438   1.067   6.283   6.111
 4999SOL    HW216439   0.956   6.236   6.001
 5000SOL     OW16440   0.076   6.397   6.375
 5000SOL    HW116441   0.175   6.385   6.384
 5000SOL    HW216442   0.052   6.492   6.396
 5001SOL     OW16443   0.130   7.407   7.157
 5001SOL    HW116444   0.120   7.392   7.256
 5001SOL    HW216445   0.044   7.443   7.121
 5002SOL     OW16446   0.865   5.934   5.781
 5002SOL    HW116447   0.924   5.997   5.732
 5002SOL    HW216448   0.884   5.840   5.752
 5003SOL     OW16449   1.719   6.171   7.417
 5003SOL    HW116450   1.693   6.260   7.381
 5003SOL    HW216451   1.717   6.103   7.344
 5004SOL     OW16452   1.362   6.730   6.131
 5004SOL    HW116453   1.445   6.701   6.083
 5004SOL    HW216454   1.313   6.797   6.075
 5005SOL     OW16455   0.550   5.782   6.471
 5005SOL    HW116456   0.545   5.777   6.571
 5005SOL    HW216457   0.552   5.878   6.442
 5006SOL     OW16458   1.008   7.042   6.063
 5006SOL    HW116459   0.962   7.114   6.011
 5006SOL    HW216460   1.004   7.062   6.161
 5007SOL     OW16461   0.351   7.387   6.439
 5007SOL    HW116462   0.401   7.301   6.445
 5007SOL    HW216463   0.416   7.464   6.436
 5008SOL     OW16464   1.795   6.652   6.459
 5008SOL    HW116465   1.733   6.637   6.383
 5008SOL    HW216466   1.743   6.663   6.544
 5009SOL     OW16467   1.227   7.136   7.092
 5009SOL    HW116468   1.233   7.059   7.156
 5009SOL    HW216469   1.175   7.110   7.012
 5010SOL     OW16470   0.321   6.529   5.828
 5010SOL    HW116471   0.403   6.568   5.786
 5010SOL    HW216472   0.294   6.447   5.779
 5011SOL     OW16473   1.458   6.321   6.314
 5011SOL    HW116474   1.453   6.256   6.389
 5011SOL    HW216475   1.538   6.380   6.327
 5012SOL     OW16476   0.461   6.852   7.313
 5012SOL    HW116477   0.411   6.853   7.227
 5012SOL    HW216478   0.398   6.834   7.389
 5013SOL     OW16479   1.111   7.362   5.823
 5013SOL    HW116480   1.051   7.300   5.873
 5013SOL    HW216481   1.142   7.318   5.738
 5014SOL     OW16482   0.202   5.871   7.084
 5014SOL    HW116483   0.122   5.931   7.071
 5014SOL    HW216484   0.192   5.822   7.170
 5015SOL     OW16485   1.632   6.963   5.667
 5015SOL    HW116486   1.600   7.057   5.657
 5015SOL    HW216487   1.556   6.900   5.655
 5016SOL     OW16488   0.464   7.329   5.909
 5016SOL    HW116489   0.497   7.368   5.995
 5016SOL    HW216490   0.540   7.322   5.844
 5017SOL     OW16491   1.400   5.693   6.012
 5017SOL    HW116492   1.376   5.656   5.922
 5017SOL    HW216493   1.499   5.709   6.016
 5018SOL     OW16494   0.249   7.371   6.827
 5018SOL    HW116495   0.306   7.306   6.877
 5018SOL    HW216496   0.233   7.338   6.734
 5019SOL     OW16497   0.940   7.284   6.490
 5019SOL    HW116498   1.020   7.227   6.511
 5019SOL    HW216499   0.891   7.244   6.413
 5020SOL     OW16500   0.382   6.286   6.066
 5020SOL    HW116501   0.427   6.196   6.063
 5020SOL    HW216502   0.288   6.275   6.099
 5021SOL     OW16503   1.547   5.808   7.315
 5021SOL    HW116504   1.542   5.845   7.407
 5021SOL    HW216505   1.475   5.739   7.303
 5022SOL     OW16506   0.614   5.708   5.703
 5022SOL    HW116507   0.712   5.686   5.710
 5022SOL    HW216508   0.583   5.691   5.610
 5023SOL     OW16509   0.781   5.850   7.335
 5023SOL    HW116510   0.848   5.789   7.378
 5023SOL    HW216511   0.708   5.869   7.400
 5024SOL     OW16512   0.888   7.100   6.781
 5024SOL    HW116513   0.865   7.075   6.687
 5024SOL    HW216514   0.949   7.031   6.820
 5025SOL     OW16515   1.351   6.176   7.019
 5025SOL    HW116516   1.379   6.133   7.104
 5025SOL    HW216517   1.376   6.272   7.020
 5026SOL     OW16518   0.803   6.988   6.510
 5026SOL    HW116519   0.893   7.002   6.468
 5026SOL    HW216520   0.732   6.990   6.439
 5027SOL     OW16521   0.922   6.089   6.485
 5027SOL    HW116522   0.897   6.080   6.389
 5027SOL    HW216523   0.970   6.007   6.516
 5028SOL     OW16524   0.539   5.650   6.098
 5028SOL    HW116525   0.458   5.651   6.156
 5028SOL    HW216526   0.542   5.733   6.043
 5029SOL     OW16527   1.434   6.774   5.627
 5029SOL    HW116528   1.466   6.698   5.684
 5029SOL    HW216529   1.342   6.801   5.657
 5030SOL     OW16530   0.297   5.621   5.757
 5030SOL    HW116531   0.346   5.705   5.736
 5030SOL    HW216532   0.359   5.556   5.802
 5031SOL     OW16533   0.935   5.822   6.066
 5031SOL    HW116534   0.887   5.863   5.988
 5031SOL    HW216535   1.034   5.820   6.047
 5032SOL     OW16536   1.076   6.269   7.050
 5032SOL    HW116537   0.996   6.208   7.053
 5032SOL    HW216538   1.157   6.216   7.026
 5033SOL     OW16539   1.227   7.156   6.379
 5033SOL    HW116540   1.248   7.230   6.314
 5033SOL    HW216541   1.295   7.156   6.452
 5034SOL     OW16542   0.459   6.738   6.327
 5034SOL    HW116543   0.388   6.711   6.392
 5034SOL    HW216544   0.433   6.710   6.234
 5035SOL     OW16545   1.271   7.383   6.177
 5035SOL    HW116546   1.315   7.447   6.113
 5035SOL    HW216547   1.221   7.435   6.247
 5036SOL     OW16548   1.032   6.135   5.602
 5036SOL    HW116549   0.991   6.217   5.563
 5036SOL    HW216550   1.096   6.161   5.675
 5037SOL     OW16551   0.078   6.142   6.972
 5037SOL    HW116552   0.170   6.141   6.931
 5037SOL    HW216553   0.072   6.216   7.039
 5038SOL     OW16554   0.561   5.808   6.733
 5038SOL    HW116555   0.599   5.724   6.770
 5038SOL    HW216556   0.473   5.827   6.777
 5039SOL     OW16557   0.866   6.040   6.228
 5039SOL    HW116558   0.834   6.112   6.166
 5039SOL    HW216559   0.890   5.959   6.175
 5040SOL     OW16560   1.017   5.625   6.339
 5040SOL    HW116561   0.945   5.630   6.270
 5040SOL    HW216562   0.993   5.556   6.408
 5041SOL     OW16563   1.429   6.759   6.453
 5041SOL    HW116564   1.374   6.675   6.446
 5041SOL    HW216565   1.455   6.788   6.361
 5042SOL     OW16566   1.466   6.176   6.578
 5042SOL    HW116567   1.436   6.081   6.585
 5042SOL    HW216568   1.539   6.192   6.644
 5043SOL     OW16569   1.857   6.419   5.963
 5043SOL    HW116570   1.899   6.355   6.027
 5043SOL    HW216571   1.819   6.368   5.885
 5044SOL     OW16572   0.488   6.971   5.760
 5044SOL    HW116573   0.401   6.956   5.807
 5044SOL    HW216574   0.471   6.997   5.665
 5045SOL     OW16575   1.664   6.866   6.243
 5045SOL    HW116576   1.763   6.874   6.257
 5045SOL    HW216577   1.619   6.950   6.274
 5046SOL     OW16578   1.390   6.161   5.664
 5046SOL    HW116579   1.336   6.140   5.745
 5046SOL    HW216580   1.481   6.120   5.673
 5047SOL     OW16581   0.527   5.842   5.914
 5047SOL    HW116582   0.554   5.783   5.839
 5047SOL    HW216583   0.527   5.937   5.883
 5048SOL     OW16584   1.754   6.809   7.174
 5048SOL    HW116585   1.845   6.770   7.161
 5048SOL    HW216586   1.762   6.905   7.198
 5049SOL     OW16587   1.064   6.933   6.926
 5049SOL    HW116588   0.984   6.910   6.981
 5049SOL    HW216589   1.147   6.907   6.975
 5050SOL     OW16590   1.592   7.215   7.211
 5050SOL    HW116591   1.619   7.249   7.121
 5050SOL    HW216592   1.671   7.177   7.257
 5051SOL     OW16593   1.111   6.781   6.686
 5051SOL    HW116594   1.071   6.825   6.767
 5051SOL    HW216595   1.070   6.818   6.603
 5052SOL     OW16596   1.638   6.685   6.665
 5052SOL    HW116597   1.643   6.766   6.724
 5052SOL    HW216598   1.552   6.687   6.614
 5053SOL     OW16599   0.915   5.675   6.988
 5053SOL    HW116600   0.940   5.655   6.893
 5053SOL    HW216601   0.987   5.731   7.030
 5054SOL     OW16602   0.980   6.702   7.305
 5054SOL    HW116603   0.881   6.708   7.315
 5054SOL    HW216604   1.003   6.622   7.249
 5055SOL     OW16605   0.705   6.636   5.954
 5055SOL    HW116606   0.691   6.643   6.053
 5055SOL    HW216607   0.789   6.585   5.936
 5056SOL     OW16608   0.410   6.399   6.837
 5056SOL    HW116609   0.496   6.411   6.887
 5056SOL    HW216610   0.368   6.312   6.864
 5057SOL     OW16611   1.274   5.972   6.848
 5057SOL    HW116612   1.295   6.046   6.912
 5057SOL    HW216613   1.185   5.989   6.805
 5058SOL     OW16614   0.064   7.150   6.917
 5058SOL    HW116615   0.018   7.232   6.883
 5058SOL    HW216616   0.162   7.169   6.926
 5059SOL     OW16617   0.367   6.686   6.087
 5059SOL    HW116618   0.360   6.769   6.031
 5059SOL    HW216619   0.371   6.606   6.027
 5060SOL     OW16620   0.566   6.123   6.451
 5060SOL    HW116621   0.578   6.189   6.377
 5060SOL    HW216622   0.612   6.157   6.534
 5061SOL     OW16623   1.252   6.934   5.974
 5061SOL    HW116624   1.302   7.011   6.014
 5061SOL    HW216625   1.157   6.936   6.006
 5062SOL     OW16626   1.272   7.031   6.728
 5062SOL    HW116627   1.319   7.044   6.815
 5062SOL    HW216628   1.206   6.957   6.737
 5063SOL     OW16629   1.582   6.225   6.058
 5063SOL    HW116630   1.551   6.286   6.131
 5063SOL    HW216631   1.632   6.277   5.989
 5064SOL     OW16632   0.354   7.096   6.915
 5064SOL    HW116633   0.333   7.052   6.828
 5064SOL    HW216634   0.451   7.122   6.918
 5065SOL     OW16635   0.402   6.337   7.184
 5065SOL    HW116636   0.470   6.392   7.137
 5065SOL    HW216637   0.442   6.249   7.211
 5066SOL     OW16638   1.587   6.365   7.256
 5066SOL    HW116639   1.495   6.403   7.251
 5066SOL    HW216640   1.647   6.412   7.191
 5067SOL     OW16641   1.013   5.691   7.356
 5067SOL    HW116642   1.019   5.776   7.304
 5067SOL    HW216643   1.045   5.615   7.299
 5068SOL     OW16644   0.504   5.636   7.326
 5068SOL    HW116645   0.462   5.579   7.256
 5068SOL    HW216646   0.438   5.705   7.358
 5069SOL     OW16647   0.573   6.456   6.615
 5069SOL    HW116648   0.617   6.545   6.606
 5069SOL    HW216649   0.510   6.456   6.692
 5070SOL     OW16650   1.360   6.448   6.631
 5070SOL    HW116651   1.285   6.448   6.565
 5070SOL    HW216652   1.397   6.356   6.640
 5071SOL     OW16653   1.209   6.111   5.861
 5071SOL    HW116654   1.222   6.027   5.915
 5071SOL    HW216655   1.180   6.185   5.921
 5072SOL     OW16656   0.307   5.799   6.817
 5072SOL    HW116657   0.284   5.836   6.907
 5072SOL    HW216658   0.277   5.704   6.811
 5073SOL     OW16659   0.037   6.896   6.868
 5073SOL    HW116660   0.090   6.847   6.936
 5073SOL    HW216661   0.059   6.994   6.873
 5074SOL     OW16662   0.732   6.220   6.650
 5074SOL    HW116663   0.791   6.194   6.574
 5074SOL    HW216664   0.704   6.316   6.639
 5075SOL     OW16665   1.728   6.521   7.440
 5075SOL    HW116666   1.682   6.514   7.351
 5075SOL    HW216667   1.666   6.565   7.506
 5076SOL     OW16668   0.307   5.649   6.204
 5076SOL    HW116669   0.296   5.743   6.237
 5076SOL    HW216670   0.302   5.586   6.281
 5077SOL     OW16671   1.622   5.953   5.960
 5077SOL    HW116672   1.624   5.877   6.024
 5077SOL    HW216673   1.574   6.030   6.000
 5078SOL     OW16674   1.023   6.352   6.552
 5078SOL    HW116675   1.038   6.373   6.648
 5078SOL    HW216676   0.993   6.257   6.543
 5079SOL     OW16677   0.980   7.159   7.286
 5079SOL    HW116678   0.960   7.203   7.198
 5079SOL    HW216679   1.019   7.068   7.270
 5080SOL     OW16680   1.859   7.104   7.191
 5080SOL    HW116681   1.873   7.131   7.096
 5080SOL    HW216682   1.942   7.126   7.244
 5081SOL     OW16683   0.350   6.484   7.390
 5081SOL    HW116684   0.426   6.528   7.438
 5081SOL    HW216685   0.385   6.437   7.308
 5082SOL     OW16686   1.540   5.860   5.711
 5082SOL    HW116687   1.479   5.785   5.734
 5082SOL    HW216688   1.562   5.912   5.794
 5083SOL     OW16689   1.303   6.424   5.628
 5083SOL    HW116690   1.337   6.331   5.643
 5083SOL    HW216691   1.321   6.451   5.533
 5084SOL     OW16692   1.068   6.919   6.435
 5084SOL    HW116693   1.075   6.835   6.380
 5084SOL    HW216694   1.130   6.988   6.399
 5085SOL     OW16695   0.319   6.396   6.535
 5085SOL    HW116696   0.412   6.432   6.540
 5085SOL    HW216697   0.313   6.311   6.587
 5086SOL     OW16698   0.339   6.095   6.592
 5086SOL    HW116699   0.287   6.012   6.575
 5086SOL    HW216700   0.416   6.100   6.528
 5087SOL     OW16701   1.138   5.966   7.264
 5087SOL    HW116702   1.093   6.029   7.328
 5087SOL    HW216703   1.231   5.997   7.247
 5088SOL     OW16704   1.160   5.793   7.063
 5088SOL    HW116705   1.160   5.857   7.140
 5088SOL    HW216706   1.188   5.841   6.980
 5089SOL     OW16707   0.008   6.912   5.786
 5089SOL    HW116708  -0.085   6.933   5.755
 5089SOL    HW216709   0.018   6.813   5.799
 5090SOL     OW16710   0.088   7.387   6.513
 5090SOL    HW116711   0.046   7.301   6.486
 5090SOL    HW216712   0.182   7.390   6.479
 5091SOL     OW16713   0.504   7.154   6.496
 5091SOL    HW116714   0.570   7.228   6.505
 5091SOL    HW216715   0.548   7.075   6.454
 5092SOL     OW16716   1.002   6.382   6.824
 5092SOL    HW116717   1.043   6.350   6.910
 5092SOL    HW216718   0.906   6.355   6.821
 5093SOL     OW16719   0.040   6.130   6.700
 5093SOL    HW116720   0.125   6.097   6.659
 5093SOL    HW216721   0.053   6.145   6.798
 5094SOL     OW16722   0.189   6.106   7.308
 5094SOL    HW116723   0.248   6.066   7.238
 5094SOL    HW216724   0.131   6.177   7.267
 5095SOL     OW16725   1.369   6.536   7.246
 5095SOL    HW116726   1.408   6.625   7.266
 5095SOL    HW216727   1.379   6.516   7.149
 5096SOL     OW16728   0.815   6.158   5.911
 5096SOL    HW116729   0.822   6.069   5.865
 5096SOL    HW216730   0.721   6.192   5.903
 5097SOL     OW16731   1.657   6.190   6.792
 5097SOL    HW116732   1.619   6.121   6.854
 5097SOL    HW216733   1.739   6.154   6.748
 5098SOL     OW16734   0.252   7.150   7.330
 5098SOL    HW116735   0.222   7.207   7.406
 5098SOL    HW216736   0.245   7.053   7.356
 5099SOL     OW16737   0.671   6.050   6.855
 5099SOL    HW116738   0.637   5.961   6.825
 5099SOL    HW216739   0.697   6.104   6.775
 5100SOL     OW16740   0.930   7.264   7.051
 5100SOL    HW116741   0.906   7.246   6.956
 5100SOL    HW216742   0.960   7.358   7.061
 5101SOL     OW16743   0.473   6.086   5.777
 5101SOL    HW116744   0.534   6.166   5.781
 5101SOL    HW216745   0.378   6.117   5.784
 5102SOL     OW16746   0.159   6.723   7.052
 5102SOL    HW116747   0.181   6.662   7.128
 5102SOL    HW216748   0.169   6.674   6.966
 5103SOL     OW16749   1.347   6.645   6.820
 5103SOL    HW116750   1.371   6.582   6.746
 5103SOL    HW216751   1.257   6.685   6.802
 5104SOL     OW16752   1.302   6.441   5.895
 5104SOL    HW116753   1.216   6.410   5.937
 5104SOL    HW216754   1.298   6.427   5.796
 5105SOL     OW16755   1.759   7.333   6.740
 5105SOL    HW116756   1.820   7.363   6.667
 5105SOL    HW216757   1.721   7.244   6.718
 5106SOL     OW16758   1.252   7.317   6.714
 5106SOL    HW116759   1.336   7.322   6.660
 5106SOL    HW216760   1.229   7.221   6.732
 5107SOL     OW16761   0.083   6.844   6.608
 5107SOL    HW116762   0.078   6.843   6.708
 5107SOL    HW216763   0.000   6.803   6.570
 5108SOL     OW16764   0.688   7.248   7.302
 5108SOL    HW116765   0.632   7.329   7.311
 5108SOL    HW216766   0.740   7.252   7.216
 5109SOL     OW16767   1.726   5.721   6.109
 5109SOL    HW116768   1.799   5.704   6.042
 5109SOL    HW216769   1.695   5.634   6.147
 5110SOL     OW16770   1.388   7.159   6.063
 5110SOL    HW116771   1.455   7.171   5.989
 5110SOL    HW216772   1.348   7.248   6.086
 5111SOL     OW16773   0.130   7.380   7.437
 5111SOL    HW116774   0.089   7.306   7.490
 5111SOL    HW216775   0.194   7.431   7.495
 5112SOL     OW16776   1.280   6.513   6.258
 5112SOL    HW116777   1.340   6.432   6.260
 5112SOL    HW216778   1.320   6.582   6.198
 5113SOL     OW16779   0.830   6.859   7.008
 5113SOL    HW116780   0.825   6.892   7.103
 5113SOL    HW216781   0.744   6.878   6.962
 5114SOL     OW16782   0.672   7.202   5.740
 5114SOL    HW116783   0.681   7.212   5.641
 5114SOL    HW216784   0.632   7.113   5.761
 5115SOL     OW16785   1.650   7.306   6.980
 5115SOL    HW116786   1.703   7.316   6.896
 5115SOL    HW216787   1.623   7.396   7.014
 5116SOL     OW16788   1.841   5.761   6.549
 5116SOL    HW116789   1.880   5.676   6.513
 5116SOL    HW216790   1.743   5.763   6.530
 5117SOL     OW16791   0.263   5.912   6.306
 5117SOL    HW116792   0.184   5.963   6.272
 5117SOL    HW216793   0.254   5.897   6.404
 5118SOL     OW16794   1.194   7.198   5.617
 5118SOL    HW116795   1.200   7.105   5.654
 5118SOL    HW216796   1.135   7.198   5.537
 5119SOL     OW16797   0.822   6.588   6.958
 5119SOL    HW116798   0.862   6.587   6.866
 5119SOL    HW216799   0.832   6.680   6.998
 5120SOL     OW16800   0.916   6.496   5.877
 5120SOL    HW116801   0.979   6.534   5.809
 5120SOL    HW216802   0.956   6.413   5.916
 5121SOL     OW16803   1.504   7.193   5.630
 5121SOL    HW116804   1.412   7.230   5.637
 5121SOL    HW216805   1.542   7.213   5.540
 5122SOL     OW16806   0.372   6.874   7.076
 5122SOL    HW116807   0.359   6.967   7.042
 5122SOL    HW216808   0.288   6.822   7.063
 5123SOL     OW16809   1.614   6.878   6.875
 5123SOL    HW116810   1.674   6.881   6.955
 5123SOL    HW216811   1.539   6.942   6.888
 5124SOL     OW16812   1.039   6.684   6.282
 5124SOL    HW116813   0.969   6.637   6.336
 5124SOL    HW216814   1.098   6.616   6.239
 5125SOL     OW16815   1.014   5.822   6.557
 5125SOL    HW116816   1.006   5.786   6.464
 5125SOL    HW216817   1.012   5.746   6.622
 5126SOL     OW16818   0.590   7.073   6.077
 5126SOL    HW116819   0.632   7.015   6.007
 5126SOL    HW216820   0.546   7.152   6.033
 5127SOL     OW16821   1.709   5.971   6.967
 5127SOL    HW116822   1.782   6.040   6.971
 5127SOL    HW216823   1.737   5.896   6.908
 5128SOL     OW16824   0.255   6.934   5.876
 5128SOL    HW116825   0.159   6.935   5.849
 5128SOL    HW216826   0.267   6.987   5.960
 5129SOL     OW16827   0.105   6.599   7.312
 5129SOL    HW116828   0.028   6.566   7.366
 5129SOL    HW216829   0.190   6.569   7.354
 5130SOL     OW16830   0.672   5.789   7.075
 5130SOL    HW116831   0.762   5.773   7.035
 5130SOL    HW216832   0.680   5.794   7.174
 5131SOL     OW16833   0.075   5.931   5.619
 5131SOL    HW116834  -0.017   5.903   5.590
 5131SOL    HW216835   0.106   6.008   5.563
 5132SOL     OW16836   1.440   6.442   6.984
 5132SOL    HW116837   1.383   6.494   6.921
 5132SOL    HW216838   1.536   6.454   6.960
 5133SOL     OW16839   0.072   5.752   5.904
 5133SOL    HW116840   0.055   5.835   5.850
 5133SOL    HW216841   0.162   5.715   5.882
 5134SOL     OW16842   1.183   6.921   5.705
 5134SOL    HW116843   1.084   6.910   5.707
 5134SOL    HW216844   1.217   6.936   5.798
 5135SOL     OW16845   0.613   6.428   7.017
 5135SOL    HW116846   0.669   6.509   7.000
 5135SOL    HW216847   0.672   6.348   7.020
 5136SOL     OW16848   1.493   7.353   6.545
 5136SOL    HW116849   1.526   7.417   6.476
 5136SOL    HW216850   1.559   7.347   6.620
 5137SOL     OW16851   0.716   6.151   7.294
 5137SOL    HW116852   0.735   6.216   7.368
 5137SOL    HW216853   0.776   6.071   7.303
 5138SOL     OW16854   1.450   6.806   7.219
 5138SOL    HW116855   1.441   6.796   7.318
 5138SOL    HW216856   1.546   6.799   7.193
 5139SOL     OW16857   1.674   6.469   6.840
 5139SOL    HW116858   1.647   6.380   6.803
 5139SOL    HW216859   1.675   6.537   6.767
 5140SOL     OW16860   1.225   5.911   6.035
 5140SOL    HW116861   1.290   5.837   6.024
 5140SOL    HW216862   1.245   5.961   6.119
 5141SOL     OW16863   0.594   6.331   6.238
 5141SOL    HW116864   0.644   6.416   6.219
 5141SOL    HW216865   0.506   6.333   6.190
 5142SOL     OW16866   1.777   5.928   7.228
 5142SOL    HW116867   1.760   5.959   7.134
 5142SOL    HW216868   1.693   5.891   7.266
 5143SOL     OW16869   1.730   6.520   7.103
 5143SOL    HW116870   1.768   6.611   7.118
 5143SOL    HW216871   1.722   6.503   7.004
 5144SOL     OW16872   0.859   6.960   5.602
 5144SOL    HW116873   0.813   6.975   5.690
 5144SOL    HW216874   0.903   7.045   5.572
 5145SOL     OW16875   0.661   7.376   6.539
 5145SOL    HW116876   0.615   7.464   6.526
 5145SOL    HW216877   0.760   7.388   6.532
 5146SOL     OW16878   0.859   6.542   6.447
 5146SOL    HW116879   0.913   6.473   6.495
 5146SOL    HW216880   0.827   6.611   6.513
 5147SOL     OW16881   1.083   6.570   5.673
 5147SOL    HW116882   1.060   6.623   5.591
 5147SOL    HW216883   1.164   6.514   5.654
 5148SOL     OW16884   1.861   7.155   6.437
 5148SOL    HW116885   1.790   7.143   6.367
 5148SOL    HW216886   1.862   7.076   6.497
 5149SOL     OW16887   0.221   6.900   7.430
 5149SOL    HW116888   0.156   6.827   7.409
 5149SOL    HW216889   0.225   6.914   7.528
 5150SOL     OW16890   0.079   6.826   6.239
 5150SOL    HW116891   0.078   6.779   6.327
 5150SOL    HW216892   0.161   6.798   6.188
 5151SOL     OW16893   0.672   6.977   7.210
 5151SOL    HW116894   0.594   6.927   7.248
 5151SOL    HW216895   0.669   7.072   7.241
 5152SOL     OW16896   1.824   5.778   6.813
 5152SOL    HW116897   1.820   5.688   6.857
 5152SOL    HW216898   1.827   5.767   6.714
 5153SOL     OW16899   0.428   6.010   6.106
 5153SOL    HW116900   0.458   5.938   6.044
 5153SOL    HW216901   0.389   5.970   6.189
 5154SOL     OW16902   1.705   7.073   6.690
 5154SOL    HW116903   1.612   7.048   6.663
 5154SOL    HW216904   1.731   7.023   6.772
 5155SOL     OW16905   0.317   6.133   6.866
 5155SOL    HW116906   0.355   6.074   6.938
 5155SOL    HW216907   0.357   6.107   6.778
 5156SOL     OW16908   0.812   7.172   6.273
 5156SOL    HW116909   0.844   7.182   6.179
 5156SOL    HW216910   0.733   7.110   6.275
 5157SOL     OW16911   1.424   5.800   6.698
 5157SOL    HW116912   1.476   5.735   6.753
 5157SOL    HW216913   1.375   5.863   6.759
 5158SOL     OW16914   1.001   5.620   6.740
 5158SOL    HW116915   0.938   5.548   6.709
 5158SOL    HW216916   1.094   5.584   6.740
 5159SOL     OW16917   0.770   6.916   5.887
 5159SOL    HW116918   0.724   6.829   5.904
 5159SOL    HW216919   0.861   6.913   5.928
 5160SOL     OW16920   0.618   7.153   6.870
 5160SOL    HW116921   0.613   7.235   6.927
 5160SOL    HW216922   0.707   7.150   6.825
 5161SOL     OW16923   1.352   5.638   5.754
 5161SOL    HW116924   1.387   5.597   5.670
 5161SOL    HW216925   1.262   5.600   5.774
 5162SOL     OW16926   1.300   6.039   6.277
 5162SOL    HW116927   1.241   6.119   6.281
 5162SOL    HW216928   1.315   6.004   6.370
 5163SOL     OW16929   1.593   5.807   6.468
 5163SOL    HW116930   1.509   5.806   6.522
 5163SOL    HW216931   1.595   5.890   6.412
 5164SOL     OW16932   0.039   6.663   5.886
 5164SOL    HW116933   0.138   6.652   5.877
 5164SOL    HW216934  -0.001   6.577   5.918
 5165SOL     OW16935   0.875   7.232   5.923
 5165SOL    HW116936   0.798   7.197   5.869
 5165SOL    HW216937   0.843   7.303   5.985
 5166SOL     OW16938   0.230   6.214   7.561
 5166SOL    HW116939   0.137   6.212   7.598
 5166SOL    HW216940   0.231   6.175   7.469
 5167SOL     OW16941   0.225   5.861   8.444
 5167SOL    HW116942   0.260   5.844   8.536
 5167SOL    HW216943   0.137   5.816   8.432
 5168SOL     OW16944   0.019   5.954   8.095
 5168SOL    HW116945  -0.063   5.997   8.134
 5168SOL    HW216946  -0.009   5.881   8.032
 5169SOL     OW16947   0.569   6.861   8.613
 5169SOL    HW116948   0.476   6.854   8.576
 5169SOL    HW216949   0.580   6.950   8.657
 5170SOL     OW16950   1.555   7.097   8.151
 5170SOL    HW116951   1.498   7.081   8.232
 5170SOL    HW216952   1.496   7.107   8.071
 5171SOL     OW16953   1.135   6.289   8.165
 5171SOL    HW116954   1.192   6.367   8.140
 5171SOL    HW216955   1.075   6.315   8.241
 5172SOL     OW16956   1.755   6.193   7.679
 5172SOL    HW116957   1.743   6.180   7.580
 5172SOL    HW216958   1.725   6.112   7.728
 5173SOL     OW16959   0.768   6.730   8.471
 5173SOL    HW116960   0.690   6.747   8.531
 5173SOL    HW216961   0.802   6.817   8.435
 5174SOL     OW16962   0.850   6.384   9.271
 5174SOL    HW116963   0.846   6.460   9.336
 5174SOL    HW216964   0.872   6.420   9.180
 5175SOL     OW16965   0.685   6.598   8.113
 5175SOL    HW116966   0.754   6.582   8.183
 5175SOL    HW216967   0.612   6.655   8.151
 5176SOL     OW16968   0.686   6.747   9.251
 5176SOL    HW116969   0.746   6.826   9.265
 5176SOL    HW216970   0.600   6.778   9.210
 5177SOL     OW16971   0.335   7.021   8.509
 5177SOL    HW116972   0.257   6.990   8.456
 5177SOL    HW216973   0.393   7.079   8.452
 5178SOL     OW16974   1.460   7.091   8.787
 5178SOL    HW116975   1.484   7.185   8.813
 5178SOL    HW216976   1.444   7.037   8.869
 5179SOL     OW16977   0.438   5.978   8.947
 5179SOL    HW116978   0.520   5.922   8.956
 5179SOL    HW216979   0.357   5.920   8.951
 5180SOL     OW16980   1.603   6.033   8.185
 5180SOL    HW116981   1.529   6.079   8.135
 5180SOL    HW216982   1.654   6.101   8.238
 5181SOL     OW16983   0.231   7.299   7.931
 5181SOL    HW116984   0.265   7.376   7.985
 5181SOL    HW216985   0.275   7.299   7.841
 5182SOL     OW16986   1.127   6.927   9.138
 5182SOL    HW116987   1.174   6.927   9.226
 5182SOL    HW216988   1.079   6.840   9.127
 5183SOL     OW16989   0.230   7.020   7.986
 5183SOL    HW116990   0.204   7.116   7.986
 5183SOL    HW216991   0.159   6.966   8.031
 5184SOL     OW16992   0.240   6.677   8.334
 5184SOL    HW116993   0.254   6.593   8.386
 5184SOL    HW216994   0.185   6.741   8.389
 5185SOL     OW16995   0.620   7.372   8.887
 5185SOL    HW116996   0.528   7.355   8.922
 5185SOL    HW216997   0.648   7.464   8.913
 5186SOL     OW16998   0.606   6.550   7.571
 5186SOL    HW116999   0.613   6.634   7.517
 5186SOL    HW217000   0.652   6.563   7.659
 5187SOL     OW17001   1.594   5.700   8.928
 5187SOL    HW117002   1.576   5.767   8.856
 5187SOL    HW217003   1.591   5.746   9.017
 5188SOL     OW17004   0.122   6.229   8.011
 5188SOL    HW117005   0.077   6.141   8.028
 5188SOL    HW217006   0.121   6.283   8.095
 5189SOL     OW17007   1.842   7.353   7.807
 5189SOL    HW117008   1.896   7.324   7.887
 5189SOL    HW217009   1.872   7.443   7.778
 5190SOL     OW17010   0.027   7.182   7.565
 5190SOL    HW117011   0.008   7.086   7.586
 5190SOL    HW217012  -0.006   7.240   7.640
 5191SOL     OW17013   1.689   6.508   8.060
 5191SOL    HW117014   1.784   6.479   8.068
 5191SOL    HW217015   1.681   6.573   7.985
 5192SOL     OW17016   1.641   6.694   7.880
 5192SOL    HW117017   1.727   6.696   7.828
 5192SOL    HW217018   1.655   6.741   7.968
 5193SOL     OW17019   0.113   6.323   9.045
 5193SOL    HW117020   0.201   6.310   9.090
 5193SOL    HW217021   0.100   6.420   9.023
 5194SOL     OW17022   0.613   6.951   8.174
 5194SOL    HW117023   0.564   6.864   8.183
 5194SOL    HW217024   0.590   6.994   8.087
 5195SOL     OW17025   1.293   6.814   8.871
 5195SOL    HW117026   1.330   6.741   8.813
 5195SOL    HW217027   1.345   6.819   8.956
 5196SOL     OW17028   0.809   5.590   7.950
 5196SOL    HW117029   0.849   5.681   7.941
 5196SOL    HW217030   0.709   5.598   7.956
 5197SOL     OW17031   0.197   6.562   8.712
 5197SOL    HW117032   0.286   6.517   8.698
 5197SOL    HW217033   0.124   6.497   8.693
 5198SOL     OW17034   1.525   6.585   7.638
 5198SOL    HW117035   1.462   6.509   7.651
 5198SOL    HW217036   1.573   6.603   7.724
 5199SOL     OW17037   1.187   7.378   9.064
 5199SOL    HW117038   1.211   7.438   8.988
 5199SOL    HW217039   1.194   7.283   9.034
 5200SOL     OW17040   0.317   5.837   9.249
 5200SOL    HW117041   0.388   5.908   9.255
 5200SOL    HW217042   0.229   5.876   9.277
 5201SOL     OW17043   1.466   7.003   8.401
 5201SOL    HW117044   1.407   7.009   8.481
 5201SOL    HW217045   1.451   6.915   8.355
 5202SOL     OW17046   1.667   7.300   8.020
 5202SOL    HW117047   1.626   7.277   7.932
 5202SOL    HW217048   1.649   7.226   8.085
 5203SOL     OW17049   0.598   6.315   7.718
 5203SOL    HW117050   0.622   6.384   7.650
 5203SOL    HW217051   0.520   6.348   7.772
 5204SOL     OW17052   1.281   5.931   8.392
 5204SOL    HW117053   1.195   5.881   8.379
 5204SOL    HW217054   1.343   5.877   8.448
 5205SOL     OW17055   1.576   7.248   7.755
 5205SOL    HW117056   1.665   7.294   7.758
 5205SOL    HW217057   1.555   7.224   7.660
 5206SOL     OW17058   0.807   6.191   8.913
 5206SOL    HW117059   0.760   6.188   9.002
 5206SOL    HW217060   0.756   6.136   8.847
 5207SOL     OW17061   1.394   6.055   9.122
 5207SOL    HW117062   1.374   6.098   9.210
 5207SOL    HW217063   1.472   5.993   9.131
 5208SOL     OW17064   0.973   6.476   9.020
 5208SOL    HW117065   1.019   6.392   8.991
 5208SOL    HW217066   0.917   6.510   8.945
 5209SOL     OW17067   0.991   5.996   8.690
 5209SOL    HW117068   0.914   6.030   8.744
 5209SOL    HW217069   0.957   5.945   8.611
 5210SOL     OW17070   1.041   6.287   7.877
 5210SOL    HW117071   1.067   6.283   7.973
 5210SOL    HW217072   0.956   6.236   7.863
 5211SOL     OW17073   0.076   6.397   8.237
 5211SOL    HW117074   0.175   6.385   8.246
 5211SOL    HW217075   0.052   6.492   8.258
 5212SOL     OW17076   0.130   7.407   9.019
 5212SOL    HW117077   0.120   7.392   9.118
 5212SOL    HW217078   0.044   7.443   8.983
 5213SOL     OW17079   0.865   5.934   7.643
 5213SOL    HW117080   0.924   5.997   7.594
 5213SOL    HW217081   0.884   5.840   7.614
 5214SOL     OW17082   1.719   6.171   9.279
 5214SOL    HW117083   1.693   6.260   9.243
 5214SOL    HW217084   1.717   6.103   9.206
 5215SOL     OW17085   1.362   6.730   7.993
 5215SOL    HW117086   1.445   6.701   7.945
 5215SOL    HW217087   1.313   6.797   7.937
 5216SOL     OW17088   0.550   5.782   8.333
 5216SOL    HW117089   0.545   5.777   8.433
 5216SOL    HW217090   0.552   5.878   8.304
 5217SOL     OW17091   1.008   7.042   7.925
 5217SOL    HW117092   0.962   7.114   7.873
 5217SOL    HW217093   1.004   7.062   8.023
 5218SOL     OW17094   0.351   7.387   8.301
 5218SOL    HW117095   0.401   7.301   8.307
 5218SOL    HW217096   0.416   7.464   8.298
 5219SOL     OW17097   1.795   6.652   8.321
 5219SOL    HW117098   1.733   6.637   8.245
 5219SOL    HW217099   1.743   6.663   8.406
 5220SOL     OW17100   1.227   7.136   8.954
 5220SOL    HW117101   1.233   7.059   9.018
 5220SOL    HW217102   1.175   7.110   8.874
 5221SOL     OW17103   0.321   6.529   7.690
 5221SOL    HW117104   0.403   6.568   7.648
 5221SOL    HW217105   0.294   6.447   7.641
 5222SOL     OW17106   1.458   6.321   8.176
 5222SOL    HW117107   1.453   6.256   8.251
 5222SOL    HW217108   1.538   6.380   8.189
 5223SOL     OW17109   0.461   6.852   9.175
 5223SOL    HW117110   0.411   6.853   9.089
 5223SOL    HW217111   0.398   6.834   9.251
 5224SOL     OW17112   1.111   7.362   7.685
 5224SOL    HW117113   1.051   7.300   7.735
 5224SOL    HW217114   1.142   7.318   7.600
 5225SOL     OW17115   0.202   5.871   8.946
 5225SOL    HW117116   0.122   5.931   8.933
 5225SOL    HW217117   0.192   5.822   9.032
 5226SOL     OW17118   1.632   6.963   7.529
 5226SOL    HW117119   1.600   7.057   7.519
 5226SOL    HW217120   1.556   6.900   7.517
 5227SOL     OW17121   0.464   7.329   7.771
 5227SOL    HW117122   0.497   7.368   7.857
 5227SOL    HW217123   0.540   7.322   7.706
 5228SOL     OW17124   1.400   5.693   7.874
 5228SOL    HW117125   1.376   5.656   7.784
 5228SOL    HW217126   1.499   5.709   7.878
 5229SOL     OW17127   0.249   7.371   8.689
 5229SOL    HW117128   0.306   7.306   8.739
 5229SOL    HW217129   0.233   7.338   8.596
 5230SOL     OW17130   0.940   7.284   8.352
 5230SOL    HW117131   1.020   7.227   8.373
 5230SOL    HW217132   0.891   7.244   8.275
 5231SOL     OW17133   0.382   6.286   7.928
 5231SOL    HW117134   0.427   6.196   7.925
 5231SOL    HW217135   0.288   6.275   7.961
 5232SOL     OW17136   1.547   5.808   9.177
 5232SOL    HW117137   1.542   5.845   9.269
 5232SOL    HW217138   1.475   5.739   9.165
 5233SOL     OW17139   0.614   5.708   7.565
 5233SOL    HW117140   0.712   5.686   7.572
 5233SOL    HW217141   0.583   5.691   7.472
 5234SOL     OW17142   0.781   5.850   9.197
 5234SOL    HW117143   0.848   5.789   9.240
 5234SOL    HW217144   0.708   5.869   9.262
 5235SOL     OW17145   0.888   7.100   8.643
 5235SOL    HW117146   0.865   7.075   8.549
 5235SOL    HW217147   0.949   7.031   8.682
 5236SOL     OW17148   1.351   6.176   8.881
 5236SOL    HW117149   1.379   6.133   8.966
 5236SOL    HW217150   1.376   6.272   8.882
 5237SOL     OW17151   0.803   6.988   8.372
 5237SOL    HW117152   0.893   7.002   8.330
 5237SOL    HW217153   0.732   6.990   8.301
 5238SOL     OW17154   0.922   6.089   8.347
 5238SOL    HW117155   0.897   6.080   8.251
 5238SOL    HW217156   0.970   6.007   8.378
 5239SOL     OW17157   0.539   5.650   7.960
 5239SOL    HW117158   0.458   5.651   8.018
 5239SOL    HW217159   0.542   5.733   7.905
 5240SOL     OW17160   1.434   6.774   7.489
 5240SOL    HW117161   1.466   6.698   7.546
 5240SOL    HW217162   1.342   6.801   7.519
 5241SOL     OW17163   0.297   5.621   7.619
 5241SOL    HW117164   0.346   5.705   7.598
 5241SOL    HW217165   0.359   5.556   7.664
 5242SOL     OW17166   0.935   5.822   7.928
 5242SOL    HW117167   0.887   5.863   7.850
 5242SOL    HW217168   1.034   5.820   7.909
 5243SOL     OW17169   1.076   6.269   8.912
 5243SOL    HW117170   0.996   6.208   8.915
 5243SOL    HW217171   1.157   6.216   8.888
 5244SOL     OW17172   1.227   7.156   8.241
 5244SOL    HW117173   1.248   7.230   8.176
 5244SOL    HW217174   1.295   7.156   8.314
 5245SOL     OW17175   0.459   6.738   8.189
 5245SOL    HW117176   0.388   6.711   8.254
 5245SOL    HW217177   0.433   6.710   8.096
 5246SOL     OW17178   1.271   7.383   8.039
 5246SOL    HW117179   1.315   7.447   7.975
 5246SOL    HW217180   1.221   7.435   8.109
 5247SOL     OW17181   1.032   6.135   7.464
 5247SOL    HW117182   0.991   6.217   7.425
 5247SOL    HW217183   1.096   6.161   7.537
 5248SOL     OW17184   0.078   6.142   8.834
 5248SOL    HW117185   0.170   6.141   8.793
 5248SOL    HW217186   0.072   6.216   8.901
 5249SOL     OW17187   0.561   5.808   8.595
 5249SOL    HW117188   0.599   5.724   8.632
 5249SOL    HW217189   0.473   5.827   8.639
 5250SOL     OW17190   0.866   6.040   8.090
 5250SOL    HW117191   0.834   6.112   8.028
 5250SOL    HW217192   0.890   5.959   8.037
 5251SOL     OW17193   1.017   5.625   8.201
 5251SOL    HW117194   0.945   5.630   8.132
 5251SOL    HW217195   0.993   5.556   8.270
 5252SOL     OW17196   1.429   6.759   8.315
 5252SOL    HW117197   1.374   6.675   8.308
 5252SOL    HW217198   1.455   6.788   8.223
 5253SOL     OW17199   1.466   6.176   8.440
 5253SOL    HW117200   1.436   6.081   8.447
 5253SOL    HW217201   1.539   6.192   8.506
 5254SOL     OW17202   1.857   6.419   7.825
 5254SOL    HW117203   1.899   6.355   7.889
 5254SOL    HW217204   1.819   6.368   7.747
 5255SOL     OW17205   0.488   6.971   7.622
 5255SOL    HW117206   0.401   6.956   7.669
 5255SOL    HW217207   0.471   6.997   7.527
 5256SOL     OW17208   1.664   6.866   8.105
 5256SOL    HW117209   1.763   6.874   8.119
 5256SOL    HW217210   1.619   6.950   8.136
 5257SOL     OW17211   1.390   6.161   7.526
 5257SOL    HW117212   1.336   6.140   7.607
 5257SOL    HW217213   1.481   6.120   7.535
 5258SOL     OW17214   0.527   5.842   7.776
 5258SOL    HW117215   0.554   5.783   7.701
 5258SOL    HW217216   0.527   5.937   7.745
 5259SOL     OW17217   1.754   6.809   9.036
 5259SOL    HW117218   1.845   6.770   9.023
 5259SOL    HW217219   1.762   6.905   9.060
 5260SOL     OW17220   1.064   6.933   8.788
 5260SOL    HW117221   0.984   6.910   8.843
 5260SOL    HW217222   1.147   6.907   8.837
 5261SOL     OW17223   1.592   7.215   9.073
 5261SOL    HW117224   1.619   7.249   8.983
 5261SOL    HW217225   1.671   7.177   9.119
 5262SOL     OW17226   1.111   6.781   8.548
 5262SOL    HW117227   1.071   6.825   8.629
 5262SOL    HW217228   1.070   6.818   8.465
 5263SOL     OW17229   1.638   6.685   8.527
 5263SOL    HW117230   1.643   6.766   8.586
 5263SOL    HW217231   1.552   6.687   8.476
 5264SOL     OW17232   0.915   5.675   8.850
 5264SOL    HW117233   0.940   5.655   8.755
 5264SOL    HW217234   0.987   5.731   8.892
 5265SOL     OW17235   0.980   6.702   9.167
 5265SOL    HW117236   0.881   6.708   9.177
 5265SOL    HW217237   1.003   6.622   9.111
 5266SOL     OW17238   0.705   6.636   7.816
 5266SOL    HW117239   0.691   6.643   7.915
 5266SOL    HW217240   0.789   6.585   7.798
 5267SOL     OW17241   0.410   6.399   8.699
 5267SOL    HW117242   0.496   6.411   8.749
 5267SOL    HW217243   0.368   6.312   8.726
 5268SOL     OW17244   1.274   5.972   8.710
 5268SOL    HW117245   1.295   6.046   8.774
 5268SOL    HW217246   1.185   5.989   8.667
 5269SOL     OW17247   0.064   7.150   8.779
 5269SOL    HW117248   0.018   7.232   8.745
 5269SOL    HW217249   0.162   7.169   8.788
 5270SOL     OW17250   0.367   6.686   7.949
 5270SOL    HW117251   0.360   6.769   7.893
 5270SOL    HW217252   0.371   6.606   7.889
 5271SOL     OW17253   0.566   6.123   8.313
 5271SOL    HW117254   0.578   6.189   8.239
 5271SOL    HW217255   0.612   6.157   8.396
 5272SOL     OW17256   1.252   6.934   7.836
 5272SOL    HW117257   1.302   7.011   7.876
 5272SOL    HW217258   1.157   6.936   7.868
 5273SOL     OW17259   1.272   7.031   8.590
 5273SOL    HW117260   1.319   7.044   8.677
 5273SOL    HW217261   1.206   6.957   8.599
 5274SOL     OW17262   1.582   6.225   7.920
 5274SOL    HW117263   1.551   6.286   7.993
 5274SOL    HW217264   1.632   6.277   7.851
 5275SOL     OW17265   0.354   7.096   8.777
 5275SOL    HW117266   0.333   7.052   8.690
 5275SOL    HW217267   0.451   7.122   8.780
 5276SOL     OW17268   0.402   6.337   9.046
 5276SOL    HW117269   0.470   6.392   8.999
 5276SOL    HW217270   0.442   6.249   9.073
 5277SOL     OW17271   1.587   6.365   9.118
 5277SOL    HW117272   1.495   6.403   9.113
 5277SOL    HW217273   1.647   6.412   9.053
 5278SOL     OW17274   1.013   5.691   9.218
 5278SOL    HW117275   1.019   5.776   9.166
 5278SOL    HW217276   1.045   5.615   9.161
 5279SOL     OW17277   0.504   5.636   9.188
 5279SOL    HW117278   0.462   5.579   9.118
 5279SOL    HW217279   0.438   5.705   9.220
 5280SOL     OW17280   0.573   6.456   8.477
 5280SOL    HW117281   0.617   6.545   8.468
 5280SOL    HW217282   0.510   6.456   8.554
 5281SOL     OW17283   1.360   6.448   8.493
 5281SOL    HW117284   1.285   6.448   8.427
 5281SOL    HW217285   1.397   6.356   8.502
 5282SOL     OW17286   1.209   6.111   7.723
 5282SOL    HW117287   1.222   6.027   7.777
 5282SOL    HW217288   1.180   6.185   7.783
 5283SOL     OW17289   0.307   5.799   8.679
 5283SOL    HW117290   0.284   5.836   8.769
 5283SOL    HW217291   0.277   5.704   8.673
 5284SOL     OW17292   0.037   6.896   8.730
 5284SOL    HW117293   0.090   6.847   8.798
 5284SOL    HW217294   0.059   6.994   8.735
 5285SOL     OW17295   0.732   6.220   8.512
 5285SOL    HW117296   0.791   6.194   8.436
 5285SOL    HW217297   0.704   6.316   8.501
 5286SOL     OW17298   1.728   6.521   9.302
 5286SOL    HW117299   1.682   6.514   9.213
 5286SOL    HW217300   1.666   6.565   9.368
 5287SOL     OW17301   0.307   5.649   8.066
 5287SOL    HW117302   0.296   5.743   8.099
 5287SOL    HW217303   0.302   5.586   8.143
 5288SOL     OW17304   1.622   5.953   7.822
 5288SOL    HW117305   1.624   5.877   7.886
 5288SOL    HW217306   1.574   6.030   7.862
 5289SOL     OW17307   1.023   6.352   8.414
 5289SOL    HW117308   1.038   6.373   8.510
 5289SOL    HW217309   0.993   6.257   8.405
 5290SOL     OW17310   0.980   7.159   9.148
 5290SOL    HW117311   0.960   7.203   9.060
 5290SOL    HW217312   1.019   7.068   9.132
 5291SOL     OW17313   1.859   7.104   9.053
 5291SOL    HW117314   1.873   7.131   8.958
 5291SOL    HW217315   1.942   7.126   9.106
 5292SOL     OW17316   0.350   6.484   9.252
 5292SOL    HW117317   0.426   6.528   9.300
 5292SOL    HW217318   0.385   6.437   9.170
 5293SOL     OW17319   1.540   5.860   7.573
 5293SOL    HW117320   1.479   5.785   7.596
 5293SOL    HW217321   1.562   5.912   7.656
 5294SOL     OW17322   1.303   6.424   7.490
 5294SOL    HW117323   1.337   6.331   7.505
 5294SOL    HW217324   1.321   6.451   7.395
 5295SOL     OW17325   1.068   6.919   8.297
 5295SOL    HW117326   1.075   6.835   8.242
 5295SOL    HW217327   1.130   6.988   8.261
 5296SOL     OW17328   0.319   6.396   8.397
 5296SOL    HW117329   0.412   6.432   8.402
 5296SOL    HW217330   0.313   6.311   8.449
 5297SOL     OW17331   0.339   6.095   8.454
 5297SOL    HW117332   0.287   6.012   8.437
 5297SOL    HW217333   0.416   6.100   8.390
 5298SOL     OW17334   1.138   5.966   9.126
 5298SOL    HW117335   1.093   6.029   9.190
 5298SOL    HW217336   1.231   5.997   9.109
 5299SOL     OW17337   1.160   5.793   8.925
 5299SOL    HW117338   1.160   5.857   9.002
 5299SOL    HW217339   1.188   5.841   8.842
 5300SOL     OW17340   0.008   6.912   7.648
 5300SOL    HW117341  -0.085   6.933   7.617
 5300SOL    HW217342   0.018   6.813   7.661
 5301SOL     OW17343   0.088   7.387   8.375
 5301SOL    HW117344   0.046   7.301   8.348
 5301SOL    HW217345   0.182   7.390   8.341
 5302SOL     OW17346   0.504   7.154   8.358
 5302SOL    HW117347   0.570   7.228   8.367
 5302SOL    HW217348   0.548   7.075   8.316
 5303SOL     OW17349   1.002   6.382   8.686
 5303SOL    HW117350   1.043   6.350   8.772
 5303SOL    HW217351   0.906   6.355   8.683
 5304SOL     OW17352   0.040   6.130   8.562
 5304SOL    HW117353   0.125   6.097   8.521
 5304SOL    HW217354   0.053   6.145   8.660
 5305SOL     OW17355   0.189   6.106   9.170
 5305SOL    HW117356   0.248   6.066   9.100
 5305SOL    HW217357   0.131   6.177   9.129
 5306SOL     OW17358   1.369   6.536   9.108
 5306SOL    HW117359   1.408   6.625   9.128
 5306SOL    HW217360   1.379   6.516   9.011
 5307SOL     OW17361   0.815   6.158   7.773
 5307SOL    HW117362   0.822   6.069   7.727
 5307SOL    HW217363   0.721   6.192   7.765
 5308SOL     OW17364   1.657   6.190   8.654
 5308SOL    HW117365   1.619   6.121   8.716
 5308SOL    HW217366   1.739   6.154   8.610
 5309SOL     OW17367   0.252   7.150   9.192
 5309SOL    HW117368   0.222   7.207   9.268
 5309SOL    HW217369   0.245   7.053   9.218
 5310SOL     OW17370   0.671   6.050   8.717
 5310SOL    HW117371   0.637   5.961   8.687
 5310SOL    HW217372   0.697   6.104   8.637
 5311SOL     OW17373   0.930   7.264   8.913
 5311SOL    HW117374   0.906   7.246   8.818
 5311SOL    HW217375   0.960   7.358   8.923
 5312SOL     OW17376   0.473   6.086   7.639
 5312SOL    HW117377   0.534   6.166   7.643
 5312SOL    HW217378   0.378   6.117   7.646
 5313SOL     OW17379   0.159   6.723   8.914
 5313SOL    HW117380   0.181   6.662   8.990
 5313SOL    HW217381   0.169   6.674   8.828
 5314SOL     OW17382   1.347   6.645   8.682
 5314SOL    HW117383   1.371   6.582   8.608
 5314SOL    HW217384   1.257   6.685   8.664
 5315SOL     OW17385   1.302   6.441   7.757
 5315SOL    HW117386   1.216   6.410   7.799
 5315SOL    HW217387   1.298   6.427   7.658
 5316SOL     OW17388   1.759   7.333   8.602
 5316SOL    HW117389   1.820   7.363   8.529
 5316SOL    HW217390   1.721   7.244   8.580
 5317SOL     OW17391   1.252   7.317   8.576
 5317SOL    HW117392   1.336   7.322   8.522
 5317SOL    HW217393   1.229   7.221   8.594
 5318SOL     OW17394   0.083   6.844   8.470
 5318SOL    HW117395   0.078   6.843   8.570
 5318SOL    HW217396   0.000   6.803   8.432
 5319SOL     OW17397   0.688   7.248   9.164
 5319SOL    HW117398   0.632   7.329   9.173
 5319SOL    HW217399   0.740   7.252   9.078
 5320SOL     OW17400   1.726   5.721   7.971
 5320SOL    HW117401   1.799   5.704   7.904
 5320SOL    HW217402   1.695   5.634   8.009
 5321SOL     OW17403   1.388   7.159   7.925
 5321SOL    HW117404   1.455   7.171   7.851
 5321SOL    HW217405   1.348   7.248   7.948
 5322SOL     OW17406   0.130   7.380   9.299
 5322SOL    HW117407   0.089   7.306   9.352
 5322SOL    HW217408   0.194   7.431   9.357
 5323SOL     OW17409   1.280   6.513   8.120
 5323SOL    HW117410   1.340   6.432   8.122
 5323SOL    HW217411   1.320   6.582   8.060
 5324SOL     OW17412   0.830   6.859   8.870
 5324SOL    HW117413   0.825   6.892   8.965
 5324SOL    HW217414   0.744   6.878   8.824
 5325SOL     OW17415   0.672   7.202   7.602
 5325SOL    HW117416   0.681   7.212   7.503
 5325SOL    HW217417   0.632   7.113   7.623
 5326SOL     OW17418   1.650   7.306   8.842
 5326SOL    HW117419   1.703   7.316   8.758
 5326SOL    HW217420   1.623   7.396   8.876
 5327SOL     OW17421   1.841   5.761   8.411
 5327SOL    HW117422   1.880   5.676   8.375
 5327SOL    HW217423   1.743   5.763   8.392
 5328SOL     OW17424   0.263   5.912   8.168
 5328SOL    HW117425   0.184   5.963   8.134
 5328SOL    HW217426   0.254   5.897   8.266
 5329SOL     OW17427   1.194   7.198   7.479
 5329SOL    HW117428   1.200   7.105   7.516
 5329SOL    HW217429   1.135   7.198   7.399
 5330SOL     OW17430   0.822   6.588   8.820
 5330SOL    HW117431   0.862   6.587   8.728
 5330SOL    HW217432   0.832   6.680   8.860
 5331SOL     OW17433   0.916   6.496   7.739
 5331SOL    HW117434   0.979   6.534   7.671
 5331SOL    HW217435   0.956   6.413   7.778
 5332SOL     OW17436   1.504   7.193   7.492
 5332SOL    HW117437   1.412   7.230   7.499
 5332SOL    HW217438   1.542   7.213   7.402
 5333SOL     OW17439   0.372   6.874   8.938
 5333SOL    HW117440   0.359   6.967   8.904
 5333SOL    HW217441   0.288   6.822   8.925
 5334SOL     OW17442   1.614   6.878   8.737
 5334SOL    HW117443   1.674   6.881   8.817
 5334SOL    HW217444   1.539   6.942   8.750
 5335SOL     OW17445   1.039   6.684   8.144
 5335SOL    HW117446   0.969   6.637   8.198
 5335SOL    HW217447   1.098   6.616   8.101
 5336SOL     OW17448   1.014   5.822   8.419
 5336SOL    HW117449   1.006   5.786   8.326
 5336SOL    HW217450   1.012   5.746   8.484
 5337SOL     OW17451   0.590   7.073   7.939
 5337SOL    HW117452   0.632   7.015   7.869
 5337SOL    HW217453   0.546   7.152   7.895
 5338SOL     OW17454   1.709   5.971   8.829
 5338SOL    HW117455   1.782   6.040   8.833
 5338SOL    HW217456   1.737   5.896   8.770
 5339SOL     OW17457   0.255   6.934   7.738
 5339SOL    HW117458   0.159   6.935   7.711
 5339SOL    HW217459   0.267   6.987   7.822
 5340SOL     OW17460   0.105   6.599   9.174
 5340SOL    HW117461   0.028   6.566   9.228
 5340SOL    HW217462   0.190   6.569   9.216
 5341SOL     OW17463   0.672   5.789   8.937
 5341SOL    HW117464   0.762   5.773   8.897
 5341SOL    HW217465   0.680   5.794   9.036
 5342SOL     OW17466   0.075   5.931   7.481
 5342SOL    HW117467  -0.017   5.903   7.452
 5342SOL    HW217468   0.106   6.008   7.425
 5343SOL     OW17469   1.440   6.442   8.846
 5343SOL    HW117470   1.383   6.494   8.783
 5343SOL    HW217471   1.536   6.454   8.822
 5344SOL     OW17472   0.072   5.752   7.766
 5344SOL    HW117473   0.055   5.835   7.712
 5344SOL    HW217474   0.162   5.715   7.744
 5345SOL     OW17475   1.183   6.921   7.567
 5345SOL    HW117476   1.084   6.910   7.569
 5345SOL    HW217477   1.217   6.936   7.660
 5346SOL     OW17478   0.613   6.428   8.879
 5346SOL    HW117479   0.669   6.509   8.862
 5346SOL    HW217480   0.672   6.348   8.882
 5347SOL     OW17481   1.493   7.353   8.407
 5347SOL    HW117482   1.526   7.417   8.338
 5347SOL    HW217483   1.559   7.347   8.482
 5348SOL     OW17484   0.716   6.151   9.156
 5348SOL    HW117485   0.735   6.216   9.230
 5348SOL    HW217486   0.776   6.071   9.165
 5349SOL     OW17487   1.450   6.806   9.081
 5349SOL    HW117488   1.441   6.796   9.180
 5349SOL    HW217489   1.546   6.799   9.055
 5350SOL     OW17490   0.390   7.327   9.008
 5350SOL    HW117491   0.299   7.368   9.006
 5350SOL    HW217492   0.383   7.233   9.040
 5351SOL     OW17493   1.674   6.469   8.702
 5351SOL    HW117494   1.647   6.380   8.665
 5351SOL    HW217495   1.675   6.537   8.629
 5352SOL     OW17496   1.225   5.911   7.897
 5352SOL    HW117497   1.290   5.837   7.886
 5352SOL    HW217498   1.245   5.961   7.981
 5353SOL     OW17499   0.594   6.331   8.100
 5353SOL    HW117500   0.644   6.416   8.081
 5353SOL    HW217501   0.506   6.333   8.052
 5354SOL     OW17502   1.777   5.928   9.090
 5354SOL    HW117503   1.760   5.959   8.996
 5354SOL    HW217504   1.693   5.891   9.128
 5355SOL     OW17505   1.730   6.520   8.965
 5355SOL    HW117506   1.768   6.611   8.980
 5355SOL    HW217507   1.722   6.503   8.866
 5356SOL     OW17508   0.859   6.960   7.464
 5356SOL    HW117509   0.813   6.975   7.552
 5356SOL    HW217510   0.903   7.045   7.434
 5357SOL     OW17511   0.661   7.376   8.401
 5357SOL    HW117512   0.615   7.464   8.388
 5357SOL    HW217513   0.760   7.388   8.394
 5358SOL     OW17514   0.859   6.542   8.309
 5358SOL    HW117515   0.913   6.473   8.357
 5358SOL    HW217516   0.827   6.611   8.375
 5359SOL     OW17517   1.083   6.570   7.535
 5359SOL    HW117518   1.060   6.623   7.453
 5359SOL    HW217519   1.164   6.514   7.516
 5360SOL     OW17520   1.861   7.155   8.299
 5360SOL    HW117521   1.790   7.143   8.229
 5360SOL    HW217522   1.862   7.076   8.359
 5361SOL     OW17523   0.221   6.900   9.292
 5361SOL    HW117524   0.156   6.827   9.271
 5361SOL    HW217525   0.225   6.914   9.390
 5362SOL     OW17526   0.079   6.826   8.101
 5362SOL    HW117527   0.078   6.779   8.189
 5362SOL    HW217528   0.161   6.798   8.050
 5363SOL     OW17529   0.672   6.977   9.072
 5363SOL    HW117530   0.594   6.927   9.110
 5363SOL    HW217531   0.669   7.072   9.103
 5364SOL     OW17532   1.824   5.778   8.675
 5364SOL    HW117533   1.820   5.688   8.719
 5364SOL    HW217534   1.827   5.767   8.576
 5365SOL     OW17535   0.428   6.010   7.968
 5365SOL    HW117536   0.458   5.938   7.906
 5365SOL    HW217537   0.389   5.970   8.051
 5366SOL     OW17538   1.705   7.073   8.552
 5366SOL    HW117539   1.612   7.048   8.525
 5366SOL    HW217540   1.731   7.023   8.634
 5367SOL     OW17541   0.812   7.172   8.135
 5367SOL    HW117542   0.844   7.182   8.041
 5367SOL    HW217543   0.733   7.110   8.137
 5368SOL     OW17544   1.424   5.800   8.560
 5368SOL    HW117545   1.476   5.735   8.615
 5368SOL    HW217546   1.375   5.863   8.621
 5369SOL     OW17547   1.001   5.620   8.602
 5369SOL    HW117548   0.938   5.548   8.571
 5369SOL    HW217549   1.094   5.584   8.602
 5370SOL     OW17550   0.770   6.916   7.749
 5370SOL    HW117551   0.724   6.829   7.766
 5370SOL    HW217552   0.861   6.913   7.790
 5371SOL     OW17553   0.618   7.153   8.732
 5371SOL    HW117554   0.613   7.235   8.789
 5371SOL    HW217555   0.707   7.150   8.687
 5372SOL     OW17556   1.352   5.638   7.616
 5372SOL    HW117557   1.387   5.597   7.532
 5372SOL    HW217558   1.262   5.600   7.636
 5373SOL     OW17559   1.300   6.039   8.139
 5373SOL    HW117560   1.241   6.119   8.143
 5373SOL    HW217561   1.315   6.004   8.232
 5374SOL     OW17562   1.593   5.807   8.330
 5374SOL    HW117563   1.509   5.806   8.384
 5374SOL    HW217564   1.595   5.890   8.274
 5375SOL     OW17565   0.039   6.663   7.748
 5375SOL    HW117566   0.138   6.652   7.739
 5375SOL    HW217567  -0.001   6.577   7.780
 5376SOL     OW17568   0.875   7.232   7.785
 5376SOL    HW117569   0.798   7.197   7.731
 5376SOL    HW217570   0.843   7.303   7.847
 5377SOL     OW17571   0.230   6.214   9.423
 5377SOL    HW117572   0.137   6.212   9.460
 5377SOL    HW217573   0.231   6.175   9.331
 5378SOL     OW17574   0.225   5.861  10.306
 5378SOL    HW117575   0.260   5.844  10.398
 5378SOL    HW217576   0.137   5.816  10.294
 5379SOL     OW17577   0.019   5.954   9.957
 5379SOL    HW117578  -0.063   5.997   9.996
 5379SOL    HW217579  -0.009   5.881   9.894
 5380SOL     OW17580   0.569   6.861  10.475
 5380SOL    HW117581   0.476   6.854  10.438
 5380SOL    HW217582   0.580   6.950  10.519
 5381SOL     OW17583   1.555   7.097  10.013
 5381SOL    HW117584   1.498   7.081  10.094
 5381SOL    HW217585   1.496   7.107   9.933
 5382SOL     OW17586   1.135   6.289  10.027
 5382SOL    HW117587   1.192   6.367  10.002
 5382SOL    HW217588   1.075   6.315  10.103
 5383SOL     OW17589   1.755   6.193   9.541
 5383SOL    HW117590   1.743   6.180   9.442
 5383SOL    HW217591   1.725   6.112   9.590
 5384SOL     OW17592   0.768   6.730  10.333
 5384SOL    HW117593   0.690   6.747  10.393
 5384SOL    HW217594   0.802   6.817  10.297
 5385SOL     OW17595   0.850   6.384  11.133
 5385SOL    HW117596   0.846   6.460  11.198
 5385SOL    HW217597   0.872   6.420  11.042
 5386SOL     OW17598   0.685   6.598   9.975
 5386SOL    HW117599   0.754   6.582  10.045
 5386SOL    HW217600   0.612   6.655  10.013
 5387SOL     OW17601   0.686   6.747  11.113
 5387SOL    HW117602   0.746   6.826  11.127
 5387SOL    HW217603   0.600   6.778  11.072
 5388SOL     OW17604   0.335   7.021  10.371
 5388SOL    HW117605   0.257   6.990  10.318
 5388SOL    HW217606   0.393   7.079  10.314
 5389SOL     OW17607   1.460   7.091  10.649
 5389SOL    HW117608   1.484   7.185  10.675
 5389SOL    HW217609   1.444   7.037  10.731
 5390SOL     OW17610   0.438   5.978  10.809
 5390SOL    HW117611   0.520   5.922  10.818
 5390SOL    HW217612   0.357   5.920  10.813
 5391SOL     OW17613   1.603   6.033  10.047
 5391SOL    HW117614   1.529   6.079   9.997
 5391SOL    HW217615   1.654   6.101  10.100
 5392SOL     OW17616   0.231   7.299   9.793
 5392SOL    HW117617   0.265   7.376   9.847
 5392SOL    HW217618   0.275   7.299   9.703
 5393SOL     OW17619   1.127   6.927  11.000
 5393SOL    HW117620   1.174   6.927  11.088
 5393SOL    HW217621   1.079   6.840  10.989
 5394SOL     OW17622   0.230   7.020   9.848
 5394SOL    HW117623   0.204   7.116   9.848
 5394SOL    HW217624   0.159   6.966   9.893
 5395SOL     OW17625   0.240   6.677  10.196
 5395SOL    HW117626   0.254   6.593  10.248
 5395SOL    HW217627   0.185   6.741  10.251
 5396SOL     OW17628   0.620   7.372  10.749
 5396SOL    HW117629   0.528   7.355  10.784
 5396SOL    HW217630   0.648   7.464  10.775
 5397SOL     OW17631   0.606   6.550   9.433
 5397SOL    HW117632   0.613   6.634   9.379
 5397SOL    HW217633   0.652   6.563   9.521
 5398SOL     OW17634   1.594   5.700  10.790
 5398SOL    HW117635   1.576   5.767  10.718
 5398SOL    HW217636   1.591   5.746  10.879
 5399SOL     OW17637   0.122   6.229   9.873
 5399SOL    HW117638   0.077   6.141   9.890
 5399SOL    HW217639   0.121   6.283   9.957
 5400SOL     OW17640   1.842   7.353   9.669
 5400SOL    HW117641   1.896   7.324   9.749
 5400SOL    HW217642   1.872   7.443   9.640
 5401SOL     OW17643   0.027   7.182   9.427
 5401SOL    HW117644   0.008   7.086   9.448
 5401SOL    HW217645  -0.006   7.240   9.502
 5402SOL     OW17646   1.689   6.508   9.922
 5402SOL    HW117647   1.784   6.479   9.930
 5402SOL    HW217648   1.681   6.573   9.847
 5403SOL     OW17649   1.641   6.694   9.742
 5403SOL    HW117650   1.727   6.696   9.690
 5403SOL    HW217651   1.655   6.741   9.830
 5404SOL     OW17652   0.113   6.323  10.907
 5404SOL    HW117653   0.201   6.310  10.952
 5404SOL    HW217654   0.100   6.420  10.885
 5405SOL     OW17655   0.613   6.951  10.036
 5405SOL    HW117656   0.564   6.864  10.045
 5405SOL    HW217657   0.590   6.994   9.949
 5406SOL     OW17658   1.293   6.814  10.733
 5406SOL    HW117659   1.330   6.741  10.675
 5406SOL    HW217660   1.345   6.819  10.818
 5407SOL     OW17661   0.809   5.590   9.812
 5407SOL    HW117662   0.849   5.681   9.803
 5407SOL    HW217663   0.709   5.598   9.818
 5408SOL     OW17664   0.197   6.562  10.574
 5408SOL    HW117665   0.286   6.517  10.560
 5408SOL    HW217666   0.124   6.497  10.555
 5409SOL     OW17667   1.525   6.585   9.500
 5409SOL    HW117668   1.462   6.509   9.513
 5409SOL    HW217669   1.573   6.603   9.586
 5410SOL     OW17670   1.187   7.378  10.926
 5410SOL    HW117671   1.211   7.438  10.850
 5410SOL    HW217672   1.194   7.283  10.896
 5411SOL     OW17673   0.317   5.837  11.111
 5411SOL    HW117674   0.388   5.908  11.117
 5411SOL    HW217675   0.229   5.876  11.139
 5412SOL     OW17676   1.466   7.003  10.263
 5412SOL    HW117677   1.407   7.009  10.343
 5412SOL    HW217678   1.451   6.915  10.217
 5413SOL     OW17679   1.667   7.300   9.882
 5413SOL    HW117680   1.626   7.277   9.794
 5413SOL    HW217681   1.649   7.226   9.947
 5414SOL     OW17682   0.598   6.315   9.580
 5414SOL    HW117683   0.622   6.384   9.512
 5414SOL    HW217684   0.520   6.348   9.634
 5415SOL     OW17685   1.281   5.931  10.254
 5415SOL    HW117686   1.195   5.881  10.241
 5415SOL    HW217687   1.343   5.877  10.310
 5416SOL     OW17688   1.576   7.248   9.617
 5416SOL    HW117689   1.665   7.294   9.620
 5416SOL    HW217690   1.555   7.224   9.522
 5417SOL     OW17691   0.807   6.191  10.775
 5417SOL    HW117692   0.760   6.188  10.864
 5417SOL    HW217693   0.756   6.136  10.709
 5418SOL     OW17694   1.394   6.055  10.984
 5418SOL    HW117695   1.374   6.098  11.072
 5418SOL    HW217696   1.472   5.993  10.993
 5419SOL     OW17697   0.973   6.476  10.882
 5419SOL    HW117698   1.019   6.392  10.853
 5419SOL    HW217699   0.917   6.510  10.807
 5420SOL     OW17700   0.991   5.996  10.552
 5420SOL    HW117701   0.914   6.030  10.606
 5420SOL    HW217702   0.957   5.945  10.473
 5421SOL     OW17703   1.041   6.287   9.739
 5421SOL    HW117704   1.067   6.283   9.835
 5421SOL    HW217705   0.956   6.236   9.725
 5422SOL     OW17706   0.076   6.397  10.099
 5422SOL    HW117707   0.175   6.385  10.108
 5422SOL    HW217708   0.052   6.492  10.120
 5423SOL     OW17709   0.130   7.407  10.881
 5423SOL    HW117710   0.120   7.392  10.980
 5423SOL    HW217711   0.044   7.443  10.845
 5424SOL     OW17712   0.865   5.934   9.505
 5424SOL    HW117713   0.924   5.997   9.456
 5424SOL    HW217714   0.884   5.840   9.476
 5425SOL     OW17715   1.719   6.171  11.141
 5425SOL    HW117716   1.693   6.260  11.105
 5425SOL    HW217717   1.717   6.103  11.068
 5426SOL     OW17718   1.362   6.730   9.855
 5426SOL    HW117719   1.445   6.701   9.807
 5426SOL    HW217720   1.313   6.797   9.799
 5427SOL     OW17721   0.550   5.782  10.195
 5427SOL    HW117722   0.545   5.777  10.295
 5427SOL    HW217723   0.552   5.878  10.166
 5428SOL     OW17724   1.008   7.042   9.787
 5428SOL    HW117725   0.962   7.114   9.735
 5428SOL    HW217726   1.004   7.062   9.885
 5429SOL     OW17727   0.351   7.387  10.163
 5429SOL    HW117728   0.401   7.301  10.169
 5429SOL    HW217729   0.416   7.464  10.160
 5430SOL     OW17730   1.795   6.652  10.183
 5430SOL    HW117731   1.733   6.637  10.107
 5430SOL    HW217732   1.743   6.663  10.268
 5431SOL     OW17733   1.227   7.136  10.816
 5431SOL    HW117734   1.233   7.059  10.880
 5431SOL    HW217735   1.175   7.110  10.736
 5432SOL     OW17736   0.321   6.529   9.552
 5432SOL    HW117737   0.403   6.568   9.510
 5432SOL    HW217738   0.294   6.447   9.503
 5433SOL     OW17739   1.458   6.321  10.038
 5433SOL    HW117740   1.453   6.256  10.113
 5433SOL    HW217741   1.538   6.380  10.051
 5434SOL     OW17742   0.461   6.852  11.037
 5434SOL    HW117743   0.411   6.853  10.951
 5434SOL    HW217744   0.398   6.834  11.113
 5435SOL     OW17745   1.111   7.362   9.547
 5435SOL    HW117746   1.051   7.300   9.597
 5435SOL    HW217747   1.142   7.318   9.462
 5436SOL     OW17748   0.202   5.871  10.808
 5436SOL    HW117749   0.122   5.931  10.795
 5436SOL    HW217750   0.192   5.822  10.894
 5437SOL     OW17751   1.632   6.963   9.391
 5437SOL    HW117752   1.600   7.057   9.381
 5437SOL    HW217753   1.556   6.900   9.379
 5438SOL     OW17754   0.464   7.329   9.633
 5438SOL    HW117755   0.497   7.368   9.719
 5438SOL    HW217756   0.540   7.322   9.568
 5439SOL     OW17757   1.400   5.693   9.736
 5439SOL    HW117758   1.376   5.656   9.646
 5439SOL    HW217759   1.499   5.709   9.740
 5440SOL     OW17760   0.249   7.371  10.551
 5440SOL    HW117761   0.306   7.306  10.601
 5440SOL    HW217762   0.233   7.338  10.458
 5441SOL     OW17763   0.940   7.284  10.214
 5441SOL    HW117764   1.020   7.227  10.235
 5441SOL    HW217765   0.891   7.244  10.137
 5442SOL     OW17766   0.382   6.286   9.790
 5442SOL    HW117767   0.427   6.196   9.787
 5442SOL    HW217768   0.288   6.275   9.823
 5443SOL     OW17769   1.547   5.808  11.039
 5443SOL    HW117770   1.542   5.845  11.131
 5443SOL    HW217771   1.475   5.739  11.027
 5444SOL     OW17772   0.614   5.708   9.427
 5444SOL    HW117773   0.712   5.686   9.434
 5444SOL    HW217774   0.583   5.691   9.334
 5445SOL     OW17775   0.781   5.850  11.059
 5445SOL    HW117776   0.848   5.789  11.102
 5445SOL    HW217777   0.708   5.869  11.124
 5446SOL     OW17778   0.888   7.100  10.505
 5446SOL    HW117779   0.865   7.075  10.411
 5446SOL    HW217780   0.949   7.031  10.544
 5447SOL     OW17781   1.351   6.176  10.743
 5447SOL    HW117782   1.379   6.133  10.828
 5447SOL    HW217783   1.376   6.272  10.744
 5448SOL     OW17784   0.803   6.988  10.234
 5448SOL    HW117785   0.893   7.002  10.192
 5448SOL    HW217786   0.732   6.990  10.163
 5449SOL     OW17787   0.922   6.089  10.209
 5449SOL    HW117788   0.897   6.080  10.113
 5449SOL    HW217789   0.970   6.007  10.240
 5450SOL     OW17790   0.539   5.650   9.822
 5450SOL    HW117791   0.458   5.651   9.880
 5450SOL    HW217792   0.542   5.733   9.767
 5451SOL     OW17793   1.434   6.774   9.351
 5451SOL    HW117794   1.466   6.698   9.408
 5451SOL    HW217795   1.342   6.801   9.381
 5452SOL     OW17796   0.297   5.621   9.481
 5452SOL    HW117797   0.346   5.705   9.460
 5452SOL    HW217798   0.359   5.556   9.526
 5453SOL     OW17799   0.935   5.822   9.790
 5453SOL    HW117800   0.887   5.863   9.712
 5453SOL    HW217801   1.034   5.820   9.771
 5454SOL     OW17802   1.076   6.269  10.774
 5454SOL    HW117803   0.996   6.208  10.777
 5454SOL    HW217804   1.157   6.216  10.750
 5455SOL     OW17805   1.227   7.156  10.103
 5455SOL    HW117806   1.248   7.230  10.038
 5455SOL    HW217807   1.295   7.156  10.176
 5456SOL     OW17808   0.459   6.738  10.051
 5456SOL    HW117809   0.388   6.711  10.116
 5456SOL    HW217810   0.433   6.710   9.958
 5457SOL     OW17811   1.271   7.383   9.901
 5457SOL    HW117812   1.315   7.447   9.837
 5457SOL    HW217813   1.221   7.435   9.971
 5458SOL     OW17814   1.032   6.135   9.326
 5458SOL    HW117815   0.991   6.217   9.287
 5458SOL    HW217816   1.096   6.161   9.399
 5459SOL     OW17817   0.078   6.142  10.696
 5459SOL    HW117818   0.170   6.141  10.655
 5459SOL    HW217819   0.072   6.216  10.763
 5460SOL     OW17820   0.561   5.808  10.457
 5460SOL    HW117821   0.599   5.724  10.494
 5460SOL    HW217822   0.473   5.827  10.501
 5461SOL     OW17823   0.866   6.040   9.952
 5461SOL    HW117824   0.834   6.112   9.890
 5461SOL    HW217825   0.890   5.959   9.899
 5462SOL     OW17826   1.017   5.625  10.063
 5462SOL    HW117827   0.945   5.630   9.994
 5462SOL    HW217828   0.993   5.556  10.132
 5463SOL     OW17829   1.429   6.759  10.177
 5463SOL    HW117830   1.374   6.675  10.170
 5463SOL    HW217831   1.455   6.788  10.085
 5464SOL     OW17832   1.466   6.176  10.302
 5464SOL    HW117833   1.436   6.081  10.309
 5464SOL    HW217834   1.539   6.192  10.368
 5465SOL     OW17835   1.857   6.419   9.687
 5465SOL    HW117836   1.899   6.355   9.751
 5465SOL    HW217837   1.819   6.368   9.609
 5466SOL     OW17838   0.488   6.971   9.484
 5466SOL    HW117839   0.401   6.956   9.531
 5466SOL    HW217840   0.471   6.997   9.389
 5467SOL     OW17841   1.664   6.866   9.967
 5467SOL    HW117842   1.763   6.874   9.981
 5467SOL    HW217843   1.619   6.950   9.998
 5468SOL     OW17844   1.390   6.161   9.388
 5468SOL    HW117845   1.336   6.140   9.469
 5468SOL    HW217846   1.481   6.120   9.397
 5469SOL     OW17847   0.527   5.842   9.638
 5469SOL    HW117848   0.554   5.783   9.563
 5469SOL    HW217849   0.527   5.937   9.607
 5470SOL     OW17850   1.754   6.809  10.898
 5470SOL    HW117851   1.845   6.770  10.885
 5470SOL    HW217852   1.762   6.905  10.922
 5471SOL     OW17853   1.064   6.933  10.650
 5471SOL    HW117854   0.984   6.910  10.705
 5471SOL    HW217855   1.147   6.907  10.699
 5472SOL     OW17856   1.592   7.215  10.935
 5472SOL    HW117857   1.619   7.249  10.845
 5472SOL    HW217858   1.671   7.177  10.981
 5473SOL     OW17859   1.111   6.781  10.410
 5473SOL    HW117860   1.071   6.825  10.491
 5473SOL    HW217861   1.070   6.818  10.327
 5474SOL     OW17862   1.638   6.685  10.389
 5474SOL    HW117863   1.643   6.766  10.448
 5474SOL    HW217864   1.552   6.687  10.338
 5475SOL     OW17865   0.915   5.675  10.712
 5475SOL    HW117866   0.940   5.655  10.617
 5475SOL    HW217867   0.987   5.731  10.754
 5476SOL     OW17868   0.980   6.702  11.029
 5476SOL    HW117869   0.881   6.708  11.039
 5476SOL    HW217870   1.003   6.622  10.973
 5477SOL     OW17871   0.705   6.636   9.678
 5477SOL    HW117872   0.691   6.643   9.777
 5477SOL    HW217873   0.789   6.585   9.660
 5478SOL     OW17874   0.410   6.399  10.561
 5478SOL    HW117875   0.496   6.411  10.611
 5478SOL    HW217876   0.368   6.312  10.588
 5479SOL     OW17877   1.274   5.972  10.572
 5479SOL    HW117878   1.295   6.046  10.636
 5479SOL    HW217879   1.185   5.989  10.529
 5480SOL     OW17880   0.064   7.150  10.641
 5480SOL    HW117881   0.018   7.232  10.607
 5480SOL    HW217882   0.162   7.169  10.650
 5481SOL     OW17883   0.367   6.686   9.811
 5481SOL    HW117884   0.360   6.769   9.755
 5481SOL    HW217885   0.371   6.606   9.751
 5482SOL     OW17886   0.566   6.123  10.175
 5482SOL    HW117887   0.578   6.189  10.101
 5482SOL    HW217888   0.612   6.157  10.258
 5483SOL     OW17889   1.252   6.934   9.698
 5483SOL    HW117890   1.302   7.011   9.738
 5483SOL    HW217891   1.157   6.936   9.730
 5484SOL     OW17892   1.272   7.031  10.452
 5484SOL    HW117893   1.319   7.044  10.539
 5484SOL    HW217894   1.206   6.957  10.461
 5485SOL     OW17895   1.582   6.225   9.782
 5485SOL    HW117896   1.551   6.286   9.855
 5485SOL    HW217897   1.632   6.277   9.713
 5486SOL     OW17898   0.354   7.096  10.639
 5486SOL    HW117899   0.333   7.052  10.552
 5486SOL    HW217900   0.451   7.122  10.642
 5487SOL     OW17901   0.402   6.337  10.908
 5487SOL    HW117902   0.470   6.392  10.861
 5487SOL    HW217903   0.442   6.249  10.935
 5488SOL     OW17904   1.587   6.365  10.980
 5488SOL    HW117905   1.495   6.403  10.975
 5488SOL    HW217906   1.647   6.412  10.915
 5489SOL     OW17907   1.013   5.691  11.080
 5489SOL    HW117908   1.019   5.776  11.028
 5489SOL    HW217909   1.045   5.615  11.023
 5490SOL     OW17910   0.504   5.636  11.050
 5490SOL    HW117911   0.462   5.579  10.980
 5490SOL    HW217912   0.438   5.705  11.082
 5491SOL     OW17913   0.573   6.456  10.339
 5491SOL    HW117914   0.617   6.545  10.330
 5491SOL    HW217915   0.510   6.456  10.416
 5492SOL     OW17916   1.360   6.448  10.355
 5492SOL    HW117917   1.285   6.448  10.289
 5492SOL    HW217918   1.397   6.356  10.364
 5493SOL     OW17919   1.209   6.111   9.585
 5493SOL    HW117920   1.222   6.027   9.639
 5493SOL    HW217921   1.180   6.185   9.645
 5494SOL     OW17922   0.307   5.799  10.541
 5494SOL    HW117923   0.284   5.836  10.631
 5494SOL    HW217924   0.277   5.704  10.535
 5495SOL     OW17925   0.037   6.896  10.592
 5495SOL    HW117926   0.090   6.847  10.660
 5495SOL    HW217927   0.059   6.994  10.597
 5496SOL     OW17928   0.732   6.220  10.374
 5496SOL    HW117929   0.791   6.194  10.298
 5496SOL    HW217930   0.704   6.316  10.363
 5497SOL     OW17931   1.728   6.521  11.164
 5497SOL    HW117932   1.682   6.514  11.075
 5497SOL    HW217933   1.666   6.565  11.230
 5498SOL     OW17934   0.307   5.649   9.928
 5498SOL    HW117935   0.296   5.743   9.961
 5498SOL    HW217936   0.302   5.586  10.005
 5499SOL     OW17937   1.622   5.953   9.684
 5499SOL    HW117938   1.624   5.877   9.748
 5499SOL    HW217939   1.574   6.030   9.724
 5500SOL     OW17940   1.023   6.352  10.276
 5500SOL    HW117941   1.038   6.373  10.372
 5500SOL    HW217942   0.993   6.257  10.267
 5501SOL     OW17943   0.980   7.159  11.010
 5501SOL    HW117944   0.960   7.203  10.922
 5501SOL    HW217945   1.019   7.068  10.994
 5502SOL     OW17946   1.859   7.104  10.915
 5502SOL    HW117947   1.873   7.131  10.820
 5502SOL    HW217948   1.942   7.126  10.968
 5503SOL     OW17949   0.350   6.484  11.114
 5503SOL    HW117950   0.426   6.528  11.162
 5503SOL    HW217951   0.385   6.437  11.032
 5504SOL     OW17952   1.540   5.860   9.435
 5504SOL    HW117953   1.479   5.785   9.458
 5504SOL    HW217954   1.562   5.912   9.518
 5505SOL     OW17955   1.303   6.424   9.352
 5505SOL    HW117956   1.337   6.331   9.367
 5505SOL    HW217957   1.321   6.451   9.257
 5506SOL     OW17958   1.068   6.919  10.159
 5506SOL    HW117959   1.075   6.835  10.104
 5506SOL    HW217960   1.130   6.988  10.123
 5507SOL     OW17961   0.319   6.396  10.259
 5507SOL    HW117962   0.412   6.432  10.264
 5507SOL    HW217963   0.313   6.311  10.311
 5508SOL     OW17964   0.339   6.095  10.316
 5508SOL    HW117965   0.287   6.012  10.299
 5508SOL    HW217966   0.416   6.100  10.252
 5509SOL     OW17967   1.138   5.966  10.988
 5509SOL    HW117968   1.093   6.029  11.052
 5509SOL    HW217969   1.231   5.997  10.971
 5510SOL     OW17970   1.160   5.793  10.787
 5510SOL    HW117971   1.160   5.857  10.864
 5510SOL    HW217972   1.188   5.841  10.704
 5511SOL     OW17973   0.008   6.912   9.510
 5511SOL    HW117974  -0.085   6.933   9.479
 5511SOL    HW217975   0.018   6.813   9.523
 5512SOL     OW17976   0.088   7.387  10.237
 5512SOL    HW117977   0.046   7.301  10.210
 5512SOL    HW217978   0.182   7.390  10.203
 5513SOL     OW17979   0.504   7.154  10.220
 5513SOL    HW117980   0.570   7.228  10.229
 5513SOL    HW217981   0.548   7.075  10.178
 5514SOL     OW17982   0.040   6.130  10.424
 5514SOL    HW117983   0.125   6.097  10.383
 5514SOL    HW217984   0.053   6.145  10.522
 5515SOL     OW17985   0.189   6.106  11.032
 5515SOL    HW117986   0.248   6.066  10.962
 5515SOL    HW217987   0.131   6.177  10.991
 5516SOL     OW17988   1.369   6.536  10.970
 5516SOL    HW117989   1.408   6.625  10.990
 5516SOL    HW217990   1.379   6.516  10.873
 5517SOL     OW17991   0.815   6.158   9.635
 5517SOL    HW117992   0.822   6.069   9.589
 5517SOL    HW217993   0.721   6.192   9.627
 5518SOL     OW17994   1.657   6.190  10.516
 5518SOL    HW117995   1.619   6.121  10.578
 5518SOL    HW217996   1.739   6.154  10.472
 5519SOL     OW17997   0.252   7.150  11.054
 5519SOL    HW117998   0.222   7.207  11.130
 5519SOL    HW217999   0.245   7.053  11.080
 5520SOL     OW18000   0.671   6.050  10.579
 5520SOL    HW118001   0.637   5.961  10.549
 5520SOL    HW218002   0.697   6.104  10.499
 5521SOL     OW18003   0.930   7.264  10.775
 5521SOL    HW118004   0.906   7.246  10.680
 5521SOL    HW218005   0.960   7.358  10.785
 5522SOL     OW18006   0.473   6.086   9.501
 5522SOL    HW118007   0.534   6.166   9.505
 5522SOL    HW218008   0.378   6.117   9.508
 5523SOL     OW18009   0.159   6.723  10.776
 5523SOL    HW118010   0.181   6.662  10.852
 5523SOL    HW218011   0.169   6.674  10.690
 5524SOL     OW18012   1.347   6.645  10.544
 5524SOL    HW118013   1.371   6.582  10.470
 5524SOL    HW218014   1.257   6.685  10.526
 5525SOL     OW18015   1.302   6.441   9.619
 5525SOL    HW118016   1.216   6.410   9.661
 5525SOL    HW218017   1.298   6.427   9.520
 5526SOL     OW18018   1.759   7.333  10.464
 5526SOL    HW118019   1.820   7.363  10.391
 5526SOL    HW218020   1.721   7.244  10.442
 5527SOL     OW18021   1.252   7.317  10.438
 5527SOL    HW118022   1.336   7.322  10.384
 5527SOL    HW218023   1.229   7.221  10.456
 5528SOL     OW18024   0.083   6.844  10.332
 5528SOL    HW118025   0.078   6.843  10.432
 5528SOL    HW218026   0.000   6.803  10.294
 5529SOL     OW18027   0.688   7.248  11.026
 5529SOL    HW118028   0.632   7.329  11.035
 5529SOL    HW218029   0.740   7.252  10.940
 5530SOL     OW18030   1.726   5.721   9.833
 5530SOL    HW118031   1.799   5.704   9.766
 5530SOL    HW218032   1.695   5.634   9.871
 5531SOL     OW18033   1.388   7.159   9.787
 5531SOL    HW118034   1.455   7.171   9.713
 5531SOL    HW218035   1.348   7.248   9.810
 5532SOL     OW18036   0.130   7.380  11.161
 5532SOL    HW118037   0.089   7.306  11.214
 5532SOL    HW218038   0.194   7.431  11.219
 5533SOL     OW18039   1.280   6.513   9.982
 5533SOL    HW118040   1.340   6.432   9.984
 5533SOL    HW218041   1.320   6.582   9.922
 5534SOL     OW18042   0.830   6.859  10.732
 5534SOL    HW118043   0.825   6.892  10.827
 5534SOL    HW218044   0.744   6.878  10.686
 5535SOL     OW18045   0.672   7.202   9.464
 5535SOL    HW118046   0.681   7.212   9.365
 5535SOL    HW218047   0.632   7.113   9.485
 5536SOL     OW18048   1.650   7.306  10.704
 5536SOL    HW118049   1.703   7.316  10.620
 5536SOL    HW218050   1.623   7.396  10.738
 5537SOL     OW18051   1.841   5.761  10.273
 5537SOL    HW118052   1.880   5.676  10.237
 5537SOL    HW218053   1.743   5.763  10.254
 5538SOL     OW18054   0.263   5.912  10.030
 5538SOL    HW118055   0.184   5.963   9.996
 5538SOL    HW218056   0.254   5.897  10.128
 5539SOL     OW18057   1.194   7.198   9.341
 5539SOL    HW118058   1.200   7.105   9.378
 5539SOL    HW218059   1.135   7.198   9.261
 5540SOL     OW18060   0.822   6.588  10.682
 5540SOL    HW118061   0.862   6.587  10.590
 5540SOL    HW218062   0.832   6.680  10.722
 5541SOL     OW18063   0.916   6.496   9.601
 5541SOL    HW118064   0.979   6.534   9.533
 5541SOL    HW218065   0.956   6.413   9.640
 5542SOL     OW18066   1.504   7.193   9.354
 5542SOL    HW118067   1.412   7.230   9.361
 5542SOL    HW218068   1.542   7.213   9.264
 5543SOL     OW18069   0.372   6.874  10.800
 5543SOL    HW118070   0.359   6.967  10.766
 5543SOL    HW218071   0.288   6.822  10.787
 5544SOL     OW18072   1.614   6.878  10.599
 5544SOL    HW118073   1.674   6.881  10.679
 5544SOL    HW218074   1.539   6.942  10.612
 5545SOL     OW18075   1.039   6.684  10.006
 5545SOL    HW118076   0.969   6.637  10.060
 5545SOL    HW218077   1.098   6.616   9.963
 5546SOL     OW18078   1.014   5.822  10.281
 5546SOL    HW118079   1.006   5.786  10.188
 5546SOL    HW218080   1.012   5.746  10.346
 5547SOL     OW18081   0.590   7.073   9.801
 5547SOL    HW118082   0.632   7.015   9.731
 5547SOL    HW218083   0.546   7.152   9.757
 5548SOL     OW18084   1.709   5.971  10.691
 5548SOL    HW118085   1.782   6.040  10.695
 5548SOL    HW218086   1.737   5.896  10.632
 5549SOL     OW18087   0.255   6.934   9.600
 5549SOL    HW118088   0.159   6.935   9.573
 5549SOL    HW218089   0.267   6.987   9.684
 5550SOL     OW18090   0.105   6.599  11.036
 5550SOL    HW118091   0.028   6.566  11.090
 5550SOL    HW218092   0.190   6.569  11.078
 5551SOL     OW18093   0.672   5.789  10.799
 5551SOL    HW118094   0.762   5.773  10.759
 5551SOL    HW218095   0.680   5.794  10.898
 5552SOL     OW18096   0.075   5.931   9.343
 5552SOL    HW118097  -0.017   5.903   9.314
 5552SOL    HW218098   0.106   6.008   9.287
 5553SOL     OW18099   1.440   6.442  10.708
 5553SOL    HW118100   1.383   6.494  10.645
 5553SOL    HW218101   1.536   6.454  10.684
 5554SOL     OW18102   0.072   5.752   9.628
 5554SOL    HW118103   0.055   5.835   9.574
 5554SOL    HW218104   0.162   5.715   9.606
 5555SOL     OW18105   1.183   6.921   9.429
 5555SOL    HW118106   1.084   6.910   9.431
 5555SOL    HW218107   1.217   6.936   9.522
 5556SOL     OW18108   0.613   6.428  10.741
 5556SOL    HW118109   0.669   6.509  10.724
 5556SOL    HW218110   0.672   6.348  10.744
 5557SOL     OW18111   1.493   7.353  10.269
 5557SOL    HW118112   1.526   7.417  10.200
 5557SOL    HW218113   1.559   7.347  10.344
 5558SOL     OW18114   0.716   6.151  11.018
 5558SOL    HW118115   0.735   6.216  11.092
 5558SOL    HW218116   0.776   6.071  11.027
 5559SOL     OW18117   1.450   6.806  10.943
 5559SOL    HW118118   1.441   6.796  11.042
 5559SOL    HW218119   1.546   6.799  10.917
 5560SOL     OW18120   0.390   7.327  10.870
 5560SOL    HW118121   0.299   7.368  10.868
 5560SOL    HW218122   0.383   7.233  10.902
 5561SOL     OW18123   1.674   6.469  10.564
 5561SOL    HW118124   1.647   6.380  10.527
 5561SOL    HW218125   1.675   6.537  10.491
 5562SOL     OW18126   0.594   6.331   9.962
 5562SOL    HW118127   0.644   6.416   9.943
 5562SOL    HW218128   0.506   6.333   9.914
 5563SOL     OW18129   1.777   5.928  10.952
 5563SOL    HW118130   1.760   5.959  10.858
 5563SOL    HW218131   1.693   5.891  10.990
 5564SOL     OW18132   1.730   6.520  10.827
 5564SOL    HW118133   1.768   6.611  10.842
 5564SOL    HW218134   1.722   6.503  10.728
 5565SOL     OW18135   0.859   6.960   9.326
 5565SOL    HW118136   0.813   6.975   9.414
 5565SOL    HW218137   0.903   7.045   9.296
 5566SOL     OW18138   0.661   7.376  10.263
 5566SOL    HW118139   0.615   7.464  10.250
 5566SOL    HW218140   0.760   7.388  10.256
 5567SOL     OW18141   0.859   6.542  10.171
 5567SOL    HW118142   0.913   6.473  10.219
 5567SOL    HW218143   0.827   6.611  10.237
 5568SOL     OW18144   1.083   6.570   9.397
 5568SOL    HW118145   1.060   6.623   9.315
 5568SOL    HW218146   1.164   6.514   9.378
 5569SOL     OW18147   1.861   7.155  10.161
 5569SOL    HW118148   1.790   7.143  10.091
 5569SOL    HW218149   1.862   7.076  10.221
 5570SOL     OW18150   0.221   6.900  11.154
 5570SOL    HW118151   0.156   6.827  11.133
 5570SOL    HW218152   0.225   6.914  11.252
 5571SOL     OW18153   0.079   6.826   9.963
 5571SOL    HW118154   0.078   6.779  10.051
 5571SOL    HW218155   0.161   6.798   9.912
 5572SOL     OW18156   0.672   6.977  10.934
 5572SOL    HW118157   0.594   6.927  10.972
 5572SOL    HW218158   0.669   7.072  10.965
 5573SOL     OW18159   1.824   5.778  10.537
 5573SOL    HW118160   1.820   5.688  10.581
 5573SOL    HW218161   1.827   5.767  10.438
 5574SOL     OW18162   0.428   6.010   9.830
 5574SOL    HW118163   0.458   5.938   9.768
 5574SOL    HW218164   0.389   5.970   9.913
 5575SOL     OW18165   1.705   7.073  10.414
 5575SOL    HW118166   1.612   7.048  10.387
 5575SOL    HW218167   1.731   7.023  10.496
 5576SOL     OW18168   0.317   6.133  10.590
 5576SOL    HW118169   0.355   6.074  10.662
 5576SOL    HW218170   0.357   6.107  10.502
 5577SOL     OW18171   0.812   7.172   9.997
 5577SOL    HW118172   0.844   7.182   9.903
 5577SOL    HW218173   0.733   7.110   9.999
 5578SOL     OW18174   1.424   5.800  10.422
 5578SOL    HW118175   1.476   5.735  10.477
 5578SOL    HW218176   1.375   5.863  10.483
 5579SOL     OW18177   1.001   5.620  10.464
 5579SOL    HW118178   0.938   5.548  10.433
 5579SOL    HW218179   1.094   5.584  10.464
 5580SOL     OW18180   0.770   6.916   9.611
 5580SOL    HW118181   0.724   6.829   9.628
 5580SOL    HW218182   0.861   6.913   9.652
 5581SOL     OW18183   0.618   7.153  10.594
 5581SOL    HW118184   0.613   7.235  10.651
 5581SOL    HW218185   0.707   7.150  10.549
 5582SOL     OW18186   1.352   5.638   9.478
 5582SOL    HW118187   1.387   5.597   9.394
 5582SOL    HW218188   1.262   5.600   9.498
 5583SOL     OW18189   1.300   6.039  10.001
 5583SOL    HW118190   1.241   6.119  10.005
 5583SOL    HW218191   1.315   6.004  10.094
 5584SOL     OW18192   1.593   5.807  10.192
 5584SOL    HW118193   1.509   5.806  10.246
 5584SOL    HW218194   1.595   5.890  10.136
 5585SOL     OW18195   0.039   6.663   9.610
 5585SOL    HW118196   0.138   6.652   9.601
 5585SOL    HW218197  -0.001   6.577   9.642
 5586SOL     OW18198   0.875   7.232   9.647
 5586SOL    HW118199   0.798   7.197   9.593
 5586SOL    HW218200   0.843   7.303   9.709
 5587SOL     OW18201   0.230   6.214  11.285
 5587SOL    HW118202   0.137   6.212  11.322
 5587SOL    HW218203   0.231   6.175  11.193
 5588SOL     OW18204   0.225   5.861  12.168
 5588SOL    HW118205   0.260   5.844  12.260
 5588SOL    HW218206   0.137   5.816  12.156
 5589SOL     OW18207   0.019   5.954  11.819
 5589SOL    HW118208  -0.063   5.997  11.858
 5589SOL    HW218209  -0.009   5.881  11.756
 5590SOL     OW18210   0.569   6.861  12.337
 5590SOL    HW118211   0.476   6.854  12.300
 5590SOL    HW218212   0.580   6.950  12.381
 5591SOL     OW18213   1.555   7.097  11.875
 5591SOL    HW118214   1.498   7.081  11.956
 5591SOL    HW218215   1.496   7.107  11.795
 5592SOL     OW18216   1.135   6.289  11.889
 5592SOL    HW118217   1.192   6.367  11.864
 5592SOL    HW218218   1.075   6.315  11.965
 5593SOL     OW18219   1.755   6.193  11.403
 5593SOL    HW118220   1.743   6.180  11.304
 5593SOL    HW218221   1.725   6.112  11.452
 5594SOL     OW18222   0.768   6.730  12.195
 5594SOL    HW118223   0.690   6.747  12.255
 5594SOL    HW218224   0.802   6.817  12.159
 5595SOL     OW18225   0.685   6.598  11.837
 5595SOL    HW118226   0.754   6.582  11.907
 5595SOL    HW218227   0.612   6.655  11.875
 5596SOL     OW18228   0.335   7.021  12.233
 5596SOL    HW118229   0.257   6.990  12.180
 5596SOL    HW218230   0.393   7.079  12.176
 5597SOL     OW18231   1.603   6.033  11.909
 5597SOL    HW118232   1.529   6.079  11.859
 5597SOL    HW218233   1.654   6.101  11.962
 5598SOL     OW18234   0.231   7.299  11.655
 5598SOL    HW118235   0.265   7.376  11.709
 5598SOL    HW218236   0.275   7.299  11.565
 5599SOL     OW18237   0.230   7.020  11.710
 5599SOL    HW118238   0.204   7.116  11.710
 5599SOL    HW218239   0.159   6.966  11.755
 5600SOL     OW18240   0.240   6.677  12.058
 5600SOL    HW118241   0.254   6.593  12.110
 5600SOL    HW218242   0.185   6.741  12.113
 5601SOL     OW18243   0.606   6.550  11.295
 5601SOL    HW118244   0.613   6.634  11.241
 5601SOL    HW218245   0.652   6.563  11.383
 5602SOL     OW18246   0.122   6.229  11.735
 5602SOL    HW118247   0.077   6.141  11.752
 5602SOL    HW218248   0.121   6.283  11.819
 5603SOL     OW18249   1.842   7.353  11.531
 5603SOL    HW118250   1.896   7.324  11.611
 5603SOL    HW218251   1.872   7.443  11.502
 5604SOL     OW18252   0.027   7.182  11.289
 5604SOL    HW118253   0.008   7.086  11.310
 5604SOL    HW218254  -0.006   7.240  11.364
 5605SOL     OW18255   1.689   6.508  11.784
 5605SOL    HW118256   1.784   6.479  11.792
 5605SOL    HW218257   1.681   6.573  11.709
 5606SOL     OW18258   1.641   6.694  11.604
 5606SOL    HW118259   1.727   6.696  11.552
 5606SOL    HW218260   1.655   6.741  11.692
 5607SOL     OW18261   0.113   6.323  12.769
 5607SOL    HW118262   0.201   6.310  12.814
 5607SOL    HW218263   0.100   6.420  12.747
 5608SOL     OW18264   0.613   6.951  11.898
 5608SOL    HW118265   0.564   6.864  11.907
 5608SOL    HW218266   0.590   6.994  11.811
 5609SOL     OW18267   0.809   5.590  11.674
 5609SOL    HW118268   0.849   5.681  11.665
 5609SOL    HW218269   0.709   5.598  11.680
 5610SOL     OW18270   0.197   6.562  12.436
 5610SOL    HW118271   0.286   6.517  12.422
 5610SOL    HW218272   0.124   6.497  12.417
 5611SOL     OW18273   1.525   6.585  11.362
 5611SOL    HW118274   1.462   6.509  11.375
 5611SOL    HW218275   1.573   6.603  11.448
 5612SOL     OW18276   1.466   7.003  12.125
 5612SOL    HW118277   1.407   7.009  12.205
 5612SOL    HW218278   1.451   6.915  12.079
 5613SOL     OW18279   1.667   7.300  11.744
 5613SOL    HW118280   1.626   7.277  11.656
 5613SOL    HW218281   1.649   7.226  11.809
 5614SOL     OW18282   0.598   6.315  11.442
 5614SOL    HW118283   0.622   6.384  11.374
 5614SOL    HW218284   0.520   6.348  11.496
 5615SOL     OW18285   1.281   5.931  12.116
 5615SOL    HW118286   1.195   5.881  12.103
 5615SOL    HW218287   1.343   5.877  12.172
 5616SOL     OW18288   1.576   7.248  11.479
 5616SOL    HW118289   1.665   7.294  11.482
 5616SOL    HW218290   1.555   7.224  11.384
 5617SOL     OW18291   0.991   5.996  12.414
 5617SOL    HW118292   0.914   6.030  12.468
 5617SOL    HW218293   0.957   5.945  12.335
 5618SOL     OW18294   1.041   6.287  11.601
 5618SOL    HW118295   1.067   6.283  11.697
 5618SOL    HW218296   0.956   6.236  11.587
 5619SOL     OW18297   0.076   6.397  11.961
 5619SOL    HW118298   0.175   6.385  11.970
 5619SOL    HW218299   0.052   6.492  11.982
 5620SOL     OW18300   0.130   7.407  12.743
 5620SOL    HW118301   0.120   7.392  12.842
 5620SOL    HW218302   0.044   7.443  12.707
 5621SOL     OW18303   0.865   5.934  11.367
 5621SOL    HW118304   0.924   5.997  11.318
 5621SOL    HW218305   0.884   5.840  11.338
 5622SOL     OW18306   1.362   6.730  11.717
 5622SOL    HW118307   1.445   6.701  11.669
 5622SOL    HW218308   1.313   6.797  11.661
 5623SOL     OW18309   0.550   5.782  12.057
 5623SOL    HW118310   0.545   5.777  12.157
 5623SOL    HW218311   0.552   5.878  12.028
 5624SOL     OW18312   1.008   7.042  11.649
 5624SOL    HW118313   0.962   7.114  11.597
 5624SOL    HW218314   1.004   7.062  11.747
 5625SOL     OW18315   0.351   7.387  12.025
 5625SOL    HW118316   0.401   7.301  12.031
 5625SOL    HW218317   0.416   7.464  12.022
 5626SOL     OW18318   1.795   6.652  12.045
 5626SOL    HW118319   1.733   6.637  11.969
 5626SOL    HW218320   1.743   6.663  12.130
 5627SOL     OW18321   0.321   6.529  11.414
 5627SOL    HW118322   0.403   6.568  11.372
 5627SOL    HW218323   0.294   6.447  11.365
 5628SOL     OW18324   1.458   6.321  11.900
 5628SOL    HW118325   1.453   6.256  11.975
 5628SOL    HW218326   1.538   6.380  11.913
 5629SOL     OW18327   1.111   7.362  11.409
 5629SOL    HW118328   1.051   7.300  11.459
 5629SOL    HW218329   1.142   7.318  11.324
 5630SOL     OW18330   1.632   6.963  11.253
 5630SOL    HW118331   1.600   7.057  11.243
 5630SOL    HW218332   1.556   6.900  11.241
 5631SOL     OW18333   0.464   7.329  11.495
 5631SOL    HW118334   0.497   7.368  11.581
 5631SOL    HW218335   0.540   7.322  11.430
 5632SOL     OW18336   1.400   5.693  11.598
 5632SOL    HW118337   1.376   5.656  11.508
 5632SOL    HW218338   1.499   5.709  11.602
 5633SOL     OW18339   0.249   7.371  12.413
 5633SOL    HW118340   0.306   7.306  12.463
 5633SOL    HW218341   0.233   7.338  12.320
 5634SOL     OW18342   0.940   7.284  12.076
 5634SOL    HW118343   1.020   7.227  12.097
 5634SOL    HW218344   0.891   7.244  11.999
 5635SOL     OW18345   0.382   6.286  11.652
 5635SOL    HW118346   0.427   6.196  11.649
 5635SOL    HW218347   0.288   6.275  11.685
 5636SOL     OW18348   0.614   5.708  11.289
 5636SOL    HW118349   0.712   5.686  11.296
 5636SOL    HW218350   0.583   5.691  11.196
 5637SOL     OW18351   0.803   6.988  12.096
 5637SOL    HW118352   0.893   7.002  12.054
 5637SOL    HW218353   0.732   6.990  12.025
 5638SOL     OW18354   0.922   6.089  12.071
 5638SOL    HW118355   0.897   6.080  11.975
 5638SOL    HW218356   0.970   6.007  12.102
 5639SOL     OW18357   0.539   5.650  11.684
 5639SOL    HW118358   0.458   5.651  11.742
 5639SOL    HW218359   0.542   5.733  11.629
 5640SOL     OW18360   1.434   6.774  11.213
 5640SOL    HW118361   1.466   6.698  11.270
 5640SOL    HW218362   1.342   6.801  11.243
 5641SOL     OW18363   0.297   5.621  11.343
 5641SOL    HW118364   0.346   5.705  11.322
 5641SOL    HW218365   0.359   5.556  11.388
 5642SOL     OW18366   0.935   5.822  11.652
 5642SOL    HW118367   0.887   5.863  11.574
 5642SOL    HW218368   1.034   5.820  11.633
 5643SOL     OW18369   1.227   7.156  11.965
 5643SOL    HW118370   1.248   7.230  11.900
 5643SOL    HW218371   1.295   7.156  12.038
 5644SOL     OW18372   0.459   6.738  11.913
 5644SOL    HW118373   0.388   6.711  11.978
 5644SOL    HW218374   0.433   6.710  11.820
 5645SOL     OW18375   1.271   7.383  11.763
 5645SOL    HW118376   1.315   7.447  11.699
 5645SOL    HW218377   1.221   7.435  11.833
 5646SOL     OW18378   1.032   6.135  11.188
 5646SOL    HW118379   0.991   6.217  11.149
 5646SOL    HW218380   1.096   6.161  11.261
 5647SOL     OW18381   0.561   5.808  12.319
 5647SOL    HW118382   0.599   5.724  12.356
 5647SOL    HW218383   0.473   5.827  12.363
 5648SOL     OW18384   0.866   6.040  11.814
 5648SOL    HW118385   0.834   6.112  11.752
 5648SOL    HW218386   0.890   5.959  11.761
 5649SOL     OW18387   1.017   5.625  11.925
 5649SOL    HW118388   0.945   5.630  11.856
 5649SOL    HW218389   0.993   5.556  11.994
 5650SOL     OW18390   1.429   6.759  12.039
 5650SOL    HW118391   1.374   6.675  12.032
 5650SOL    HW218392   1.455   6.788  11.947
 5651SOL     OW18393   1.466   6.176  12.164
 5651SOL    HW118394   1.436   6.081  12.171
 5651SOL    HW218395   1.539   6.192  12.230
 5652SOL     OW18396   1.857   6.419  11.549
 5652SOL    HW118397   1.899   6.355  11.613
 5652SOL    HW218398   1.819   6.368  11.471
 5653SOL     OW18399   0.488   6.971  11.346
 5653SOL    HW118400   0.401   6.956  11.393
 5653SOL    HW218401   0.471   6.997  11.251
 5654SOL     OW18402   1.664   6.866  11.829
 5654SOL    HW118403   1.763   6.874  11.843
 5654SOL    HW218404   1.619   6.950  11.860
 5655SOL     OW18405   1.390   6.161  11.250
 5655SOL    HW118406   1.336   6.140  11.331
 5655SOL    HW218407   1.481   6.120  11.259
 5656SOL     OW18408   0.527   5.842  11.500
 5656SOL    HW118409   0.554   5.783  11.425
 5656SOL    HW218410   0.527   5.937  11.469
 5657SOL     OW18411   1.111   6.781  12.272
 5657SOL    HW118412   1.071   6.825  12.353
 5657SOL    HW218413   1.070   6.818  12.189
 5658SOL     OW18414   1.638   6.685  12.251
 5658SOL    HW118415   1.643   6.766  12.310
 5658SOL    HW218416   1.552   6.687  12.200
 5659SOL     OW18417   0.705   6.636  11.540
 5659SOL    HW118418   0.691   6.643  11.639
 5659SOL    HW218419   0.789   6.585  11.522
 5660SOL     OW18420   0.410   6.399  12.423
 5660SOL    HW118421   0.496   6.411  12.473
 5660SOL    HW218422   0.368   6.312  12.450
 5661SOL     OW18423   1.274   5.972  12.434
 5661SOL    HW118424   1.295   6.046  12.498
 5661SOL    HW218425   1.185   5.989  12.391
 5662SOL     OW18426   0.367   6.686  11.673
 5662SOL    HW118427   0.360   6.769  11.617
 5662SOL    HW218428   0.371   6.606  11.613
 5663SOL     OW18429   0.566   6.123  12.037
 5663SOL    HW118430   0.578   6.189  11.963
 5663SOL    HW218431   0.612   6.157  12.120
 5664SOL     OW18432   1.252   6.934  11.560
 5664SOL    HW118433   1.302   7.011  11.600
 5664SOL    HW218434   1.157   6.936  11.592
 5665SOL     OW18435   1.272   7.031  12.314
 5665SOL    HW118436   1.319   7.044  12.401
 5665SOL    HW218437   1.206   6.957  12.323
 5666SOL     OW18438   1.582   6.225  11.644
 5666SOL    HW118439   1.551   6.286  11.717
 5666SOL    HW218440   1.632   6.277  11.575
 5667SOL     OW18441   0.354   7.096  12.501
 5667SOL    HW118442   0.333   7.052  12.414
 5667SOL    HW218443   0.451   7.122  12.504
 5668SOL     OW18444   0.573   6.456  12.201
 5668SOL    HW118445   0.617   6.545  12.192
 5668SOL    HW218446   0.510   6.456  12.278
 5669SOL     OW18447   1.360   6.448  12.217
 5669SOL    HW118448   1.285   6.448  12.151
 5669SOL    HW218449   1.397   6.356  12.226
 5670SOL     OW18450   1.209   6.111  11.447
 5670SOL    HW118451   1.222   6.027  11.501
 5670SOL    HW218452   1.180   6.185  11.507
 5671SOL     OW18453   0.307   5.799  12.403
 5671SOL    HW118454   0.284   5.836  12.493
 5671SOL    HW218455   0.277   5.704  12.397
 5672SOL     OW18456   0.037   6.896  12.454
 5672SOL    HW118457   0.090   6.847  12.522
 5672SOL    HW218458   0.059   6.994  12.459
 5673SOL     OW18459   0.732   6.220  12.236
 5673SOL    HW118460   0.791   6.194  12.160
 5673SOL    HW218461   0.704   6.316  12.225
 5674SOL     OW18462   0.307   5.649  11.790
 5674SOL    HW118463   0.296   5.743  11.823
 5674SOL    HW218464   0.302   5.586  11.867
 5675SOL     OW18465   1.622   5.953  11.546
 5675SOL    HW118466   1.624   5.877  11.610
 5675SOL    HW218467   1.574   6.030  11.586
 5676SOL     OW18468   1.023   6.352  12.138
 5676SOL    HW118469   1.038   6.373  12.234
 5676SOL    HW218470   0.993   6.257  12.129
 5677SOL     OW18471   1.540   5.860  11.297
 5677SOL    HW118472   1.479   5.785  11.320
 5677SOL    HW218473   1.562   5.912  11.380
 5678SOL     OW18474   1.303   6.424  11.214
 5678SOL    HW118475   1.337   6.331  11.229
 5678SOL    HW218476   1.321   6.451  11.119
 5679SOL     OW18477   1.068   6.919  12.021
 5679SOL    HW118478   1.075   6.835  11.966
 5679SOL    HW218479   1.130   6.988  11.985
 5680SOL     OW18480   0.319   6.396  12.121
 5680SOL    HW118481   0.412   6.432  12.126
 5680SOL    HW218482   0.313   6.311  12.173
 5681SOL     OW18483   0.339   6.095  12.178
 5681SOL    HW118484   0.287   6.012  12.161
 5681SOL    HW218485   0.416   6.100  12.114
 5682SOL     OW18486   1.160   5.793  12.649
 5682SOL    HW118487   1.160   5.857  12.726
 5682SOL    HW218488   1.188   5.841  12.566
 5683SOL     OW18489   0.008   6.912  11.372
 5683SOL    HW118490  -0.085   6.933  11.341
 5683SOL    HW218491   0.018   6.813  11.385
 5684SOL     OW18492   0.088   7.387  12.099
 5684SOL    HW118493   0.046   7.301  12.072
 5684SOL    HW218494   0.182   7.390  12.065
 5685SOL     OW18495   0.504   7.154  12.082
 5685SOL    HW118496   0.570   7.228  12.091
 5685SOL    HW218497   0.548   7.075  12.040
 5686SOL     OW18498   1.002   6.382  12.410
 5686SOL    HW118499   1.043   6.350  12.496
 5686SOL    HW218500   0.906   6.355  12.407
 5687SOL     OW18501   0.040   6.130  12.286
 5687SOL    HW118502   0.125   6.097  12.245
 5687SOL    HW218503   0.053   6.145  12.384
 5688SOL     OW18504   0.815   6.158  11.497
 5688SOL    HW118505   0.822   6.069  11.451
 5688SOL    HW218506   0.721   6.192  11.489
 5689SOL     OW18507   1.657   6.190  12.378
 5689SOL    HW118508   1.619   6.121  12.440
 5689SOL    HW218509   1.739   6.154  12.334
 5690SOL     OW18510   0.671   6.050  12.441
 5690SOL    HW118511   0.637   5.961  12.411
 5690SOL    HW218512   0.697   6.104  12.361
 5691SOL     OW18513   0.930   7.264  12.637
 5691SOL    HW118514   0.906   7.246  12.542
 5691SOL    HW218515   0.960   7.358  12.647
 5692SOL     OW18516   0.473   6.086  11.363
 5692SOL    HW118517   0.534   6.166  11.367
 5692SOL    HW218518   0.378   6.117  11.370
 5693SOL     OW18519   1.347   6.645  12.406
 5693SOL    HW118520   1.371   6.582  12.332
 5693SOL    HW218521   1.257   6.685  12.388
 5694SOL     OW18522   1.302   6.441  11.481
 5694SOL    HW118523   1.216   6.410  11.523
 5694SOL    HW218524   1.298   6.427  11.382
 5695SOL     OW18525   1.759   7.333  12.326
 5695SOL    HW118526   1.820   7.363  12.253
 5695SOL    HW218527   1.721   7.244  12.304
 5696SOL     OW18528   1.252   7.317  12.300
 5696SOL    HW118529   1.336   7.322  12.246
 5696SOL    HW218530   1.229   7.221  12.318
 5697SOL     OW18531   0.083   6.844  12.194
 5697SOL    HW118532   0.078   6.843  12.294
 5697SOL    HW218533   0.000   6.803  12.156
 5698SOL     OW18534   1.726   5.721  11.695
 5698SOL    HW118535   1.799   5.704  11.628
 5698SOL    HW218536   1.695   5.634  11.733
 5699SOL     OW18537   1.388   7.159  11.649
 5699SOL    HW118538   1.455   7.171  11.575
 5699SOL    HW218539   1.348   7.248  11.672
 5700SOL     OW18540   1.280   6.513  11.844
 5700SOL    HW118541   1.340   6.432  11.846
 5700SOL    HW218542   1.320   6.582  11.784
 5701SOL     OW18543   0.672   7.202  11.326
 5701SOL    HW118544   0.681   7.212  11.227
 5701SOL    HW218545   0.632   7.113  11.347
 5702SOL     OW18546   1.650   7.306  12.566
 5702SOL    HW118547   1.703   7.316  12.482
 5702SOL    HW218548   1.623   7.396  12.600
 5703SOL     OW18549   1.841   5.761  12.135
 5703SOL    HW118550   1.880   5.676  12.099
 5703SOL    HW218551   1.743   5.763  12.116
 5704SOL     OW18552   0.263   5.912  11.892
 5704SOL    HW118553   0.184   5.963  11.858
 5704SOL    HW218554   0.254   5.897  11.990
 5705SOL     OW18555   1.194   7.198  11.203
 5705SOL    HW118556   1.200   7.105  11.240
 5705SOL    HW218557   1.135   7.198  11.123
 5706SOL     OW18558   0.822   6.588  12.544
 5706SOL    HW118559   0.862   6.587  12.452
 5706SOL    HW218560   0.832   6.680  12.584
 5707SOL     OW18561   0.916   6.496  11.463
 5707SOL    HW118562   0.979   6.534  11.395
 5707SOL    HW218563   0.956   6.413  11.502
 5708SOL     OW18564   1.504   7.193  11.216
 5708SOL    HW118565   1.412   7.230  11.223
 5708SOL    HW218566   1.542   7.213  11.126
 5709SOL     OW18567   1.039   6.684  11.868
 5709SOL    HW118568   0.969   6.637  11.922
 5709SOL    HW218569   1.098   6.616  11.825
 5710SOL     OW18570   1.014   5.822  12.143
 5710SOL    HW118571   1.006   5.786  12.050
 5710SOL    HW218572   1.012   5.746  12.208
 5711SOL     OW18573   0.590   7.073  11.663
 5711SOL    HW118574   0.632   7.015  11.593
 5711SOL    HW218575   0.546   7.152  11.619
 5712SOL     OW18576   1.709   5.971  12.553
 5712SOL    HW118577   1.782   6.040  12.557
 5712SOL    HW218578   1.737   5.896  12.494
 5713SOL     OW18579   0.255   6.934  11.462
 5713SOL    HW118580   0.159   6.935  11.435
 5713SOL    HW218581   0.267   6.987  11.546
 5714SOL     OW18582   0.075   5.931  11.205
 5714SOL    HW118583  -0.017   5.903  11.176
 5714SOL    HW218584   0.106   6.008  11.149
 5715SOL     OW18585   0.072   5.752  11.490
 5715SOL    HW118586   0.055   5.835  11.436
 5715SOL    HW218587   0.162   5.715  11.468
 5716SOL     OW18588   1.183   6.921  11.291
 5716SOL    HW118589   1.084   6.910  11.293
 5716SOL    HW218590   1.217   6.936  11.384
 5717SOL     OW18591   1.493   7.353  12.131
 5717SOL    HW118592   1.526   7.417  12.062
 5717SOL    HW218593   1.559   7.347  12.206
 5718SOL     OW18594   1.674   6.469  12.426
 5718SOL    HW118595   1.647   6.380  12.389
 5718SOL    HW218596   1.675   6.537  12.353
 5719SOL     OW18597   1.225   5.911  11.621
 5719SOL    HW118598   1.290   5.837  11.610
 5719SOL    HW218599   1.245   5.961  11.705
 5720SOL     OW18600   0.594   6.331  11.824
 5720SOL    HW118601   0.644   6.416  11.805
 5720SOL    HW218602   0.506   6.333  11.776
 5721SOL     OW18603   1.730   6.520  12.689
 5721SOL    HW118604   1.768   6.611  12.704
 5721SOL    HW218605   1.722   6.503  12.590
 5722SOL     OW18606   0.859   6.960  11.188
 5722SOL    HW118607   0.813   6.975  11.276
 5722SOL    HW218608   0.903   7.045  11.158
 5723SOL     OW18609   0.661   7.376  12.125
 5723SOL    HW118610   0.615   7.464  12.112
 5723SOL    HW218611   0.760   7.388  12.118
 5724SOL     OW18612   0.859   6.542  12.033
 5724SOL    HW118613   0.913   6.473  12.081
 5724SOL    HW218614   0.827   6.611  12.099
 5725SOL     OW18615   1.083   6.570  11.259
 5725SOL    HW118616   1.060   6.623  11.177
 5725SOL    HW218617   1.164   6.514  11.240
 5726SOL     OW18618   1.861   7.155  12.023
 5726SOL    HW118619   1.790   7.143  11.953
 5726SOL    HW218620   1.862   7.076  12.083
 5727SOL     OW18621   0.079   6.826  11.825
 5727SOL    HW118622   0.078   6.779  11.913
 5727SOL    HW218623   0.161   6.798  11.774
 5728SOL     OW18624   1.824   5.778  12.399
 5728SOL    HW118625   1.820   5.688  12.443
 5728SOL    HW218626   1.827   5.767  12.300
 5729SOL     OW18627   0.428   6.010  11.692
 5729SOL    HW118628   0.458   5.938  11.630
 5729SOL    HW218629   0.389   5.970  11.775
 5730SOL     OW18630   1.705   7.073  12.276
 5730SOL    HW118631   1.612   7.048  12.249
 5730SOL    HW218632   1.731   7.023  12.358
 5731SOL     OW18633   0.812   7.172  11.859
 5731SOL    HW118634   0.844   7.182  11.765
 5731SOL    HW218635   0.733   7.110  11.861
 5732SOL     OW18636   1.424   5.800  12.284
 5732SOL    HW118637   1.476   5.735  12.339
 5732SOL    HW218638   1.375   5.863  12.345
 5733SOL     OW18639   1.001   5.620  12.326
 5733SOL    HW118640   0.938   5.548  12.295
 5733SOL    HW218641   1.094   5.584  12.326
 5734SOL     OW18642   0.770   6.916  11.473
 5734SOL    HW118643   0.724   6.829  11.490
 5734SOL    HW218644   0.861   6.913  11.514
 5735SOL     OW18645   1.352   5.638  11.340
 5735SOL    HW118646   1.387   5.597  11.256
 5735SOL    HW218647   1.262   5.600  11.360
 5736SOL     OW18648   1.300   6.039  11.863
 5736SOL    HW118649   1.241   6.119  11.867
 5736SOL    HW218650   1.315   6.004  11.956
 5737SOL     OW18651   1.593   5.807  12.054
 5737SOL    HW118652   1.509   5.806  12.108
 5737SOL    HW218653   1.595   5.890  11.998
 5738SOL     OW18654   0.039   6.663  11.472
 5738SOL    HW118655   0.138   6.652  11.463
 5738SOL    HW218656  -0.001   6.577  11.504
 5739SOL     OW18657   0.875   7.232  11.509
 5739SOL    HW118658   0.798   7.197  11.455
 5739SOL    HW218659   0.843   7.303  11.571
 5740SOL     OW18660   0.225   7.723   0.996
 5740SOL    HW118661   0.260   7.706   1.088
 5740SOL    HW218662   0.137   7.678   0.984
 5741SOL     OW18663   0.019   7.816   0.647
 5741SOL    HW118664  -0.063   7.859   0.686
 5741SOL    HW218665  -0.009   7.743   0.584
 5742SOL     OW18666   1.755   8.055   0.231
 5742SOL    HW118667   1.743   8.042   0.132
 5742SOL    HW218668   1.725   7.974   0.280
 5743SOL     OW18669   0.438   7.840   1.499
 5743SOL    HW118670   0.520   7.784   1.508
 5743SOL    HW218671   0.357   7.782   1.503
 5744SOL     OW18672   1.603   7.895   0.737
 5744SOL    HW118673   1.529   7.941   0.687
 5744SOL    HW218674   1.654   7.963   0.790
 5745SOL     OW18675   1.594   7.562   1.480
 5745SOL    HW118676   1.576   7.629   1.408
 5745SOL    HW218677   1.591   7.608   1.569
 5746SOL     OW18678   0.122   8.091   0.563
 5746SOL    HW118679   0.077   8.003   0.580
 5746SOL    HW218680   0.121   8.145   0.647
 5747SOL     OW18681   0.809   7.452   0.502
 5747SOL    HW118682   0.849   7.543   0.493
 5747SOL    HW218683   0.709   7.460   0.508
 5748SOL     OW18684   0.317   7.699   1.801
 5748SOL    HW118685   0.388   7.770   1.807
 5748SOL    HW218686   0.229   7.738   1.829
 5749SOL     OW18687   1.281   7.793   0.944
 5749SOL    HW118688   1.195   7.743   0.931
 5749SOL    HW218689   1.343   7.739   1.000
 5750SOL     OW18690   1.394   7.917   1.674
 5750SOL    HW118691   1.374   7.960   1.762
 5750SOL    HW218692   1.472   7.855   1.683
 5751SOL     OW18693   0.973   8.338   1.572
 5751SOL    HW118694   1.019   8.254   1.543
 5751SOL    HW218695   0.917   8.372   1.497
 5752SOL     OW18696   0.991   7.858   1.242
 5752SOL    HW118697   0.914   7.892   1.296
 5752SOL    HW218698   0.957   7.807   1.163
 5753SOL     OW18699   0.865   7.796   0.195
 5753SOL    HW118700   0.924   7.859   0.146
 5753SOL    HW218701   0.884   7.702   0.166
 5754SOL     OW18702   1.719   8.033   1.831
 5754SOL    HW118703   1.693   8.122   1.795
 5754SOL    HW218704   1.717   7.965   1.758
 5755SOL     OW18705   0.550   7.644   0.885
 5755SOL    HW118706   0.545   7.639   0.985
 5755SOL    HW218707   0.552   7.740   0.856
 5756SOL     OW18708   0.202   7.733   1.498
 5756SOL    HW118709   0.122   7.793   1.485
 5756SOL    HW218710   0.192   7.684   1.584
 5757SOL     OW18711   1.400   7.555   0.426
 5757SOL    HW118712   1.376   7.518   0.336
 5757SOL    HW218713   1.499   7.571   0.430
 5758SOL     OW18714   1.547   7.670   1.729
 5758SOL    HW118715   1.542   7.707   1.821
 5758SOL    HW218716   1.475   7.601   1.717
 5759SOL     OW18717   0.614   7.570   0.117
 5759SOL    HW118718   0.712   7.548   0.124
 5759SOL    HW218719   0.583   7.553   0.024
 5760SOL     OW18720   0.781   7.712   1.749
 5760SOL    HW118721   0.848   7.651   1.792
 5760SOL    HW218722   0.708   7.731   1.814
 5761SOL     OW18723   1.351   8.038   1.433
 5761SOL    HW118724   1.379   7.995   1.518
 5761SOL    HW218725   1.376   8.134   1.434
 5762SOL     OW18726   0.539   7.512   0.512
 5762SOL    HW118727   0.458   7.513   0.570
 5762SOL    HW218728   0.542   7.595   0.457
 5763SOL     OW18729   0.297   7.483   0.171
 5763SOL    HW118730   0.346   7.567   0.150
 5763SOL    HW218731   0.359   7.418   0.216
 5764SOL     OW18732   0.935   7.684   0.480
 5764SOL    HW118733   0.887   7.725   0.402
 5764SOL    HW218734   1.034   7.682   0.461
 5765SOL     OW18735   0.078   8.004   1.386
 5765SOL    HW118736   0.170   8.003   1.345
 5765SOL    HW218737   0.072   8.078   1.453
 5766SOL     OW18738   0.561   7.670   1.147
 5766SOL    HW118739   0.599   7.586   1.184
 5766SOL    HW218740   0.473   7.689   1.191
 5767SOL     OW18741   1.017   7.487   0.753
 5767SOL    HW118742   0.945   7.492   0.684
 5767SOL    HW218743   0.993   7.418   0.822
 5768SOL     OW18744   1.466   8.038   0.992
 5768SOL    HW118745   1.436   7.943   0.999
 5768SOL    HW218746   1.539   8.054   1.058
 5769SOL     OW18747   0.527   7.704   0.328
 5769SOL    HW118748   0.554   7.645   0.253
 5769SOL    HW218749   0.527   7.799   0.297
 5770SOL     OW18750   0.915   7.537   1.402
 5770SOL    HW118751   0.940   7.517   1.307
 5770SOL    HW218752   0.987   7.593   1.444
 5771SOL     OW18753   1.274   7.834   1.262
 5771SOL    HW118754   1.295   7.908   1.326
 5771SOL    HW218755   1.185   7.851   1.219
 5772SOL     OW18756   0.566   7.985   0.865
 5772SOL    HW118757   0.578   8.051   0.791
 5772SOL    HW218758   0.612   8.019   0.948
 5773SOL     OW18759   1.013   7.553   1.770
 5773SOL    HW118760   1.019   7.638   1.718
 5773SOL    HW218761   1.045   7.477   1.713
 5774SOL     OW18762   0.504   7.498   1.740
 5774SOL    HW118763   0.462   7.441   1.670
 5774SOL    HW218764   0.438   7.567   1.772
 5775SOL     OW18765   0.307   7.661   1.231
 5775SOL    HW118766   0.284   7.698   1.321
 5775SOL    HW218767   0.277   7.566   1.225
 5776SOL     OW18768   0.732   8.082   1.064
 5776SOL    HW118769   0.791   8.056   0.988
 5776SOL    HW218770   0.704   8.178   1.053
 5777SOL     OW18771   0.307   7.511   0.618
 5777SOL    HW118772   0.296   7.605   0.651
 5777SOL    HW218773   0.302   7.448   0.695
 5778SOL     OW18774   1.622   7.815   0.374
 5778SOL    HW118775   1.624   7.739   0.438
 5778SOL    HW218776   1.574   7.892   0.414
 5779SOL     OW18777   1.540   7.722   0.125
 5779SOL    HW118778   1.479   7.647   0.148
 5779SOL    HW218779   1.562   7.774   0.208
 5780SOL     OW18780   0.339   7.957   1.006
 5780SOL    HW118781   0.287   7.874   0.989
 5780SOL    HW218782   0.416   7.962   0.942
 5781SOL     OW18783   1.138   7.828   1.678
 5781SOL    HW118784   1.093   7.891   1.742
 5781SOL    HW218785   1.231   7.859   1.661
 5782SOL     OW18786   1.160   7.655   1.477
 5782SOL    HW118787   1.160   7.719   1.554
 5782SOL    HW218788   1.188   7.703   1.394
 5783SOL     OW18789   0.040   7.992   1.114
 5783SOL    HW118790   0.125   7.959   1.073
 5783SOL    HW218791   0.053   8.007   1.212
 5784SOL     OW18792   0.189   7.968   1.722
 5784SOL    HW118793   0.248   7.928   1.652
 5784SOL    HW218794   0.131   8.039   1.681
 5785SOL     OW18795   0.815   8.020   0.325
 5785SOL    HW118796   0.822   7.931   0.279
 5785SOL    HW218797   0.721   8.054   0.317
 5786SOL     OW18798   1.657   8.052   1.206
 5786SOL    HW118799   1.619   7.983   1.268
 5786SOL    HW218800   1.739   8.016   1.162
 5787SOL     OW18801   0.671   7.912   1.269
 5787SOL    HW118802   0.637   7.823   1.239
 5787SOL    HW218803   0.697   7.966   1.189
 5788SOL     OW18804   0.903   7.534   0.133
 5788SOL    HW118805   0.954   7.535   0.047
 5788SOL    HW218806   0.959   7.492   0.204
 5789SOL     OW18807   1.726   7.583   0.523
 5789SOL    HW118808   1.799   7.566   0.456
 5789SOL    HW218809   1.695   7.496   0.561
 5790SOL     OW18810   1.841   7.623   0.963
 5790SOL    HW118811   1.880   7.538   0.927
 5790SOL    HW218812   1.743   7.625   0.944
 5791SOL     OW18813   0.263   7.774   0.720
 5791SOL    HW118814   0.184   7.825   0.686
 5791SOL    HW218815   0.254   7.759   0.818
 5792SOL     OW18816   1.014   7.684   0.971
 5792SOL    HW118817   1.006   7.648   0.878
 5792SOL    HW218818   1.012   7.608   1.036
 5793SOL     OW18819   1.709   7.833   1.381
 5793SOL    HW118820   1.782   7.902   1.385
 5793SOL    HW218821   1.737   7.758   1.322
 5794SOL     OW18822   0.672   7.651   1.489
 5794SOL    HW118823   0.762   7.635   1.449
 5794SOL    HW218824   0.680   7.656   1.588
 5795SOL     OW18825   0.075   7.793   0.033
 5795SOL    HW118826  -0.017   7.765   0.004
 5795SOL    HW218827   0.106   7.870  -0.023
 5796SOL     OW18828   0.072   7.614   0.318
 5796SOL    HW118829   0.055   7.697   0.264
 5796SOL    HW218830   0.162   7.577   0.296
 5797SOL     OW18831   0.716   8.013   1.708
 5797SOL    HW118832   0.735   8.078   1.782
 5797SOL    HW218833   0.776   7.933   1.717
 5798SOL     OW18834   1.225   7.773   0.449
 5798SOL    HW118835   1.290   7.699   0.438
 5798SOL    HW218836   1.245   7.823   0.533
 5799SOL     OW18837   0.594   8.193   0.652
 5799SOL    HW118838   0.644   8.278   0.633
 5799SOL    HW218839   0.506   8.195   0.604
 5800SOL     OW18840   1.777   7.790   1.642
 5800SOL    HW118841   1.760   7.821   1.548
 5800SOL    HW218842   1.693   7.753   1.680
 5801SOL     OW18843   1.824   7.640   1.227
 5801SOL    HW118844   1.820   7.550   1.271
 5801SOL    HW218845   1.827   7.629   1.128
 5802SOL     OW18846   0.428   7.872   0.520
 5802SOL    HW118847   0.458   7.800   0.458
 5802SOL    HW218848   0.389   7.832   0.603
 5803SOL     OW18849   1.424   7.662   1.112
 5803SOL    HW118850   1.476   7.597   1.167
 5803SOL    HW218851   1.375   7.725   1.173
 5804SOL     OW18852   1.001   7.482   1.154
 5804SOL    HW118853   0.938   7.410   1.123
 5804SOL    HW218854   1.094   7.446   1.154
 5805SOL     OW18855   1.352   7.500   0.168
 5805SOL    HW118856   1.387   7.459   0.084
 5805SOL    HW218857   1.262   7.462   0.188
 5806SOL     OW18858   1.300   7.901   0.691
 5806SOL    HW118859   1.241   7.981   0.695
 5806SOL    HW218860   1.315   7.866   0.784
 5807SOL     OW18861   1.593   7.669   0.882
 5807SOL    HW118862   1.509   7.668   0.936
 5807SOL    HW218863   1.595   7.752   0.826
 5808SOL     OW18864   0.225   7.723   2.858
 5808SOL    HW118865   0.260   7.706   2.950
 5808SOL    HW218866   0.137   7.678   2.846
 5809SOL     OW18867   0.019   7.816   2.509
 5809SOL    HW118868  -0.063   7.859   2.548
 5809SOL    HW218869  -0.009   7.743   2.446
 5810SOL     OW18870   1.755   8.055   2.093
 5810SOL    HW118871   1.743   8.042   1.994
 5810SOL    HW218872   1.725   7.974   2.142
 5811SOL     OW18873   0.438   7.840   3.361
 5811SOL    HW118874   0.520   7.784   3.370
 5811SOL    HW218875   0.357   7.782   3.365
 5812SOL     OW18876   1.603   7.895   2.599
 5812SOL    HW118877   1.529   7.941   2.549
 5812SOL    HW218878   1.654   7.963   2.652
 5813SOL     OW18879   1.594   7.562   3.342
 5813SOL    HW118880   1.576   7.629   3.270
 5813SOL    HW218881   1.591   7.608   3.431
 5814SOL     OW18882   0.122   8.091   2.425
 5814SOL    HW118883   0.077   8.003   2.442
 5814SOL    HW218884   0.121   8.145   2.509
 5815SOL     OW18885   0.809   7.452   2.364
 5815SOL    HW118886   0.849   7.543   2.355
 5815SOL    HW218887   0.709   7.460   2.370
 5816SOL     OW18888   0.317   7.699   3.663
 5816SOL    HW118889   0.388   7.770   3.669
 5816SOL    HW218890   0.229   7.738   3.691
 5817SOL     OW18891   1.281   7.793   2.806
 5817SOL    HW118892   1.195   7.743   2.793
 5817SOL    HW218893   1.343   7.739   2.862
 5818SOL     OW18894   1.394   7.917   3.536
 5818SOL    HW118895   1.374   7.960   3.624
 5818SOL    HW218896   1.472   7.855   3.545
 5819SOL     OW18897   0.973   8.338   3.434
 5819SOL    HW118898   1.019   8.254   3.405
 5819SOL    HW218899   0.917   8.372   3.359
 5820SOL     OW18900   0.991   7.858   3.104
 5820SOL    HW118901   0.914   7.892   3.158
 5820SOL    HW218902   0.957   7.807   3.025
 5821SOL     OW18903   0.865   7.796   2.057
 5821SOL    HW118904   0.924   7.859   2.008
 5821SOL    HW218905   0.884   7.702   2.028
 5822SOL     OW18906   1.719   8.033   3.693
 5822SOL    HW118907   1.693   8.122   3.657
 5822SOL    HW218908   1.717   7.965   3.620
 5823SOL     OW18909   0.550   7.644   2.747
 5823SOL    HW118910   0.545   7.639   2.847
 5823SOL    HW218911   0.552   7.740   2.718
 5824SOL     OW18912   0.202   7.733   3.360
 5824SOL    HW118913   0.122   7.793   3.347
 5824SOL    HW218914   0.192   7.684   3.446
 5825SOL     OW18915   1.400   7.555   2.288
 5825SOL    HW118916   1.376   7.518   2.198
 5825SOL    HW218917   1.499   7.571   2.292
 5826SOL     OW18918   1.547   7.670   3.591
 5826SOL    HW118919   1.542   7.707   3.683
 5826SOL    HW218920   1.475   7.601   3.579
 5827SOL     OW18921   0.614   7.570   1.979
 5827SOL    HW118922   0.712   7.548   1.986
 5827SOL    HW218923   0.583   7.553   1.886
 5828SOL     OW18924   0.781   7.712   3.611
 5828SOL    HW118925   0.848   7.651   3.654
 5828SOL    HW218926   0.708   7.731   3.676
 5829SOL     OW18927   1.351   8.038   3.295
 5829SOL    HW118928   1.379   7.995   3.380
 5829SOL    HW218929   1.376   8.134   3.296
 5830SOL     OW18930   0.539   7.512   2.374
 5830SOL    HW118931   0.458   7.513   2.432
 5830SOL    HW218932   0.542   7.595   2.319
 5831SOL     OW18933   0.297   7.483   2.033
 5831SOL    HW118934   0.346   7.567   2.012
 5831SOL    HW218935   0.359   7.418   2.078
 5832SOL     OW18936   0.935   7.684   2.342
 5832SOL    HW118937   0.887   7.725   2.264
 5832SOL    HW218938   1.034   7.682   2.323
 5833SOL     OW18939   0.078   8.004   3.248
 5833SOL    HW118940   0.170   8.003   3.207
 5833SOL    HW218941   0.072   8.078   3.315
 5834SOL     OW18942   0.561   7.670   3.009
 5834SOL    HW118943   0.599   7.586   3.046
 5834SOL    HW218944   0.473   7.689   3.053
 5835SOL     OW18945   1.017   7.487   2.615
 5835SOL    HW118946   0.945   7.492   2.546
 5835SOL    HW218947   0.993   7.418   2.684
 5836SOL     OW18948   1.466   8.038   2.854
 5836SOL    HW118949   1.436   7.943   2.861
 5836SOL    HW218950   1.539   8.054   2.920
 5837SOL     OW18951   0.527   7.704   2.190
 5837SOL    HW118952   0.554   7.645   2.115
 5837SOL    HW218953   0.527   7.799   2.159
 5838SOL     OW18954   0.915   7.537   3.264
 5838SOL    HW118955   0.940   7.517   3.169
 5838SOL    HW218956   0.987   7.593   3.306
 5839SOL     OW18957   1.274   7.834   3.124
 5839SOL    HW118958   1.295   7.908   3.188
 5839SOL    HW218959   1.185   7.851   3.081
 5840SOL     OW18960   0.566   7.985   2.727
 5840SOL    HW118961   0.578   8.051   2.653
 5840SOL    HW218962   0.612   8.019   2.810
 5841SOL     OW18963   1.013   7.553   3.632
 5841SOL    HW118964   1.019   7.638   3.580
 5841SOL    HW218965   1.045   7.477   3.575
 5842SOL     OW18966   0.504   7.498   3.602
 5842SOL    HW118967   0.462   7.441   3.532
 5842SOL    HW218968   0.438   7.567   3.634
 5843SOL     OW18969   0.307   7.661   3.093
 5843SOL    HW118970   0.284   7.698   3.183
 5843SOL    HW218971   0.277   7.566   3.087
 5844SOL     OW18972   0.732   8.082   2.926
 5844SOL    HW118973   0.791   8.056   2.850
 5844SOL    HW218974   0.704   8.178   2.915
 5845SOL     OW18975   0.307   7.511   2.480
 5845SOL    HW118976   0.296   7.605   2.513
 5845SOL    HW218977   0.302   7.448   2.557
 5846SOL     OW18978   1.622   7.815   2.236
 5846SOL    HW118979   1.624   7.739   2.300
 5846SOL    HW218980   1.574   7.892   2.276
 5847SOL     OW18981   1.540   7.722   1.987
 5847SOL    HW118982   1.479   7.647   2.010
 5847SOL    HW218983   1.562   7.774   2.070
 5848SOL     OW18984   1.303   8.286   1.904
 5848SOL    HW118985   1.337   8.193   1.919
 5848SOL    HW218986   1.321   8.313   1.809
 5849SOL     OW18987   0.339   7.957   2.868
 5849SOL    HW118988   0.287   7.874   2.851
 5849SOL    HW218989   0.416   7.962   2.804
 5850SOL     OW18990   1.138   7.828   3.540
 5850SOL    HW118991   1.093   7.891   3.604
 5850SOL    HW218992   1.231   7.859   3.523
 5851SOL     OW18993   1.160   7.655   3.339
 5851SOL    HW118994   1.160   7.719   3.416
 5851SOL    HW218995   1.188   7.703   3.256
 5852SOL     OW18996   0.040   7.992   2.976
 5852SOL    HW118997   0.125   7.959   2.935
 5852SOL    HW218998   0.053   8.007   3.074
 5853SOL     OW18999   0.189   7.968   3.584
 5853SOL    HW119000   0.248   7.928   3.514
 5853SOL    HW219001   0.131   8.039   3.543
 5854SOL     OW19002   0.815   8.020   2.187
 5854SOL    HW119003   0.822   7.931   2.141
 5854SOL    HW219004   0.721   8.054   2.179
 5855SOL     OW19005   1.657   8.052   3.068
 5855SOL    HW119006   1.619   7.983   3.130
 5855SOL    HW219007   1.739   8.016   3.024
 5856SOL     OW19008   0.671   7.912   3.131
 5856SOL    HW119009   0.637   7.823   3.101
 5856SOL    HW219010   0.697   7.966   3.051
 5857SOL     OW19011   1.726   7.583   2.385
 5857SOL    HW119012   1.799   7.566   2.318
 5857SOL    HW219013   1.695   7.496   2.423
 5858SOL     OW19014   1.841   7.623   2.825
 5858SOL    HW119015   1.880   7.538   2.789
 5858SOL    HW219016   1.743   7.625   2.806
 5859SOL     OW19017   0.263   7.774   2.582
 5859SOL    HW119018   0.184   7.825   2.548
 5859SOL    HW219019   0.254   7.759   2.680
 5860SOL     OW19020   1.014   7.684   2.833
 5860SOL    HW119021   1.006   7.648   2.740
 5860SOL    HW219022   1.012   7.608   2.898
 5861SOL     OW19023   1.709   7.833   3.243
 5861SOL    HW119024   1.782   7.902   3.247
 5861SOL    HW219025   1.737   7.758   3.184
 5862SOL     OW19026   0.672   7.651   3.351
 5862SOL    HW119027   0.762   7.635   3.311
 5862SOL    HW219028   0.680   7.656   3.450
 5863SOL     OW19029   0.075   7.793   1.895
 5863SOL    HW119030  -0.017   7.765   1.866
 5863SOL    HW219031   0.106   7.870   1.839
 5864SOL     OW19032   0.072   7.614   2.180
 5864SOL    HW119033   0.055   7.697   2.126
 5864SOL    HW219034   0.162   7.577   2.158
 5865SOL     OW19035   0.716   8.013   3.570
 5865SOL    HW119036   0.735   8.078   3.644
 5865SOL    HW219037   0.776   7.933   3.579
 5866SOL     OW19038   1.225   7.773   2.311
 5866SOL    HW119039   1.290   7.699   2.300
 5866SOL    HW219040   1.245   7.823   2.395
 5867SOL     OW19041   0.594   8.193   2.514
 5867SOL    HW119042   0.644   8.278   2.495
 5867SOL    HW219043   0.506   8.195   2.466
 5868SOL     OW19044   1.777   7.790   3.504
 5868SOL    HW119045   1.760   7.821   3.410
 5868SOL    HW219046   1.693   7.753   3.542
 5869SOL     OW19047   1.824   7.640   3.089
 5869SOL    HW119048   1.820   7.550   3.133
 5869SOL    HW219049   1.827   7.629   2.990
 5870SOL     OW19050   0.428   7.872   2.382
 5870SOL    HW119051   0.458   7.800   2.320
 5870SOL    HW219052   0.389   7.832   2.465
 5871SOL     OW19053   1.424   7.662   2.974
 5871SOL    HW119054   1.476   7.597   3.029
 5871SOL    HW219055   1.375   7.725   3.035
 5872SOL     OW19056   1.001   7.482   3.016
 5872SOL    HW119057   0.938   7.410   2.985
 5872SOL    HW219058   1.094   7.446   3.016
 5873SOL     OW19059   1.352   7.500   2.030
 5873SOL    HW119060   1.387   7.459   1.946
 5873SOL    HW219061   1.262   7.462   2.050
 5874SOL     OW19062   1.300   7.901   2.553
 5874SOL    HW119063   1.241   7.981   2.557
 5874SOL    HW219064   1.315   7.866   2.646
 5875SOL     OW19065   1.593   7.669   2.744
 5875SOL    HW119066   1.509   7.668   2.798
 5875SOL    HW219067   1.595   7.752   2.688
 5876SOL     OW19068   0.225   7.723   4.720
 5876SOL    HW119069   0.260   7.706   4.812
 5876SOL    HW219070   0.137   7.678   4.708
 5877SOL     OW19071   0.019   7.816   4.371
 5877SOL    HW119072  -0.063   7.859   4.410
 5877SOL    HW219073  -0.009   7.743   4.308
 5878SOL     OW19074   1.755   8.055   3.955
 5878SOL    HW119075   1.743   8.042   3.856
 5878SOL    HW219076   1.725   7.974   4.004
 5879SOL     OW19077   0.438   7.840   5.223
 5879SOL    HW119078   0.520   7.784   5.232
 5879SOL    HW219079   0.357   7.782   5.227
 5880SOL     OW19080   1.603   7.895   4.461
 5880SOL    HW119081   1.529   7.941   4.411
 5880SOL    HW219082   1.654   7.963   4.514
 5881SOL     OW19083   1.594   7.562   5.204
 5881SOL    HW119084   1.576   7.629   5.132
 5881SOL    HW219085   1.591   7.608   5.293
 5882SOL     OW19086   0.122   8.091   4.287
 5882SOL    HW119087   0.077   8.003   4.304
 5882SOL    HW219088   0.121   8.145   4.371
 5883SOL     OW19089   0.809   7.452   4.226
 5883SOL    HW119090   0.849   7.543   4.217
 5883SOL    HW219091   0.709   7.460   4.232
 5884SOL     OW19092   0.317   7.699   5.525
 5884SOL    HW119093   0.388   7.770   5.531
 5884SOL    HW219094   0.229   7.738   5.553
 5885SOL     OW19095   1.281   7.793   4.668
 5885SOL    HW119096   1.195   7.743   4.655
 5885SOL    HW219097   1.343   7.739   4.724
 5886SOL     OW19098   1.394   7.917   5.398
 5886SOL    HW119099   1.374   7.960   5.486
 5886SOL    HW219100   1.472   7.855   5.407
 5887SOL     OW19101   0.973   8.338   5.296
 5887SOL    HW119102   1.019   8.254   5.267
 5887SOL    HW219103   0.917   8.372   5.221
 5888SOL     OW19104   0.991   7.858   4.966
 5888SOL    HW119105   0.914   7.892   5.020
 5888SOL    HW219106   0.957   7.807   4.887
 5889SOL     OW19107   0.865   7.796   3.919
 5889SOL    HW119108   0.924   7.859   3.870
 5889SOL    HW219109   0.884   7.702   3.890
 5890SOL     OW19110   1.719   8.033   5.555
 5890SOL    HW119111   1.693   8.122   5.519
 5890SOL    HW219112   1.717   7.965   5.482
 5891SOL     OW19113   0.550   7.644   4.609
 5891SOL    HW119114   0.545   7.639   4.709
 5891SOL    HW219115   0.552   7.740   4.580
 5892SOL     OW19116   0.202   7.733   5.222
 5892SOL    HW119117   0.122   7.793   5.209
 5892SOL    HW219118   0.192   7.684   5.308
 5893SOL     OW19119   1.400   7.555   4.150
 5893SOL    HW119120   1.376   7.518   4.060
 5893SOL    HW219121   1.499   7.571   4.154
 5894SOL     OW19122   1.547   7.670   5.453
 5894SOL    HW119123   1.542   7.707   5.545
 5894SOL    HW219124   1.475   7.601   5.441
 5895SOL     OW19125   0.614   7.570   3.841
 5895SOL    HW119126   0.712   7.548   3.848
 5895SOL    HW219127   0.583   7.553   3.748
 5896SOL     OW19128   0.781   7.712   5.473
 5896SOL    HW119129   0.848   7.651   5.516
 5896SOL    HW219130   0.708   7.731   5.538
 5897SOL     OW19131   1.351   8.038   5.157
 5897SOL    HW119132   1.379   7.995   5.242
 5897SOL    HW219133   1.376   8.134   5.158
 5898SOL     OW19134   0.539   7.512   4.236
 5898SOL    HW119135   0.458   7.513   4.294
 5898SOL    HW219136   0.542   7.595   4.181
 5899SOL     OW19137   0.297   7.483   3.895
 5899SOL    HW119138   0.346   7.567   3.874
 5899SOL    HW219139   0.359   7.418   3.940
 5900SOL     OW19140   0.935   7.684   4.204
 5900SOL    HW119141   0.887   7.725   4.126
 5900SOL    HW219142   1.034   7.682   4.185
 5901SOL     OW19143   0.078   8.004   5.110
 5901SOL    HW119144   0.170   8.003   5.069
 5901SOL    HW219145   0.072   8.078   5.177
 5902SOL     OW19146   0.561   7.670   4.871
 5902SOL    HW119147   0.599   7.586   4.908
 5902SOL    HW219148   0.473   7.689   4.915
 5903SOL     OW19149   1.017   7.487   4.477
 5903SOL    HW119150   0.945   7.492   4.408
 5903SOL    HW219151   0.993   7.418   4.546
 5904SOL     OW19152   1.466   8.038   4.716
 5904SOL    HW119153   1.436   7.943   4.723
 5904SOL    HW219154   1.539   8.054   4.782
 5905SOL     OW19155   0.527   7.704   4.052
 5905SOL    HW119156   0.554   7.645   3.977
 5905SOL    HW219157   0.527   7.799   4.021
 5906SOL     OW19158   0.915   7.537   5.126
 5906SOL    HW119159   0.940   7.517   5.031
 5906SOL    HW219160   0.987   7.593   5.168
 5907SOL     OW19161   1.274   7.834   4.986
 5907SOL    HW119162   1.295   7.908   5.050
 5907SOL    HW219163   1.185   7.851   4.943
 5908SOL     OW19164   0.566   7.985   4.589
 5908SOL    HW119165   0.578   8.051   4.515
 5908SOL    HW219166   0.612   8.019   4.672
 5909SOL     OW19167   1.013   7.553   5.494
 5909SOL    HW119168   1.019   7.638   5.442
 5909SOL    HW219169   1.045   7.477   5.437
 5910SOL     OW19170   0.504   7.498   5.464
 5910SOL    HW119171   0.462   7.441   5.394
 5910SOL    HW219172   0.438   7.567   5.496
 5911SOL     OW19173   0.307   7.661   4.955
 5911SOL    HW119174   0.284   7.698   5.045
 5911SOL    HW219175   0.277   7.566   4.949
 5912SOL     OW19176   0.732   8.082   4.788
 5912SOL    HW119177   0.791   8.056   4.712
 5912SOL    HW219178   0.704   8.178   4.777
 5913SOL     OW19179   0.307   7.511   4.342
 5913SOL    HW119180   0.296   7.605   4.375
 5913SOL    HW219181   0.302   7.448   4.419
 5914SOL     OW19182   1.622   7.815   4.098
 5914SOL    HW119183   1.624   7.739   4.162
 5914SOL    HW219184   1.574   7.892   4.138
 5915SOL     OW19185   1.540   7.722   3.849
 5915SOL    HW119186   1.479   7.647   3.872
 5915SOL    HW219187   1.562   7.774   3.932
 5916SOL     OW19188   1.303   8.286   3.766
 5916SOL    HW119189   1.337   8.193   3.781
 5916SOL    HW219190   1.321   8.313   3.671
 5917SOL     OW19191   0.339   7.957   4.730
 5917SOL    HW119192   0.287   7.874   4.713
 5917SOL    HW219193   0.416   7.962   4.666
 5918SOL     OW19194   1.138   7.828   5.402
 5918SOL    HW119195   1.093   7.891   5.466
 5918SOL    HW219196   1.231   7.859   5.385
 5919SOL     OW19197   1.160   7.655   5.201
 5919SOL    HW119198   1.160   7.719   5.278
 5919SOL    HW219199   1.188   7.703   5.118
 5920SOL     OW19200   0.040   7.992   4.838
 5920SOL    HW119201   0.125   7.959   4.797
 5920SOL    HW219202   0.053   8.007   4.936
 5921SOL     OW19203   0.189   7.968   5.446
 5921SOL    HW119204   0.248   7.928   5.376
 5921SOL    HW219205   0.131   8.039   5.405
 5922SOL     OW19206   0.815   8.020   4.049
 5922SOL    HW119207   0.822   7.931   4.003
 5922SOL    HW219208   0.721   8.054   4.041
 5923SOL     OW19209   1.657   8.052   4.930
 5923SOL    HW119210   1.619   7.983   4.992
 5923SOL    HW219211   1.739   8.016   4.886
 5924SOL     OW19212   0.671   7.912   4.993
 5924SOL    HW119213   0.637   7.823   4.963
 5924SOL    HW219214   0.697   7.966   4.913
 5925SOL     OW19215   1.726   7.583   4.247
 5925SOL    HW119216   1.799   7.566   4.180
 5925SOL    HW219217   1.695   7.496   4.285
 5926SOL     OW19218   1.841   7.623   4.687
 5926SOL    HW119219   1.880   7.538   4.651
 5926SOL    HW219220   1.743   7.625   4.668
 5927SOL     OW19221   0.263   7.774   4.444
 5927SOL    HW119222   0.184   7.825   4.410
 5927SOL    HW219223   0.254   7.759   4.542
 5928SOL     OW19224   1.014   7.684   4.695
 5928SOL    HW119225   1.006   7.648   4.602
 5928SOL    HW219226   1.012   7.608   4.760
 5929SOL     OW19227   1.709   7.833   5.105
 5929SOL    HW119228   1.782   7.902   5.109
 5929SOL    HW219229   1.737   7.758   5.046
 5930SOL     OW19230   0.672   7.651   5.213
 5930SOL    HW119231   0.762   7.635   5.173
 5930SOL    HW219232   0.680   7.656   5.312
 5931SOL     OW19233   0.075   7.793   3.757
 5931SOL    HW119234  -0.017   7.765   3.728
 5931SOL    HW219235   0.106   7.870   3.701
 5932SOL     OW19236   0.072   7.614   4.042
 5932SOL    HW119237   0.055   7.697   3.988
 5932SOL    HW219238   0.162   7.577   4.020
 5933SOL     OW19239   0.716   8.013   5.432
 5933SOL    HW119240   0.735   8.078   5.506
 5933SOL    HW219241   0.776   7.933   5.441
 5934SOL     OW19242   1.225   7.773   4.173
 5934SOL    HW119243   1.290   7.699   4.162
 5934SOL    HW219244   1.245   7.823   4.257
 5935SOL     OW19245   0.594   8.193   4.376
 5935SOL    HW119246   0.644   8.278   4.357
 5935SOL    HW219247   0.506   8.195   4.328
 5936SOL     OW19248   1.777   7.790   5.366
 5936SOL    HW119249   1.760   7.821   5.272
 5936SOL    HW219250   1.693   7.753   5.404
 5937SOL     OW19251   1.824   7.640   4.951
 5937SOL    HW119252   1.820   7.550   4.995
 5937SOL    HW219253   1.827   7.629   4.852
 5938SOL     OW19254   0.428   7.872   4.244
 5938SOL    HW119255   0.458   7.800   4.182
 5938SOL    HW219256   0.389   7.832   4.327
 5939SOL     OW19257   1.424   7.662   4.836
 5939SOL    HW119258   1.476   7.597   4.891
 5939SOL    HW219259   1.375   7.725   4.897
 5940SOL     OW19260   1.001   7.482   4.878
 5940SOL    HW119261   0.938   7.410   4.847
 5940SOL    HW219262   1.094   7.446   4.878
 5941SOL     OW19263   1.352   7.500   3.892
 5941SOL    HW119264   1.387   7.459   3.808
 5941SOL    HW219265   1.262   7.462   3.912
 5942SOL     OW19266   1.300   7.901   4.415
 5942SOL    HW119267   1.241   7.981   4.419
 5942SOL    HW219268   1.315   7.866   4.508
 5943SOL     OW19269   1.593   7.669   4.606
 5943SOL    HW119270   1.509   7.668   4.660
 5943SOL    HW219271   1.595   7.752   4.550
 5944SOL     OW19272   0.225   7.723   6.582
 5944SOL    HW119273   0.260   7.706   6.674
 5944SOL    HW219274   0.137   7.678   6.570
 5945SOL     OW19275   0.019   7.816   6.233
 5945SOL    HW119276  -0.063   7.859   6.272
 5945SOL    HW219277  -0.009   7.743   6.170
 5946SOL     OW19278   1.755   8.055   5.817
 5946SOL    HW119279   1.743   8.042   5.718
 5946SOL    HW219280   1.725   7.974   5.866
 5947SOL     OW19281   0.438   7.840   7.085
 5947SOL    HW119282   0.520   7.784   7.094
 5947SOL    HW219283   0.357   7.782   7.089
 5948SOL     OW19284   1.603   7.895   6.323
 5948SOL    HW119285   1.529   7.941   6.273
 5948SOL    HW219286   1.654   7.963   6.376
 5949SOL     OW19287   1.594   7.562   7.066
 5949SOL    HW119288   1.576   7.629   6.994
 5949SOL    HW219289   1.591   7.608   7.155
 5950SOL     OW19290   0.122   8.091   6.149
 5950SOL    HW119291   0.077   8.003   6.166
 5950SOL    HW219292   0.121   8.145   6.233
 5951SOL     OW19293   0.809   7.452   6.088
 5951SOL    HW119294   0.849   7.543   6.079
 5951SOL    HW219295   0.709   7.460   6.094
 5952SOL     OW19296   0.317   7.699   7.387
 5952SOL    HW119297   0.388   7.770   7.393
 5952SOL    HW219298   0.229   7.738   7.415
 5953SOL     OW19299   1.281   7.793   6.530
 5953SOL    HW119300   1.195   7.743   6.517
 5953SOL    HW219301   1.343   7.739   6.586
 5954SOL     OW19302   1.394   7.917   7.260
 5954SOL    HW119303   1.374   7.960   7.348
 5954SOL    HW219304   1.472   7.855   7.269
 5955SOL     OW19305   0.973   8.338   7.158
 5955SOL    HW119306   1.019   8.254   7.129
 5955SOL    HW219307   0.917   8.372   7.083
 5956SOL     OW19308   0.991   7.858   6.828
 5956SOL    HW119309   0.914   7.892   6.882
 5956SOL    HW219310   0.957   7.807   6.749
 5957SOL     OW19311   0.865   7.796   5.781
 5957SOL    HW119312   0.924   7.859   5.732
 5957SOL    HW219313   0.884   7.702   5.752
 5958SOL     OW19314   1.719   8.033   7.417
 5958SOL    HW119315   1.693   8.122   7.381
 5958SOL    HW219316   1.717   7.965   7.344
 5959SOL     OW19317   0.550   7.644   6.471
 5959SOL    HW119318   0.545   7.639   6.571
 5959SOL    HW219319   0.552   7.740   6.442
 5960SOL     OW19320   0.202   7.733   7.084
 5960SOL    HW119321   0.122   7.793   7.071
 5960SOL    HW219322   0.192   7.684   7.170
 5961SOL     OW19323   1.400   7.555   6.012
 5961SOL    HW119324   1.376   7.518   5.922
 5961SOL    HW219325   1.499   7.571   6.016
 5962SOL     OW19326   1.547   7.670   7.315
 5962SOL    HW119327   1.542   7.707   7.407
 5962SOL    HW219328   1.475   7.601   7.303
 5963SOL     OW19329   0.614   7.570   5.703
 5963SOL    HW119330   0.712   7.548   5.710
 5963SOL    HW219331   0.583   7.553   5.610
 5964SOL     OW19332   0.781   7.712   7.335
 5964SOL    HW119333   0.848   7.651   7.378
 5964SOL    HW219334   0.708   7.731   7.400
 5965SOL     OW19335   1.351   8.038   7.019
 5965SOL    HW119336   1.379   7.995   7.104
 5965SOL    HW219337   1.376   8.134   7.020
 5966SOL     OW19338   0.539   7.512   6.098
 5966SOL    HW119339   0.458   7.513   6.156
 5966SOL    HW219340   0.542   7.595   6.043
 5967SOL     OW19341   0.297   7.483   5.757
 5967SOL    HW119342   0.346   7.567   5.736
 5967SOL    HW219343   0.359   7.418   5.802
 5968SOL     OW19344   0.935   7.684   6.066
 5968SOL    HW119345   0.887   7.725   5.988
 5968SOL    HW219346   1.034   7.682   6.047
 5969SOL     OW19347   0.078   8.004   6.972
 5969SOL    HW119348   0.170   8.003   6.931
 5969SOL    HW219349   0.072   8.078   7.039
 5970SOL     OW19350   0.561   7.670   6.733
 5970SOL    HW119351   0.599   7.586   6.770
 5970SOL    HW219352   0.473   7.689   6.777
 5971SOL     OW19353   1.017   7.487   6.339
 5971SOL    HW119354   0.945   7.492   6.270
 5971SOL    HW219355   0.993   7.418   6.408
 5972SOL     OW19356   1.466   8.038   6.578
 5972SOL    HW119357   1.436   7.943   6.585
 5972SOL    HW219358   1.539   8.054   6.644
 5973SOL     OW19359   0.527   7.704   5.914
 5973SOL    HW119360   0.554   7.645   5.839
 5973SOL    HW219361   0.527   7.799   5.883
 5974SOL     OW19362   0.915   7.537   6.988
 5974SOL    HW119363   0.940   7.517   6.893
 5974SOL    HW219364   0.987   7.593   7.030
 5975SOL     OW19365   1.274   7.834   6.848
 5975SOL    HW119366   1.295   7.908   6.912
 5975SOL    HW219367   1.185   7.851   6.805
 5976SOL     OW19368   0.566   7.985   6.451
 5976SOL    HW119369   0.578   8.051   6.377
 5976SOL    HW219370   0.612   8.019   6.534
 5977SOL     OW19371   1.013   7.553   7.356
 5977SOL    HW119372   1.019   7.638   7.304
 5977SOL    HW219373   1.045   7.477   7.299
 5978SOL     OW19374   0.504   7.498   7.326
 5978SOL    HW119375   0.462   7.441   7.256
 5978SOL    HW219376   0.438   7.567   7.358
 5979SOL     OW19377   0.307   7.661   6.817
 5979SOL    HW119378   0.284   7.698   6.907
 5979SOL    HW219379   0.277   7.566   6.811
 5980SOL     OW19380   0.732   8.082   6.650
 5980SOL    HW119381   0.791   8.056   6.574
 5980SOL    HW219382   0.704   8.178   6.639
 5981SOL     OW19383   0.307   7.511   6.204
 5981SOL    HW119384   0.296   7.605   6.237
 5981SOL    HW219385   0.302   7.448   6.281
 5982SOL     OW19386   1.622   7.815   5.960
 5982SOL    HW119387   1.624   7.739   6.024
 5982SOL    HW219388   1.574   7.892   6.000
 5983SOL     OW19389   1.540   7.722   5.711
 5983SOL    HW119390   1.479   7.647   5.734
 5983SOL    HW219391   1.562   7.774   5.794
 5984SOL     OW19392   1.303   8.286   5.628
 5984SOL    HW119393   1.337   8.193   5.643
 5984SOL    HW219394   1.321   8.313   5.533
 5985SOL     OW19395   0.339   7.957   6.592
 5985SOL    HW119396   0.287   7.874   6.575
 5985SOL    HW219397   0.416   7.962   6.528
 5986SOL     OW19398   1.138   7.828   7.264
 5986SOL    HW119399   1.093   7.891   7.328
 5986SOL    HW219400   1.231   7.859   7.247
 5987SOL     OW19401   1.160   7.655   7.063
 5987SOL    HW119402   1.160   7.719   7.140
 5987SOL    HW219403   1.188   7.703   6.980
 5988SOL     OW19404   0.040   7.992   6.700
 5988SOL    HW119405   0.125   7.959   6.659
 5988SOL    HW219406   0.053   8.007   6.798
 5989SOL     OW19407   0.189   7.968   7.308
 5989SOL    HW119408   0.248   7.928   7.238
 5989SOL    HW219409   0.131   8.039   7.267
 5990SOL     OW19410   0.815   8.020   5.911
 5990SOL    HW119411   0.822   7.931   5.865
 5990SOL    HW219412   0.721   8.054   5.903
 5991SOL     OW19413   1.657   8.052   6.792
 5991SOL    HW119414   1.619   7.983   6.854
 5991SOL    HW219415   1.739   8.016   6.748
 5992SOL     OW19416   0.671   7.912   6.855
 5992SOL    HW119417   0.637   7.823   6.825
 5992SOL    HW219418   0.697   7.966   6.775
 5993SOL     OW19419   1.726   7.583   6.109
 5993SOL    HW119420   1.799   7.566   6.042
 5993SOL    HW219421   1.695   7.496   6.147
 5994SOL     OW19422   1.841   7.623   6.549
 5994SOL    HW119423   1.880   7.538   6.513
 5994SOL    HW219424   1.743   7.625   6.530
 5995SOL     OW19425   0.263   7.774   6.306
 5995SOL    HW119426   0.184   7.825   6.272
 5995SOL    HW219427   0.254   7.759   6.404
 5996SOL     OW19428   1.014   7.684   6.557
 5996SOL    HW119429   1.006   7.648   6.464
 5996SOL    HW219430   1.012   7.608   6.622
 5997SOL     OW19431   1.709   7.833   6.967
 5997SOL    HW119432   1.782   7.902   6.971
 5997SOL    HW219433   1.737   7.758   6.908
 5998SOL     OW19434   0.672   7.651   7.075
 5998SOL    HW119435   0.762   7.635   7.035
 5998SOL    HW219436   0.680   7.656   7.174
 5999SOL     OW19437   0.075   7.793   5.619
 5999SOL    HW119438  -0.017   7.765   5.590
 5999SOL    HW219439   0.106   7.870   5.563
 6000SOL     OW19440   0.072   7.614   5.904
 6000SOL    HW119441   0.055   7.697   5.850
 6000SOL    HW219442   0.162   7.577   5.882
 6001SOL     OW19443   0.716   8.013   7.294
 6001SOL    HW119444   0.735   8.078   7.368
 6001SOL    HW219445   0.776   7.933   7.303
 6002SOL     OW19446   1.225   7.773   6.035
 6002SOL    HW119447   1.290   7.699   6.024
 6002SOL    HW219448   1.245   7.823   6.119
 6003SOL     OW19449   0.594   8.193   6.238
 6003SOL    HW119450   0.644   8.278   6.219
 6003SOL    HW219451   0.506   8.195   6.190
 6004SOL     OW19452   1.777   7.790   7.228
 6004SOL    HW119453   1.760   7.821   7.134
 6004SOL    HW219454   1.693   7.753   7.266
 6005SOL     OW19455   1.824   7.640   6.813
 6005SOL    HW119456   1.820   7.550   6.857
 6005SOL    HW219457   1.827   7.629   6.714
 6006SOL     OW19458   0.428   7.872   6.106
 6006SOL    HW119459   0.458   7.800   6.044
 6006SOL    HW219460   0.389   7.832   6.189
 6007SOL     OW19461   1.424   7.662   6.698
 6007SOL    HW119462   1.476   7.597   6.753
 6007SOL    HW219463   1.375   7.725   6.759
 6008SOL     OW19464   1.001   7.482   6.740
 6008SOL    HW119465   0.938   7.410   6.709
 6008SOL    HW219466   1.094   7.446   6.740
 6009SOL     OW19467   1.352   7.500   5.754
 6009SOL    HW119468   1.387   7.459   5.670
 6009SOL    HW219469   1.262   7.462   5.774
 6010SOL     OW19470   1.300   7.901   6.277
 6010SOL    HW119471   1.241   7.981   6.281
 6010SOL    HW219472   1.315   7.866   6.370
 6011SOL     OW19473   1.593   7.669   6.468
 6011SOL    HW119474   1.509   7.668   6.522
 6011SOL    HW219475   1.595   7.752   6.412
 6012SOL     OW19476   0.225   7.723   8.444
 6012SOL    HW119477   0.260   7.706   8.536
 6012SOL    HW219478   0.137   7.678   8.432
 6013SOL     OW19479   0.019   7.816   8.095
 6013SOL    HW119480  -0.063   7.859   8.134
 6013SOL    HW219481  -0.009   7.743   8.032
 6014SOL     OW19482   1.755   8.055   7.679
 6014SOL    HW119483   1.743   8.042   7.580
 6014SOL    HW219484   1.725   7.974   7.728
 6015SOL     OW19485   0.438   7.840   8.947
 6015SOL    HW119486   0.520   7.784   8.956
 6015SOL    HW219487   0.357   7.782   8.951
 6016SOL     OW19488   1.603   7.895   8.185
 6016SOL    HW119489   1.529   7.941   8.135
 6016SOL    HW219490   1.654   7.963   8.238
 6017SOL     OW19491   1.594   7.562   8.928
 6017SOL    HW119492   1.576   7.629   8.856
 6017SOL    HW219493   1.591   7.608   9.017
 6018SOL     OW19494   0.122   8.091   8.011
 6018SOL    HW119495   0.077   8.003   8.028
 6018SOL    HW219496   0.121   8.145   8.095
 6019SOL     OW19497   0.809   7.452   7.950
 6019SOL    HW119498   0.849   7.543   7.941
 6019SOL    HW219499   0.709   7.460   7.956
 6020SOL     OW19500   0.317   7.699   9.249
 6020SOL    HW119501   0.388   7.770   9.255
 6020SOL    HW219502   0.229   7.738   9.277
 6021SOL     OW19503   1.281   7.793   8.392
 6021SOL    HW119504   1.195   7.743   8.379
 6021SOL    HW219505   1.343   7.739   8.448
 6022SOL     OW19506   1.394   7.917   9.122
 6022SOL    HW119507   1.374   7.960   9.210
 6022SOL    HW219508   1.472   7.855   9.131
 6023SOL     OW19509   0.973   8.338   9.020
 6023SOL    HW119510   1.019   8.254   8.991
 6023SOL    HW219511   0.917   8.372   8.945
 6024SOL     OW19512   0.991   7.858   8.690
 6024SOL    HW119513   0.914   7.892   8.744
 6024SOL    HW219514   0.957   7.807   8.611
 6025SOL     OW19515   0.865   7.796   7.643
 6025SOL    HW119516   0.924   7.859   7.594
 6025SOL    HW219517   0.884   7.702   7.614
 6026SOL     OW19518   1.719   8.033   9.279
 6026SOL    HW119519   1.693   8.122   9.243
 6026SOL    HW219520   1.717   7.965   9.206
 6027SOL     OW19521   0.550   7.644   8.333
 6027SOL    HW119522   0.545   7.639   8.433
 6027SOL    HW219523   0.552   7.740   8.304
 6028SOL     OW19524   0.202   7.733   8.946
 6028SOL    HW119525   0.122   7.793   8.933
 6028SOL    HW219526   0.192   7.684   9.032
 6029SOL     OW19527   1.400   7.555   7.874
 6029SOL    HW119528   1.376   7.518   7.784
 6029SOL    HW219529   1.499   7.571   7.878
 6030SOL     OW19530   1.547   7.670   9.177
 6030SOL    HW119531   1.542   7.707   9.269
 6030SOL    HW219532   1.475   7.601   9.165
 6031SOL     OW19533   0.614   7.570   7.565
 6031SOL    HW119534   0.712   7.548   7.572
 6031SOL    HW219535   0.583   7.553   7.472
 6032SOL     OW19536   0.781   7.712   9.197
 6032SOL    HW119537   0.848   7.651   9.240
 6032SOL    HW219538   0.708   7.731   9.262
 6033SOL     OW19539   1.351   8.038   8.881
 6033SOL    HW119540   1.379   7.995   8.966
 6033SOL    HW219541   1.376   8.134   8.882
 6034SOL     OW19542   0.539   7.512   7.960
 6034SOL    HW119543   0.458   7.513   8.018
 6034SOL    HW219544   0.542   7.595   7.905
 6035SOL     OW19545   0.297   7.483   7.619
 6035SOL    HW119546   0.346   7.567   7.598
 6035SOL    HW219547   0.359   7.418   7.664
 6036SOL     OW19548   0.935   7.684   7.928
 6036SOL    HW119549   0.887   7.725   7.850
 6036SOL    HW219550   1.034   7.682   7.909
 6037SOL     OW19551   0.078   8.004   8.834
 6037SOL    HW119552   0.170   8.003   8.793
 6037SOL    HW219553   0.072   8.078   8.901
 6038SOL     OW19554   0.561   7.670   8.595
 6038SOL    HW119555   0.599   7.586   8.632
 6038SOL    HW219556   0.473   7.689   8.639
 6039SOL     OW19557   1.017   7.487   8.201
 6039SOL    HW119558   0.945   7.492   8.132
 6039SOL    HW219559   0.993   7.418   8.270
 6040SOL     OW19560   1.466   8.038   8.440
 6040SOL    HW119561   1.436   7.943   8.447
 6040SOL    HW219562   1.539   8.054   8.506
 6041SOL     OW19563   0.527   7.704   7.776
 6041SOL    HW119564   0.554   7.645   7.701
 6041SOL    HW219565   0.527   7.799   7.745
 6042SOL     OW19566   0.915   7.537   8.850
 6042SOL    HW119567   0.940   7.517   8.755
 6042SOL    HW219568   0.987   7.593   8.892
 6043SOL     OW19569   1.274   7.834   8.710
 6043SOL    HW119570   1.295   7.908   8.774
 6043SOL    HW219571   1.185   7.851   8.667
 6044SOL     OW19572   0.566   7.985   8.313
 6044SOL    HW119573   0.578   8.051   8.239
 6044SOL    HW219574   0.612   8.019   8.396
 6045SOL     OW19575   1.013   7.553   9.218
 6045SOL    HW119576   1.019   7.638   9.166
 6045SOL    HW219577   1.045   7.477   9.161
 6046SOL     OW19578   0.504   7.498   9.188
 6046SOL    HW119579   0.462   7.441   9.118
 6046SOL    HW219580   0.438   7.567   9.220
 6047SOL     OW19581   0.307   7.661   8.679
 6047SOL    HW119582   0.284   7.698   8.769
 6047SOL    HW219583   0.277   7.566   8.673
 6048SOL     OW19584   0.732   8.082   8.512
 6048SOL    HW119585   0.791   8.056   8.436
 6048SOL    HW219586   0.704   8.178   8.501
 6049SOL     OW19587   0.307   7.511   8.066
 6049SOL    HW119588   0.296   7.605   8.099
 6049SOL    HW219589   0.302   7.448   8.143
 6050SOL     OW19590   1.622   7.815   7.822
 6050SOL    HW119591   1.624   7.739   7.886
 6050SOL    HW219592   1.574   7.892   7.862
 6051SOL     OW19593   1.540   7.722   7.573
 6051SOL    HW119594   1.479   7.647   7.596
 6051SOL    HW219595   1.562   7.774   7.656
 6052SOL     OW19596   1.303   8.286   7.490
 6052SOL    HW119597   1.337   8.193   7.505
 6052SOL    HW219598   1.321   8.313   7.395
 6053SOL     OW19599   0.339   7.957   8.454
 6053SOL    HW119600   0.287   7.874   8.437
 6053SOL    HW219601   0.416   7.962   8.390
 6054SOL     OW19602   1.138   7.828   9.126
 6054SOL    HW119603   1.093   7.891   9.190
 6054SOL    HW219604   1.231   7.859   9.109
 6055SOL     OW19605   1.160   7.655   8.925
 6055SOL    HW119606   1.160   7.719   9.002
 6055SOL    HW219607   1.188   7.703   8.842
 6056SOL     OW19608   0.040   7.992   8.562
 6056SOL    HW119609   0.125   7.959   8.521
 6056SOL    HW219610   0.053   8.007   8.660
 6057SOL     OW19611   0.189   7.968   9.170
 6057SOL    HW119612   0.248   7.928   9.100
 6057SOL    HW219613   0.131   8.039   9.129
 6058SOL     OW19614   0.815   8.020   7.773
 6058SOL    HW119615   0.822   7.931   7.727
 6058SOL    HW219616   0.721   8.054   7.765
 6059SOL     OW19617   1.657   8.052   8.654
 6059SOL    HW119618   1.619   7.983   8.716
 6059SOL    HW219619   1.739   8.016   8.610
 6060SOL     OW19620   0.671   7.912   8.717
 6060SOL    HW119621   0.637   7.823   8.687
 6060SOL    HW219622   0.697   7.966   8.637
 6061SOL     OW19623   1.726   7.583   7.971
 6061SOL    HW119624   1.799   7.566   7.904
 6061SOL    HW219625   1.695   7.496   8.009
 6062SOL     OW19626   1.841   7.623   8.411
 6062SOL    HW119627   1.880   7.538   8.375
 6062SOL    HW219628   1.743   7.625   8.392
 6063SOL     OW19629   0.263   7.774   8.168
 6063SOL    HW119630   0.184   7.825   8.134
 6063SOL    HW219631   0.254   7.759   8.266
 6064SOL     OW19632   1.014   7.684   8.419
 6064SOL    HW119633   1.006   7.648   8.326
 6064SOL    HW219634   1.012   7.608   8.484
 6065SOL     OW19635   1.709   7.833   8.829
 6065SOL    HW119636   1.782   7.902   8.833
 6065SOL    HW219637   1.737   7.758   8.770
 6066SOL     OW19638   0.672   7.651   8.937
 6066SOL    HW119639   0.762   7.635   8.897
 6066SOL    HW219640   0.680   7.656   9.036
 6067SOL     OW19641   0.075   7.793   7.481
 6067SOL    HW119642  -0.017   7.765   7.452
 6067SOL    HW219643   0.106   7.870   7.425
 6068SOL     OW19644   0.072   7.614   7.766
 6068SOL    HW119645   0.055   7.697   7.712
 6068SOL    HW219646   0.162   7.577   7.744
 6069SOL     OW19647   0.716   8.013   9.156
 6069SOL    HW119648   0.735   8.078   9.230
 6069SOL    HW219649   0.776   7.933   9.165
 6070SOL     OW19650   1.225   7.773   7.897
 6070SOL    HW119651   1.290   7.699   7.886
 6070SOL    HW219652   1.245   7.823   7.981
 6071SOL     OW19653   0.594   8.193   8.100
 6071SOL    HW119654   0.644   8.278   8.081
 6071SOL    HW219655   0.506   8.195   8.052
 6072SOL     OW19656   1.777   7.790   9.090
 6072SOL    HW119657   1.760   7.821   8.996
 6072SOL    HW219658   1.693   7.753   9.128
 6073SOL     OW19659   1.824   7.640   8.675
 6073SOL    HW119660   1.820   7.550   8.719
 6073SOL    HW219661   1.827   7.629   8.576
 6074SOL     OW19662   0.428   7.872   7.968
 6074SOL    HW119663   0.458   7.800   7.906
 6074SOL    HW219664   0.389   7.832   8.051
 6075SOL     OW19665   1.424   7.662   8.560
 6075SOL    HW119666   1.476   7.597   8.615
 6075SOL    HW219667   1.375   7.725   8.621
 6076SOL     OW19668   1.001   7.482   8.602
 6076SOL    HW119669   0.938   7.410   8.571
 6076SOL    HW219670   1.094   7.446   8.602
 6077SOL     OW19671   1.352   7.500   7.616
 6077SOL    HW119672   1.387   7.459   7.532
 6077SOL    HW219673   1.262   7.462   7.636
 6078SOL     OW19674   1.300   7.901   8.139
 6078SOL    HW119675   1.241   7.981   8.143
 6078SOL    HW219676   1.315   7.866   8.232
 6079SOL     OW19677   1.593   7.669   8.330
 6079SOL    HW119678   1.509   7.668   8.384
 6079SOL    HW219679   1.595   7.752   8.274
 6080SOL     OW19680   0.225   7.723  10.306
 6080SOL    HW119681   0.260   7.706  10.398
 6080SOL    HW219682   0.137   7.678  10.294
 6081SOL     OW19683   0.019   7.816   9.957
 6081SOL    HW119684  -0.063   7.859   9.996
 6081SOL    HW219685  -0.009   7.743   9.894
 6082SOL     OW19686   1.755   8.055   9.541
 6082SOL    HW119687   1.743   8.042   9.442
 6082SOL    HW219688   1.725   7.974   9.590
 6083SOL     OW19689   0.438   7.840  10.809
 6083SOL    HW119690   0.520   7.784  10.818
 6083SOL    HW219691   0.357   7.782  10.813
 6084SOL     OW19692   1.603   7.895  10.047
 6084SOL    HW119693   1.529   7.941   9.997
 6084SOL    HW219694   1.654   7.963  10.100
 6085SOL     OW19695   1.594   7.562  10.790
 6085SOL    HW119696   1.576   7.629  10.718
 6085SOL    HW219697   1.591   7.608  10.879
 6086SOL     OW19698   0.122   8.091   9.873
 6086SOL    HW119699   0.077   8.003   9.890
 6086SOL    HW219700   0.121   8.145   9.957
 6087SOL     OW19701   0.809   7.452   9.812
 6087SOL    HW119702   0.849   7.543   9.803
 6087SOL    HW219703   0.709   7.460   9.818
 6088SOL     OW19704   0.317   7.699  11.111
 6088SOL    HW119705   0.388   7.770  11.117
 6088SOL    HW219706   0.229   7.738  11.139
 6089SOL     OW19707   1.281   7.793  10.254
 6089SOL    HW119708   1.195   7.743  10.241
 6089SOL    HW219709   1.343   7.739  10.310
 6090SOL     OW19710   1.394   7.917  10.984
 6090SOL    HW119711   1.374   7.960  11.072
 6090SOL    HW219712   1.472   7.855  10.993
 6091SOL     OW19713   0.973   8.338  10.882
 6091SOL    HW119714   1.019   8.254  10.853
 6091SOL    HW219715   0.917   8.372  10.807
 6092SOL     OW19716   0.991   7.858  10.552
 6092SOL    HW119717   0.914   7.892  10.606
 6092SOL    HW219718   0.957   7.807  10.473
 6093SOL     OW19719   0.865   7.796   9.505
 6093SOL    HW119720   0.924   7.859   9.456
 6093SOL    HW219721   0.884   7.702   9.476
 6094SOL     OW19722   1.719   8.033  11.141
 6094SOL    HW119723   1.693   8.122  11.105
 6094SOL    HW219724   1.717   7.965  11.068
 6095SOL     OW19725   0.550   7.644  10.195
 6095SOL    HW119726   0.545   7.639  10.295
 6095SOL    HW219727   0.552   7.740  10.166
 6096SOL     OW19728   1.400   7.555   9.736
 6096SOL    HW119729   1.376   7.518   9.646
 6096SOL    HW219730   1.499   7.571   9.740
 6097SOL     OW19731   1.547   7.670  11.039
 6097SOL    HW119732   1.542   7.707  11.131
 6097SOL    HW219733   1.475   7.601  11.027
 6098SOL     OW19734   0.614   7.570   9.427
 6098SOL    HW119735   0.712   7.548   9.434
 6098SOL    HW219736   0.583   7.553   9.334
 6099SOL     OW19737   0.781   7.712  11.059
 6099SOL    HW119738   0.848   7.651  11.102
 6099SOL    HW219739   0.708   7.731  11.124
 6100SOL     OW19740   1.351   8.038  10.743
 6100SOL    HW119741   1.379   7.995  10.828
 6100SOL    HW219742   1.376   8.134  10.744
 6101SOL     OW19743   0.539   7.512   9.822
 6101SOL    HW119744   0.458   7.513   9.880
 6101SOL    HW219745   0.542   7.595   9.767
 6102SOL     OW19746   0.297   7.483   9.481
 6102SOL    HW119747   0.346   7.567   9.460
 6102SOL    HW219748   0.359   7.418   9.526
 6103SOL     OW19749   0.935   7.684   9.790
 6103SOL    HW119750   0.887   7.725   9.712
 6103SOL    HW219751   1.034   7.682   9.771
 6104SOL     OW19752   0.078   8.004  10.696
 6104SOL    HW119753   0.170   8.003  10.655
 6104SOL    HW219754   0.072   8.078  10.763
 6105SOL     OW19755   0.561   7.670  10.457
 6105SOL    HW119756   0.599   7.586  10.494
 6105SOL    HW219757   0.473   7.689  10.501
 6106SOL     OW19758   1.017   7.487  10.063
 6106SOL    HW119759   0.945   7.492   9.994
 6106SOL    HW219760   0.993   7.418  10.132
 6107SOL     OW19761   1.466   8.038  10.302
 6107SOL    HW119762   1.436   7.943  10.309
 6107SOL    HW219763   1.539   8.054  10.368
 6108SOL     OW19764   0.527   7.704   9.638
 6108SOL    HW119765   0.554   7.645   9.563
 6108SOL    HW219766   0.527   7.799   9.607
 6109SOL     OW19767   0.915   7.537  10.712
 6109SOL    HW119768   0.940   7.517  10.617
 6109SOL    HW219769   0.987   7.593  10.754
 6110SOL     OW19770   1.274   7.834  10.572
 6110SOL    HW119771   1.295   7.908  10.636
 6110SOL    HW219772   1.185   7.851  10.529
 6111SOL     OW19773   0.566   7.985  10.175
 6111SOL    HW119774   0.578   8.051  10.101
 6111SOL    HW219775   0.612   8.019  10.258
 6112SOL     OW19776   1.013   7.553  11.080
 6112SOL    HW119777   1.019   7.638  11.028
 6112SOL    HW219778   1.045   7.477  11.023
 6113SOL     OW19779   0.504   7.498  11.050
 6113SOL    HW119780   0.462   7.441  10.980
 6113SOL    HW219781   0.438   7.567  11.082
 6114SOL     OW19782   0.307   7.661  10.541
 6114SOL    HW119783   0.284   7.698  10.631
 6114SOL    HW219784   0.277   7.566  10.535
 6115SOL     OW19785   0.732   8.082  10.374
 6115SOL    HW119786   0.791   8.056  10.298
 6115SOL    HW219787   0.704   8.178  10.363
 6116SOL     OW19788   0.307   7.511   9.928
 6116SOL    HW119789   0.296   7.605   9.961
 6116SOL    HW219790   0.302   7.448  10.005
 6117SOL     OW19791   1.622   7.815   9.684
 6117SOL    HW119792   1.624   7.739   9.748
 6117SOL    HW219793   1.574   7.892   9.724
 6118SOL     OW19794   1.540   7.722   9.435
 6118SOL    HW119795   1.479   7.647   9.458
 6118SOL    HW219796   1.562   7.774   9.518
 6119SOL     OW19797   1.303   8.286   9.352
 6119SOL    HW119798   1.337   8.193   9.367
 6119SOL    HW219799   1.321   8.313   9.257
 6120SOL     OW19800   0.339   7.957  10.316
 6120SOL    HW119801   0.287   7.874  10.299
 6120SOL    HW219802   0.416   7.962  10.252
 6121SOL     OW19803   1.138   7.828  10.988
 6121SOL    HW119804   1.093   7.891  11.052
 6121SOL    HW219805   1.231   7.859  10.971
 6122SOL     OW19806   1.160   7.655  10.787
 6122SOL    HW119807   1.160   7.719  10.864
 6122SOL    HW219808   1.188   7.703  10.704
 6123SOL     OW19809   0.040   7.992  10.424
 6123SOL    HW119810   0.125   7.959  10.383
 6123SOL    HW219811   0.053   8.007  10.522
 6124SOL     OW19812   0.189   7.968  11.032
 6124SOL    HW119813   0.248   7.928  10.962
 6124SOL    HW219814   0.131   8.039  10.991
 6125SOL     OW19815   0.815   8.020   9.635
 6125SOL    HW119816   0.822   7.931   9.589
 6125SOL    HW219817   0.721   8.054   9.627
 6126SOL     OW19818   1.657   8.052  10.516
 6126SOL    HW119819   1.619   7.983  10.578
 6126SOL    HW219820   1.739   8.016  10.472
 6127SOL     OW19821   0.671   7.912  10.579
 6127SOL    HW119822   0.637   7.823  10.549
 6127SOL    HW219823   0.697   7.966  10.499
 6128SOL     OW19824   1.726   7.583   9.833
 6128SOL    HW119825   1.799   7.566   9.766
 6128SOL    HW219826   1.695   7.496   9.871
 6129SOL     OW19827   1.841   7.623  10.273
 6129SOL    HW119828   1.880   7.538  10.237
 6129SOL    HW219829   1.743   7.625  10.254
 6130SOL     OW19830   0.263   7.774  10.030
 6130SOL    HW119831   0.184   7.825   9.996
 6130SOL    HW219832   0.254   7.759  10.128
 6131SOL     OW19833   1.014   7.684  10.281
 6131SOL    HW119834   1.006   7.648  10.188
 6131SOL    HW219835   1.012   7.608  10.346
 6132SOL     OW19836   1.709   7.833  10.691
 6132SOL    HW119837   1.782   7.902  10.695
 6132SOL    HW219838   1.737   7.758  10.632
 6133SOL     OW19839   0.672   7.651  10.799
 6133SOL    HW119840   0.762   7.635  10.759
 6133SOL    HW219841   0.680   7.656  10.898
 6134SOL     OW19842   0.075   7.793   9.343
 6134SOL    HW119843  -0.017   7.765   9.314
 6134SOL    HW219844   0.106   7.870   9.287
 6135SOL     OW19845   0.072   7.614   9.628
 6135SOL    HW119846   0.055   7.697   9.574
 6135SOL    HW219847   0.162   7.577   9.606
 6136SOL     OW19848   0.716   8.013  11.018
 6136SOL    HW119849   0.735   8.078  11.092
 6136SOL    HW219850   0.776   7.933  11.027
 6137SOL     OW19851   1.225   7.773   9.759
 6137SOL    HW119852   1.290   7.699   9.748
 6137SOL    HW219853   1.245   7.823   9.843
 6138SOL     OW19854   0.594   8.193   9.962
 6138SOL    HW119855   0.644   8.278   9.943
 6138SOL    HW219856   0.506   8.195   9.914
 6139SOL     OW19857   1.777   7.790  10.952
 6139SOL    HW119858   1.760   7.821  10.858
 6139SOL    HW219859   1.693   7.753  10.990
 6140SOL     OW19860   1.824   7.640  10.537
 6140SOL    HW119861   1.820   7.550  10.581
 6140SOL    HW219862   1.827   7.629  10.438
 6141SOL     OW19863   0.428   7.872   9.830
 6141SOL    HW119864   0.458   7.800   9.768
 6141SOL    HW219865   0.389   7.832   9.913
 6142SOL     OW19866   1.424   7.662  10.422
 6142SOL    HW119867   1.476   7.597  10.477
 6142SOL    HW219868   1.375   7.725  10.483
 6143SOL     OW19869   1.001   7.482  10.464
 6143SOL    HW119870   0.938   7.410  10.433
 6143SOL    HW219871   1.094   7.446  10.464
 6144SOL     OW19872   1.352   7.500   9.478
 6144SOL    HW119873   1.387   7.459   9.394
 6144SOL    HW219874   1.262   7.462   9.498
 6145SOL     OW19875   1.300   7.901  10.001
 6145SOL    HW119876   1.241   7.981  10.005
 6145SOL    HW219877   1.315   7.866  10.094
 6146SOL     OW19878   1.593   7.669  10.192
 6146SOL    HW119879   1.509   7.668  10.246
 6146SOL    HW219880   1.595   7.752  10.136
 6147SOL     OW19881   0.225   7.723  12.168
 6147SOL    HW119882   0.260   7.706  12.260
 6147SOL    HW219883   0.137   7.678  12.156
 6148SOL     OW19884   0.019   7.816  11.819
 6148SOL    HW119885  -0.063   7.859  11.858
 6148SOL    HW219886  -0.009   7.743  11.756
 6149SOL     OW19887   1.755   8.055  11.403
 6149SOL    HW119888   1.743   8.042  11.304
 6149SOL    HW219889   1.725   7.974  11.452
 6150SOL     OW19890   1.603   7.895  11.909
 6150SOL    HW119891   1.529   7.941  11.859
 6150SOL    HW219892   1.654   7.963  11.962
 6151SOL     OW19893   0.122   8.091  11.735
 6151SOL    HW119894   0.077   8.003  11.752
 6151SOL    HW219895   0.121   8.145  11.819
 6152SOL     OW19896   0.809   7.452  11.674
 6152SOL    HW119897   0.849   7.543  11.665
 6152SOL    HW219898   0.709   7.460  11.680
 6153SOL     OW19899   1.281   7.793  12.116
 6153SOL    HW119900   1.195   7.743  12.103
 6153SOL    HW219901   1.343   7.739  12.172
 6154SOL     OW19902   0.991   7.858  12.414
 6154SOL    HW119903   0.914   7.892  12.468
 6154SOL    HW219904   0.957   7.807  12.335
 6155SOL     OW19905   0.865   7.796  11.367
 6155SOL    HW119906   0.924   7.859  11.318
 6155SOL    HW219907   0.884   7.702  11.338
 6156SOL     OW19908   0.550   7.644  12.057
 6156SOL    HW119909   0.545   7.639  12.157
 6156SOL    HW219910   0.552   7.740  12.028
 6157SOL     OW19911   1.400   7.555  11.598
 6157SOL    HW119912   1.376   7.518  11.508
 6157SOL    HW219913   1.499   7.571  11.602
 6158SOL     OW19914   0.614   7.570  11.289
 6158SOL    HW119915   0.712   7.548  11.296
 6158SOL    HW219916   0.583   7.553  11.196
 6159SOL     OW19917   0.539   7.512  11.684
 6159SOL    HW119918   0.458   7.513  11.742
 6159SOL    HW219919   0.542   7.595  11.629
 6160SOL     OW19920   0.297   7.483  11.343
 6160SOL    HW119921   0.346   7.567  11.322
 6160SOL    HW219922   0.359   7.418  11.388
 6161SOL     OW19923   0.935   7.684  11.652
 6161SOL    HW119924   0.887   7.725  11.574
 6161SOL    HW219925   1.034   7.682  11.633
 6162SOL     OW19926   0.078   8.004  12.558
 6162SOL    HW119927   0.170   8.003  12.517
 6162SOL    HW219928   0.072   8.078  12.625
 6163SOL     OW19929   0.561   7.670  12.319
 6163SOL    HW119930   0.599   7.586  12.356
 6163SOL    HW219931   0.473   7.689  12.363
 6164SOL     OW19932   1.017   7.487  11.925
 6164SOL    HW119933   0.945   7.492  11.856
 6164SOL    HW219934   0.993   7.418  11.994
 6165SOL     OW19935   1.466   8.038  12.164
 6165SOL    HW119936   1.436   7.943  12.171
 6165SOL    HW219937   1.539   8.054  12.230
 6166SOL     OW19938   0.527   7.704  11.500
 6166SOL    HW119939   0.554   7.645  11.425
 6166SOL    HW219940   0.527   7.799  11.469
 6167SOL     OW19941   1.274   7.834  12.434
 6167SOL    HW119942   1.295   7.908  12.498
 6167SOL    HW219943   1.185   7.851  12.391
 6168SOL     OW19944   0.566   7.985  12.037
 6168SOL    HW119945   0.578   8.051  11.963
 6168SOL    HW219946   0.612   8.019  12.120
 6169SOL     OW19947   0.307   7.661  12.403
 6169SOL    HW119948   0.284   7.698  12.493
 6169SOL    HW219949   0.277   7.566  12.397
 6170SOL     OW19950   0.732   8.082  12.236
 6170SOL    HW119951   0.791   8.056  12.160
 6170SOL    HW219952   0.704   8.178  12.225
 6171SOL     OW19953   0.307   7.511  11.790
 6171SOL    HW119954   0.296   7.605  11.823
 6171SOL    HW219955   0.302   7.448  11.867
 6172SOL     OW19956   1.622   7.815  11.546
 6172SOL    HW119957   1.624   7.739  11.610
 6172SOL    HW219958   1.574   7.892  11.586
 6173SOL     OW19959   1.540   7.722  11.297
 6173SOL    HW119960   1.479   7.647  11.320
 6173SOL    HW219961   1.562   7.774  11.380
 6174SOL     OW19962   1.303   8.286  11.214
 6174SOL    HW119963   1.337   8.193  11.229
 6174SOL    HW219964   1.321   8.313  11.119
 6175SOL     OW19965   0.339   7.957  12.178
 6175SOL    HW119966   0.287   7.874  12.161
 6175SOL    HW219967   0.416   7.962  12.114
 6176SOL     OW19968   1.160   7.655  12.649
 6176SOL    HW119969   1.160   7.719  12.726
 6176SOL    HW219970   1.188   7.703  12.566
 6177SOL     OW19971   0.040   7.992  12.286
 6177SOL    HW119972   0.125   7.959  12.245
 6177SOL    HW219973   0.053   8.007  12.384
 6178SOL     OW19974   0.815   8.020  11.497
 6178SOL    HW119975   0.822   7.931  11.451
 6178SOL    HW219976   0.721   8.054  11.489
 6179SOL     OW19977   1.657   8.052  12.378
 6179SOL    HW119978   1.619   7.983  12.440
 6179SOL    HW219979   1.739   8.016  12.334
 6180SOL     OW19980   0.671   7.912  12.441
 6180SOL    HW119981   0.637   7.823  12.411
 6180SOL    HW219982   0.697   7.966  12.361
 6181SOL     OW19983   1.726   7.583  11.695
 6181SOL    HW119984   1.799   7.566  11.628
 6181SOL    HW219985   1.695   7.496  11.733
 6182SOL     OW19986   1.841   7.623  12.135
 6182SOL    HW119987   1.880   7.538  12.099
 6182SOL    HW219988   1.743   7.625  12.116
 6183SOL     OW19989   0.263   7.774  11.892
 6183SOL    HW119990   0.184   7.825  11.858
 6183SOL    HW219991   0.254   7.759  11.990
 6184SOL     OW19992   1.014   7.684  12.143
 6184SOL    HW119993   1.006   7.648  12.050
 6184SOL    HW219994   1.012   7.608  12.208
 6185SOL     OW19995   1.709   7.833  12.553
 6185SOL    HW119996   1.782   7.902  12.557
 6185SOL    HW219997   1.737   7.758  12.494
 6186SOL     OW19998   0.075   7.793  11.205
 6186SOL    HW119999  -0.017   7.765  11.176
 6186SOL    HW220000   0.106   7.870  11.149
 6187SOL     OW20001   0.072   7.614  11.490
 6187SOL    HW120002   0.055   7.697  11.436
 6187SOL    HW220003   0.162   7.577  11.468
 6188SOL     OW20004   1.225   7.773  11.621
 6188SOL    HW120005   1.290   7.699  11.610
 6188SOL    HW220006   1.245   7.823  11.705
 6189SOL     OW20007   0.594   8.193  11.824
 6189SOL    HW120008   0.644   8.278  11.805
 6189SOL    HW220009   0.506   8.195  11.776
 6190SOL     OW20010   1.824   7.640  12.399
 6190SOL    HW120011   1.820   7.550  12.443
 6190SOL    HW220012   1.827   7.629  12.300
 6191SOL     OW20013   0.428   7.872  11.692
 6191SOL    HW120014   0.458   7.800  11.630
 6191SOL    HW220015   0.389   7.832  11.775
 6192SOL     OW20016   1.424   7.662  12.284
 6192SOL    HW120017   1.476   7.597  12.339
 6192SOL    HW220018   1.375   7.725  12.345
 6193SOL     OW20019   1.001   7.482  12.326
 6193SOL    HW120020   0.938   7.410  12.295
 6193SOL    HW220021   1.094   7.446  12.326
 6194SOL     OW20022   1.352   7.500  11.340
 6194SOL    HW120023   1.387   7.459  11.256
 6194SOL    HW220024   1.262   7.462  11.360
 6195SOL     OW20025   1.300   7.901  11.863
 6195SOL    HW120026   1.241   7.981  11.867
 6195SOL    HW220027   1.315   7.866  11.956
 6196SOL     OW20028   1.593   7.669  12.054
 6196SOL    HW120029   1.509   7.668  12.108
 6196SOL    HW220030   1.595   7.752  11.998
 6197SOL     OW20031   2.092   0.628   0.113
 6197SOL    HW120032   1.999   0.626   0.150
 6197SOL    HW220033   2.093   0.589   0.021
 6198SOL     OW20034   2.087   0.275   0.996
 6198SOL    HW120035   2.122   0.258   1.088
 6198SOL    HW220036   1.999   0.230   0.984
 6199SOL     OW20037   1.881   0.368   0.647
 6199SOL    HW120038   1.799   0.411   0.686
 6199SOL    HW220039   1.853   0.295   0.584
 6200SOL     OW20040   2.431   1.275   1.165
 6200SOL    HW120041   2.338   1.268   1.128
 6200SOL    HW220042   2.442   1.364   1.209
 6201SOL     OW20043   3.417   1.511   0.703
 6201SOL    HW120044   3.360   1.495   0.784
 6201SOL    HW220045   3.358   1.521   0.623
 6202SOL     OW20046   2.997   0.703   0.717
 6202SOL    HW120047   3.054   0.781   0.692
 6202SOL    HW220048   2.937   0.729   0.793
 6203SOL     OW20049   3.617   0.607   0.231
 6203SOL    HW120050   3.605   0.594   0.132
 6203SOL    HW220051   3.587   0.526   0.280
 6204SOL     OW20052   2.630   1.144   1.023
 6204SOL    HW120053   2.552   1.161   1.083
 6204SOL    HW220054   2.664   1.231   0.987
 6205SOL     OW20055   2.712   0.798   1.823
 6205SOL    HW120056   2.708   0.874   1.888
 6205SOL    HW220057   2.734   0.834   1.732
 6206SOL     OW20058   2.547   1.012   0.665
 6206SOL    HW120059   2.616   0.996   0.735
 6206SOL    HW220060   2.474   1.069   0.703
 6207SOL     OW20061   2.548   1.161   1.803
 6207SOL    HW120062   2.608   1.240   1.817
 6207SOL    HW220063   2.462   1.192   1.762
 6208SOL     OW20064   2.197   1.435   1.061
 6208SOL    HW120065   2.119   1.404   1.008
 6208SOL    HW220066   2.255   1.493   1.004
 6209SOL     OW20067   3.322   1.505   1.339
 6209SOL    HW120068   3.346   1.599   1.365
 6209SOL    HW220069   3.306   1.451   1.421
 6210SOL     OW20070   2.300   0.392   1.499
 6210SOL    HW120071   2.382   0.336   1.508
 6210SOL    HW220072   2.219   0.334   1.503
 6211SOL     OW20073   3.465   0.447   0.737
 6211SOL    HW120074   3.391   0.493   0.687
 6211SOL    HW220075   3.516   0.515   0.790
 6212SOL     OW20076   2.093   1.713   0.483
 6212SOL    HW120077   2.127   1.790   0.537
 6212SOL    HW220078   2.137   1.713   0.393
 6213SOL     OW20079   2.989   1.341   1.690
 6213SOL    HW120080   3.036   1.341   1.778
 6213SOL    HW220081   2.941   1.254   1.679
 6214SOL     OW20082   2.092   1.434   0.538
 6214SOL    HW120083   2.066   1.530   0.538
 6214SOL    HW220084   2.021   1.380   0.583
 6215SOL     OW20085   2.102   1.091   0.886
 6215SOL    HW120086   2.116   1.007   0.938
 6215SOL    HW220087   2.047   1.155   0.941
 6216SOL     OW20088   2.482   1.786   1.439
 6216SOL    HW120089   2.390   1.769   1.474
 6216SOL    HW220090   2.510   1.878   1.465
 6217SOL     OW20091   2.468   0.964   0.123
 6217SOL    HW120092   2.475   1.048   0.069
 6217SOL    HW220093   2.514   0.977   0.211
 6218SOL     OW20094   3.456   0.114   1.480
 6218SOL    HW120095   3.438   0.181   1.408
 6218SOL    HW220096   3.453   0.160   1.569
 6219SOL     OW20097   1.984   0.643   0.563
 6219SOL    HW120098   1.939   0.555   0.580
 6219SOL    HW220099   1.983   0.697   0.647
 6220SOL     OW20100   3.704   1.767   0.359
 6220SOL    HW120101   3.758   1.738   0.439
 6220SOL    HW220102   3.734   1.857   0.330
 6221SOL     OW20103   1.889   1.596   0.117
 6221SOL    HW120104   1.870   1.500   0.138
 6221SOL    HW220105   1.856   1.654   0.192
 6222SOL     OW20106   3.551   0.922   0.612
 6222SOL    HW120107   3.646   0.893   0.620
 6222SOL    HW220108   3.543   0.987   0.537
 6223SOL     OW20109   3.503   1.108   0.432
 6223SOL    HW120110   3.589   1.110   0.380
 6223SOL    HW220111   3.517   1.155   0.520
 6224SOL     OW20112   1.975   0.737   1.597
 6224SOL    HW120113   2.063   0.724   1.642
 6224SOL    HW220114   1.962   0.834   1.575
 6225SOL     OW20115   2.475   1.365   0.726
 6225SOL    HW120116   2.426   1.278   0.735
 6225SOL    HW220117   2.452   1.408   0.639
 6226SOL     OW20118   3.155   1.228   1.423
 6226SOL    HW120119   3.192   1.155   1.365
 6226SOL    HW220120   3.207   1.233   1.508
 6227SOL     OW20121   2.671   0.004   0.502
 6227SOL    HW120122   2.711   0.095   0.493
 6227SOL    HW220123   2.571   0.012   0.508
 6228SOL     OW20124   2.059   0.976   1.264
 6228SOL    HW120125   2.148   0.931   1.250
 6228SOL    HW220126   1.986   0.911   1.245
 6229SOL     OW20127   3.387   0.999   0.190
 6229SOL    HW120128   3.324   0.923   0.203
 6229SOL    HW220129   3.435   1.017   0.276
 6230SOL     OW20130   3.049   1.792   1.616
 6230SOL    HW120131   3.073   1.852   1.540
 6230SOL    HW220132   3.056   1.697   1.586
 6231SOL     OW20133   2.179   0.251   1.801
 6231SOL    HW120134   2.250   0.322   1.807
 6231SOL    HW220135   2.091   0.290   1.829
 6232SOL     OW20136   3.328   1.417   0.953
 6232SOL    HW120137   3.269   1.423   1.033
 6232SOL    HW220138   3.313   1.329   0.907
 6233SOL     OW20139   3.529   1.714   0.572
 6233SOL    HW120140   3.488   1.691   0.484
 6233SOL    HW220141   3.511   1.640   0.637
 6234SOL     OW20142   2.460   0.729   0.270
 6234SOL    HW120143   2.484   0.798   0.202
 6234SOL    HW220144   2.382   0.762   0.324
 6235SOL     OW20145   3.143   0.345   0.944
 6235SOL    HW120146   3.057   0.295   0.931
 6235SOL    HW220147   3.205   0.291   1.000
 6236SOL     OW20148   3.438   1.662   0.307
 6236SOL    HW120149   3.527   1.708   0.310
 6236SOL    HW220150   3.417   1.638   0.212
 6237SOL     OW20151   2.669   0.605   1.465
 6237SOL    HW120152   2.622   0.602   1.554
 6237SOL    HW220153   2.618   0.550   1.399
 6238SOL     OW20154   3.256   0.469   1.674
 6238SOL    HW120155   3.236   0.512   1.762
 6238SOL    HW220156   3.334   0.407   1.683
 6239SOL     OW20157   2.835   0.890   1.572
 6239SOL    HW120158   2.881   0.806   1.543
 6239SOL    HW220159   2.779   0.924   1.497
 6240SOL     OW20160   2.853   0.410   1.242
 6240SOL    HW120161   2.776   0.444   1.296
 6240SOL    HW220162   2.819   0.359   1.163
 6241SOL     OW20163   2.903   0.701   0.429
 6241SOL    HW120164   2.929   0.697   0.525
 6241SOL    HW220165   2.818   0.650   0.415
 6242SOL     OW20166   1.938   0.811   0.789
 6242SOL    HW120167   2.037   0.799   0.798
 6242SOL    HW220168   1.914   0.906   0.810
 6243SOL     OW20169   1.992   1.821   1.571
 6243SOL    HW120170   1.982   1.806   1.670
 6243SOL    HW220171   1.906   1.857   1.535
 6244SOL     OW20172   2.727   0.348   0.195
 6244SOL    HW120173   2.786   0.411   0.146
 6244SOL    HW220174   2.746   0.254   0.166
 6245SOL     OW20175   3.581   0.585   1.831
 6245SOL    HW120176   3.555   0.674   1.795
 6245SOL    HW220177   3.579   0.517   1.758
 6246SOL     OW20178   3.224   1.144   0.545
 6246SOL    HW120179   3.307   1.115   0.497
 6246SOL    HW220180   3.175   1.211   0.489
 6247SOL     OW20181   2.412   0.196   0.885
 6247SOL    HW120182   2.407   0.191   0.985
 6247SOL    HW220183   2.414   0.292   0.856
 6248SOL     OW20184   2.870   1.456   0.477
 6248SOL    HW120185   2.824   1.528   0.425
 6248SOL    HW220186   2.866   1.476   0.575
 6249SOL     OW20187   2.213   1.801   0.853
 6249SOL    HW120188   2.263   1.715   0.859
 6249SOL    HW220189   2.278   1.878   0.850
 6250SOL     OW20190   3.657   1.066   0.873
 6250SOL    HW120191   3.595   1.051   0.797
 6250SOL    HW220192   3.605   1.077   0.958
 6251SOL     OW20193   3.089   1.550   1.506
 6251SOL    HW120194   3.095   1.473   1.570
 6251SOL    HW220195   3.037   1.524   1.426
 6252SOL     OW20196   2.183   0.943   0.242
 6252SOL    HW120197   2.265   0.982   0.200
 6252SOL    HW220198   2.156   0.861   0.193
 6253SOL     OW20199   3.320   0.735   0.728
 6253SOL    HW120200   3.315   0.670   0.803
 6253SOL    HW220201   3.400   0.794   0.741
 6254SOL     OW20202   2.323   1.266   1.727
 6254SOL    HW120203   2.273   1.267   1.641
 6254SOL    HW220204   2.260   1.248   1.803
 6255SOL     OW20205   2.973   1.776   0.237
 6255SOL    HW120206   2.913   1.714   0.287
 6255SOL    HW220207   3.004   1.732   0.152
 6256SOL     OW20208   2.064   0.285   1.498
 6256SOL    HW120209   1.984   0.345   1.485
 6256SOL    HW220210   2.054   0.236   1.584
 6257SOL     OW20211   3.494   1.377   0.081
 6257SOL    HW120212   3.462   1.471   0.071
 6257SOL    HW220213   3.418   1.314   0.069
 6258SOL     OW20214   2.326   1.743   0.323
 6258SOL    HW120215   2.359   1.782   0.409
 6258SOL    HW220216   2.402   1.736   0.258
 6259SOL     OW20217   3.262   0.107   0.426
 6259SOL    HW120218   3.238   0.070   0.336
 6259SOL    HW220219   3.361   0.123   0.430
 6260SOL     OW20220   2.111   1.785   1.241
 6260SOL    HW120221   2.168   1.720   1.291
 6260SOL    HW220222   2.095   1.752   1.148
 6261SOL     OW20223   2.244   0.700   0.480
 6261SOL    HW120224   2.289   0.610   0.477
 6261SOL    HW220225   2.150   0.689   0.513
 6262SOL     OW20226   3.409   0.222   1.729
 6262SOL    HW120227   3.404   0.259   1.821
 6262SOL    HW220228   3.337   0.153   1.717
 6263SOL     OW20229   2.476   0.122   0.117
 6263SOL    HW120230   2.574   0.100   0.124
 6263SOL    HW220231   2.445   0.105   0.024
 6264SOL     OW20232   2.643   0.264   1.749
 6264SOL    HW120233   2.710   0.203   1.792
 6264SOL    HW220234   2.570   0.283   1.814
 6265SOL     OW20235   2.750   1.514   1.195
 6265SOL    HW120236   2.727   1.489   1.101
 6265SOL    HW220237   2.811   1.445   1.234
 6266SOL     OW20238   3.213   0.590   1.433
 6266SOL    HW120239   3.241   0.547   1.518
 6266SOL    HW220240   3.238   0.686   1.434
 6267SOL     OW20241   2.665   1.402   0.924
 6267SOL    HW120242   2.755   1.416   0.882
 6267SOL    HW220243   2.594   1.404   0.853
 6268SOL     OW20244   2.784   0.503   0.899
 6268SOL    HW120245   2.759   0.494   0.803
 6268SOL    HW220246   2.832   0.421   0.930
 6269SOL     OW20247   2.401   0.064   0.512
 6269SOL    HW120248   2.320   0.065   0.570
 6269SOL    HW220249   2.404   0.147   0.457
 6270SOL     OW20250   3.296   1.188   0.041
 6270SOL    HW120251   3.328   1.112   0.098
 6270SOL    HW220252   3.204   1.215   0.071
 6271SOL     OW20253   2.159   0.035   0.171
 6271SOL    HW120254   2.208   0.119   0.150
 6271SOL    HW220255   2.221  -0.030   0.216
 6272SOL     OW20256   2.797   0.236   0.480
 6272SOL    HW120257   2.749   0.277   0.402
 6272SOL    HW220258   2.896   0.234   0.461
 6273SOL     OW20259   2.938   0.683   1.464
 6273SOL    HW120260   2.858   0.622   1.467
 6273SOL    HW220261   3.019   0.630   1.440
 6274SOL     OW20262   3.089   1.570   0.793
 6274SOL    HW120263   3.110   1.644   0.728
 6274SOL    HW220264   3.157   1.570   0.866
 6275SOL     OW20265   2.321   1.152   0.741
 6275SOL    HW120266   2.250   1.125   0.806
 6275SOL    HW220267   2.295   1.124   0.648
 6276SOL     OW20268   3.133   1.797   0.591
 6276SOL    HW120269   3.177   1.861   0.527
 6276SOL    HW220270   3.083   1.849   0.661
 6277SOL     OW20271   2.894   0.549   0.016
 6277SOL    HW120272   2.853   0.631  -0.023
 6277SOL    HW220273   2.958   0.575   0.089
 6278SOL     OW20274   1.940   0.556   1.386
 6278SOL    HW120275   2.032   0.555   1.345
 6278SOL    HW220276   1.934   0.630   1.453
 6279SOL     OW20277   2.423   0.222   1.147
 6279SOL    HW120278   2.461   0.138   1.184
 6279SOL    HW220279   2.335   0.241   1.191
 6280SOL     OW20280   2.728   0.454   0.642
 6280SOL    HW120281   2.696   0.526   0.580
 6280SOL    HW220282   2.752   0.373   0.589
 6281SOL     OW20283   2.879   0.039   0.753
 6281SOL    HW120284   2.807   0.044   0.684
 6281SOL    HW220285   2.855  -0.030   0.822
 6282SOL     OW20286   3.291   1.173   0.867
 6282SOL    HW120287   3.236   1.089   0.860
 6282SOL    HW220288   3.317   1.202   0.775
 6283SOL     OW20289   3.328   0.590   0.992
 6283SOL    HW120290   3.298   0.495   0.999
 6283SOL    HW220291   3.401   0.606   1.058
 6284SOL     OW20292   3.719   0.833   0.377
 6284SOL    HW120293   3.761   0.769   0.441
 6284SOL    HW220294   3.681   0.782   0.299
 6285SOL     OW20295   2.350   1.385   0.174
 6285SOL    HW120296   2.263   1.370   0.221
 6285SOL    HW220297   2.333   1.411   0.079
 6286SOL     OW20298   3.526   1.280   0.657
 6286SOL    HW120299   3.625   1.288   0.671
 6286SOL    HW220300   3.481   1.364   0.688
 6287SOL     OW20301   3.252   0.575   0.078
 6287SOL    HW120302   3.198   0.554   0.159
 6287SOL    HW220303   3.343   0.534   0.087
 6288SOL     OW20304   2.389   0.256   0.328
 6288SOL    HW120305   2.416   0.197   0.253
 6288SOL    HW220306   2.389   0.351   0.297
 6289SOL     OW20307   3.616   1.223   1.588
 6289SOL    HW120308   3.707   1.184   1.575
 6289SOL    HW220309   3.624   1.319   1.612
 6290SOL     OW20310   2.926   1.347   1.340
 6290SOL    HW120311   2.846   1.324   1.395
 6290SOL    HW220312   3.009   1.321   1.389
 6291SOL     OW20313   3.454   1.629   1.625
 6291SOL    HW120314   3.481   1.663   1.535
 6291SOL    HW220315   3.533   1.591   1.671
 6292SOL     OW20316   2.973   1.195   1.100
 6292SOL    HW120317   2.933   1.239   1.181
 6292SOL    HW220318   2.932   1.232   1.017
 6293SOL     OW20319   3.500   1.099   1.079
 6293SOL    HW120320   3.505   1.180   1.138
 6293SOL    HW220321   3.414   1.101   1.028
 6294SOL     OW20322   2.777   0.089   1.402
 6294SOL    HW120323   2.802   0.069   1.307
 6294SOL    HW220324   2.849   0.145   1.444
 6295SOL     OW20325   2.842   1.116   1.719
 6295SOL    HW120326   2.743   1.122   1.729
 6295SOL    HW220327   2.865   1.036   1.663
 6296SOL     OW20328   2.567   1.050   0.368
 6296SOL    HW120329   2.553   1.057   0.467
 6296SOL    HW220330   2.651   0.999   0.350
 6297SOL     OW20331   2.272   0.813   1.251
 6297SOL    HW120332   2.358   0.825   1.301
 6297SOL    HW220333   2.230   0.726   1.278
 6298SOL     OW20334   3.136   0.386   1.262
 6298SOL    HW120335   3.157   0.460   1.326
 6298SOL    HW220336   3.047   0.403   1.219
 6299SOL     OW20337   1.926   1.564   1.331
 6299SOL    HW120338   1.880   1.646   1.297
 6299SOL    HW220339   2.024   1.583   1.340
 6300SOL     OW20340   2.229   1.100   0.501
 6300SOL    HW120341   2.222   1.183   0.445
 6300SOL    HW220342   2.233   1.020   0.441
 6301SOL     OW20343   2.428   0.537   0.865
 6301SOL    HW120344   2.440   0.603   0.791
 6301SOL    HW220345   2.474   0.571   0.948
 6302SOL     OW20346   3.114   1.348   0.388
 6302SOL    HW120347   3.164   1.425   0.428
 6302SOL    HW220348   3.019   1.350   0.420
 6303SOL     OW20349   3.134   1.445   1.142
 6303SOL    HW120350   3.181   1.458   1.229
 6303SOL    HW220351   3.068   1.371   1.151
 6304SOL     OW20352   3.444   0.639   0.472
 6304SOL    HW120353   3.413   0.700   0.545
 6304SOL    HW220354   3.494   0.691   0.403
 6305SOL     OW20355   2.216   1.510   1.329
 6305SOL    HW120356   2.195   1.466   1.242
 6305SOL    HW220357   2.313   1.536   1.332
 6306SOL     OW20358   2.264   0.751   1.598
 6306SOL    HW120359   2.332   0.806   1.551
 6306SOL    HW220360   2.304   0.663   1.625
 6307SOL     OW20361   3.449   0.779   1.670
 6307SOL    HW120362   3.357   0.817   1.665
 6307SOL    HW220363   3.509   0.826   1.605
 6308SOL     OW20364   2.875   0.105   1.770
 6308SOL    HW120365   2.881   0.190   1.718
 6308SOL    HW220366   2.907   0.029   1.713
 6309SOL     OW20367   2.366   0.050   1.740
 6309SOL    HW120368   2.324  -0.007   1.670
 6309SOL    HW220369   2.300   0.119   1.772
 6310SOL     OW20370   2.435   0.870   1.029
 6310SOL    HW120371   2.479   0.959   1.020
 6310SOL    HW220372   2.372   0.870   1.106
 6311SOL     OW20373   3.222   0.862   1.045
 6311SOL    HW120374   3.147   0.862   0.979
 6311SOL    HW220375   3.259   0.770   1.054
 6312SOL     OW20376   3.071   0.525   0.275
 6312SOL    HW120377   3.084   0.441   0.329
 6312SOL    HW220378   3.042   0.599   0.335
 6313SOL     OW20379   2.169   0.213   1.231
 6313SOL    HW120380   2.146   0.250   1.321
 6313SOL    HW220381   2.139   0.118   1.225
 6314SOL     OW20382   1.899   1.310   1.282
 6314SOL    HW120383   1.952   1.261   1.350
 6314SOL    HW220384   1.921   1.408   1.287
 6315SOL     OW20385   2.594   0.634   1.064
 6315SOL    HW120386   2.653   0.608   0.988
 6315SOL    HW220387   2.566   0.730   1.053
 6316SOL     OW20388   3.590   0.935   1.854
 6316SOL    HW120389   3.544   0.928   1.765
 6316SOL    HW220390   3.528   0.979   1.920
 6317SOL     OW20391   2.169   0.063   0.618
 6317SOL    HW120392   2.158   0.157   0.651
 6317SOL    HW220393   2.164   0.000   0.695
 6318SOL     OW20394   3.484   0.367   0.374
 6318SOL    HW120395   3.486   0.291   0.438
 6318SOL    HW220396   3.436   0.444   0.414
 6319SOL     OW20397   2.885   0.766   0.966
 6319SOL    HW120398   2.900   0.787   1.062
 6319SOL    HW220399   2.855   0.671   0.957
 6320SOL     OW20400   2.842   1.573   1.700
 6320SOL    HW120401   2.822   1.617   1.612
 6320SOL    HW220402   2.881   1.482   1.684
 6321SOL     OW20403   3.721   1.518   1.605
 6321SOL    HW120404   3.735   1.545   1.510
 6321SOL    HW220405   3.804   1.540   1.658
 6322SOL     OW20406   2.212   0.898   1.804
 6322SOL    HW120407   2.288   0.942   1.852
 6322SOL    HW220408   2.247   0.851   1.722
 6323SOL     OW20409   3.402   0.274   0.125
 6323SOL    HW120410   3.341   0.199   0.148
 6323SOL    HW220411   3.424   0.326   0.208
 6324SOL     OW20412   3.165   0.838   0.042
 6324SOL    HW120413   3.199   0.745   0.057
 6324SOL    HW220414   3.183   0.865  -0.053
 6325SOL     OW20415   2.930   1.333   0.849
 6325SOL    HW120416   2.937   1.249   0.794
 6325SOL    HW220417   2.992   1.402   0.813
 6326SOL     OW20418   2.181   0.810   0.949
 6326SOL    HW120419   2.274   0.846   0.954
 6326SOL    HW220420   2.175   0.725   1.001
 6327SOL     OW20421   2.201   0.509   1.006
 6327SOL    HW120422   2.149   0.426   0.989
 6327SOL    HW220423   2.278   0.514   0.942
 6328SOL     OW20424   3.000   0.380   1.678
 6328SOL    HW120425   2.955   0.443   1.742
 6328SOL    HW220426   3.093   0.411   1.661
 6329SOL     OW20427   3.022   0.207   1.477
 6329SOL    HW120428   3.022   0.271   1.554
 6329SOL    HW220429   3.050   0.255   1.394
 6330SOL     OW20430   1.950   1.801   0.927
 6330SOL    HW120431   1.908   1.715   0.900
 6330SOL    HW220432   2.044   1.804   0.893
 6331SOL     OW20433   2.366   1.568   0.910
 6331SOL    HW120434   2.432   1.642   0.919
 6331SOL    HW220435   2.410   1.489   0.868
 6332SOL     OW20436   2.864   0.796   1.238
 6332SOL    HW120437   2.905   0.764   1.324
 6332SOL    HW220438   2.768   0.769   1.235
 6333SOL     OW20439   1.902   0.544   1.114
 6333SOL    HW120440   1.987   0.511   1.073
 6333SOL    HW220441   1.915   0.559   1.212
 6334SOL     OW20442   2.051   0.520   1.722
 6334SOL    HW120443   2.110   0.480   1.652
 6334SOL    HW220444   1.993   0.591   1.681
 6335SOL     OW20445   3.231   0.950   1.660
 6335SOL    HW120446   3.270   1.039   1.680
 6335SOL    HW220447   3.241   0.930   1.563
 6336SOL     OW20448   2.677   0.572   0.325
 6336SOL    HW120449   2.684   0.483   0.279
 6336SOL    HW220450   2.583   0.606   0.317
 6337SOL     OW20451   3.519   0.604   1.206
 6337SOL    HW120452   3.481   0.535   1.268
 6337SOL    HW220453   3.601   0.568   1.162
 6338SOL     OW20454   2.114   1.564   1.744
 6338SOL    HW120455   2.084   1.621   1.820
 6338SOL    HW220456   2.107   1.467   1.770
 6339SOL     OW20457   2.533   0.464   1.269
 6339SOL    HW120458   2.499   0.375   1.239
 6339SOL    HW220459   2.559   0.518   1.189
 6340SOL     OW20460   2.792   1.678   1.465
 6340SOL    HW120461   2.768   1.660   1.370
 6340SOL    HW220462   2.822   1.772   1.475
 6341SOL     OW20463   2.335   0.500   0.191
 6341SOL    HW120464   2.396   0.580   0.195
 6341SOL    HW220465   2.240   0.531   0.198
 6342SOL     OW20466   2.021   1.137   1.466
 6342SOL    HW120467   2.043   1.076   1.542
 6342SOL    HW220468   2.031   1.088   1.380
 6343SOL     OW20469   3.209   1.059   1.234
 6343SOL    HW120470   3.233   0.996   1.160
 6343SOL    HW220471   3.119   1.099   1.216
 6344SOL     OW20472   3.164   0.855   0.309
 6344SOL    HW120473   3.078   0.824   0.351
 6344SOL    HW220474   3.160   0.841   0.210
 6345SOL     OW20475   3.621   1.747   1.154
 6345SOL    HW120476   3.682   1.777   1.081
 6345SOL    HW220477   3.583   1.658   1.132
 6346SOL     OW20478   3.114   1.731   1.128
 6346SOL    HW120479   3.198   1.736   1.074
 6346SOL    HW220480   3.091   1.635   1.146
 6347SOL     OW20481   1.945   1.258   1.022
 6347SOL    HW120482   1.940   1.257   1.122
 6347SOL    HW220483   1.862   1.217   0.984
 6348SOL     OW20484   2.550   1.662   1.716
 6348SOL    HW120485   2.494   1.743   1.725
 6348SOL    HW220486   2.602   1.666   1.630
 6349SOL     OW20487   2.765   0.086   0.133
 6349SOL    HW120488   2.816   0.087   0.047
 6349SOL    HW220489   2.821   0.044   0.204
 6350SOL     OW20490   3.588   0.135   0.523
 6350SOL    HW120491   3.661   0.118   0.456
 6350SOL    HW220492   3.557   0.048   0.561
 6351SOL     OW20493   3.250   1.573   0.477
 6351SOL    HW120494   3.317   1.585   0.403
 6351SOL    HW220495   3.210   1.662   0.500
 6352SOL     OW20496   1.992   1.794   1.851
 6352SOL    HW120497   1.951   1.720   1.904
 6352SOL    HW220498   2.056   1.845   1.909
 6353SOL     OW20499   3.142   0.927   0.672
 6353SOL    HW120500   3.202   0.846   0.674
 6353SOL    HW220501   3.182   0.996   0.612
 6354SOL     OW20502   2.692   1.273   1.422
 6354SOL    HW120503   2.687   1.306   1.517
 6354SOL    HW220504   2.606   1.292   1.376
 6355SOL     OW20505   2.534   1.616   0.154
 6355SOL    HW120506   2.543   1.626   0.055
 6355SOL    HW220507   2.494   1.527   0.175
 6356SOL     OW20508   3.512   1.720   1.394
 6356SOL    HW120509   3.565   1.730   1.310
 6356SOL    HW220510   3.485   1.810   1.428
 6357SOL     OW20511   3.703   0.175   0.963
 6357SOL    HW120512   3.742   0.090   0.927
 6357SOL    HW220513   3.605   0.177   0.944
 6358SOL     OW20514   2.125   0.326   0.720
 6358SOL    HW120515   2.046   0.377   0.686
 6358SOL    HW220516   2.116   0.311   0.818
 6359SOL     OW20517   3.056   1.612   0.031
 6359SOL    HW120518   3.062   1.519   0.068
 6359SOL    HW220519   2.997   1.612  -0.049
 6360SOL     OW20520   2.684   1.002   1.372
 6360SOL    HW120521   2.724   1.001   1.280
 6360SOL    HW220522   2.694   1.094   1.412
 6361SOL     OW20523   2.778   0.910   0.291
 6361SOL    HW120524   2.841   0.948   0.223
 6361SOL    HW220525   2.818   0.827   0.330
 6362SOL     OW20526   3.366   1.607   0.044
 6362SOL    HW120527   3.274   1.644   0.051
 6362SOL    HW220528   3.404   1.627  -0.046
 6363SOL     OW20529   2.234   1.288   1.490
 6363SOL    HW120530   2.221   1.381   1.456
 6363SOL    HW220531   2.150   1.236   1.477
 6364SOL     OW20532   3.476   1.292   1.289
 6364SOL    HW120533   3.536   1.295   1.369
 6364SOL    HW220534   3.401   1.356   1.302
 6365SOL     OW20535   2.901   1.098   0.696
 6365SOL    HW120536   2.831   1.051   0.750
 6365SOL    HW220537   2.960   1.030   0.653
 6366SOL     OW20538   2.876   0.236   0.971
 6366SOL    HW120539   2.868   0.200   0.878
 6366SOL    HW220540   2.874   0.160   1.036
 6367SOL     OW20541   2.452   1.487   0.491
 6367SOL    HW120542   2.494   1.429   0.421
 6367SOL    HW220543   2.408   1.566   0.447
 6368SOL     OW20544   3.571   0.385   1.381
 6368SOL    HW120545   3.644   0.454   1.385
 6368SOL    HW220546   3.599   0.310   1.322
 6369SOL     OW20547   2.117   1.348   0.290
 6369SOL    HW120548   2.021   1.349   0.263
 6369SOL    HW220549   2.129   1.401   0.374
 6370SOL     OW20550   1.967   1.013   1.726
 6370SOL    HW120551   1.890   0.980   1.780
 6370SOL    HW220552   2.052   0.983   1.768
 6371SOL     OW20553   2.534   0.203   1.489
 6371SOL    HW120554   2.624   0.187   1.449
 6371SOL    HW220555   2.542   0.208   1.588
 6372SOL     OW20556   3.302   0.856   1.398
 6372SOL    HW120557   3.245   0.908   1.335
 6372SOL    HW220558   3.398   0.868   1.374
 6373SOL     OW20559   1.934   0.166   0.318
 6373SOL    HW120560   1.917   0.249   0.264
 6373SOL    HW220561   2.024   0.129   0.296
 6374SOL     OW20562   3.045   1.335   0.119
 6374SOL    HW120563   2.946   1.324   0.121
 6374SOL    HW220564   3.079   1.350   0.212
 6375SOL     OW20565   2.475   0.842   1.431
 6375SOL    HW120566   2.531   0.923   1.414
 6375SOL    HW220567   2.534   0.762   1.434
 6376SOL     OW20568   3.355   1.767   0.959
 6376SOL    HW120569   3.388   1.831   0.890
 6376SOL    HW220570   3.421   1.761   1.034
 6377SOL     OW20571   2.578   0.565   1.708
 6377SOL    HW120572   2.597   0.630   1.782
 6377SOL    HW220573   2.638   0.485   1.717
 6378SOL     OW20574   3.312   1.220   1.633
 6378SOL    HW120575   3.303   1.210   1.732
 6378SOL    HW220576   3.408   1.213   1.607
 6379SOL     OW20577   2.252   1.741   1.560
 6379SOL    HW120578   2.161   1.782   1.558
 6379SOL    HW220579   2.245   1.647   1.592
 6380SOL     OW20580   3.536   0.883   1.254
 6380SOL    HW120581   3.509   0.794   1.217
 6380SOL    HW220582   3.537   0.951   1.181
 6381SOL     OW20583   3.087   0.325   0.449
 6381SOL    HW120584   3.152   0.251   0.438
 6381SOL    HW220585   3.107   0.375   0.533
 6382SOL     OW20586   2.456   0.745   0.652
 6382SOL    HW120587   2.506   0.830   0.633
 6382SOL    HW220588   2.368   0.747   0.604
 6383SOL     OW20589   3.639   0.342   1.642
 6383SOL    HW120590   3.622   0.373   1.548
 6383SOL    HW220591   3.555   0.305   1.680
 6384SOL     OW20592   3.592   0.934   1.517
 6384SOL    HW120593   3.630   1.025   1.532
 6384SOL    HW220594   3.584   0.917   1.418
 6385SOL     OW20595   2.721   1.374   0.016
 6385SOL    HW120596   2.675   1.389   0.104
 6385SOL    HW220597   2.765   1.459  -0.014
 6386SOL     OW20598   2.523   1.790   0.953
 6386SOL    HW120599   2.477   1.878   0.940
 6386SOL    HW220600   2.622   1.802   0.946
 6387SOL     OW20601   2.721   0.956   0.861
 6387SOL    HW120602   2.775   0.887   0.909
 6387SOL    HW220603   2.689   1.025   0.927
 6388SOL     OW20604   2.945   0.984   0.087
 6388SOL    HW120605   2.922   1.037   0.005
 6388SOL    HW220606   3.026   0.928   0.068
 6389SOL     OW20607   3.723   1.569   0.851
 6389SOL    HW120608   3.652   1.557   0.781
 6389SOL    HW220609   3.724   1.490   0.911
 6390SOL     OW20610   2.083   1.314   1.844
 6390SOL    HW120611   2.018   1.241   1.823
 6390SOL    HW220612   2.087   1.328   1.942
 6391SOL     OW20613   1.941   1.240   0.653
 6391SOL    HW120614   1.940   1.193   0.741
 6391SOL    HW220615   2.023   1.212   0.602
 6392SOL     OW20616   2.534   1.391   1.624
 6392SOL    HW120617   2.456   1.341   1.662
 6392SOL    HW220618   2.531   1.486   1.655
 6393SOL     OW20619   3.686   0.192   1.227
 6393SOL    HW120620   3.682   0.102   1.271
 6393SOL    HW220621   3.689   0.181   1.128
 6394SOL     OW20622   2.290   0.424   0.520
 6394SOL    HW120623   2.320   0.352   0.458
 6394SOL    HW220624   2.251   0.384   0.603
 6395SOL     OW20625   3.567   1.487   1.104
 6395SOL    HW120626   3.474   1.462   1.077
 6395SOL    HW220627   3.593   1.437   1.186
 6396SOL     OW20628   2.179   0.547   1.280
 6396SOL    HW120629   2.217   0.488   1.352
 6396SOL    HW220630   2.219   0.521   1.192
 6397SOL     OW20631   2.674   1.586   0.687
 6397SOL    HW120632   2.706   1.596   0.593
 6397SOL    HW220633   2.595   1.524   0.689
 6398SOL     OW20634   3.286   0.214   1.112
 6398SOL    HW120635   3.338   0.149   1.167
 6398SOL    HW220636   3.237   0.277   1.173
 6399SOL     OW20637   2.863   0.034   1.154
 6399SOL    HW120638   2.800  -0.038   1.123
 6399SOL    HW220639   2.956  -0.002   1.154
 6400SOL     OW20640   2.632   1.330   0.301
 6400SOL    HW120641   2.586   1.243   0.318
 6400SOL    HW220642   2.723   1.327   0.342
 6401SOL     OW20643   2.480   1.567   1.284
 6401SOL    HW120644   2.475   1.649   1.341
 6401SOL    HW220645   2.569   1.564   1.239
 6402SOL     OW20646   3.214   0.052   0.168
 6402SOL    HW120647   3.249   0.011   0.084
 6402SOL    HW220648   3.124   0.014   0.188
 6403SOL     OW20649   3.162   0.453   0.691
 6403SOL    HW120650   3.103   0.533   0.695
 6403SOL    HW220651   3.177   0.418   0.784
 6404SOL     OW20652   3.455   0.221   0.882
 6404SOL    HW120653   3.371   0.220   0.936
 6404SOL    HW220654   3.457   0.304   0.826
 6405SOL     OW20655   1.901   1.077   0.300
 6405SOL    HW120656   2.000   1.066   0.291
 6405SOL    HW220657   1.861   0.991   0.332
 6406SOL     OW20658   2.737   1.646   0.337
 6406SOL    HW120659   2.660   1.611   0.283
 6406SOL    HW220660   2.705   1.717   0.399
 6407SOL     OW20661   2.092   0.628   1.975
 6407SOL    HW120662   1.999   0.626   2.012
 6407SOL    HW220663   2.093   0.589   1.883
 6408SOL     OW20664   2.087   0.275   2.858
 6408SOL    HW120665   2.122   0.258   2.950
 6408SOL    HW220666   1.999   0.230   2.846
 6409SOL     OW20667   1.881   0.368   2.509
 6409SOL    HW120668   1.799   0.411   2.548
 6409SOL    HW220669   1.853   0.295   2.446
 6410SOL     OW20670   2.431   1.275   3.027
 6410SOL    HW120671   2.338   1.268   2.990
 6410SOL    HW220672   2.442   1.364   3.071
 6411SOL     OW20673   3.417   1.511   2.565
 6411SOL    HW120674   3.360   1.495   2.646
 6411SOL    HW220675   3.358   1.521   2.485
 6412SOL     OW20676   2.997   0.703   2.579
 6412SOL    HW120677   3.054   0.781   2.554
 6412SOL    HW220678   2.937   0.729   2.655
 6413SOL     OW20679   3.617   0.607   2.093
 6413SOL    HW120680   3.605   0.594   1.994
 6413SOL    HW220681   3.587   0.526   2.142
 6414SOL     OW20682   2.630   1.144   2.885
 6414SOL    HW120683   2.552   1.161   2.945
 6414SOL    HW220684   2.664   1.231   2.849
 6415SOL     OW20685   2.712   0.798   3.685
 6415SOL    HW120686   2.708   0.874   3.750
 6415SOL    HW220687   2.734   0.834   3.594
 6416SOL     OW20688   2.547   1.012   2.527
 6416SOL    HW120689   2.616   0.996   2.597
 6416SOL    HW220690   2.474   1.069   2.565
 6417SOL     OW20691   2.548   1.161   3.665
 6417SOL    HW120692   2.608   1.240   3.679
 6417SOL    HW220693   2.462   1.192   3.624
 6418SOL     OW20694   2.197   1.435   2.923
 6418SOL    HW120695   2.119   1.404   2.870
 6418SOL    HW220696   2.255   1.493   2.866
 6419SOL     OW20697   3.322   1.505   3.201
 6419SOL    HW120698   3.346   1.599   3.227
 6419SOL    HW220699   3.306   1.451   3.283
 6420SOL     OW20700   2.300   0.392   3.361
 6420SOL    HW120701   2.382   0.336   3.370
 6420SOL    HW220702   2.219   0.334   3.365
 6421SOL     OW20703   3.465   0.447   2.599
 6421SOL    HW120704   3.391   0.493   2.549
 6421SOL    HW220705   3.516   0.515   2.652
 6422SOL     OW20706   2.093   1.713   2.345
 6422SOL    HW120707   2.127   1.790   2.399
 6422SOL    HW220708   2.137   1.713   2.255
 6423SOL     OW20709   2.989   1.341   3.552
 6423SOL    HW120710   3.036   1.341   3.640
 6423SOL    HW220711   2.941   1.254   3.541
 6424SOL     OW20712   2.092   1.434   2.400
 6424SOL    HW120713   2.066   1.530   2.400
 6424SOL    HW220714   2.021   1.380   2.445
 6425SOL     OW20715   2.102   1.091   2.748
 6425SOL    HW120716   2.116   1.007   2.800
 6425SOL    HW220717   2.047   1.155   2.803
 6426SOL     OW20718   2.482   1.786   3.301
 6426SOL    HW120719   2.390   1.769   3.336
 6426SOL    HW220720   2.510   1.878   3.327
 6427SOL     OW20721   2.468   0.964   1.985
 6427SOL    HW120722   2.475   1.048   1.931
 6427SOL    HW220723   2.514   0.977   2.073
 6428SOL     OW20724   3.456   0.114   3.342
 6428SOL    HW120725   3.438   0.181   3.270
 6428SOL    HW220726   3.453   0.160   3.431
 6429SOL     OW20727   1.984   0.643   2.425
 6429SOL    HW120728   1.939   0.555   2.442
 6429SOL    HW220729   1.983   0.697   2.509
 6430SOL     OW20730   3.704   1.767   2.221
 6430SOL    HW120731   3.758   1.738   2.301
 6430SOL    HW220732   3.734   1.857   2.192
 6431SOL     OW20733   1.889   1.596   1.979
 6431SOL    HW120734   1.870   1.500   2.000
 6431SOL    HW220735   1.856   1.654   2.054
 6432SOL     OW20736   3.551   0.922   2.474
 6432SOL    HW120737   3.646   0.893   2.482
 6432SOL    HW220738   3.543   0.987   2.399
 6433SOL     OW20739   3.503   1.108   2.294
 6433SOL    HW120740   3.589   1.110   2.242
 6433SOL    HW220741   3.517   1.155   2.382
 6434SOL     OW20742   1.975   0.737   3.459
 6434SOL    HW120743   2.063   0.724   3.504
 6434SOL    HW220744   1.962   0.834   3.437
 6435SOL     OW20745   2.475   1.365   2.588
 6435SOL    HW120746   2.426   1.278   2.597
 6435SOL    HW220747   2.452   1.408   2.501
 6436SOL     OW20748   3.155   1.228   3.285
 6436SOL    HW120749   3.192   1.155   3.227
 6436SOL    HW220750   3.207   1.233   3.370
 6437SOL     OW20751   2.671   0.004   2.364
 6437SOL    HW120752   2.711   0.095   2.355
 6437SOL    HW220753   2.571   0.012   2.370
 6438SOL     OW20754   2.059   0.976   3.126
 6438SOL    HW120755   2.148   0.931   3.112
 6438SOL    HW220756   1.986   0.911   3.107
 6439SOL     OW20757   3.387   0.999   2.052
 6439SOL    HW120758   3.324   0.923   2.065
 6439SOL    HW220759   3.435   1.017   2.138
 6440SOL     OW20760   3.049   1.792   3.478
 6440SOL    HW120761   3.073   1.852   3.402
 6440SOL    HW220762   3.056   1.697   3.448
 6441SOL     OW20763   2.179   0.251   3.663
 6441SOL    HW120764   2.250   0.322   3.669
 6441SOL    HW220765   2.091   0.290   3.691
 6442SOL     OW20766   3.328   1.417   2.815
 6442SOL    HW120767   3.269   1.423   2.895
 6442SOL    HW220768   3.313   1.329   2.769
 6443SOL     OW20769   3.529   1.714   2.434
 6443SOL    HW120770   3.488   1.691   2.346
 6443SOL    HW220771   3.511   1.640   2.499
 6444SOL     OW20772   2.460   0.729   2.132
 6444SOL    HW120773   2.484   0.798   2.064
 6444SOL    HW220774   2.382   0.762   2.186
 6445SOL     OW20775   3.143   0.345   2.806
 6445SOL    HW120776   3.057   0.295   2.793
 6445SOL    HW220777   3.205   0.291   2.862
 6446SOL     OW20778   3.438   1.662   2.169
 6446SOL    HW120779   3.527   1.708   2.172
 6446SOL    HW220780   3.417   1.638   2.074
 6447SOL     OW20781   2.669   0.605   3.327
 6447SOL    HW120782   2.622   0.602   3.416
 6447SOL    HW220783   2.618   0.550   3.261
 6448SOL     OW20784   3.256   0.469   3.536
 6448SOL    HW120785   3.236   0.512   3.624
 6448SOL    HW220786   3.334   0.407   3.545
 6449SOL     OW20787   2.835   0.890   3.434
 6449SOL    HW120788   2.881   0.806   3.405
 6449SOL    HW220789   2.779   0.924   3.359
 6450SOL     OW20790   2.853   0.410   3.104
 6450SOL    HW120791   2.776   0.444   3.158
 6450SOL    HW220792   2.819   0.359   3.025
 6451SOL     OW20793   2.903   0.701   2.291
 6451SOL    HW120794   2.929   0.697   2.387
 6451SOL    HW220795   2.818   0.650   2.277
 6452SOL     OW20796   1.938   0.811   2.651
 6452SOL    HW120797   2.037   0.799   2.660
 6452SOL    HW220798   1.914   0.906   2.672
 6453SOL     OW20799   1.992   1.821   3.433
 6453SOL    HW120800   1.982   1.806   3.532
 6453SOL    HW220801   1.906   1.857   3.397
 6454SOL     OW20802   2.727   0.348   2.057
 6454SOL    HW120803   2.786   0.411   2.008
 6454SOL    HW220804   2.746   0.254   2.028
 6455SOL     OW20805   3.581   0.585   3.693
 6455SOL    HW120806   3.555   0.674   3.657
 6455SOL    HW220807   3.579   0.517   3.620
 6456SOL     OW20808   3.224   1.144   2.407
 6456SOL    HW120809   3.307   1.115   2.359
 6456SOL    HW220810   3.175   1.211   2.351
 6457SOL     OW20811   2.412   0.196   2.747
 6457SOL    HW120812   2.407   0.191   2.847
 6457SOL    HW220813   2.414   0.292   2.718
 6458SOL     OW20814   2.870   1.456   2.339
 6458SOL    HW120815   2.824   1.528   2.287
 6458SOL    HW220816   2.866   1.476   2.437
 6459SOL     OW20817   2.213   1.801   2.715
 6459SOL    HW120818   2.263   1.715   2.721
 6459SOL    HW220819   2.278   1.878   2.712
 6460SOL     OW20820   3.657   1.066   2.735
 6460SOL    HW120821   3.595   1.051   2.659
 6460SOL    HW220822   3.605   1.077   2.820
 6461SOL     OW20823   3.089   1.550   3.368
 6461SOL    HW120824   3.095   1.473   3.432
 6461SOL    HW220825   3.037   1.524   3.288
 6462SOL     OW20826   2.183   0.943   2.104
 6462SOL    HW120827   2.265   0.982   2.062
 6462SOL    HW220828   2.156   0.861   2.055
 6463SOL     OW20829   3.320   0.735   2.590
 6463SOL    HW120830   3.315   0.670   2.665
 6463SOL    HW220831   3.400   0.794   2.603
 6464SOL     OW20832   2.323   1.266   3.589
 6464SOL    HW120833   2.273   1.267   3.503
 6464SOL    HW220834   2.260   1.248   3.665
 6465SOL     OW20835   2.973   1.776   2.099
 6465SOL    HW120836   2.913   1.714   2.149
 6465SOL    HW220837   3.004   1.732   2.014
 6466SOL     OW20838   2.064   0.285   3.360
 6466SOL    HW120839   1.984   0.345   3.347
 6466SOL    HW220840   2.054   0.236   3.446
 6467SOL     OW20841   3.494   1.377   1.943
 6467SOL    HW120842   3.462   1.471   1.933
 6467SOL    HW220843   3.418   1.314   1.931
 6468SOL     OW20844   2.326   1.743   2.185
 6468SOL    HW120845   2.359   1.782   2.271
 6468SOL    HW220846   2.402   1.736   2.120
 6469SOL     OW20847   3.262   0.107   2.288
 6469SOL    HW120848   3.238   0.070   2.198
 6469SOL    HW220849   3.361   0.123   2.292
 6470SOL     OW20850   2.111   1.785   3.103
 6470SOL    HW120851   2.168   1.720   3.153
 6470SOL    HW220852   2.095   1.752   3.010
 6471SOL     OW20853   2.802   1.698   2.766
 6471SOL    HW120854   2.882   1.641   2.787
 6471SOL    HW220855   2.753   1.658   2.689
 6472SOL     OW20856   2.244   0.700   2.342
 6472SOL    HW120857   2.289   0.610   2.339
 6472SOL    HW220858   2.150   0.689   2.375
 6473SOL     OW20859   3.409   0.222   3.591
 6473SOL    HW120860   3.404   0.259   3.683
 6473SOL    HW220861   3.337   0.153   3.579
 6474SOL     OW20862   2.476   0.122   1.979
 6474SOL    HW120863   2.574   0.100   1.986
 6474SOL    HW220864   2.445   0.105   1.886
 6475SOL     OW20865   2.643   0.264   3.611
 6475SOL    HW120866   2.710   0.203   3.654
 6475SOL    HW220867   2.570   0.283   3.676
 6476SOL     OW20868   2.750   1.514   3.057
 6476SOL    HW120869   2.727   1.489   2.963
 6476SOL    HW220870   2.811   1.445   3.096
 6477SOL     OW20871   3.213   0.590   3.295
 6477SOL    HW120872   3.241   0.547   3.380
 6477SOL    HW220873   3.238   0.686   3.296
 6478SOL     OW20874   2.665   1.402   2.786
 6478SOL    HW120875   2.755   1.416   2.744
 6478SOL    HW220876   2.594   1.404   2.715
 6479SOL     OW20877   2.784   0.503   2.761
 6479SOL    HW120878   2.759   0.494   2.665
 6479SOL    HW220879   2.832   0.421   2.792
 6480SOL     OW20880   2.401   0.064   2.374
 6480SOL    HW120881   2.320   0.065   2.432
 6480SOL    HW220882   2.404   0.147   2.319
 6481SOL     OW20883   3.296   1.188   1.903
 6481SOL    HW120884   3.328   1.112   1.960
 6481SOL    HW220885   3.204   1.215   1.933
 6482SOL     OW20886   2.159   0.035   2.033
 6482SOL    HW120887   2.208   0.119   2.012
 6482SOL    HW220888   2.221  -0.030   2.078
 6483SOL     OW20889   2.797   0.236   2.342
 6483SOL    HW120890   2.749   0.277   2.264
 6483SOL    HW220891   2.896   0.234   2.323
 6484SOL     OW20892   2.938   0.683   3.326
 6484SOL    HW120893   2.858   0.622   3.329
 6484SOL    HW220894   3.019   0.630   3.302
 6485SOL     OW20895   3.089   1.570   2.655
 6485SOL    HW120896   3.110   1.644   2.590
 6485SOL    HW220897   3.157   1.570   2.728
 6486SOL     OW20898   2.321   1.152   2.603
 6486SOL    HW120899   2.250   1.125   2.668
 6486SOL    HW220900   2.295   1.124   2.510
 6487SOL     OW20901   3.133   1.797   2.453
 6487SOL    HW120902   3.177   1.861   2.389
 6487SOL    HW220903   3.083   1.849   2.523
 6488SOL     OW20904   2.894   0.549   1.878
 6488SOL    HW120905   2.853   0.631   1.839
 6488SOL    HW220906   2.958   0.575   1.951
 6489SOL     OW20907   1.940   0.556   3.248
 6489SOL    HW120908   2.032   0.555   3.207
 6489SOL    HW220909   1.934   0.630   3.315
 6490SOL     OW20910   2.423   0.222   3.009
 6490SOL    HW120911   2.461   0.138   3.046
 6490SOL    HW220912   2.335   0.241   3.053
 6491SOL     OW20913   2.728   0.454   2.504
 6491SOL    HW120914   2.696   0.526   2.442
 6491SOL    HW220915   2.752   0.373   2.451
 6492SOL     OW20916   2.879   0.039   2.615
 6492SOL    HW120917   2.807   0.044   2.546
 6492SOL    HW220918   2.855  -0.030   2.684
 6493SOL     OW20919   3.291   1.173   2.729
 6493SOL    HW120920   3.236   1.089   2.722
 6493SOL    HW220921   3.317   1.202   2.637
 6494SOL     OW20922   3.328   0.590   2.854
 6494SOL    HW120923   3.298   0.495   2.861
 6494SOL    HW220924   3.401   0.606   2.920
 6495SOL     OW20925   3.719   0.833   2.239
 6495SOL    HW120926   3.761   0.769   2.303
 6495SOL    HW220927   3.681   0.782   2.161
 6496SOL     OW20928   2.350   1.385   2.036
 6496SOL    HW120929   2.263   1.370   2.083
 6496SOL    HW220930   2.333   1.411   1.941
 6497SOL     OW20931   3.526   1.280   2.519
 6497SOL    HW120932   3.625   1.288   2.533
 6497SOL    HW220933   3.481   1.364   2.550
 6498SOL     OW20934   3.252   0.575   1.940
 6498SOL    HW120935   3.198   0.554   2.021
 6498SOL    HW220936   3.343   0.534   1.949
 6499SOL     OW20937   2.389   0.256   2.190
 6499SOL    HW120938   2.416   0.197   2.115
 6499SOL    HW220939   2.389   0.351   2.159
 6500SOL     OW20940   3.616   1.223   3.450
 6500SOL    HW120941   3.707   1.184   3.437
 6500SOL    HW220942   3.624   1.319   3.474
 6501SOL     OW20943   2.926   1.347   3.202
 6501SOL    HW120944   2.846   1.324   3.257
 6501SOL    HW220945   3.009   1.321   3.251
 6502SOL     OW20946   3.454   1.629   3.487
 6502SOL    HW120947   3.481   1.663   3.397
 6502SOL    HW220948   3.533   1.591   3.533
 6503SOL     OW20949   2.973   1.195   2.962
 6503SOL    HW120950   2.933   1.239   3.043
 6503SOL    HW220951   2.932   1.232   2.879
 6504SOL     OW20952   3.500   1.099   2.941
 6504SOL    HW120953   3.505   1.180   3.000
 6504SOL    HW220954   3.414   1.101   2.890
 6505SOL     OW20955   2.777   0.089   3.264
 6505SOL    HW120956   2.802   0.069   3.169
 6505SOL    HW220957   2.849   0.145   3.306
 6506SOL     OW20958   2.842   1.116   3.581
 6506SOL    HW120959   2.743   1.122   3.591
 6506SOL    HW220960   2.865   1.036   3.525
 6507SOL     OW20961   2.567   1.050   2.230
 6507SOL    HW120962   2.553   1.057   2.329
 6507SOL    HW220963   2.651   0.999   2.212
 6508SOL     OW20964   2.272   0.813   3.113
 6508SOL    HW120965   2.358   0.825   3.163
 6508SOL    HW220966   2.230   0.726   3.140
 6509SOL     OW20967   3.136   0.386   3.124
 6509SOL    HW120968   3.157   0.460   3.188
 6509SOL    HW220969   3.047   0.403   3.081
 6510SOL     OW20970   1.926   1.564   3.193
 6510SOL    HW120971   1.880   1.646   3.159
 6510SOL    HW220972   2.024   1.583   3.202
 6511SOL     OW20973   2.229   1.100   2.363
 6511SOL    HW120974   2.222   1.183   2.307
 6511SOL    HW220975   2.233   1.020   2.303
 6512SOL     OW20976   2.428   0.537   2.727
 6512SOL    HW120977   2.440   0.603   2.653
 6512SOL    HW220978   2.474   0.571   2.810
 6513SOL     OW20979   3.114   1.348   2.250
 6513SOL    HW120980   3.164   1.425   2.290
 6513SOL    HW220981   3.019   1.350   2.282
 6514SOL     OW20982   3.134   1.445   3.004
 6514SOL    HW120983   3.181   1.458   3.091
 6514SOL    HW220984   3.068   1.371   3.013
 6515SOL     OW20985   3.444   0.639   2.334
 6515SOL    HW120986   3.413   0.700   2.407
 6515SOL    HW220987   3.494   0.691   2.265
 6516SOL     OW20988   2.216   1.510   3.191
 6516SOL    HW120989   2.195   1.466   3.104
 6516SOL    HW220990   2.313   1.536   3.194
 6517SOL     OW20991   2.264   0.751   3.460
 6517SOL    HW120992   2.332   0.806   3.413
 6517SOL    HW220993   2.304   0.663   3.487
 6518SOL     OW20994   3.449   0.779   3.532
 6518SOL    HW120995   3.357   0.817   3.527
 6518SOL    HW220996   3.509   0.826   3.467
 6519SOL     OW20997   2.875   0.105   3.632
 6519SOL    HW120998   2.881   0.190   3.580
 6519SOL    HW220999   2.907   0.029   3.575
 6520SOL     OW21000   2.366   0.050   3.602
 6520SOL    HW121001   2.324  -0.007   3.532
 6520SOL    HW221002   2.300   0.119   3.634
 6521SOL     OW21003   2.435   0.870   2.891
 6521SOL    HW121004   2.479   0.959   2.882
 6521SOL    HW221005   2.372   0.870   2.968
 6522SOL     OW21006   3.222   0.862   2.907
 6522SOL    HW121007   3.147   0.862   2.841
 6522SOL    HW221008   3.259   0.770   2.916
 6523SOL     OW21009   3.071   0.525   2.137
 6523SOL    HW121010   3.084   0.441   2.191
 6523SOL    HW221011   3.042   0.599   2.197
 6524SOL     OW21012   2.169   0.213   3.093
 6524SOL    HW121013   2.146   0.250   3.183
 6524SOL    HW221014   2.139   0.118   3.087
 6525SOL     OW21015   1.899   1.310   3.144
 6525SOL    HW121016   1.952   1.261   3.212
 6525SOL    HW221017   1.921   1.408   3.149
 6526SOL     OW21018   2.594   0.634   2.926
 6526SOL    HW121019   2.653   0.608   2.850
 6526SOL    HW221020   2.566   0.730   2.915
 6527SOL     OW21021   3.590   0.935   3.716
 6527SOL    HW121022   3.544   0.928   3.627
 6527SOL    HW221023   3.528   0.979   3.782
 6528SOL     OW21024   2.169   0.063   2.480
 6528SOL    HW121025   2.158   0.157   2.513
 6528SOL    HW221026   2.164   0.000   2.557
 6529SOL     OW21027   3.484   0.367   2.236
 6529SOL    HW121028   3.486   0.291   2.300
 6529SOL    HW221029   3.436   0.444   2.276
 6530SOL     OW21030   2.885   0.766   2.828
 6530SOL    HW121031   2.900   0.787   2.924
 6530SOL    HW221032   2.855   0.671   2.819
 6531SOL     OW21033   2.842   1.573   3.562
 6531SOL    HW121034   2.822   1.617   3.474
 6531SOL    HW221035   2.881   1.482   3.546
 6532SOL     OW21036   3.721   1.518   3.467
 6532SOL    HW121037   3.735   1.545   3.372
 6532SOL    HW221038   3.804   1.540   3.520
 6533SOL     OW21039   2.212   0.898   3.666
 6533SOL    HW121040   2.288   0.942   3.714
 6533SOL    HW221041   2.247   0.851   3.584
 6534SOL     OW21042   3.402   0.274   1.987
 6534SOL    HW121043   3.341   0.199   2.010
 6534SOL    HW221044   3.424   0.326   2.070
 6535SOL     OW21045   3.165   0.838   1.904
 6535SOL    HW121046   3.199   0.745   1.919
 6535SOL    HW221047   3.183   0.865   1.809
 6536SOL     OW21048   2.930   1.333   2.711
 6536SOL    HW121049   2.937   1.249   2.656
 6536SOL    HW221050   2.992   1.402   2.675
 6537SOL     OW21051   2.181   0.810   2.811
 6537SOL    HW121052   2.274   0.846   2.816
 6537SOL    HW221053   2.175   0.725   2.863
 6538SOL     OW21054   2.201   0.509   2.868
 6538SOL    HW121055   2.149   0.426   2.851
 6538SOL    HW221056   2.278   0.514   2.804
 6539SOL     OW21057   3.000   0.380   3.540
 6539SOL    HW121058   2.955   0.443   3.604
 6539SOL    HW221059   3.093   0.411   3.523
 6540SOL     OW21060   3.022   0.207   3.339
 6540SOL    HW121061   3.022   0.271   3.416
 6540SOL    HW221062   3.050   0.255   3.256
 6541SOL     OW21063   1.870   1.326   2.062
 6541SOL    HW121064   1.777   1.347   2.031
 6541SOL    HW221065   1.880   1.227   2.075
 6542SOL     OW21066   1.950   1.801   2.789
 6542SOL    HW121067   1.908   1.715   2.762
 6542SOL    HW221068   2.044   1.804   2.755
 6543SOL     OW21069   2.366   1.568   2.772
 6543SOL    HW121070   2.432   1.642   2.781
 6543SOL    HW221071   2.410   1.489   2.730
 6544SOL     OW21072   2.864   0.796   3.100
 6544SOL    HW121073   2.905   0.764   3.186
 6544SOL    HW221074   2.768   0.769   3.097
 6545SOL     OW21075   1.902   0.544   2.976
 6545SOL    HW121076   1.987   0.511   2.935
 6545SOL    HW221077   1.915   0.559   3.074
 6546SOL     OW21078   2.051   0.520   3.584
 6546SOL    HW121079   2.110   0.480   3.514
 6546SOL    HW221080   1.993   0.591   3.543
 6547SOL     OW21081   3.231   0.950   3.522
 6547SOL    HW121082   3.270   1.039   3.542
 6547SOL    HW221083   3.241   0.930   3.425
 6548SOL     OW21084   2.677   0.572   2.187
 6548SOL    HW121085   2.684   0.483   2.141
 6548SOL    HW221086   2.583   0.606   2.179
 6549SOL     OW21087   3.519   0.604   3.068
 6549SOL    HW121088   3.481   0.535   3.130
 6549SOL    HW221089   3.601   0.568   3.024
 6550SOL     OW21090   2.114   1.564   3.606
 6550SOL    HW121091   2.084   1.621   3.682
 6550SOL    HW221092   2.107   1.467   3.632
 6551SOL     OW21093   2.533   0.464   3.131
 6551SOL    HW121094   2.499   0.375   3.101
 6551SOL    HW221095   2.559   0.518   3.051
 6552SOL     OW21096   2.792   1.678   3.327
 6552SOL    HW121097   2.768   1.660   3.232
 6552SOL    HW221098   2.822   1.772   3.337
 6553SOL     OW21099   2.335   0.500   2.053
 6553SOL    HW121100   2.396   0.580   2.057
 6553SOL    HW221101   2.240   0.531   2.060
 6554SOL     OW21102   2.021   1.137   3.328
 6554SOL    HW121103   2.043   1.076   3.404
 6554SOL    HW221104   2.031   1.088   3.242
 6555SOL     OW21105   3.209   1.059   3.096
 6555SOL    HW121106   3.233   0.996   3.022
 6555SOL    HW221107   3.119   1.099   3.078
 6556SOL     OW21108   3.164   0.855   2.171
 6556SOL    HW121109   3.078   0.824   2.213
 6556SOL    HW221110   3.160   0.841   2.072
 6557SOL     OW21111   3.621   1.747   3.016
 6557SOL    HW121112   3.682   1.777   2.943
 6557SOL    HW221113   3.583   1.658   2.994
 6558SOL     OW21114   3.114   1.731   2.990
 6558SOL    HW121115   3.198   1.736   2.936
 6558SOL    HW221116   3.091   1.635   3.008
 6559SOL     OW21117   1.945   1.258   2.884
 6559SOL    HW121118   1.940   1.257   2.984
 6559SOL    HW221119   1.862   1.217   2.846
 6560SOL     OW21120   2.550   1.662   3.578
 6560SOL    HW121121   2.494   1.743   3.587
 6560SOL    HW221122   2.602   1.666   3.492
 6561SOL     OW21123   3.588   0.135   2.385
 6561SOL    HW121124   3.661   0.118   2.318
 6561SOL    HW221125   3.557   0.048   2.423
 6562SOL     OW21126   3.250   1.573   2.339
 6562SOL    HW121127   3.317   1.585   2.265
 6562SOL    HW221128   3.210   1.662   2.362
 6563SOL     OW21129   1.992   1.794   3.713
 6563SOL    HW121130   1.951   1.720   3.766
 6563SOL    HW221131   2.056   1.845   3.771
 6564SOL     OW21132   3.142   0.927   2.534
 6564SOL    HW121133   3.202   0.846   2.536
 6564SOL    HW221134   3.182   0.996   2.474
 6565SOL     OW21135   2.692   1.273   3.284
 6565SOL    HW121136   2.687   1.306   3.379
 6565SOL    HW221137   2.606   1.292   3.238
 6566SOL     OW21138   2.534   1.616   2.016
 6566SOL    HW121139   2.543   1.626   1.917
 6566SOL    HW221140   2.494   1.527   2.037
 6567SOL     OW21141   3.512   1.720   3.256
 6567SOL    HW121142   3.565   1.730   3.172
 6567SOL    HW221143   3.485   1.810   3.290
 6568SOL     OW21144   3.703   0.175   2.825
 6568SOL    HW121145   3.742   0.090   2.789
 6568SOL    HW221146   3.605   0.177   2.806
 6569SOL     OW21147   2.125   0.326   2.582
 6569SOL    HW121148   2.046   0.377   2.548
 6569SOL    HW221149   2.116   0.311   2.680
 6570SOL     OW21150   3.056   1.612   1.893
 6570SOL    HW121151   3.062   1.519   1.930
 6570SOL    HW221152   2.997   1.612   1.813
 6571SOL     OW21153   2.684   1.002   3.234
 6571SOL    HW121154   2.724   1.001   3.142
 6571SOL    HW221155   2.694   1.094   3.274
 6572SOL     OW21156   2.778   0.910   2.153
 6572SOL    HW121157   2.841   0.948   2.085
 6572SOL    HW221158   2.818   0.827   2.192
 6573SOL     OW21159   3.366   1.607   1.906
 6573SOL    HW121160   3.274   1.644   1.913
 6573SOL    HW221161   3.404   1.627   1.816
 6574SOL     OW21162   2.234   1.288   3.352
 6574SOL    HW121163   2.221   1.381   3.318
 6574SOL    HW221164   2.150   1.236   3.339
 6575SOL     OW21165   3.476   1.292   3.151
 6575SOL    HW121166   3.536   1.295   3.231
 6575SOL    HW221167   3.401   1.356   3.164
 6576SOL     OW21168   2.901   1.098   2.558
 6576SOL    HW121169   2.831   1.051   2.612
 6576SOL    HW221170   2.960   1.030   2.515
 6577SOL     OW21171   2.876   0.236   2.833
 6577SOL    HW121172   2.868   0.200   2.740
 6577SOL    HW221173   2.874   0.160   2.898
 6578SOL     OW21174   2.452   1.487   2.353
 6578SOL    HW121175   2.494   1.429   2.283
 6578SOL    HW221176   2.408   1.566   2.309
 6579SOL     OW21177   3.571   0.385   3.243
 6579SOL    HW121178   3.644   0.454   3.247
 6579SOL    HW221179   3.599   0.310   3.184
 6580SOL     OW21180   2.117   1.348   2.152
 6580SOL    HW121181   2.021   1.349   2.125
 6580SOL    HW221182   2.129   1.401   2.236
 6581SOL     OW21183   1.967   1.013   3.588
 6581SOL    HW121184   1.890   0.980   3.642
 6581SOL    HW221185   2.052   0.983   3.630
 6582SOL     OW21186   2.534   0.203   3.351
 6582SOL    HW121187   2.624   0.187   3.311
 6582SOL    HW221188   2.542   0.208   3.450
 6583SOL     OW21189   1.937   0.345   1.895
 6583SOL    HW121190   1.845   0.317   1.866
 6583SOL    HW221191   1.968   0.422   1.839
 6584SOL     OW21192   3.302   0.856   3.260
 6584SOL    HW121193   3.245   0.908   3.197
 6584SOL    HW221194   3.398   0.868   3.236
 6585SOL     OW21195   1.934   0.166   2.180
 6585SOL    HW121196   1.917   0.249   2.126
 6585SOL    HW221197   2.024   0.129   2.158
 6586SOL     OW21198   3.045   1.335   1.981
 6586SOL    HW121199   2.946   1.324   1.983
 6586SOL    HW221200   3.079   1.350   2.074
 6587SOL     OW21201   2.475   0.842   3.293
 6587SOL    HW121202   2.531   0.923   3.276
 6587SOL    HW221203   2.534   0.762   3.296
 6588SOL     OW21204   3.355   1.767   2.821
 6588SOL    HW121205   3.388   1.831   2.752
 6588SOL    HW221206   3.421   1.761   2.896
 6589SOL     OW21207   2.578   0.565   3.570
 6589SOL    HW121208   2.597   0.630   3.644
 6589SOL    HW221209   2.638   0.485   3.579
 6590SOL     OW21210   3.312   1.220   3.495
 6590SOL    HW121211   3.303   1.210   3.594
 6590SOL    HW221212   3.408   1.213   3.469
 6591SOL     OW21213   2.252   1.741   3.422
 6591SOL    HW121214   2.161   1.782   3.420
 6591SOL    HW221215   2.245   1.647   3.454
 6592SOL     OW21216   3.536   0.883   3.116
 6592SOL    HW121217   3.509   0.794   3.079
 6592SOL    HW221218   3.537   0.951   3.043
 6593SOL     OW21219   3.087   0.325   2.311
 6593SOL    HW121220   3.152   0.251   2.300
 6593SOL    HW221221   3.107   0.375   2.395
 6594SOL     OW21222   2.456   0.745   2.514
 6594SOL    HW121223   2.506   0.830   2.495
 6594SOL    HW221224   2.368   0.747   2.466
 6595SOL     OW21225   3.639   0.342   3.504
 6595SOL    HW121226   3.622   0.373   3.410
 6595SOL    HW221227   3.555   0.305   3.542
 6596SOL     OW21228   3.592   0.934   3.379
 6596SOL    HW121229   3.630   1.025   3.394
 6596SOL    HW221230   3.584   0.917   3.280
 6597SOL     OW21231   2.721   1.374   1.878
 6597SOL    HW121232   2.675   1.389   1.966
 6597SOL    HW221233   2.765   1.459   1.848
 6598SOL     OW21234   2.523   1.790   2.815
 6598SOL    HW121235   2.477   1.878   2.802
 6598SOL    HW221236   2.622   1.802   2.808
 6599SOL     OW21237   2.721   0.956   2.723
 6599SOL    HW121238   2.775   0.887   2.771
 6599SOL    HW221239   2.689   1.025   2.789
 6600SOL     OW21240   2.945   0.984   1.949
 6600SOL    HW121241   2.922   1.037   1.867
 6600SOL    HW221242   3.026   0.928   1.930
 6601SOL     OW21243   3.723   1.569   2.713
 6601SOL    HW121244   3.652   1.557   2.643
 6601SOL    HW221245   3.724   1.490   2.773
 6602SOL     OW21246   2.083   1.314   3.706
 6602SOL    HW121247   2.018   1.241   3.685
 6602SOL    HW221248   2.087   1.328   3.804
 6603SOL     OW21249   1.941   1.240   2.515
 6603SOL    HW121250   1.940   1.193   2.603
 6603SOL    HW221251   2.023   1.212   2.464
 6604SOL     OW21252   2.534   1.391   3.486
 6604SOL    HW121253   2.456   1.341   3.524
 6604SOL    HW221254   2.531   1.486   3.517
 6605SOL     OW21255   3.686   0.192   3.089
 6605SOL    HW121256   3.682   0.102   3.133
 6605SOL    HW221257   3.689   0.181   2.990
 6606SOL     OW21258   2.290   0.424   2.382
 6606SOL    HW121259   2.320   0.352   2.320
 6606SOL    HW221260   2.251   0.384   2.465
 6607SOL     OW21261   3.567   1.487   2.966
 6607SOL    HW121262   3.474   1.462   2.939
 6607SOL    HW221263   3.593   1.437   3.048
 6608SOL     OW21264   2.179   0.547   3.142
 6608SOL    HW121265   2.217   0.488   3.214
 6608SOL    HW221266   2.219   0.521   3.054
 6609SOL     OW21267   2.674   1.586   2.549
 6609SOL    HW121268   2.706   1.596   2.455
 6609SOL    HW221269   2.595   1.524   2.551
 6610SOL     OW21270   3.286   0.214   2.974
 6610SOL    HW121271   3.338   0.149   3.029
 6610SOL    HW221272   3.237   0.277   3.035
 6611SOL     OW21273   2.863   0.034   3.016
 6611SOL    HW121274   2.800  -0.038   2.985
 6611SOL    HW221275   2.956  -0.002   3.016
 6612SOL     OW21276   2.632   1.330   2.163
 6612SOL    HW121277   2.586   1.243   2.180
 6612SOL    HW221278   2.723   1.327   2.204
 6613SOL     OW21279   2.480   1.567   3.146
 6613SOL    HW121280   2.475   1.649   3.203
 6613SOL    HW221281   2.569   1.564   3.101
 6614SOL     OW21282   3.214   0.052   2.030
 6614SOL    HW121283   3.249   0.011   1.946
 6614SOL    HW221284   3.124   0.014   2.050
 6615SOL     OW21285   3.162   0.453   2.553
 6615SOL    HW121286   3.103   0.533   2.557
 6615SOL    HW221287   3.177   0.418   2.646
 6616SOL     OW21288   3.455   0.221   2.744
 6616SOL    HW121289   3.371   0.220   2.798
 6616SOL    HW221290   3.457   0.304   2.688
 6617SOL     OW21291   1.901   1.077   2.162
 6617SOL    HW121292   2.000   1.066   2.153
 6617SOL    HW221293   1.861   0.991   2.194
 6618SOL     OW21294   2.737   1.646   2.199
 6618SOL    HW121295   2.660   1.611   2.145
 6618SOL    HW221296   2.705   1.717   2.261
 6619SOL     OW21297   2.092   0.628   3.837
 6619SOL    HW121298   1.999   0.626   3.874
 6619SOL    HW221299   2.093   0.589   3.745
 6620SOL     OW21300   2.087   0.275   4.720
 6620SOL    HW121301   2.122   0.258   4.812
 6620SOL    HW221302   1.999   0.230   4.708
 6621SOL     OW21303   1.881   0.368   4.371
 6621SOL    HW121304   1.799   0.411   4.410
 6621SOL    HW221305   1.853   0.295   4.308
 6622SOL     OW21306   2.431   1.275   4.889
 6622SOL    HW121307   2.338   1.268   4.852
 6622SOL    HW221308   2.442   1.364   4.933
 6623SOL     OW21309   3.417   1.511   4.427
 6623SOL    HW121310   3.360   1.495   4.508
 6623SOL    HW221311   3.358   1.521   4.347
 6624SOL     OW21312   2.997   0.703   4.441
 6624SOL    HW121313   3.054   0.781   4.416
 6624SOL    HW221314   2.937   0.729   4.517
 6625SOL     OW21315   3.617   0.607   3.955
 6625SOL    HW121316   3.605   0.594   3.856
 6625SOL    HW221317   3.587   0.526   4.004
 6626SOL     OW21318   2.630   1.144   4.747
 6626SOL    HW121319   2.552   1.161   4.807
 6626SOL    HW221320   2.664   1.231   4.711
 6627SOL     OW21321   2.712   0.798   5.547
 6627SOL    HW121322   2.708   0.874   5.612
 6627SOL    HW221323   2.734   0.834   5.456
 6628SOL     OW21324   2.547   1.012   4.389
 6628SOL    HW121325   2.616   0.996   4.459
 6628SOL    HW221326   2.474   1.069   4.427
 6629SOL     OW21327   2.548   1.161   5.527
 6629SOL    HW121328   2.608   1.240   5.541
 6629SOL    HW221329   2.462   1.192   5.486
 6630SOL     OW21330   2.197   1.435   4.785
 6630SOL    HW121331   2.119   1.404   4.732
 6630SOL    HW221332   2.255   1.493   4.728
 6631SOL     OW21333   3.322   1.505   5.063
 6631SOL    HW121334   3.346   1.599   5.089
 6631SOL    HW221335   3.306   1.451   5.145
 6632SOL     OW21336   2.300   0.392   5.223
 6632SOL    HW121337   2.382   0.336   5.232
 6632SOL    HW221338   2.219   0.334   5.227
 6633SOL     OW21339   3.465   0.447   4.461
 6633SOL    HW121340   3.391   0.493   4.411
 6633SOL    HW221341   3.516   0.515   4.514
 6634SOL     OW21342   2.093   1.713   4.207
 6634SOL    HW121343   2.127   1.790   4.261
 6634SOL    HW221344   2.137   1.713   4.117
 6635SOL     OW21345   2.989   1.341   5.414
 6635SOL    HW121346   3.036   1.341   5.502
 6635SOL    HW221347   2.941   1.254   5.403
 6636SOL     OW21348   2.092   1.434   4.262
 6636SOL    HW121349   2.066   1.530   4.262
 6636SOL    HW221350   2.021   1.380   4.307
 6637SOL     OW21351   2.102   1.091   4.610
 6637SOL    HW121352   2.116   1.007   4.662
 6637SOL    HW221353   2.047   1.155   4.665
 6638SOL     OW21354   2.482   1.786   5.163
 6638SOL    HW121355   2.390   1.769   5.198
 6638SOL    HW221356   2.510   1.878   5.189
 6639SOL     OW21357   2.468   0.964   3.847
 6639SOL    HW121358   2.475   1.048   3.793
 6639SOL    HW221359   2.514   0.977   3.935
 6640SOL     OW21360   3.456   0.114   5.204
 6640SOL    HW121361   3.438   0.181   5.132
 6640SOL    HW221362   3.453   0.160   5.293
 6641SOL     OW21363   1.984   0.643   4.287
 6641SOL    HW121364   1.939   0.555   4.304
 6641SOL    HW221365   1.983   0.697   4.371
 6642SOL     OW21366   3.704   1.767   4.083
 6642SOL    HW121367   3.758   1.738   4.163
 6642SOL    HW221368   3.734   1.857   4.054
 6643SOL     OW21369   1.889   1.596   3.841
 6643SOL    HW121370   1.870   1.500   3.862
 6643SOL    HW221371   1.856   1.654   3.916
 6644SOL     OW21372   3.551   0.922   4.336
 6644SOL    HW121373   3.646   0.893   4.344
 6644SOL    HW221374   3.543   0.987   4.261
 6645SOL     OW21375   3.503   1.108   4.156
 6645SOL    HW121376   3.589   1.110   4.104
 6645SOL    HW221377   3.517   1.155   4.244
 6646SOL     OW21378   1.975   0.737   5.321
 6646SOL    HW121379   2.063   0.724   5.366
 6646SOL    HW221380   1.962   0.834   5.299
 6647SOL     OW21381   2.475   1.365   4.450
 6647SOL    HW121382   2.426   1.278   4.459
 6647SOL    HW221383   2.452   1.408   4.363
 6648SOL     OW21384   3.155   1.228   5.147
 6648SOL    HW121385   3.192   1.155   5.089
 6648SOL    HW221386   3.207   1.233   5.232
 6649SOL     OW21387   2.671   0.004   4.226
 6649SOL    HW121388   2.711   0.095   4.217
 6649SOL    HW221389   2.571   0.012   4.232
 6650SOL     OW21390   2.059   0.976   4.988
 6650SOL    HW121391   2.148   0.931   4.974
 6650SOL    HW221392   1.986   0.911   4.969
 6651SOL     OW21393   3.387   0.999   3.914
 6651SOL    HW121394   3.324   0.923   3.927
 6651SOL    HW221395   3.435   1.017   4.000
 6652SOL     OW21396   3.049   1.792   5.340
 6652SOL    HW121397   3.073   1.852   5.264
 6652SOL    HW221398   3.056   1.697   5.310
 6653SOL     OW21399   2.179   0.251   5.525
 6653SOL    HW121400   2.250   0.322   5.531
 6653SOL    HW221401   2.091   0.290   5.553
 6654SOL     OW21402   3.328   1.417   4.677
 6654SOL    HW121403   3.269   1.423   4.757
 6654SOL    HW221404   3.313   1.329   4.631
 6655SOL     OW21405   3.529   1.714   4.296
 6655SOL    HW121406   3.488   1.691   4.208
 6655SOL    HW221407   3.511   1.640   4.361
 6656SOL     OW21408   2.460   0.729   3.994
 6656SOL    HW121409   2.484   0.798   3.926
 6656SOL    HW221410   2.382   0.762   4.048
 6657SOL     OW21411   3.143   0.345   4.668
 6657SOL    HW121412   3.057   0.295   4.655
 6657SOL    HW221413   3.205   0.291   4.724
 6658SOL     OW21414   3.438   1.662   4.031
 6658SOL    HW121415   3.527   1.708   4.034
 6658SOL    HW221416   3.417   1.638   3.936
 6659SOL     OW21417   2.669   0.605   5.189
 6659SOL    HW121418   2.622   0.602   5.278
 6659SOL    HW221419   2.618   0.550   5.123
 6660SOL     OW21420   3.256   0.469   5.398
 6660SOL    HW121421   3.236   0.512   5.486
 6660SOL    HW221422   3.334   0.407   5.407
 6661SOL     OW21423   2.835   0.890   5.296
 6661SOL    HW121424   2.881   0.806   5.267
 6661SOL    HW221425   2.779   0.924   5.221
 6662SOL     OW21426   2.853   0.410   4.966
 6662SOL    HW121427   2.776   0.444   5.020
 6662SOL    HW221428   2.819   0.359   4.887
 6663SOL     OW21429   2.903   0.701   4.153
 6663SOL    HW121430   2.929   0.697   4.249
 6663SOL    HW221431   2.818   0.650   4.139
 6664SOL     OW21432   1.938   0.811   4.513
 6664SOL    HW121433   2.037   0.799   4.522
 6664SOL    HW221434   1.914   0.906   4.534
 6665SOL     OW21435   1.992   1.821   5.295
 6665SOL    HW121436   1.982   1.806   5.394
 6665SOL    HW221437   1.906   1.857   5.259
 6666SOL     OW21438   2.727   0.348   3.919
 6666SOL    HW121439   2.786   0.411   3.870
 6666SOL    HW221440   2.746   0.254   3.890
 6667SOL     OW21441   3.581   0.585   5.555
 6667SOL    HW121442   3.555   0.674   5.519
 6667SOL    HW221443   3.579   0.517   5.482
 6668SOL     OW21444   3.224   1.144   4.269
 6668SOL    HW121445   3.307   1.115   4.221
 6668SOL    HW221446   3.175   1.211   4.213
 6669SOL     OW21447   2.412   0.196   4.609
 6669SOL    HW121448   2.407   0.191   4.709
 6669SOL    HW221449   2.414   0.292   4.580
 6670SOL     OW21450   2.870   1.456   4.201
 6670SOL    HW121451   2.824   1.528   4.149
 6670SOL    HW221452   2.866   1.476   4.299
 6671SOL     OW21453   2.213   1.801   4.577
 6671SOL    HW121454   2.263   1.715   4.583
 6671SOL    HW221455   2.278   1.878   4.574
 6672SOL     OW21456   3.657   1.066   4.597
 6672SOL    HW121457   3.595   1.051   4.521
 6672SOL    HW221458   3.605   1.077   4.682
 6673SOL     OW21459   3.089   1.550   5.230
 6673SOL    HW121460   3.095   1.473   5.294
 6673SOL    HW221461   3.037   1.524   5.150
 6674SOL     OW21462   2.183   0.943   3.966
 6674SOL    HW121463   2.265   0.982   3.924
 6674SOL    HW221464   2.156   0.861   3.917
 6675SOL     OW21465   3.320   0.735   4.452
 6675SOL    HW121466   3.315   0.670   4.527
 6675SOL    HW221467   3.400   0.794   4.465
 6676SOL     OW21468   2.323   1.266   5.451
 6676SOL    HW121469   2.273   1.267   5.365
 6676SOL    HW221470   2.260   1.248   5.527
 6677SOL     OW21471   2.973   1.776   3.961
 6677SOL    HW121472   2.913   1.714   4.011
 6677SOL    HW221473   3.004   1.732   3.876
 6678SOL     OW21474   2.064   0.285   5.222
 6678SOL    HW121475   1.984   0.345   5.209
 6678SOL    HW221476   2.054   0.236   5.308
 6679SOL     OW21477   3.494   1.377   3.805
 6679SOL    HW121478   3.462   1.471   3.795
 6679SOL    HW221479   3.418   1.314   3.793
 6680SOL     OW21480   2.326   1.743   4.047
 6680SOL    HW121481   2.359   1.782   4.133
 6680SOL    HW221482   2.402   1.736   3.982
 6681SOL     OW21483   3.262   0.107   4.150
 6681SOL    HW121484   3.238   0.070   4.060
 6681SOL    HW221485   3.361   0.123   4.154
 6682SOL     OW21486   2.111   1.785   4.965
 6682SOL    HW121487   2.168   1.720   5.015
 6682SOL    HW221488   2.095   1.752   4.872
 6683SOL     OW21489   2.802   1.698   4.628
 6683SOL    HW121490   2.882   1.641   4.649
 6683SOL    HW221491   2.753   1.658   4.551
 6684SOL     OW21492   2.244   0.700   4.204
 6684SOL    HW121493   2.289   0.610   4.201
 6684SOL    HW221494   2.150   0.689   4.237
 6685SOL     OW21495   3.409   0.222   5.453
 6685SOL    HW121496   3.404   0.259   5.545
 6685SOL    HW221497   3.337   0.153   5.441
 6686SOL     OW21498   2.476   0.122   3.841
 6686SOL    HW121499   2.574   0.100   3.848
 6686SOL    HW221500   2.445   0.105   3.748
 6687SOL     OW21501   2.643   0.264   5.473
 6687SOL    HW121502   2.710   0.203   5.516
 6687SOL    HW221503   2.570   0.283   5.538
 6688SOL     OW21504   2.750   1.514   4.919
 6688SOL    HW121505   2.727   1.489   4.825
 6688SOL    HW221506   2.811   1.445   4.958
 6689SOL     OW21507   3.213   0.590   5.157
 6689SOL    HW121508   3.241   0.547   5.242
 6689SOL    HW221509   3.238   0.686   5.158
 6690SOL     OW21510   2.665   1.402   4.648
 6690SOL    HW121511   2.755   1.416   4.606
 6690SOL    HW221512   2.594   1.404   4.577
 6691SOL     OW21513   2.784   0.503   4.623
 6691SOL    HW121514   2.759   0.494   4.527
 6691SOL    HW221515   2.832   0.421   4.654
 6692SOL     OW21516   2.401   0.064   4.236
 6692SOL    HW121517   2.320   0.065   4.294
 6692SOL    HW221518   2.404   0.147   4.181
 6693SOL     OW21519   3.296   1.188   3.765
 6693SOL    HW121520   3.328   1.112   3.822
 6693SOL    HW221521   3.204   1.215   3.795
 6694SOL     OW21522   2.159   0.035   3.895
 6694SOL    HW121523   2.208   0.119   3.874
 6694SOL    HW221524   2.221  -0.030   3.940
 6695SOL     OW21525   2.797   0.236   4.204
 6695SOL    HW121526   2.749   0.277   4.126
 6695SOL    HW221527   2.896   0.234   4.185
 6696SOL     OW21528   2.938   0.683   5.188
 6696SOL    HW121529   2.858   0.622   5.191
 6696SOL    HW221530   3.019   0.630   5.164
 6697SOL     OW21531   3.089   1.570   4.517
 6697SOL    HW121532   3.110   1.644   4.452
 6697SOL    HW221533   3.157   1.570   4.590
 6698SOL     OW21534   2.321   1.152   4.465
 6698SOL    HW121535   2.250   1.125   4.530
 6698SOL    HW221536   2.295   1.124   4.372
 6699SOL     OW21537   3.133   1.797   4.315
 6699SOL    HW121538   3.177   1.861   4.251
 6699SOL    HW221539   3.083   1.849   4.385
 6700SOL     OW21540   2.894   0.549   3.740
 6700SOL    HW121541   2.853   0.631   3.701
 6700SOL    HW221542   2.958   0.575   3.813
 6701SOL     OW21543   1.940   0.556   5.110
 6701SOL    HW121544   2.032   0.555   5.069
 6701SOL    HW221545   1.934   0.630   5.177
 6702SOL     OW21546   2.423   0.222   4.871
 6702SOL    HW121547   2.461   0.138   4.908
 6702SOL    HW221548   2.335   0.241   4.915
 6703SOL     OW21549   2.728   0.454   4.366
 6703SOL    HW121550   2.696   0.526   4.304
 6703SOL    HW221551   2.752   0.373   4.313
 6704SOL     OW21552   2.879   0.039   4.477
 6704SOL    HW121553   2.807   0.044   4.408
 6704SOL    HW221554   2.855  -0.030   4.546
 6705SOL     OW21555   3.291   1.173   4.591
 6705SOL    HW121556   3.236   1.089   4.584
 6705SOL    HW221557   3.317   1.202   4.499
 6706SOL     OW21558   3.328   0.590   4.716
 6706SOL    HW121559   3.298   0.495   4.723
 6706SOL    HW221560   3.401   0.606   4.782
 6707SOL     OW21561   3.719   0.833   4.101
 6707SOL    HW121562   3.761   0.769   4.165
 6707SOL    HW221563   3.681   0.782   4.023
 6708SOL     OW21564   2.350   1.385   3.898
 6708SOL    HW121565   2.263   1.370   3.945
 6708SOL    HW221566   2.333   1.411   3.803
 6709SOL     OW21567   3.526   1.280   4.381
 6709SOL    HW121568   3.625   1.288   4.395
 6709SOL    HW221569   3.481   1.364   4.412
 6710SOL     OW21570   3.252   0.575   3.802
 6710SOL    HW121571   3.198   0.554   3.883
 6710SOL    HW221572   3.343   0.534   3.811
 6711SOL     OW21573   2.389   0.256   4.052
 6711SOL    HW121574   2.416   0.197   3.977
 6711SOL    HW221575   2.389   0.351   4.021
 6712SOL     OW21576   3.616   1.223   5.312
 6712SOL    HW121577   3.707   1.184   5.299
 6712SOL    HW221578   3.624   1.319   5.336
 6713SOL     OW21579   2.926   1.347   5.064
 6713SOL    HW121580   2.846   1.324   5.119
 6713SOL    HW221581   3.009   1.321   5.113
 6714SOL     OW21582   3.454   1.629   5.349
 6714SOL    HW121583   3.481   1.663   5.259
 6714SOL    HW221584   3.533   1.591   5.395
 6715SOL     OW21585   2.973   1.195   4.824
 6715SOL    HW121586   2.933   1.239   4.905
 6715SOL    HW221587   2.932   1.232   4.741
 6716SOL     OW21588   3.500   1.099   4.803
 6716SOL    HW121589   3.505   1.180   4.862
 6716SOL    HW221590   3.414   1.101   4.752
 6717SOL     OW21591   2.777   0.089   5.126
 6717SOL    HW121592   2.802   0.069   5.031
 6717SOL    HW221593   2.849   0.145   5.168
 6718SOL     OW21594   2.842   1.116   5.443
 6718SOL    HW121595   2.743   1.122   5.453
 6718SOL    HW221596   2.865   1.036   5.387
 6719SOL     OW21597   2.567   1.050   4.092
 6719SOL    HW121598   2.553   1.057   4.191
 6719SOL    HW221599   2.651   0.999   4.074
 6720SOL     OW21600   2.272   0.813   4.975
 6720SOL    HW121601   2.358   0.825   5.025
 6720SOL    HW221602   2.230   0.726   5.002
 6721SOL     OW21603   3.136   0.386   4.986
 6721SOL    HW121604   3.157   0.460   5.050
 6721SOL    HW221605   3.047   0.403   4.943
 6722SOL     OW21606   1.926   1.564   5.055
 6722SOL    HW121607   1.880   1.646   5.021
 6722SOL    HW221608   2.024   1.583   5.064
 6723SOL     OW21609   2.229   1.100   4.225
 6723SOL    HW121610   2.222   1.183   4.169
 6723SOL    HW221611   2.233   1.020   4.165
 6724SOL     OW21612   2.428   0.537   4.589
 6724SOL    HW121613   2.440   0.603   4.515
 6724SOL    HW221614   2.474   0.571   4.672
 6725SOL     OW21615   3.114   1.348   4.112
 6725SOL    HW121616   3.164   1.425   4.152
 6725SOL    HW221617   3.019   1.350   4.144
 6726SOL     OW21618   3.134   1.445   4.866
 6726SOL    HW121619   3.181   1.458   4.953
 6726SOL    HW221620   3.068   1.371   4.875
 6727SOL     OW21621   3.444   0.639   4.196
 6727SOL    HW121622   3.413   0.700   4.269
 6727SOL    HW221623   3.494   0.691   4.127
 6728SOL     OW21624   2.216   1.510   5.053
 6728SOL    HW121625   2.195   1.466   4.966
 6728SOL    HW221626   2.313   1.536   5.056
 6729SOL     OW21627   2.264   0.751   5.322
 6729SOL    HW121628   2.332   0.806   5.275
 6729SOL    HW221629   2.304   0.663   5.349
 6730SOL     OW21630   3.449   0.779   5.394
 6730SOL    HW121631   3.357   0.817   5.389
 6730SOL    HW221632   3.509   0.826   5.329
 6731SOL     OW21633   2.875   0.105   5.494
 6731SOL    HW121634   2.881   0.190   5.442
 6731SOL    HW221635   2.907   0.029   5.437
 6732SOL     OW21636   2.366   0.050   5.464
 6732SOL    HW121637   2.324  -0.007   5.394
 6732SOL    HW221638   2.300   0.119   5.496
 6733SOL     OW21639   2.435   0.870   4.753
 6733SOL    HW121640   2.479   0.959   4.744
 6733SOL    HW221641   2.372   0.870   4.830
 6734SOL     OW21642   3.222   0.862   4.769
 6734SOL    HW121643   3.147   0.862   4.703
 6734SOL    HW221644   3.259   0.770   4.778
 6735SOL     OW21645   3.071   0.525   3.999
 6735SOL    HW121646   3.084   0.441   4.053
 6735SOL    HW221647   3.042   0.599   4.059
 6736SOL     OW21648   2.169   0.213   4.955
 6736SOL    HW121649   2.146   0.250   5.045
 6736SOL    HW221650   2.139   0.118   4.949
 6737SOL     OW21651   1.899   1.310   5.006
 6737SOL    HW121652   1.952   1.261   5.074
 6737SOL    HW221653   1.921   1.408   5.011
 6738SOL     OW21654   2.594   0.634   4.788
 6738SOL    HW121655   2.653   0.608   4.712
 6738SOL    HW221656   2.566   0.730   4.777
 6739SOL     OW21657   3.590   0.935   5.578
 6739SOL    HW121658   3.544   0.928   5.489
 6739SOL    HW221659   3.528   0.979   5.644
 6740SOL     OW21660   2.169   0.063   4.342
 6740SOL    HW121661   2.158   0.157   4.375
 6740SOL    HW221662   2.164   0.000   4.419
 6741SOL     OW21663   3.484   0.367   4.098
 6741SOL    HW121664   3.486   0.291   4.162
 6741SOL    HW221665   3.436   0.444   4.138
 6742SOL     OW21666   2.885   0.766   4.690
 6742SOL    HW121667   2.900   0.787   4.786
 6742SOL    HW221668   2.855   0.671   4.681
 6743SOL     OW21669   2.842   1.573   5.424
 6743SOL    HW121670   2.822   1.617   5.336
 6743SOL    HW221671   2.881   1.482   5.408
 6744SOL     OW21672   3.721   1.518   5.329
 6744SOL    HW121673   3.735   1.545   5.234
 6744SOL    HW221674   3.804   1.540   5.382
 6745SOL     OW21675   2.212   0.898   5.528
 6745SOL    HW121676   2.288   0.942   5.576
 6745SOL    HW221677   2.247   0.851   5.446
 6746SOL     OW21678   3.402   0.274   3.849
 6746SOL    HW121679   3.341   0.199   3.872
 6746SOL    HW221680   3.424   0.326   3.932
 6747SOL     OW21681   3.165   0.838   3.766
 6747SOL    HW121682   3.199   0.745   3.781
 6747SOL    HW221683   3.183   0.865   3.671
 6748SOL     OW21684   2.930   1.333   4.573
 6748SOL    HW121685   2.937   1.249   4.518
 6748SOL    HW221686   2.992   1.402   4.537
 6749SOL     OW21687   2.181   0.810   4.673
 6749SOL    HW121688   2.274   0.846   4.678
 6749SOL    HW221689   2.175   0.725   4.725
 6750SOL     OW21690   2.201   0.509   4.730
 6750SOL    HW121691   2.149   0.426   4.713
 6750SOL    HW221692   2.278   0.514   4.666
 6751SOL     OW21693   3.000   0.380   5.402
 6751SOL    HW121694   2.955   0.443   5.466
 6751SOL    HW221695   3.093   0.411   5.385
 6752SOL     OW21696   3.022   0.207   5.201
 6752SOL    HW121697   3.022   0.271   5.278
 6752SOL    HW221698   3.050   0.255   5.118
 6753SOL     OW21699   1.870   1.326   3.924
 6753SOL    HW121700   1.777   1.347   3.893
 6753SOL    HW221701   1.880   1.227   3.937
 6754SOL     OW21702   1.950   1.801   4.651
 6754SOL    HW121703   1.908   1.715   4.624
 6754SOL    HW221704   2.044   1.804   4.617
 6755SOL     OW21705   2.366   1.568   4.634
 6755SOL    HW121706   2.432   1.642   4.643
 6755SOL    HW221707   2.410   1.489   4.592
 6756SOL     OW21708   2.864   0.796   4.962
 6756SOL    HW121709   2.905   0.764   5.048
 6756SOL    HW221710   2.768   0.769   4.959
 6757SOL     OW21711   1.902   0.544   4.838
 6757SOL    HW121712   1.987   0.511   4.797
 6757SOL    HW221713   1.915   0.559   4.936
 6758SOL     OW21714   2.051   0.520   5.446
 6758SOL    HW121715   2.110   0.480   5.376
 6758SOL    HW221716   1.993   0.591   5.405
 6759SOL     OW21717   3.231   0.950   5.384
 6759SOL    HW121718   3.270   1.039   5.404
 6759SOL    HW221719   3.241   0.930   5.287
 6760SOL     OW21720   2.677   0.572   4.049
 6760SOL    HW121721   2.684   0.483   4.003
 6760SOL    HW221722   2.583   0.606   4.041
 6761SOL     OW21723   3.519   0.604   4.930
 6761SOL    HW121724   3.481   0.535   4.992
 6761SOL    HW221725   3.601   0.568   4.886
 6762SOL     OW21726   2.114   1.564   5.468
 6762SOL    HW121727   2.084   1.621   5.544
 6762SOL    HW221728   2.107   1.467   5.494
 6763SOL     OW21729   2.533   0.464   4.993
 6763SOL    HW121730   2.499   0.375   4.963
 6763SOL    HW221731   2.559   0.518   4.913
 6764SOL     OW21732   2.792   1.678   5.189
 6764SOL    HW121733   2.768   1.660   5.094
 6764SOL    HW221734   2.822   1.772   5.199
 6765SOL     OW21735   2.335   0.500   3.915
 6765SOL    HW121736   2.396   0.580   3.919
 6765SOL    HW221737   2.240   0.531   3.922
 6766SOL     OW21738   2.021   1.137   5.190
 6766SOL    HW121739   2.043   1.076   5.266
 6766SOL    HW221740   2.031   1.088   5.104
 6767SOL     OW21741   3.209   1.059   4.958
 6767SOL    HW121742   3.233   0.996   4.884
 6767SOL    HW221743   3.119   1.099   4.940
 6768SOL     OW21744   3.164   0.855   4.033
 6768SOL    HW121745   3.078   0.824   4.075
 6768SOL    HW221746   3.160   0.841   3.934
 6769SOL     OW21747   3.621   1.747   4.878
 6769SOL    HW121748   3.682   1.777   4.805
 6769SOL    HW221749   3.583   1.658   4.856
 6770SOL     OW21750   3.114   1.731   4.852
 6770SOL    HW121751   3.198   1.736   4.798
 6770SOL    HW221752   3.091   1.635   4.870
 6771SOL     OW21753   1.945   1.258   4.746
 6771SOL    HW121754   1.940   1.257   4.846
 6771SOL    HW221755   1.862   1.217   4.708
 6772SOL     OW21756   2.550   1.662   5.440
 6772SOL    HW121757   2.494   1.743   5.449
 6772SOL    HW221758   2.602   1.666   5.354
 6773SOL     OW21759   3.588   0.135   4.247
 6773SOL    HW121760   3.661   0.118   4.180
 6773SOL    HW221761   3.557   0.048   4.285
 6774SOL     OW21762   3.250   1.573   4.201
 6774SOL    HW121763   3.317   1.585   4.127
 6774SOL    HW221764   3.210   1.662   4.224
 6775SOL     OW21765   1.992   1.794   5.575
 6775SOL    HW121766   1.951   1.720   5.628
 6775SOL    HW221767   2.056   1.845   5.633
 6776SOL     OW21768   3.142   0.927   4.396
 6776SOL    HW121769   3.202   0.846   4.398
 6776SOL    HW221770   3.182   0.996   4.336
 6777SOL     OW21771   2.692   1.273   5.146
 6777SOL    HW121772   2.687   1.306   5.241
 6777SOL    HW221773   2.606   1.292   5.100
 6778SOL     OW21774   2.534   1.616   3.878
 6778SOL    HW121775   2.543   1.626   3.779
 6778SOL    HW221776   2.494   1.527   3.899
 6779SOL     OW21777   3.512   1.720   5.118
 6779SOL    HW121778   3.565   1.730   5.034
 6779SOL    HW221779   3.485   1.810   5.152
 6780SOL     OW21780   3.703   0.175   4.687
 6780SOL    HW121781   3.742   0.090   4.651
 6780SOL    HW221782   3.605   0.177   4.668
 6781SOL     OW21783   2.125   0.326   4.444
 6781SOL    HW121784   2.046   0.377   4.410
 6781SOL    HW221785   2.116   0.311   4.542
 6782SOL     OW21786   3.056   1.612   3.755
 6782SOL    HW121787   3.062   1.519   3.792
 6782SOL    HW221788   2.997   1.612   3.675
 6783SOL     OW21789   2.684   1.002   5.096
 6783SOL    HW121790   2.724   1.001   5.004
 6783SOL    HW221791   2.694   1.094   5.136
 6784SOL     OW21792   2.778   0.910   4.015
 6784SOL    HW121793   2.841   0.948   3.947
 6784SOL    HW221794   2.818   0.827   4.054
 6785SOL     OW21795   3.366   1.607   3.768
 6785SOL    HW121796   3.274   1.644   3.775
 6785SOL    HW221797   3.404   1.627   3.678
 6786SOL     OW21798   2.234   1.288   5.214
 6786SOL    HW121799   2.221   1.381   5.180
 6786SOL    HW221800   2.150   1.236   5.201
 6787SOL     OW21801   3.476   1.292   5.013
 6787SOL    HW121802   3.536   1.295   5.093
 6787SOL    HW221803   3.401   1.356   5.026
 6788SOL     OW21804   2.901   1.098   4.420
 6788SOL    HW121805   2.831   1.051   4.474
 6788SOL    HW221806   2.960   1.030   4.377
 6789SOL     OW21807   2.876   0.236   4.695
 6789SOL    HW121808   2.868   0.200   4.602
 6789SOL    HW221809   2.874   0.160   4.760
 6790SOL     OW21810   2.452   1.487   4.215
 6790SOL    HW121811   2.494   1.429   4.145
 6790SOL    HW221812   2.408   1.566   4.171
 6791SOL     OW21813   3.571   0.385   5.105
 6791SOL    HW121814   3.644   0.454   5.109
 6791SOL    HW221815   3.599   0.310   5.046
 6792SOL     OW21816   2.117   1.348   4.014
 6792SOL    HW121817   2.021   1.349   3.987
 6792SOL    HW221818   2.129   1.401   4.098
 6793SOL     OW21819   1.967   1.013   5.450
 6793SOL    HW121820   1.890   0.980   5.504
 6793SOL    HW221821   2.052   0.983   5.492
 6794SOL     OW21822   2.534   0.203   5.213
 6794SOL    HW121823   2.624   0.187   5.173
 6794SOL    HW221824   2.542   0.208   5.312
 6795SOL     OW21825   1.937   0.345   3.757
 6795SOL    HW121826   1.845   0.317   3.728
 6795SOL    HW221827   1.968   0.422   3.701
 6796SOL     OW21828   3.302   0.856   5.122
 6796SOL    HW121829   3.245   0.908   5.059
 6796SOL    HW221830   3.398   0.868   5.098
 6797SOL     OW21831   1.934   0.166   4.042
 6797SOL    HW121832   1.917   0.249   3.988
 6797SOL    HW221833   2.024   0.129   4.020
 6798SOL     OW21834   3.045   1.335   3.843
 6798SOL    HW121835   2.946   1.324   3.845
 6798SOL    HW221836   3.079   1.350   3.936
 6799SOL     OW21837   2.475   0.842   5.155
 6799SOL    HW121838   2.531   0.923   5.138
 6799SOL    HW221839   2.534   0.762   5.158
 6800SOL     OW21840   3.355   1.767   4.683
 6800SOL    HW121841   3.388   1.831   4.614
 6800SOL    HW221842   3.421   1.761   4.758
 6801SOL     OW21843   2.578   0.565   5.432
 6801SOL    HW121844   2.597   0.630   5.506
 6801SOL    HW221845   2.638   0.485   5.441
 6802SOL     OW21846   3.312   1.220   5.357
 6802SOL    HW121847   3.303   1.210   5.456
 6802SOL    HW221848   3.408   1.213   5.331
 6803SOL     OW21849   2.252   1.741   5.284
 6803SOL    HW121850   2.161   1.782   5.282
 6803SOL    HW221851   2.245   1.647   5.316
 6804SOL     OW21852   3.536   0.883   4.978
 6804SOL    HW121853   3.509   0.794   4.941
 6804SOL    HW221854   3.537   0.951   4.905
 6805SOL     OW21855   3.087   0.325   4.173
 6805SOL    HW121856   3.152   0.251   4.162
 6805SOL    HW221857   3.107   0.375   4.257
 6806SOL     OW21858   2.456   0.745   4.376
 6806SOL    HW121859   2.506   0.830   4.357
 6806SOL    HW221860   2.368   0.747   4.328
 6807SOL     OW21861   3.639   0.342   5.366
 6807SOL    HW121862   3.622   0.373   5.272
 6807SOL    HW221863   3.555   0.305   5.404
 6808SOL     OW21864   3.592   0.934   5.241
 6808SOL    HW121865   3.630   1.025   5.256
 6808SOL    HW221866   3.584   0.917   5.142
 6809SOL     OW21867   2.721   1.374   3.740
 6809SOL    HW121868   2.675   1.389   3.828
 6809SOL    HW221869   2.765   1.459   3.710
 6810SOL     OW21870   2.523   1.790   4.677
 6810SOL    HW121871   2.477   1.878   4.664
 6810SOL    HW221872   2.622   1.802   4.670
 6811SOL     OW21873   2.721   0.956   4.585
 6811SOL    HW121874   2.775   0.887   4.633
 6811SOL    HW221875   2.689   1.025   4.651
 6812SOL     OW21876   2.945   0.984   3.811
 6812SOL    HW121877   2.922   1.037   3.729
 6812SOL    HW221878   3.026   0.928   3.792
 6813SOL     OW21879   3.723   1.569   4.575
 6813SOL    HW121880   3.652   1.557   4.505
 6813SOL    HW221881   3.724   1.490   4.635
 6814SOL     OW21882   2.083   1.314   5.568
 6814SOL    HW121883   2.018   1.241   5.547
 6814SOL    HW221884   2.087   1.328   5.666
 6815SOL     OW21885   1.941   1.240   4.377
 6815SOL    HW121886   1.940   1.193   4.465
 6815SOL    HW221887   2.023   1.212   4.326
 6816SOL     OW21888   2.534   1.391   5.348
 6816SOL    HW121889   2.456   1.341   5.386
 6816SOL    HW221890   2.531   1.486   5.379
 6817SOL     OW21891   3.686   0.192   4.951
 6817SOL    HW121892   3.682   0.102   4.995
 6817SOL    HW221893   3.689   0.181   4.852
 6818SOL     OW21894   2.290   0.424   4.244
 6818SOL    HW121895   2.320   0.352   4.182
 6818SOL    HW221896   2.251   0.384   4.327
 6819SOL     OW21897   3.567   1.487   4.828
 6819SOL    HW121898   3.474   1.462   4.801
 6819SOL    HW221899   3.593   1.437   4.910
 6820SOL     OW21900   2.179   0.547   5.004
 6820SOL    HW121901   2.217   0.488   5.076
 6820SOL    HW221902   2.219   0.521   4.916
 6821SOL     OW21903   2.674   1.586   4.411
 6821SOL    HW121904   2.706   1.596   4.317
 6821SOL    HW221905   2.595   1.524   4.413
 6822SOL     OW21906   3.286   0.214   4.836
 6822SOL    HW121907   3.338   0.149   4.891
 6822SOL    HW221908   3.237   0.277   4.897
 6823SOL     OW21909   2.863   0.034   4.878
 6823SOL    HW121910   2.800  -0.038   4.847
 6823SOL    HW221911   2.956  -0.002   4.878
 6824SOL     OW21912   2.632   1.330   4.025
 6824SOL    HW121913   2.586   1.243   4.042
 6824SOL    HW221914   2.723   1.327   4.066
 6825SOL     OW21915   2.480   1.567   5.008
 6825SOL    HW121916   2.475   1.649   5.065
 6825SOL    HW221917   2.569   1.564   4.963
 6826SOL     OW21918   3.214   0.052   3.892
 6826SOL    HW121919   3.249   0.011   3.808
 6826SOL    HW221920   3.124   0.014   3.912
 6827SOL     OW21921   3.162   0.453   4.415
 6827SOL    HW121922   3.103   0.533   4.419
 6827SOL    HW221923   3.177   0.418   4.508
 6828SOL     OW21924   3.455   0.221   4.606
 6828SOL    HW121925   3.371   0.220   4.660
 6828SOL    HW221926   3.457   0.304   4.550
 6829SOL     OW21927   1.901   1.077   4.024
 6829SOL    HW121928   2.000   1.066   4.015
 6829SOL    HW221929   1.861   0.991   4.056
 6830SOL     OW21930   2.737   1.646   4.061
 6830SOL    HW121931   2.660   1.611   4.007
 6830SOL    HW221932   2.705   1.717   4.123
 6831SOL     OW21933   2.092   0.628   5.699
 6831SOL    HW121934   1.999   0.626   5.736
 6831SOL    HW221935   2.093   0.589   5.607
 6832SOL     OW21936   2.087   0.275   6.582
 6832SOL    HW121937   2.122   0.258   6.674
 6832SOL    HW221938   1.999   0.230   6.570
 6833SOL     OW21939   1.881   0.368   6.233
 6833SOL    HW121940   1.799   0.411   6.272
 6833SOL    HW221941   1.853   0.295   6.170
 6834SOL     OW21942   2.431   1.275   6.751
 6834SOL    HW121943   2.338   1.268   6.714
 6834SOL    HW221944   2.442   1.364   6.795
 6835SOL     OW21945   3.417   1.511   6.289
 6835SOL    HW121946   3.360   1.495   6.370
 6835SOL    HW221947   3.358   1.521   6.209
 6836SOL     OW21948   2.997   0.703   6.303
 6836SOL    HW121949   3.054   0.781   6.278
 6836SOL    HW221950   2.937   0.729   6.379
 6837SOL     OW21951   3.617   0.607   5.817
 6837SOL    HW121952   3.605   0.594   5.718
 6837SOL    HW221953   3.587   0.526   5.866
 6838SOL     OW21954   2.630   1.144   6.609
 6838SOL    HW121955   2.552   1.161   6.669
 6838SOL    HW221956   2.664   1.231   6.573
 6839SOL     OW21957   2.712   0.798   7.409
 6839SOL    HW121958   2.708   0.874   7.474
 6839SOL    HW221959   2.734   0.834   7.318
 6840SOL     OW21960   2.547   1.012   6.251
 6840SOL    HW121961   2.616   0.996   6.321
 6840SOL    HW221962   2.474   1.069   6.289
 6841SOL     OW21963   2.548   1.161   7.389
 6841SOL    HW121964   2.608   1.240   7.403
 6841SOL    HW221965   2.462   1.192   7.348
 6842SOL     OW21966   2.197   1.435   6.647
 6842SOL    HW121967   2.119   1.404   6.594
 6842SOL    HW221968   2.255   1.493   6.590
 6843SOL     OW21969   3.322   1.505   6.925
 6843SOL    HW121970   3.346   1.599   6.951
 6843SOL    HW221971   3.306   1.451   7.007
 6844SOL     OW21972   2.300   0.392   7.085
 6844SOL    HW121973   2.382   0.336   7.094
 6844SOL    HW221974   2.219   0.334   7.089
 6845SOL     OW21975   3.465   0.447   6.323
 6845SOL    HW121976   3.391   0.493   6.273
 6845SOL    HW221977   3.516   0.515   6.376
 6846SOL     OW21978   2.093   1.713   6.069
 6846SOL    HW121979   2.127   1.790   6.123
 6846SOL    HW221980   2.137   1.713   5.979
 6847SOL     OW21981   2.989   1.341   7.276
 6847SOL    HW121982   3.036   1.341   7.364
 6847SOL    HW221983   2.941   1.254   7.265
 6848SOL     OW21984   2.092   1.434   6.124
 6848SOL    HW121985   2.066   1.530   6.124
 6848SOL    HW221986   2.021   1.380   6.169
 6849SOL     OW21987   2.102   1.091   6.472
 6849SOL    HW121988   2.116   1.007   6.524
 6849SOL    HW221989   2.047   1.155   6.527
 6850SOL     OW21990   2.482   1.786   7.025
 6850SOL    HW121991   2.390   1.769   7.060
 6850SOL    HW221992   2.510   1.878   7.051
 6851SOL     OW21993   2.468   0.964   5.709
 6851SOL    HW121994   2.475   1.048   5.655
 6851SOL    HW221995   2.514   0.977   5.797
 6852SOL     OW21996   3.456   0.114   7.066
 6852SOL    HW121997   3.438   0.181   6.994
 6852SOL    HW221998   3.453   0.160   7.155
 6853SOL     OW21999   1.984   0.643   6.149
 6853SOL    HW122000   1.939   0.555   6.166
 6853SOL    HW222001   1.983   0.697   6.233
 6854SOL     OW22002   3.704   1.767   5.945
 6854SOL    HW122003   3.758   1.738   6.025
 6854SOL    HW222004   3.734   1.857   5.916
 6855SOL     OW22005   1.889   1.596   5.703
 6855SOL    HW122006   1.870   1.500   5.724
 6855SOL    HW222007   1.856   1.654   5.778
 6856SOL     OW22008   3.551   0.922   6.198
 6856SOL    HW122009   3.646   0.893   6.206
 6856SOL    HW222010   3.543   0.987   6.123
 6857SOL     OW22011   3.503   1.108   6.018
 6857SOL    HW122012   3.589   1.110   5.966
 6857SOL    HW222013   3.517   1.155   6.106
 6858SOL     OW22014   1.975   0.737   7.183
 6858SOL    HW122015   2.063   0.724   7.228
 6858SOL    HW222016   1.962   0.834   7.161
 6859SOL     OW22017   2.475   1.365   6.312
 6859SOL    HW122018   2.426   1.278   6.321
 6859SOL    HW222019   2.452   1.408   6.225
 6860SOL     OW22020   3.155   1.228   7.009
 6860SOL    HW122021   3.192   1.155   6.951
 6860SOL    HW222022   3.207   1.233   7.094
 6861SOL     OW22023   2.671   0.004   6.088
 6861SOL    HW122024   2.711   0.095   6.079
 6861SOL    HW222025   2.571   0.012   6.094
 6862SOL     OW22026   2.059   0.976   6.850
 6862SOL    HW122027   2.148   0.931   6.836
 6862SOL    HW222028   1.986   0.911   6.831
 6863SOL     OW22029   3.387   0.999   5.776
 6863SOL    HW122030   3.324   0.923   5.789
 6863SOL    HW222031   3.435   1.017   5.862
 6864SOL     OW22032   3.049   1.792   7.202
 6864SOL    HW122033   3.073   1.852   7.126
 6864SOL    HW222034   3.056   1.697   7.172
 6865SOL     OW22035   2.179   0.251   7.387
 6865SOL    HW122036   2.250   0.322   7.393
 6865SOL    HW222037   2.091   0.290   7.415
 6866SOL     OW22038   3.328   1.417   6.539
 6866SOL    HW122039   3.269   1.423   6.619
 6866SOL    HW222040   3.313   1.329   6.493
 6867SOL     OW22041   3.529   1.714   6.158
 6867SOL    HW122042   3.488   1.691   6.070
 6867SOL    HW222043   3.511   1.640   6.223
 6868SOL     OW22044   2.460   0.729   5.856
 6868SOL    HW122045   2.484   0.798   5.788
 6868SOL    HW222046   2.382   0.762   5.910
 6869SOL     OW22047   3.143   0.345   6.530
 6869SOL    HW122048   3.057   0.295   6.517
 6869SOL    HW222049   3.205   0.291   6.586
 6870SOL     OW22050   3.438   1.662   5.893
 6870SOL    HW122051   3.527   1.708   5.896
 6870SOL    HW222052   3.417   1.638   5.798
 6871SOL     OW22053   2.669   0.605   7.051
 6871SOL    HW122054   2.622   0.602   7.140
 6871SOL    HW222055   2.618   0.550   6.985
 6872SOL     OW22056   3.256   0.469   7.260
 6872SOL    HW122057   3.236   0.512   7.348
 6872SOL    HW222058   3.334   0.407   7.269
 6873SOL     OW22059   2.835   0.890   7.158
 6873SOL    HW122060   2.881   0.806   7.129
 6873SOL    HW222061   2.779   0.924   7.083
 6874SOL     OW22062   2.853   0.410   6.828
 6874SOL    HW122063   2.776   0.444   6.882
 6874SOL    HW222064   2.819   0.359   6.749
 6875SOL     OW22065   2.903   0.701   6.015
 6875SOL    HW122066   2.929   0.697   6.111
 6875SOL    HW222067   2.818   0.650   6.001
 6876SOL     OW22068   1.938   0.811   6.375
 6876SOL    HW122069   2.037   0.799   6.384
 6876SOL    HW222070   1.914   0.906   6.396
 6877SOL     OW22071   1.992   1.821   7.157
 6877SOL    HW122072   1.982   1.806   7.256
 6877SOL    HW222073   1.906   1.857   7.121
 6878SOL     OW22074   2.727   0.348   5.781
 6878SOL    HW122075   2.786   0.411   5.732
 6878SOL    HW222076   2.746   0.254   5.752
 6879SOL     OW22077   3.581   0.585   7.417
 6879SOL    HW122078   3.555   0.674   7.381
 6879SOL    HW222079   3.579   0.517   7.344
 6880SOL     OW22080   3.224   1.144   6.131
 6880SOL    HW122081   3.307   1.115   6.083
 6880SOL    HW222082   3.175   1.211   6.075
 6881SOL     OW22083   2.412   0.196   6.471
 6881SOL    HW122084   2.407   0.191   6.571
 6881SOL    HW222085   2.414   0.292   6.442
 6882SOL     OW22086   2.870   1.456   6.063
 6882SOL    HW122087   2.824   1.528   6.011
 6882SOL    HW222088   2.866   1.476   6.161
 6883SOL     OW22089   2.213   1.801   6.439
 6883SOL    HW122090   2.263   1.715   6.445
 6883SOL    HW222091   2.278   1.878   6.436
 6884SOL     OW22092   3.657   1.066   6.459
 6884SOL    HW122093   3.595   1.051   6.383
 6884SOL    HW222094   3.605   1.077   6.544
 6885SOL     OW22095   3.089   1.550   7.092
 6885SOL    HW122096   3.095   1.473   7.156
 6885SOL    HW222097   3.037   1.524   7.012
 6886SOL     OW22098   2.183   0.943   5.828
 6886SOL    HW122099   2.265   0.982   5.786
 6886SOL    HW222100   2.156   0.861   5.779
 6887SOL     OW22101   3.320   0.735   6.314
 6887SOL    HW122102   3.315   0.670   6.389
 6887SOL    HW222103   3.400   0.794   6.327
 6888SOL     OW22104   2.323   1.266   7.313
 6888SOL    HW122105   2.273   1.267   7.227
 6888SOL    HW222106   2.260   1.248   7.389
 6889SOL     OW22107   2.973   1.776   5.823
 6889SOL    HW122108   2.913   1.714   5.873
 6889SOL    HW222109   3.004   1.732   5.738
 6890SOL     OW22110   2.064   0.285   7.084
 6890SOL    HW122111   1.984   0.345   7.071
 6890SOL    HW222112   2.054   0.236   7.170
 6891SOL     OW22113   3.494   1.377   5.667
 6891SOL    HW122114   3.462   1.471   5.657
 6891SOL    HW222115   3.418   1.314   5.655
 6892SOL     OW22116   2.326   1.743   5.909
 6892SOL    HW122117   2.359   1.782   5.995
 6892SOL    HW222118   2.402   1.736   5.844
 6893SOL     OW22119   3.262   0.107   6.012
 6893SOL    HW122120   3.238   0.070   5.922
 6893SOL    HW222121   3.361   0.123   6.016
 6894SOL     OW22122   2.111   1.785   6.827
 6894SOL    HW122123   2.168   1.720   6.877
 6894SOL    HW222124   2.095   1.752   6.734
 6895SOL     OW22125   2.802   1.698   6.490
 6895SOL    HW122126   2.882   1.641   6.511
 6895SOL    HW222127   2.753   1.658   6.413
 6896SOL     OW22128   2.244   0.700   6.066
 6896SOL    HW122129   2.289   0.610   6.063
 6896SOL    HW222130   2.150   0.689   6.099
 6897SOL     OW22131   3.409   0.222   7.315
 6897SOL    HW122132   3.404   0.259   7.407
 6897SOL    HW222133   3.337   0.153   7.303
 6898SOL     OW22134   2.476   0.122   5.703
 6898SOL    HW122135   2.574   0.100   5.710
 6898SOL    HW222136   2.445   0.105   5.610
 6899SOL     OW22137   2.643   0.264   7.335
 6899SOL    HW122138   2.710   0.203   7.378
 6899SOL    HW222139   2.570   0.283   7.400
 6900SOL     OW22140   2.750   1.514   6.781
 6900SOL    HW122141   2.727   1.489   6.687
 6900SOL    HW222142   2.811   1.445   6.820
 6901SOL     OW22143   3.213   0.590   7.019
 6901SOL    HW122144   3.241   0.547   7.104
 6901SOL    HW222145   3.238   0.686   7.020
 6902SOL     OW22146   2.665   1.402   6.510
 6902SOL    HW122147   2.755   1.416   6.468
 6902SOL    HW222148   2.594   1.404   6.439
 6903SOL     OW22149   2.784   0.503   6.485
 6903SOL    HW122150   2.759   0.494   6.389
 6903SOL    HW222151   2.832   0.421   6.516
 6904SOL     OW22152   2.401   0.064   6.098
 6904SOL    HW122153   2.320   0.065   6.156
 6904SOL    HW222154   2.404   0.147   6.043
 6905SOL     OW22155   3.296   1.188   5.627
 6905SOL    HW122156   3.328   1.112   5.684
 6905SOL    HW222157   3.204   1.215   5.657
 6906SOL     OW22158   2.159   0.035   5.757
 6906SOL    HW122159   2.208   0.119   5.736
 6906SOL    HW222160   2.221  -0.030   5.802
 6907SOL     OW22161   2.797   0.236   6.066
 6907SOL    HW122162   2.749   0.277   5.988
 6907SOL    HW222163   2.896   0.234   6.047
 6908SOL     OW22164   2.938   0.683   7.050
 6908SOL    HW122165   2.858   0.622   7.053
 6908SOL    HW222166   3.019   0.630   7.026
 6909SOL     OW22167   3.089   1.570   6.379
 6909SOL    HW122168   3.110   1.644   6.314
 6909SOL    HW222169   3.157   1.570   6.452
 6910SOL     OW22170   2.321   1.152   6.327
 6910SOL    HW122171   2.250   1.125   6.392
 6910SOL    HW222172   2.295   1.124   6.234
 6911SOL     OW22173   3.133   1.797   6.177
 6911SOL    HW122174   3.177   1.861   6.113
 6911SOL    HW222175   3.083   1.849   6.247
 6912SOL     OW22176   2.894   0.549   5.602
 6912SOL    HW122177   2.853   0.631   5.563
 6912SOL    HW222178   2.958   0.575   5.675
 6913SOL     OW22179   1.940   0.556   6.972
 6913SOL    HW122180   2.032   0.555   6.931
 6913SOL    HW222181   1.934   0.630   7.039
 6914SOL     OW22182   2.423   0.222   6.733
 6914SOL    HW122183   2.461   0.138   6.770
 6914SOL    HW222184   2.335   0.241   6.777
 6915SOL     OW22185   2.728   0.454   6.228
 6915SOL    HW122186   2.696   0.526   6.166
 6915SOL    HW222187   2.752   0.373   6.175
 6916SOL     OW22188   2.879   0.039   6.339
 6916SOL    HW122189   2.807   0.044   6.270
 6916SOL    HW222190   2.855  -0.030   6.408
 6917SOL     OW22191   3.291   1.173   6.453
 6917SOL    HW122192   3.236   1.089   6.446
 6917SOL    HW222193   3.317   1.202   6.361
 6918SOL     OW22194   3.328   0.590   6.578
 6918SOL    HW122195   3.298   0.495   6.585
 6918SOL    HW222196   3.401   0.606   6.644
 6919SOL     OW22197   3.719   0.833   5.963
 6919SOL    HW122198   3.761   0.769   6.027
 6919SOL    HW222199   3.681   0.782   5.885
 6920SOL     OW22200   2.350   1.385   5.760
 6920SOL    HW122201   2.263   1.370   5.807
 6920SOL    HW222202   2.333   1.411   5.665
 6921SOL     OW22203   3.526   1.280   6.243
 6921SOL    HW122204   3.625   1.288   6.257
 6921SOL    HW222205   3.481   1.364   6.274
 6922SOL     OW22206   3.252   0.575   5.664
 6922SOL    HW122207   3.198   0.554   5.745
 6922SOL    HW222208   3.343   0.534   5.673
 6923SOL     OW22209   2.389   0.256   5.914
 6923SOL    HW122210   2.416   0.197   5.839
 6923SOL    HW222211   2.389   0.351   5.883
 6924SOL     OW22212   3.616   1.223   7.174
 6924SOL    HW122213   3.707   1.184   7.161
 6924SOL    HW222214   3.624   1.319   7.198
 6925SOL     OW22215   2.926   1.347   6.926
 6925SOL    HW122216   2.846   1.324   6.981
 6925SOL    HW222217   3.009   1.321   6.975
 6926SOL     OW22218   3.454   1.629   7.211
 6926SOL    HW122219   3.481   1.663   7.121
 6926SOL    HW222220   3.533   1.591   7.257
 6927SOL     OW22221   2.973   1.195   6.686
 6927SOL    HW122222   2.933   1.239   6.767
 6927SOL    HW222223   2.932   1.232   6.603
 6928SOL     OW22224   3.500   1.099   6.665
 6928SOL    HW122225   3.505   1.180   6.724
 6928SOL    HW222226   3.414   1.101   6.614
 6929SOL     OW22227   2.777   0.089   6.988
 6929SOL    HW122228   2.802   0.069   6.893
 6929SOL    HW222229   2.849   0.145   7.030
 6930SOL     OW22230   2.842   1.116   7.305
 6930SOL    HW122231   2.743   1.122   7.315
 6930SOL    HW222232   2.865   1.036   7.249
 6931SOL     OW22233   2.567   1.050   5.954
 6931SOL    HW122234   2.553   1.057   6.053
 6931SOL    HW222235   2.651   0.999   5.936
 6932SOL     OW22236   2.272   0.813   6.837
 6932SOL    HW122237   2.358   0.825   6.887
 6932SOL    HW222238   2.230   0.726   6.864
 6933SOL     OW22239   3.136   0.386   6.848
 6933SOL    HW122240   3.157   0.460   6.912
 6933SOL    HW222241   3.047   0.403   6.805
 6934SOL     OW22242   1.926   1.564   6.917
 6934SOL    HW122243   1.880   1.646   6.883
 6934SOL    HW222244   2.024   1.583   6.926
 6935SOL     OW22245   2.229   1.100   6.087
 6935SOL    HW122246   2.222   1.183   6.031
 6935SOL    HW222247   2.233   1.020   6.027
 6936SOL     OW22248   2.428   0.537   6.451
 6936SOL    HW122249   2.440   0.603   6.377
 6936SOL    HW222250   2.474   0.571   6.534
 6937SOL     OW22251   3.114   1.348   5.974
 6937SOL    HW122252   3.164   1.425   6.014
 6937SOL    HW222253   3.019   1.350   6.006
 6938SOL     OW22254   3.134   1.445   6.728
 6938SOL    HW122255   3.181   1.458   6.815
 6938SOL    HW222256   3.068   1.371   6.737
 6939SOL     OW22257   3.444   0.639   6.058
 6939SOL    HW122258   3.413   0.700   6.131
 6939SOL    HW222259   3.494   0.691   5.989
 6940SOL     OW22260   2.216   1.510   6.915
 6940SOL    HW122261   2.195   1.466   6.828
 6940SOL    HW222262   2.313   1.536   6.918
 6941SOL     OW22263   2.264   0.751   7.184
 6941SOL    HW122264   2.332   0.806   7.137
 6941SOL    HW222265   2.304   0.663   7.211
 6942SOL     OW22266   3.449   0.779   7.256
 6942SOL    HW122267   3.357   0.817   7.251
 6942SOL    HW222268   3.509   0.826   7.191
 6943SOL     OW22269   2.875   0.105   7.356
 6943SOL    HW122270   2.881   0.190   7.304
 6943SOL    HW222271   2.907   0.029   7.299
 6944SOL     OW22272   2.366   0.050   7.326
 6944SOL    HW122273   2.324  -0.007   7.256
 6944SOL    HW222274   2.300   0.119   7.358
 6945SOL     OW22275   2.435   0.870   6.615
 6945SOL    HW122276   2.479   0.959   6.606
 6945SOL    HW222277   2.372   0.870   6.692
 6946SOL     OW22278   3.222   0.862   6.631
 6946SOL    HW122279   3.147   0.862   6.565
 6946SOL    HW222280   3.259   0.770   6.640
 6947SOL     OW22281   3.071   0.525   5.861
 6947SOL    HW122282   3.084   0.441   5.915
 6947SOL    HW222283   3.042   0.599   5.921
 6948SOL     OW22284   2.169   0.213   6.817
 6948SOL    HW122285   2.146   0.250   6.907
 6948SOL    HW222286   2.139   0.118   6.811
 6949SOL     OW22287   1.899   1.310   6.868
 6949SOL    HW122288   1.952   1.261   6.936
 6949SOL    HW222289   1.921   1.408   6.873
 6950SOL     OW22290   2.594   0.634   6.650
 6950SOL    HW122291   2.653   0.608   6.574
 6950SOL    HW222292   2.566   0.730   6.639
 6951SOL     OW22293   3.590   0.935   7.440
 6951SOL    HW122294   3.544   0.928   7.351
 6951SOL    HW222295   3.528   0.979   7.506
 6952SOL     OW22296   2.169   0.063   6.204
 6952SOL    HW122297   2.158   0.157   6.237
 6952SOL    HW222298   2.164   0.000   6.281
 6953SOL     OW22299   3.484   0.367   5.960
 6953SOL    HW122300   3.486   0.291   6.024
 6953SOL    HW222301   3.436   0.444   6.000
 6954SOL     OW22302   2.885   0.766   6.552
 6954SOL    HW122303   2.900   0.787   6.648
 6954SOL    HW222304   2.855   0.671   6.543
 6955SOL     OW22305   2.842   1.573   7.286
 6955SOL    HW122306   2.822   1.617   7.198
 6955SOL    HW222307   2.881   1.482   7.270
 6956SOL     OW22308   3.721   1.518   7.191
 6956SOL    HW122309   3.735   1.545   7.096
 6956SOL    HW222310   3.804   1.540   7.244
 6957SOL     OW22311   2.212   0.898   7.390
 6957SOL    HW122312   2.288   0.942   7.438
 6957SOL    HW222313   2.247   0.851   7.308
 6958SOL     OW22314   3.402   0.274   5.711
 6958SOL    HW122315   3.341   0.199   5.734
 6958SOL    HW222316   3.424   0.326   5.794
 6959SOL     OW22317   3.165   0.838   5.628
 6959SOL    HW122318   3.199   0.745   5.643
 6959SOL    HW222319   3.183   0.865   5.533
 6960SOL     OW22320   2.930   1.333   6.435
 6960SOL    HW122321   2.937   1.249   6.380
 6960SOL    HW222322   2.992   1.402   6.399
 6961SOL     OW22323   2.181   0.810   6.535
 6961SOL    HW122324   2.274   0.846   6.540
 6961SOL    HW222325   2.175   0.725   6.587
 6962SOL     OW22326   2.201   0.509   6.592
 6962SOL    HW122327   2.149   0.426   6.575
 6962SOL    HW222328   2.278   0.514   6.528
 6963SOL     OW22329   3.000   0.380   7.264
 6963SOL    HW122330   2.955   0.443   7.328
 6963SOL    HW222331   3.093   0.411   7.247
 6964SOL     OW22332   3.022   0.207   7.063
 6964SOL    HW122333   3.022   0.271   7.140
 6964SOL    HW222334   3.050   0.255   6.980
 6965SOL     OW22335   1.870   1.326   5.786
 6965SOL    HW122336   1.777   1.347   5.755
 6965SOL    HW222337   1.880   1.227   5.799
 6966SOL     OW22338   1.950   1.801   6.513
 6966SOL    HW122339   1.908   1.715   6.486
 6966SOL    HW222340   2.044   1.804   6.479
 6967SOL     OW22341   2.366   1.568   6.496
 6967SOL    HW122342   2.432   1.642   6.505
 6967SOL    HW222343   2.410   1.489   6.454
 6968SOL     OW22344   2.864   0.796   6.824
 6968SOL    HW122345   2.905   0.764   6.910
 6968SOL    HW222346   2.768   0.769   6.821
 6969SOL     OW22347   1.902   0.544   6.700
 6969SOL    HW122348   1.987   0.511   6.659
 6969SOL    HW222349   1.915   0.559   6.798
 6970SOL     OW22350   2.051   0.520   7.308
 6970SOL    HW122351   2.110   0.480   7.238
 6970SOL    HW222352   1.993   0.591   7.267
 6971SOL     OW22353   3.231   0.950   7.246
 6971SOL    HW122354   3.270   1.039   7.266
 6971SOL    HW222355   3.241   0.930   7.149
 6972SOL     OW22356   2.677   0.572   5.911
 6972SOL    HW122357   2.684   0.483   5.865
 6972SOL    HW222358   2.583   0.606   5.903
 6973SOL     OW22359   3.519   0.604   6.792
 6973SOL    HW122360   3.481   0.535   6.854
 6973SOL    HW222361   3.601   0.568   6.748
 6974SOL     OW22362   2.114   1.564   7.330
 6974SOL    HW122363   2.084   1.621   7.406
 6974SOL    HW222364   2.107   1.467   7.356
 6975SOL     OW22365   2.533   0.464   6.855
 6975SOL    HW122366   2.499   0.375   6.825
 6975SOL    HW222367   2.559   0.518   6.775
 6976SOL     OW22368   2.792   1.678   7.051
 6976SOL    HW122369   2.768   1.660   6.956
 6976SOL    HW222370   2.822   1.772   7.061
 6977SOL     OW22371   2.335   0.500   5.777
 6977SOL    HW122372   2.396   0.580   5.781
 6977SOL    HW222373   2.240   0.531   5.784
 6978SOL     OW22374   2.021   1.137   7.052
 6978SOL    HW122375   2.043   1.076   7.128
 6978SOL    HW222376   2.031   1.088   6.966
 6979SOL     OW22377   3.209   1.059   6.820
 6979SOL    HW122378   3.233   0.996   6.746
 6979SOL    HW222379   3.119   1.099   6.802
 6980SOL     OW22380   3.164   0.855   5.895
 6980SOL    HW122381   3.078   0.824   5.937
 6980SOL    HW222382   3.160   0.841   5.796
 6981SOL     OW22383   3.621   1.747   6.740
 6981SOL    HW122384   3.682   1.777   6.667
 6981SOL    HW222385   3.583   1.658   6.718
 6982SOL     OW22386   3.114   1.731   6.714
 6982SOL    HW122387   3.198   1.736   6.660
 6982SOL    HW222388   3.091   1.635   6.732
 6983SOL     OW22389   1.945   1.258   6.608
 6983SOL    HW122390   1.940   1.257   6.708
 6983SOL    HW222391   1.862   1.217   6.570
 6984SOL     OW22392   2.550   1.662   7.302
 6984SOL    HW122393   2.494   1.743   7.311
 6984SOL    HW222394   2.602   1.666   7.216
 6985SOL     OW22395   3.588   0.135   6.109
 6985SOL    HW122396   3.661   0.118   6.042
 6985SOL    HW222397   3.557   0.048   6.147
 6986SOL     OW22398   3.250   1.573   6.063
 6986SOL    HW122399   3.317   1.585   5.989
 6986SOL    HW222400   3.210   1.662   6.086
 6987SOL     OW22401   1.992   1.794   7.437
 6987SOL    HW122402   1.951   1.720   7.490
 6987SOL    HW222403   2.056   1.845   7.495
 6988SOL     OW22404   3.142   0.927   6.258
 6988SOL    HW122405   3.202   0.846   6.260
 6988SOL    HW222406   3.182   0.996   6.198
 6989SOL     OW22407   2.692   1.273   7.008
 6989SOL    HW122408   2.687   1.306   7.103
 6989SOL    HW222409   2.606   1.292   6.962
 6990SOL     OW22410   2.534   1.616   5.740
 6990SOL    HW122411   2.543   1.626   5.641
 6990SOL    HW222412   2.494   1.527   5.761
 6991SOL     OW22413   3.512   1.720   6.980
 6991SOL    HW122414   3.565   1.730   6.896
 6991SOL    HW222415   3.485   1.810   7.014
 6992SOL     OW22416   3.703   0.175   6.549
 6992SOL    HW122417   3.742   0.090   6.513
 6992SOL    HW222418   3.605   0.177   6.530
 6993SOL     OW22419   2.125   0.326   6.306
 6993SOL    HW122420   2.046   0.377   6.272
 6993SOL    HW222421   2.116   0.311   6.404
 6994SOL     OW22422   3.056   1.612   5.617
 6994SOL    HW122423   3.062   1.519   5.654
 6994SOL    HW222424   2.997   1.612   5.537
 6995SOL     OW22425   2.684   1.002   6.958
 6995SOL    HW122426   2.724   1.001   6.866
 6995SOL    HW222427   2.694   1.094   6.998
 6996SOL     OW22428   2.778   0.910   5.877
 6996SOL    HW122429   2.841   0.948   5.809
 6996SOL    HW222430   2.818   0.827   5.916
 6997SOL     OW22431   3.366   1.607   5.630
 6997SOL    HW122432   3.274   1.644   5.637
 6997SOL    HW222433   3.404   1.627   5.540
 6998SOL     OW22434   2.234   1.288   7.076
 6998SOL    HW122435   2.221   1.381   7.042
 6998SOL    HW222436   2.150   1.236   7.063
 6999SOL     OW22437   3.476   1.292   6.875
 6999SOL    HW122438   3.536   1.295   6.955
 6999SOL    HW222439   3.401   1.356   6.888
 7000SOL     OW22440   2.901   1.098   6.282
 7000SOL    HW122441   2.831   1.051   6.336
 7000SOL    HW222442   2.960   1.030   6.239
 7001SOL     OW22443   2.876   0.236   6.557
 7001SOL    HW122444   2.868   0.200   6.464
 7001SOL    HW222445   2.874   0.160   6.622
 7002SOL     OW22446   2.452   1.487   6.077
 7002SOL    HW122447   2.494   1.429   6.007
 7002SOL    HW222448   2.408   1.566   6.033
 7003SOL     OW22449   3.571   0.385   6.967
 7003SOL    HW122450   3.644   0.454   6.971
 7003SOL    HW222451   3.599   0.310   6.908
 7004SOL     OW22452   2.117   1.348   5.876
 7004SOL    HW122453   2.021   1.349   5.849
 7004SOL    HW222454   2.129   1.401   5.960
 7005SOL     OW22455   1.967   1.013   7.312
 7005SOL    HW122456   1.890   0.980   7.366
 7005SOL    HW222457   2.052   0.983   7.354
 7006SOL     OW22458   2.534   0.203   7.075
 7006SOL    HW122459   2.624   0.187   7.035
 7006SOL    HW222460   2.542   0.208   7.174
 7007SOL     OW22461   1.937   0.345   5.619
 7007SOL    HW122462   1.845   0.317   5.590
 7007SOL    HW222463   1.968   0.422   5.563
 7008SOL     OW22464   3.302   0.856   6.984
 7008SOL    HW122465   3.245   0.908   6.921
 7008SOL    HW222466   3.398   0.868   6.960
 7009SOL     OW22467   1.934   0.166   5.904
 7009SOL    HW122468   1.917   0.249   5.850
 7009SOL    HW222469   2.024   0.129   5.882
 7010SOL     OW22470   3.045   1.335   5.705
 7010SOL    HW122471   2.946   1.324   5.707
 7010SOL    HW222472   3.079   1.350   5.798
 7011SOL     OW22473   2.475   0.842   7.017
 7011SOL    HW122474   2.531   0.923   7.000
 7011SOL    HW222475   2.534   0.762   7.020
 7012SOL     OW22476   3.355   1.767   6.545
 7012SOL    HW122477   3.388   1.831   6.476
 7012SOL    HW222478   3.421   1.761   6.620
 7013SOL     OW22479   2.578   0.565   7.294
 7013SOL    HW122480   2.597   0.630   7.368
 7013SOL    HW222481   2.638   0.485   7.303
 7014SOL     OW22482   3.312   1.220   7.219
 7014SOL    HW122483   3.303   1.210   7.318
 7014SOL    HW222484   3.408   1.213   7.193
 7015SOL     OW22485   2.252   1.741   7.146
 7015SOL    HW122486   2.161   1.782   7.144
 7015SOL    HW222487   2.245   1.647   7.178
 7016SOL     OW22488   3.536   0.883   6.840
 7016SOL    HW122489   3.509   0.794   6.803
 7016SOL    HW222490   3.537   0.951   6.767
 7017SOL     OW22491   3.087   0.325   6.035
 7017SOL    HW122492   3.152   0.251   6.024
 7017SOL    HW222493   3.107   0.375   6.119
 7018SOL     OW22494   2.456   0.745   6.238
 7018SOL    HW122495   2.506   0.830   6.219
 7018SOL    HW222496   2.368   0.747   6.190
 7019SOL     OW22497   3.639   0.342   7.228
 7019SOL    HW122498   3.622   0.373   7.134
 7019SOL    HW222499   3.555   0.305   7.266
 7020SOL     OW22500   3.592   0.934   7.103
 7020SOL    HW122501   3.630   1.025   7.118
 7020SOL    HW222502   3.584   0.917   7.004
 7021SOL     OW22503   2.721   1.374   5.602
 7021SOL    HW122504   2.675   1.389   5.690
 7021SOL    HW222505   2.765   1.459   5.572
 7022SOL     OW22506   2.523   1.790   6.539
 7022SOL    HW122507   2.477   1.878   6.526
 7022SOL    HW222508   2.622   1.802   6.532
 7023SOL     OW22509   2.721   0.956   6.447
 7023SOL    HW122510   2.775   0.887   6.495
 7023SOL    HW222511   2.689   1.025   6.513
 7024SOL     OW22512   2.945   0.984   5.673
 7024SOL    HW122513   2.922   1.037   5.591
 7024SOL    HW222514   3.026   0.928   5.654
 7025SOL     OW22515   3.723   1.569   6.437
 7025SOL    HW122516   3.652   1.557   6.367
 7025SOL    HW222517   3.724   1.490   6.497
 7026SOL     OW22518   2.083   1.314   7.430
 7026SOL    HW122519   2.018   1.241   7.409
 7026SOL    HW222520   2.087   1.328   7.528
 7027SOL     OW22521   1.941   1.240   6.239
 7027SOL    HW122522   1.940   1.193   6.327
 7027SOL    HW222523   2.023   1.212   6.188
 7028SOL     OW22524   2.534   1.391   7.210
 7028SOL    HW122525   2.456   1.341   7.248
 7028SOL    HW222526   2.531   1.486   7.241
 7029SOL     OW22527   3.686   0.192   6.813
 7029SOL    HW122528   3.682   0.102   6.857
 7029SOL    HW222529   3.689   0.181   6.714
 7030SOL     OW22530   2.290   0.424   6.106
 7030SOL    HW122531   2.320   0.352   6.044
 7030SOL    HW222532   2.251   0.384   6.189
 7031SOL     OW22533   3.567   1.487   6.690
 7031SOL    HW122534   3.474   1.462   6.663
 7031SOL    HW222535   3.593   1.437   6.772
 7032SOL     OW22536   2.179   0.547   6.866
 7032SOL    HW122537   2.217   0.488   6.938
 7032SOL    HW222538   2.219   0.521   6.778
 7033SOL     OW22539   2.674   1.586   6.273
 7033SOL    HW122540   2.706   1.596   6.179
 7033SOL    HW222541   2.595   1.524   6.275
 7034SOL     OW22542   3.286   0.214   6.698
 7034SOL    HW122543   3.338   0.149   6.753
 7034SOL    HW222544   3.237   0.277   6.759
 7035SOL     OW22545   2.863   0.034   6.740
 7035SOL    HW122546   2.800  -0.038   6.709
 7035SOL    HW222547   2.956  -0.002   6.740
 7036SOL     OW22548   2.632   1.330   5.887
 7036SOL    HW122549   2.586   1.243   5.904
 7036SOL    HW222550   2.723   1.327   5.928
 7037SOL     OW22551   2.480   1.567   6.870
 7037SOL    HW122552   2.475   1.649   6.927
 7037SOL    HW222553   2.569   1.564   6.825
 7038SOL     OW22554   3.214   0.052   5.754
 7038SOL    HW122555   3.249   0.011   5.670
 7038SOL    HW222556   3.124   0.014   5.774
 7039SOL     OW22557   3.162   0.453   6.277
 7039SOL    HW122558   3.103   0.533   6.281
 7039SOL    HW222559   3.177   0.418   6.370
 7040SOL     OW22560   3.455   0.221   6.468
 7040SOL    HW122561   3.371   0.220   6.522
 7040SOL    HW222562   3.457   0.304   6.412
 7041SOL     OW22563   1.901   1.077   5.886
 7041SOL    HW122564   2.000   1.066   5.877
 7041SOL    HW222565   1.861   0.991   5.918
 7042SOL     OW22566   2.737   1.646   5.923
 7042SOL    HW122567   2.660   1.611   5.869
 7042SOL    HW222568   2.705   1.717   5.985
 7043SOL     OW22569   2.092   0.628   7.561
 7043SOL    HW122570   1.999   0.626   7.598
 7043SOL    HW222571   2.093   0.589   7.469
 7044SOL     OW22572   2.087   0.275   8.444
 7044SOL    HW122573   2.122   0.258   8.536
 7044SOL    HW222574   1.999   0.230   8.432
 7045SOL     OW22575   1.881   0.368   8.095
 7045SOL    HW122576   1.799   0.411   8.134
 7045SOL    HW222577   1.853   0.295   8.032
 7046SOL     OW22578   2.431   1.275   8.613
 7046SOL    HW122579   2.338   1.268   8.576
 7046SOL    HW222580   2.442   1.364   8.657
 7047SOL     OW22581   3.417   1.511   8.151
 7047SOL    HW122582   3.360   1.495   8.232
 7047SOL    HW222583   3.358   1.521   8.071
 7048SOL     OW22584   2.997   0.703   8.165
 7048SOL    HW122585   3.054   0.781   8.140
 7048SOL    HW222586   2.937   0.729   8.241
 7049SOL     OW22587   3.617   0.607   7.679
 7049SOL    HW122588   3.605   0.594   7.580
 7049SOL    HW222589   3.587   0.526   7.728
 7050SOL     OW22590   2.630   1.144   8.471
 7050SOL    HW122591   2.552   1.161   8.531
 7050SOL    HW222592   2.664   1.231   8.435
 7051SOL     OW22593   2.712   0.798   9.271
 7051SOL    HW122594   2.708   0.874   9.336
 7051SOL    HW222595   2.734   0.834   9.180
 7052SOL     OW22596   2.547   1.012   8.113
 7052SOL    HW122597   2.616   0.996   8.183
 7052SOL    HW222598   2.474   1.069   8.151
 7053SOL     OW22599   2.548   1.161   9.251
 7053SOL    HW122600   2.608   1.240   9.265
 7053SOL    HW222601   2.462   1.192   9.210
 7054SOL     OW22602   2.197   1.435   8.509
 7054SOL    HW122603   2.119   1.404   8.456
 7054SOL    HW222604   2.255   1.493   8.452
 7055SOL     OW22605   3.322   1.505   8.787
 7055SOL    HW122606   3.346   1.599   8.813
 7055SOL    HW222607   3.306   1.451   8.869
 7056SOL     OW22608   2.300   0.392   8.947
 7056SOL    HW122609   2.382   0.336   8.956
 7056SOL    HW222610   2.219   0.334   8.951
 7057SOL     OW22611   3.465   0.447   8.185
 7057SOL    HW122612   3.391   0.493   8.135
 7057SOL    HW222613   3.516   0.515   8.238
 7058SOL     OW22614   2.093   1.713   7.931
 7058SOL    HW122615   2.127   1.790   7.985
 7058SOL    HW222616   2.137   1.713   7.841
 7059SOL     OW22617   2.989   1.341   9.138
 7059SOL    HW122618   3.036   1.341   9.226
 7059SOL    HW222619   2.941   1.254   9.127
 7060SOL     OW22620   2.092   1.434   7.986
 7060SOL    HW122621   2.066   1.530   7.986
 7060SOL    HW222622   2.021   1.380   8.031
 7061SOL     OW22623   2.102   1.091   8.334
 7061SOL    HW122624   2.116   1.007   8.386
 7061SOL    HW222625   2.047   1.155   8.389
 7062SOL     OW22626   2.482   1.786   8.887
 7062SOL    HW122627   2.390   1.769   8.922
 7062SOL    HW222628   2.510   1.878   8.913
 7063SOL     OW22629   2.468   0.964   7.571
 7063SOL    HW122630   2.475   1.048   7.517
 7063SOL    HW222631   2.514   0.977   7.659
 7064SOL     OW22632   3.456   0.114   8.928
 7064SOL    HW122633   3.438   0.181   8.856
 7064SOL    HW222634   3.453   0.160   9.017
 7065SOL     OW22635   1.984   0.643   8.011
 7065SOL    HW122636   1.939   0.555   8.028
 7065SOL    HW222637   1.983   0.697   8.095
 7066SOL     OW22638   3.704   1.767   7.807
 7066SOL    HW122639   3.758   1.738   7.887
 7066SOL    HW222640   3.734   1.857   7.778
 7067SOL     OW22641   1.889   1.596   7.565
 7067SOL    HW122642   1.870   1.500   7.586
 7067SOL    HW222643   1.856   1.654   7.640
 7068SOL     OW22644   3.551   0.922   8.060
 7068SOL    HW122645   3.646   0.893   8.068
 7068SOL    HW222646   3.543   0.987   7.985
 7069SOL     OW22647   3.503   1.108   7.880
 7069SOL    HW122648   3.589   1.110   7.828
 7069SOL    HW222649   3.517   1.155   7.968
 7070SOL     OW22650   1.975   0.737   9.045
 7070SOL    HW122651   2.063   0.724   9.090
 7070SOL    HW222652   1.962   0.834   9.023
 7071SOL     OW22653   2.475   1.365   8.174
 7071SOL    HW122654   2.426   1.278   8.183
 7071SOL    HW222655   2.452   1.408   8.087
 7072SOL     OW22656   3.155   1.228   8.871
 7072SOL    HW122657   3.192   1.155   8.813
 7072SOL    HW222658   3.207   1.233   8.956
 7073SOL     OW22659   2.671   0.004   7.950
 7073SOL    HW122660   2.711   0.095   7.941
 7073SOL    HW222661   2.571   0.012   7.956
 7074SOL     OW22662   2.059   0.976   8.712
 7074SOL    HW122663   2.148   0.931   8.698
 7074SOL    HW222664   1.986   0.911   8.693
 7075SOL     OW22665   3.387   0.999   7.638
 7075SOL    HW122666   3.324   0.923   7.651
 7075SOL    HW222667   3.435   1.017   7.724
 7076SOL     OW22668   3.049   1.792   9.064
 7076SOL    HW122669   3.073   1.852   8.988
 7076SOL    HW222670   3.056   1.697   9.034
 7077SOL     OW22671   2.179   0.251   9.249
 7077SOL    HW122672   2.250   0.322   9.255
 7077SOL    HW222673   2.091   0.290   9.277
 7078SOL     OW22674   3.328   1.417   8.401
 7078SOL    HW122675   3.269   1.423   8.481
 7078SOL    HW222676   3.313   1.329   8.355
 7079SOL     OW22677   3.529   1.714   8.020
 7079SOL    HW122678   3.488   1.691   7.932
 7079SOL    HW222679   3.511   1.640   8.085
 7080SOL     OW22680   2.460   0.729   7.718
 7080SOL    HW122681   2.484   0.798   7.650
 7080SOL    HW222682   2.382   0.762   7.772
 7081SOL     OW22683   3.143   0.345   8.392
 7081SOL    HW122684   3.057   0.295   8.379
 7081SOL    HW222685   3.205   0.291   8.448
 7082SOL     OW22686   3.438   1.662   7.755
 7082SOL    HW122687   3.527   1.708   7.758
 7082SOL    HW222688   3.417   1.638   7.660
 7083SOL     OW22689   2.669   0.605   8.913
 7083SOL    HW122690   2.622   0.602   9.002
 7083SOL    HW222691   2.618   0.550   8.847
 7084SOL     OW22692   3.256   0.469   9.122
 7084SOL    HW122693   3.236   0.512   9.210
 7084SOL    HW222694   3.334   0.407   9.131
 7085SOL     OW22695   2.835   0.890   9.020
 7085SOL    HW122696   2.881   0.806   8.991
 7085SOL    HW222697   2.779   0.924   8.945
 7086SOL     OW22698   2.853   0.410   8.690
 7086SOL    HW122699   2.776   0.444   8.744
 7086SOL    HW222700   2.819   0.359   8.611
 7087SOL     OW22701   2.903   0.701   7.877
 7087SOL    HW122702   2.929   0.697   7.973
 7087SOL    HW222703   2.818   0.650   7.863
 7088SOL     OW22704   1.938   0.811   8.237
 7088SOL    HW122705   2.037   0.799   8.246
 7088SOL    HW222706   1.914   0.906   8.258
 7089SOL     OW22707   1.992   1.821   9.019
 7089SOL    HW122708   1.982   1.806   9.118
 7089SOL    HW222709   1.906   1.857   8.983
 7090SOL     OW22710   2.727   0.348   7.643
 7090SOL    HW122711   2.786   0.411   7.594
 7090SOL    HW222712   2.746   0.254   7.614
 7091SOL     OW22713   3.581   0.585   9.279
 7091SOL    HW122714   3.555   0.674   9.243
 7091SOL    HW222715   3.579   0.517   9.206
 7092SOL     OW22716   3.224   1.144   7.993
 7092SOL    HW122717   3.307   1.115   7.945
 7092SOL    HW222718   3.175   1.211   7.937
 7093SOL     OW22719   2.412   0.196   8.333
 7093SOL    HW122720   2.407   0.191   8.433
 7093SOL    HW222721   2.414   0.292   8.304
 7094SOL     OW22722   2.870   1.456   7.925
 7094SOL    HW122723   2.824   1.528   7.873
 7094SOL    HW222724   2.866   1.476   8.023
 7095SOL     OW22725   2.213   1.801   8.301
 7095SOL    HW122726   2.263   1.715   8.307
 7095SOL    HW222727   2.278   1.878   8.298
 7096SOL     OW22728   3.657   1.066   8.321
 7096SOL    HW122729   3.595   1.051   8.245
 7096SOL    HW222730   3.605   1.077   8.406
 7097SOL     OW22731   3.089   1.550   8.954
 7097SOL    HW122732   3.095   1.473   9.018
 7097SOL    HW222733   3.037   1.524   8.874
 7098SOL     OW22734   2.183   0.943   7.690
 7098SOL    HW122735   2.265   0.982   7.648
 7098SOL    HW222736   2.156   0.861   7.641
 7099SOL     OW22737   3.320   0.735   8.176
 7099SOL    HW122738   3.315   0.670   8.251
 7099SOL    HW222739   3.400   0.794   8.189
 7100SOL     OW22740   2.323   1.266   9.175
 7100SOL    HW122741   2.273   1.267   9.089
 7100SOL    HW222742   2.260   1.248   9.251
 7101SOL     OW22743   2.973   1.776   7.685
 7101SOL    HW122744   2.913   1.714   7.735
 7101SOL    HW222745   3.004   1.732   7.600
 7102SOL     OW22746   2.064   0.285   8.946
 7102SOL    HW122747   1.984   0.345   8.933
 7102SOL    HW222748   2.054   0.236   9.032
 7103SOL     OW22749   3.494   1.377   7.529
 7103SOL    HW122750   3.462   1.471   7.519
 7103SOL    HW222751   3.418   1.314   7.517
 7104SOL     OW22752   2.326   1.743   7.771
 7104SOL    HW122753   2.359   1.782   7.857
 7104SOL    HW222754   2.402   1.736   7.706
 7105SOL     OW22755   3.262   0.107   7.874
 7105SOL    HW122756   3.238   0.070   7.784
 7105SOL    HW222757   3.361   0.123   7.878
 7106SOL     OW22758   2.111   1.785   8.689
 7106SOL    HW122759   2.168   1.720   8.739
 7106SOL    HW222760   2.095   1.752   8.596
 7107SOL     OW22761   2.802   1.698   8.352
 7107SOL    HW122762   2.882   1.641   8.373
 7107SOL    HW222763   2.753   1.658   8.275
 7108SOL     OW22764   2.244   0.700   7.928
 7108SOL    HW122765   2.289   0.610   7.925
 7108SOL    HW222766   2.150   0.689   7.961
 7109SOL     OW22767   3.409   0.222   9.177
 7109SOL    HW122768   3.404   0.259   9.269
 7109SOL    HW222769   3.337   0.153   9.165
 7110SOL     OW22770   2.476   0.122   7.565
 7110SOL    HW122771   2.574   0.100   7.572
 7110SOL    HW222772   2.445   0.105   7.472
 7111SOL     OW22773   2.643   0.264   9.197
 7111SOL    HW122774   2.710   0.203   9.240
 7111SOL    HW222775   2.570   0.283   9.262
 7112SOL     OW22776   2.750   1.514   8.643
 7112SOL    HW122777   2.727   1.489   8.549
 7112SOL    HW222778   2.811   1.445   8.682
 7113SOL     OW22779   2.665   1.402   8.372
 7113SOL    HW122780   2.755   1.416   8.330
 7113SOL    HW222781   2.594   1.404   8.301
 7114SOL     OW22782   2.784   0.503   8.347
 7114SOL    HW122783   2.759   0.494   8.251
 7114SOL    HW222784   2.832   0.421   8.378
 7115SOL     OW22785   2.401   0.064   7.960
 7115SOL    HW122786   2.320   0.065   8.018
 7115SOL    HW222787   2.404   0.147   7.905
 7116SOL     OW22788   3.296   1.188   7.489
 7116SOL    HW122789   3.328   1.112   7.546
 7116SOL    HW222790   3.204   1.215   7.519
 7117SOL     OW22791   2.159   0.035   7.619
 7117SOL    HW122792   2.208   0.119   7.598
 7117SOL    HW222793   2.221  -0.030   7.664
 7118SOL     OW22794   2.797   0.236   7.928
 7118SOL    HW122795   2.749   0.277   7.850
 7118SOL    HW222796   2.896   0.234   7.909
 7119SOL     OW22797   2.938   0.683   8.912
 7119SOL    HW122798   2.858   0.622   8.915
 7119SOL    HW222799   3.019   0.630   8.888
 7120SOL     OW22800   3.089   1.570   8.241
 7120SOL    HW122801   3.110   1.644   8.176
 7120SOL    HW222802   3.157   1.570   8.314
 7121SOL     OW22803   2.321   1.152   8.189
 7121SOL    HW122804   2.250   1.125   8.254
 7121SOL    HW222805   2.295   1.124   8.096
 7122SOL     OW22806   3.133   1.797   8.039
 7122SOL    HW122807   3.177   1.861   7.975
 7122SOL    HW222808   3.083   1.849   8.109
 7123SOL     OW22809   2.894   0.549   7.464
 7123SOL    HW122810   2.853   0.631   7.425
 7123SOL    HW222811   2.958   0.575   7.537
 7124SOL     OW22812   1.940   0.556   8.834
 7124SOL    HW122813   2.032   0.555   8.793
 7124SOL    HW222814   1.934   0.630   8.901
 7125SOL     OW22815   2.423   0.222   8.595
 7125SOL    HW122816   2.461   0.138   8.632
 7125SOL    HW222817   2.335   0.241   8.639
 7126SOL     OW22818   2.728   0.454   8.090
 7126SOL    HW122819   2.696   0.526   8.028
 7126SOL    HW222820   2.752   0.373   8.037
 7127SOL     OW22821   2.879   0.039   8.201
 7127SOL    HW122822   2.807   0.044   8.132
 7127SOL    HW222823   2.855  -0.030   8.270
 7128SOL     OW22824   3.291   1.173   8.315
 7128SOL    HW122825   3.236   1.089   8.308
 7128SOL    HW222826   3.317   1.202   8.223
 7129SOL     OW22827   3.328   0.590   8.440
 7129SOL    HW122828   3.298   0.495   8.447
 7129SOL    HW222829   3.401   0.606   8.506
 7130SOL     OW22830   3.719   0.833   7.825
 7130SOL    HW122831   3.761   0.769   7.889
 7130SOL    HW222832   3.681   0.782   7.747
 7131SOL     OW22833   2.350   1.385   7.622
 7131SOL    HW122834   2.263   1.370   7.669
 7131SOL    HW222835   2.333   1.411   7.527
 7132SOL     OW22836   3.526   1.280   8.105
 7132SOL    HW122837   3.625   1.288   8.119
 7132SOL    HW222838   3.481   1.364   8.136
 7133SOL     OW22839   3.252   0.575   7.526
 7133SOL    HW122840   3.198   0.554   7.607
 7133SOL    HW222841   3.343   0.534   7.535
 7134SOL     OW22842   2.389   0.256   7.776
 7134SOL    HW122843   2.416   0.197   7.701
 7134SOL    HW222844   2.389   0.351   7.745
 7135SOL     OW22845   3.616   1.223   9.036
 7135SOL    HW122846   3.707   1.184   9.023
 7135SOL    HW222847   3.624   1.319   9.060
 7136SOL     OW22848   2.926   1.347   8.788
 7136SOL    HW122849   2.846   1.324   8.843
 7136SOL    HW222850   3.009   1.321   8.837
 7137SOL     OW22851   3.454   1.629   9.073
 7137SOL    HW122852   3.481   1.663   8.983
 7137SOL    HW222853   3.533   1.591   9.119
 7138SOL     OW22854   2.973   1.195   8.548
 7138SOL    HW122855   2.933   1.239   8.629
 7138SOL    HW222856   2.932   1.232   8.465
 7139SOL     OW22857   3.500   1.099   8.527
 7139SOL    HW122858   3.505   1.180   8.586
 7139SOL    HW222859   3.414   1.101   8.476
 7140SOL     OW22860   2.777   0.089   8.850
 7140SOL    HW122861   2.802   0.069   8.755
 7140SOL    HW222862   2.849   0.145   8.892
 7141SOL     OW22863   2.842   1.116   9.167
 7141SOL    HW122864   2.743   1.122   9.177
 7141SOL    HW222865   2.865   1.036   9.111
 7142SOL     OW22866   2.567   1.050   7.816
 7142SOL    HW122867   2.553   1.057   7.915
 7142SOL    HW222868   2.651   0.999   7.798
 7143SOL     OW22869   2.272   0.813   8.699
 7143SOL    HW122870   2.358   0.825   8.749
 7143SOL    HW222871   2.230   0.726   8.726
 7144SOL     OW22872   3.136   0.386   8.710
 7144SOL    HW122873   3.157   0.460   8.774
 7144SOL    HW222874   3.047   0.403   8.667
 7145SOL     OW22875   1.926   1.564   8.779
 7145SOL    HW122876   1.880   1.646   8.745
 7145SOL    HW222877   2.024   1.583   8.788
 7146SOL     OW22878   2.229   1.100   7.949
 7146SOL    HW122879   2.222   1.183   7.893
 7146SOL    HW222880   2.233   1.020   7.889
 7147SOL     OW22881   2.428   0.537   8.313
 7147SOL    HW122882   2.440   0.603   8.239
 7147SOL    HW222883   2.474   0.571   8.396
 7148SOL     OW22884   3.114   1.348   7.836
 7148SOL    HW122885   3.164   1.425   7.876
 7148SOL    HW222886   3.019   1.350   7.868
 7149SOL     OW22887   3.134   1.445   8.590
 7149SOL    HW122888   3.181   1.458   8.677
 7149SOL    HW222889   3.068   1.371   8.599
 7150SOL     OW22890   3.444   0.639   7.920
 7150SOL    HW122891   3.413   0.700   7.993
 7150SOL    HW222892   3.494   0.691   7.851
 7151SOL     OW22893   2.216   1.510   8.777
 7151SOL    HW122894   2.195   1.466   8.690
 7151SOL    HW222895   2.313   1.536   8.780
 7152SOL     OW22896   2.264   0.751   9.046
 7152SOL    HW122897   2.332   0.806   8.999
 7152SOL    HW222898   2.304   0.663   9.073
 7153SOL     OW22899   3.449   0.779   9.118
 7153SOL    HW122900   3.357   0.817   9.113
 7153SOL    HW222901   3.509   0.826   9.053
 7154SOL     OW22902   2.875   0.105   9.218
 7154SOL    HW122903   2.881   0.190   9.166
 7154SOL    HW222904   2.907   0.029   9.161
 7155SOL     OW22905   2.366   0.050   9.188
 7155SOL    HW122906   2.324  -0.007   9.118
 7155SOL    HW222907   2.300   0.119   9.220
 7156SOL     OW22908   2.435   0.870   8.477
 7156SOL    HW122909   2.479   0.959   8.468
 7156SOL    HW222910   2.372   0.870   8.554
 7157SOL     OW22911   3.222   0.862   8.493
 7157SOL    HW122912   3.147   0.862   8.427
 7157SOL    HW222913   3.259   0.770   8.502
 7158SOL     OW22914   3.071   0.525   7.723
 7158SOL    HW122915   3.084   0.441   7.777
 7158SOL    HW222916   3.042   0.599   7.783
 7159SOL     OW22917   2.169   0.213   8.679
 7159SOL    HW122918   2.146   0.250   8.769
 7159SOL    HW222919   2.139   0.118   8.673
 7160SOL     OW22920   1.899   1.310   8.730
 7160SOL    HW122921   1.952   1.261   8.798
 7160SOL    HW222922   1.921   1.408   8.735
 7161SOL     OW22923   2.594   0.634   8.512
 7161SOL    HW122924   2.653   0.608   8.436
 7161SOL    HW222925   2.566   0.730   8.501
 7162SOL     OW22926   3.590   0.935   9.302
 7162SOL    HW122927   3.544   0.928   9.213
 7162SOL    HW222928   3.528   0.979   9.368
 7163SOL     OW22929   2.169   0.063   8.066
 7163SOL    HW122930   2.158   0.157   8.099
 7163SOL    HW222931   2.164   0.000   8.143
 7164SOL     OW22932   3.484   0.367   7.822
 7164SOL    HW122933   3.486   0.291   7.886
 7164SOL    HW222934   3.436   0.444   7.862
 7165SOL     OW22935   2.885   0.766   8.414
 7165SOL    HW122936   2.900   0.787   8.510
 7165SOL    HW222937   2.855   0.671   8.405
 7166SOL     OW22938   2.842   1.573   9.148
 7166SOL    HW122939   2.822   1.617   9.060
 7166SOL    HW222940   2.881   1.482   9.132
 7167SOL     OW22941   3.721   1.518   9.053
 7167SOL    HW122942   3.735   1.545   8.958
 7167SOL    HW222943   3.804   1.540   9.106
 7168SOL     OW22944   2.212   0.898   9.252
 7168SOL    HW122945   2.288   0.942   9.300
 7168SOL    HW222946   2.247   0.851   9.170
 7169SOL     OW22947   3.402   0.274   7.573
 7169SOL    HW122948   3.341   0.199   7.596
 7169SOL    HW222949   3.424   0.326   7.656
 7170SOL     OW22950   3.165   0.838   7.490
 7170SOL    HW122951   3.199   0.745   7.505
 7170SOL    HW222952   3.183   0.865   7.395
 7171SOL     OW22953   2.930   1.333   8.297
 7171SOL    HW122954   2.937   1.249   8.242
 7171SOL    HW222955   2.992   1.402   8.261
 7172SOL     OW22956   2.181   0.810   8.397
 7172SOL    HW122957   2.274   0.846   8.402
 7172SOL    HW222958   2.175   0.725   8.449
 7173SOL     OW22959   2.201   0.509   8.454
 7173SOL    HW122960   2.149   0.426   8.437
 7173SOL    HW222961   2.278   0.514   8.390
 7174SOL     OW22962   3.000   0.380   9.126
 7174SOL    HW122963   2.955   0.443   9.190
 7174SOL    HW222964   3.093   0.411   9.109
 7175SOL     OW22965   3.022   0.207   8.925
 7175SOL    HW122966   3.022   0.271   9.002
 7175SOL    HW222967   3.050   0.255   8.842
 7176SOL     OW22968   1.870   1.326   7.648
 7176SOL    HW122969   1.777   1.347   7.617
 7176SOL    HW222970   1.880   1.227   7.661
 7177SOL     OW22971   1.950   1.801   8.375
 7177SOL    HW122972   1.908   1.715   8.348
 7177SOL    HW222973   2.044   1.804   8.341
 7178SOL     OW22974   2.366   1.568   8.358
 7178SOL    HW122975   2.432   1.642   8.367
 7178SOL    HW222976   2.410   1.489   8.316
 7179SOL     OW22977   2.864   0.796   8.686
 7179SOL    HW122978   2.905   0.764   8.772
 7179SOL    HW222979   2.768   0.769   8.683
 7180SOL     OW22980   1.902   0.544   8.562
 7180SOL    HW122981   1.987   0.511   8.521
 7180SOL    HW222982   1.915   0.559   8.660
 7181SOL     OW22983   2.051   0.520   9.170
 7181SOL    HW122984   2.110   0.480   9.100
 7181SOL    HW222985   1.993   0.591   9.129
 7182SOL     OW22986   3.231   0.950   9.108
 7182SOL    HW122987   3.270   1.039   9.128
 7182SOL    HW222988   3.241   0.930   9.011
 7183SOL     OW22989   2.677   0.572   7.773
 7183SOL    HW122990   2.684   0.483   7.727
 7183SOL    HW222991   2.583   0.606   7.765
 7184SOL     OW22992   3.519   0.604   8.654
 7184SOL    HW122993   3.481   0.535   8.716
 7184SOL    HW222994   3.601   0.568   8.610
 7185SOL     OW22995   2.114   1.564   9.192
 7185SOL    HW122996   2.084   1.621   9.268
 7185SOL    HW222997   2.107   1.467   9.218
 7186SOL     OW22998   2.533   0.464   8.717
 7186SOL    HW122999   2.499   0.375   8.687
 7186SOL    HW223000   2.559   0.518   8.637
 7187SOL     OW23001   2.792   1.678   8.913
 7187SOL    HW123002   2.768   1.660   8.818
 7187SOL    HW223003   2.822   1.772   8.923
 7188SOL     OW23004   2.335   0.500   7.639
 7188SOL    HW123005   2.396   0.580   7.643
 7188SOL    HW223006   2.240   0.531   7.646
 7189SOL     OW23007   2.021   1.137   8.914
 7189SOL    HW123008   2.043   1.076   8.990
 7189SOL    HW223009   2.031   1.088   8.828
 7190SOL     OW23010   3.209   1.059   8.682
 7190SOL    HW123011   3.233   0.996   8.608
 7190SOL    HW223012   3.119   1.099   8.664
 7191SOL     OW23013   3.164   0.855   7.757
 7191SOL    HW123014   3.078   0.824   7.799
 7191SOL    HW223015   3.160   0.841   7.658
 7192SOL     OW23016   3.621   1.747   8.602
 7192SOL    HW123017   3.682   1.777   8.529
 7192SOL    HW223018   3.583   1.658   8.580
 7193SOL     OW23019   3.114   1.731   8.576
 7193SOL    HW123020   3.198   1.736   8.522
 7193SOL    HW223021   3.091   1.635   8.594
 7194SOL     OW23022   1.945   1.258   8.470
 7194SOL    HW123023   1.940   1.257   8.570
 7194SOL    HW223024   1.862   1.217   8.432
 7195SOL     OW23025   2.550   1.662   9.164
 7195SOL    HW123026   2.494   1.743   9.173
 7195SOL    HW223027   2.602   1.666   9.078
 7196SOL     OW23028   3.588   0.135   7.971
 7196SOL    HW123029   3.661   0.118   7.904
 7196SOL    HW223030   3.557   0.048   8.009
 7197SOL     OW23031   3.250   1.573   7.925
 7197SOL    HW123032   3.317   1.585   7.851
 7197SOL    HW223033   3.210   1.662   7.948
 7198SOL     OW23034   1.992   1.794   9.299
 7198SOL    HW123035   1.951   1.720   9.352
 7198SOL    HW223036   2.056   1.845   9.357
 7199SOL     OW23037   3.142   0.927   8.120
 7199SOL    HW123038   3.202   0.846   8.122
 7199SOL    HW223039   3.182   0.996   8.060
 7200SOL     OW23040   2.692   1.273   8.870
 7200SOL    HW123041   2.687   1.306   8.965
 7200SOL    HW223042   2.606   1.292   8.824
 7201SOL     OW23043   2.534   1.616   7.602
 7201SOL    HW123044   2.543   1.626   7.503
 7201SOL    HW223045   2.494   1.527   7.623
 7202SOL     OW23046   3.512   1.720   8.842
 7202SOL    HW123047   3.565   1.730   8.758
 7202SOL    HW223048   3.485   1.810   8.876
 7203SOL     OW23049   3.703   0.175   8.411
 7203SOL    HW123050   3.742   0.090   8.375
 7203SOL    HW223051   3.605   0.177   8.392
 7204SOL     OW23052   2.125   0.326   8.168
 7204SOL    HW123053   2.046   0.377   8.134
 7204SOL    HW223054   2.116   0.311   8.266
 7205SOL     OW23055   3.056   1.612   7.479
 7205SOL    HW123056   3.062   1.519   7.516
 7205SOL    HW223057   2.997   1.612   7.399
 7206SOL     OW23058   2.684   1.002   8.820
 7206SOL    HW123059   2.724   1.001   8.728
 7206SOL    HW223060   2.694   1.094   8.860
 7207SOL     OW23061   2.778   0.910   7.739
 7207SOL    HW123062   2.841   0.948   7.671
 7207SOL    HW223063   2.818   0.827   7.778
 7208SOL     OW23064   3.366   1.607   7.492
 7208SOL    HW123065   3.274   1.644   7.499
 7208SOL    HW223066   3.404   1.627   7.402
 7209SOL     OW23067   2.234   1.288   8.938
 7209SOL    HW123068   2.221   1.381   8.904
 7209SOL    HW223069   2.150   1.236   8.925
 7210SOL     OW23070   3.476   1.292   8.737
 7210SOL    HW123071   3.536   1.295   8.817
 7210SOL    HW223072   3.401   1.356   8.750
 7211SOL     OW23073   2.901   1.098   8.144
 7211SOL    HW123074   2.831   1.051   8.198
 7211SOL    HW223075   2.960   1.030   8.101
 7212SOL     OW23076   2.876   0.236   8.419
 7212SOL    HW123077   2.868   0.200   8.326
 7212SOL    HW223078   2.874   0.160   8.484
 7213SOL     OW23079   2.452   1.487   7.939
 7213SOL    HW123080   2.494   1.429   7.869
 7213SOL    HW223081   2.408   1.566   7.895
 7214SOL     OW23082   3.571   0.385   8.829
 7214SOL    HW123083   3.644   0.454   8.833
 7214SOL    HW223084   3.599   0.310   8.770
 7215SOL     OW23085   2.117   1.348   7.738
 7215SOL    HW123086   2.021   1.349   7.711
 7215SOL    HW223087   2.129   1.401   7.822
 7216SOL     OW23088   1.967   1.013   9.174
 7216SOL    HW123089   1.890   0.980   9.228
 7216SOL    HW223090   2.052   0.983   9.216
 7217SOL     OW23091   2.534   0.203   8.937
 7217SOL    HW123092   2.624   0.187   8.897
 7217SOL    HW223093   2.542   0.208   9.036
 7218SOL     OW23094   1.937   0.345   7.481
 7218SOL    HW123095   1.845   0.317   7.452
 7218SOL    HW223096   1.968   0.422   7.425
 7219SOL     OW23097   3.302   0.856   8.846
 7219SOL    HW123098   3.245   0.908   8.783
 7219SOL    HW223099   3.398   0.868   8.822
 7220SOL     OW23100   1.934   0.166   7.766
 7220SOL    HW123101   1.917   0.249   7.712
 7220SOL    HW223102   2.024   0.129   7.744
 7221SOL     OW23103   3.045   1.335   7.567
 7221SOL    HW123104   2.946   1.324   7.569
 7221SOL    HW223105   3.079   1.350   7.660
 7222SOL     OW23106   2.475   0.842   8.879
 7222SOL    HW123107   2.531   0.923   8.862
 7222SOL    HW223108   2.534   0.762   8.882
 7223SOL     OW23109   3.355   1.767   8.407
 7223SOL    HW123110   3.388   1.831   8.338
 7223SOL    HW223111   3.421   1.761   8.482
 7224SOL     OW23112   2.578   0.565   9.156
 7224SOL    HW123113   2.597   0.630   9.230
 7224SOL    HW223114   2.638   0.485   9.165
 7225SOL     OW23115   3.312   1.220   9.081
 7225SOL    HW123116   3.303   1.210   9.180
 7225SOL    HW223117   3.408   1.213   9.055
 7226SOL     OW23118   2.252   1.741   9.008
 7226SOL    HW123119   2.161   1.782   9.006
 7226SOL    HW223120   2.245   1.647   9.040
 7227SOL     OW23121   3.536   0.883   8.702
 7227SOL    HW123122   3.509   0.794   8.665
 7227SOL    HW223123   3.537   0.951   8.629
 7228SOL     OW23124   3.087   0.325   7.897
 7228SOL    HW123125   3.152   0.251   7.886
 7228SOL    HW223126   3.107   0.375   7.981
 7229SOL     OW23127   2.456   0.745   8.100
 7229SOL    HW123128   2.506   0.830   8.081
 7229SOL    HW223129   2.368   0.747   8.052
 7230SOL     OW23130   3.639   0.342   9.090
 7230SOL    HW123131   3.622   0.373   8.996
 7230SOL    HW223132   3.555   0.305   9.128
 7231SOL     OW23133   3.592   0.934   8.965
 7231SOL    HW123134   3.630   1.025   8.980
 7231SOL    HW223135   3.584   0.917   8.866
 7232SOL     OW23136   2.721   1.374   7.464
 7232SOL    HW123137   2.675   1.389   7.552
 7232SOL    HW223138   2.765   1.459   7.434
 7233SOL     OW23139   2.523   1.790   8.401
 7233SOL    HW123140   2.477   1.878   8.388
 7233SOL    HW223141   2.622   1.802   8.394
 7234SOL     OW23142   2.721   0.956   8.309
 7234SOL    HW123143   2.775   0.887   8.357
 7234SOL    HW223144   2.689   1.025   8.375
 7235SOL     OW23145   2.945   0.984   7.535
 7235SOL    HW123146   2.922   1.037   7.453
 7235SOL    HW223147   3.026   0.928   7.516
 7236SOL     OW23148   3.723   1.569   8.299
 7236SOL    HW123149   3.652   1.557   8.229
 7236SOL    HW223150   3.724   1.490   8.359
 7237SOL     OW23151   2.083   1.314   9.292
 7237SOL    HW123152   2.018   1.241   9.271
 7237SOL    HW223153   2.087   1.328   9.390
 7238SOL     OW23154   1.941   1.240   8.101
 7238SOL    HW123155   1.940   1.193   8.189
 7238SOL    HW223156   2.023   1.212   8.050
 7239SOL     OW23157   2.534   1.391   9.072
 7239SOL    HW123158   2.456   1.341   9.110
 7239SOL    HW223159   2.531   1.486   9.103
 7240SOL     OW23160   3.686   0.192   8.675
 7240SOL    HW123161   3.682   0.102   8.719
 7240SOL    HW223162   3.689   0.181   8.576
 7241SOL     OW23163   2.290   0.424   7.968
 7241SOL    HW123164   2.320   0.352   7.906
 7241SOL    HW223165   2.251   0.384   8.051
 7242SOL     OW23166   3.567   1.487   8.552
 7242SOL    HW123167   3.474   1.462   8.525
 7242SOL    HW223168   3.593   1.437   8.634
 7243SOL     OW23169   2.179   0.547   8.728
 7243SOL    HW123170   2.217   0.488   8.800
 7243SOL    HW223171   2.219   0.521   8.640
 7244SOL     OW23172   2.674   1.586   8.135
 7244SOL    HW123173   2.706   1.596   8.041
 7244SOL    HW223174   2.595   1.524   8.137
 7245SOL     OW23175   3.286   0.214   8.560
 7245SOL    HW123176   3.338   0.149   8.615
 7245SOL    HW223177   3.237   0.277   8.621
 7246SOL     OW23178   2.863   0.034   8.602
 7246SOL    HW123179   2.800  -0.038   8.571
 7246SOL    HW223180   2.956  -0.002   8.602
 7247SOL     OW23181   2.632   1.330   7.749
 7247SOL    HW123182   2.586   1.243   7.766
 7247SOL    HW223183   2.723   1.327   7.790
 7248SOL     OW23184   2.480   1.567   8.732
 7248SOL    HW123185   2.475   1.649   8.789
 7248SOL    HW223186   2.569   1.564   8.687
 7249SOL     OW23187   3.214   0.052   7.616
 7249SOL    HW123188   3.249   0.011   7.532
 7249SOL    HW223189   3.124   0.014   7.636
 7250SOL     OW23190   3.162   0.453   8.139
 7250SOL    HW123191   3.103   0.533   8.143
 7250SOL    HW223192   3.177   0.418   8.232
 7251SOL     OW23193   3.455   0.221   8.330
 7251SOL    HW123194   3.371   0.220   8.384
 7251SOL    HW223195   3.457   0.304   8.274
 7252SOL     OW23196   1.901   1.077   7.748
 7252SOL    HW123197   2.000   1.066   7.739
 7252SOL    HW223198   1.861   0.991   7.780
 7253SOL     OW23199   2.737   1.646   7.785
 7253SOL    HW123200   2.660   1.611   7.731
 7253SOL    HW223201   2.705   1.717   7.847
 7254SOL     OW23202   2.092   0.628   9.423
 7254SOL    HW123203   1.999   0.626   9.460
 7254SOL    HW223204   2.093   0.589   9.331
 7255SOL     OW23205   2.087   0.275  10.306
 7255SOL    HW123206   2.122   0.258  10.398
 7255SOL    HW223207   1.999   0.230  10.294
 7256SOL     OW23208   1.881   0.368   9.957
 7256SOL    HW123209   1.799   0.411   9.996
 7256SOL    HW223210   1.853   0.295   9.894
 7257SOL     OW23211   2.431   1.275  10.475
 7257SOL    HW123212   2.338   1.268  10.438
 7257SOL    HW223213   2.442   1.364  10.519
 7258SOL     OW23214   3.417   1.511  10.013
 7258SOL    HW123215   3.360   1.495  10.094
 7258SOL    HW223216   3.358   1.521   9.933
 7259SOL     OW23217   2.997   0.703  10.027
 7259SOL    HW123218   3.054   0.781  10.002
 7259SOL    HW223219   2.937   0.729  10.103
 7260SOL     OW23220   3.617   0.607   9.541
 7260SOL    HW123221   3.605   0.594   9.442
 7260SOL    HW223222   3.587   0.526   9.590
 7261SOL     OW23223   2.630   1.144  10.333
 7261SOL    HW123224   2.552   1.161  10.393
 7261SOL    HW223225   2.664   1.231  10.297
 7262SOL     OW23226   2.712   0.798  11.133
 7262SOL    HW123227   2.708   0.874  11.198
 7262SOL    HW223228   2.734   0.834  11.042
 7263SOL     OW23229   2.547   1.012   9.975
 7263SOL    HW123230   2.616   0.996  10.045
 7263SOL    HW223231   2.474   1.069  10.013
 7264SOL     OW23232   2.548   1.161  11.113
 7264SOL    HW123233   2.608   1.240  11.127
 7264SOL    HW223234   2.462   1.192  11.072
 7265SOL     OW23235   2.197   1.435  10.371
 7265SOL    HW123236   2.119   1.404  10.318
 7265SOL    HW223237   2.255   1.493  10.314
 7266SOL     OW23238   3.322   1.505  10.649
 7266SOL    HW123239   3.346   1.599  10.675
 7266SOL    HW223240   3.306   1.451  10.731
 7267SOL     OW23241   2.300   0.392  10.809
 7267SOL    HW123242   2.382   0.336  10.818
 7267SOL    HW223243   2.219   0.334  10.813
 7268SOL     OW23244   3.465   0.447  10.047
 7268SOL    HW123245   3.391   0.493   9.997
 7268SOL    HW223246   3.516   0.515  10.100
 7269SOL     OW23247   2.093   1.713   9.793
 7269SOL    HW123248   2.127   1.790   9.847
 7269SOL    HW223249   2.137   1.713   9.703
 7270SOL     OW23250   2.989   1.341  11.000
 7270SOL    HW123251   3.036   1.341  11.088
 7270SOL    HW223252   2.941   1.254  10.989
 7271SOL     OW23253   2.092   1.434   9.848
 7271SOL    HW123254   2.066   1.530   9.848
 7271SOL    HW223255   2.021   1.380   9.893
 7272SOL     OW23256   2.102   1.091  10.196
 7272SOL    HW123257   2.116   1.007  10.248
 7272SOL    HW223258   2.047   1.155  10.251
 7273SOL     OW23259   2.482   1.786  10.749
 7273SOL    HW123260   2.390   1.769  10.784
 7273SOL    HW223261   2.510   1.878  10.775
 7274SOL     OW23262   2.468   0.964   9.433
 7274SOL    HW123263   2.475   1.048   9.379
 7274SOL    HW223264   2.514   0.977   9.521
 7275SOL     OW23265   3.456   0.114  10.790
 7275SOL    HW123266   3.438   0.181  10.718
 7275SOL    HW223267   3.453   0.160  10.879
 7276SOL     OW23268   1.984   0.643   9.873
 7276SOL    HW123269   1.939   0.555   9.890
 7276SOL    HW223270   1.983   0.697   9.957
 7277SOL     OW23271   3.704   1.767   9.669
 7277SOL    HW123272   3.758   1.738   9.749
 7277SOL    HW223273   3.734   1.857   9.640
 7278SOL     OW23274   1.889   1.596   9.427
 7278SOL    HW123275   1.870   1.500   9.448
 7278SOL    HW223276   1.856   1.654   9.502
 7279SOL     OW23277   3.551   0.922   9.922
 7279SOL    HW123278   3.646   0.893   9.930
 7279SOL    HW223279   3.543   0.987   9.847
 7280SOL     OW23280   3.503   1.108   9.742
 7280SOL    HW123281   3.589   1.110   9.690
 7280SOL    HW223282   3.517   1.155   9.830
 7281SOL     OW23283   1.975   0.737  10.907
 7281SOL    HW123284   2.063   0.724  10.952
 7281SOL    HW223285   1.962   0.834  10.885
 7282SOL     OW23286   2.475   1.365  10.036
 7282SOL    HW123287   2.426   1.278  10.045
 7282SOL    HW223288   2.452   1.408   9.949
 7283SOL     OW23289   3.155   1.228  10.733
 7283SOL    HW123290   3.192   1.155  10.675
 7283SOL    HW223291   3.207   1.233  10.818
 7284SOL     OW23292   2.671   0.004   9.812
 7284SOL    HW123293   2.711   0.095   9.803
 7284SOL    HW223294   2.571   0.012   9.818
 7285SOL     OW23295   2.059   0.976  10.574
 7285SOL    HW123296   2.148   0.931  10.560
 7285SOL    HW223297   1.986   0.911  10.555
 7286SOL     OW23298   3.387   0.999   9.500
 7286SOL    HW123299   3.324   0.923   9.513
 7286SOL    HW223300   3.435   1.017   9.586
 7287SOL     OW23301   3.049   1.792  10.926
 7287SOL    HW123302   3.073   1.852  10.850
 7287SOL    HW223303   3.056   1.697  10.896
 7288SOL     OW23304   2.179   0.251  11.111
 7288SOL    HW123305   2.250   0.322  11.117
 7288SOL    HW223306   2.091   0.290  11.139
 7289SOL     OW23307   3.328   1.417  10.263
 7289SOL    HW123308   3.269   1.423  10.343
 7289SOL    HW223309   3.313   1.329  10.217
 7290SOL     OW23310   3.529   1.714   9.882
 7290SOL    HW123311   3.488   1.691   9.794
 7290SOL    HW223312   3.511   1.640   9.947
 7291SOL     OW23313   2.460   0.729   9.580
 7291SOL    HW123314   2.484   0.798   9.512
 7291SOL    HW223315   2.382   0.762   9.634
 7292SOL     OW23316   3.143   0.345  10.254
 7292SOL    HW123317   3.057   0.295  10.241
 7292SOL    HW223318   3.205   0.291  10.310
 7293SOL     OW23319   3.438   1.662   9.617
 7293SOL    HW123320   3.527   1.708   9.620
 7293SOL    HW223321   3.417   1.638   9.522
 7294SOL     OW23322   2.669   0.605  10.775
 7294SOL    HW123323   2.622   0.602  10.864
 7294SOL    HW223324   2.618   0.550  10.709
 7295SOL     OW23325   3.256   0.469  10.984
 7295SOL    HW123326   3.236   0.512  11.072
 7295SOL    HW223327   3.334   0.407  10.993
 7296SOL     OW23328   2.835   0.890  10.882
 7296SOL    HW123329   2.881   0.806  10.853
 7296SOL    HW223330   2.779   0.924  10.807
 7297SOL     OW23331   2.853   0.410  10.552
 7297SOL    HW123332   2.776   0.444  10.606
 7297SOL    HW223333   2.819   0.359  10.473
 7298SOL     OW23334   2.903   0.701   9.739
 7298SOL    HW123335   2.929   0.697   9.835
 7298SOL    HW223336   2.818   0.650   9.725
 7299SOL     OW23337   1.938   0.811  10.099
 7299SOL    HW123338   2.037   0.799  10.108
 7299SOL    HW223339   1.914   0.906  10.120
 7300SOL     OW23340   1.992   1.821  10.881
 7300SOL    HW123341   1.982   1.806  10.980
 7300SOL    HW223342   1.906   1.857  10.845
 7301SOL     OW23343   2.727   0.348   9.505
 7301SOL    HW123344   2.786   0.411   9.456
 7301SOL    HW223345   2.746   0.254   9.476
 7302SOL     OW23346   3.581   0.585  11.141
 7302SOL    HW123347   3.555   0.674  11.105
 7302SOL    HW223348   3.579   0.517  11.068
 7303SOL     OW23349   3.224   1.144   9.855
 7303SOL    HW123350   3.307   1.115   9.807
 7303SOL    HW223351   3.175   1.211   9.799
 7304SOL     OW23352   2.412   0.196  10.195
 7304SOL    HW123353   2.407   0.191  10.295
 7304SOL    HW223354   2.414   0.292  10.166
 7305SOL     OW23355   2.870   1.456   9.787
 7305SOL    HW123356   2.824   1.528   9.735
 7305SOL    HW223357   2.866   1.476   9.885
 7306SOL     OW23358   2.213   1.801  10.163
 7306SOL    HW123359   2.263   1.715  10.169
 7306SOL    HW223360   2.278   1.878  10.160
 7307SOL     OW23361   3.657   1.066  10.183
 7307SOL    HW123362   3.595   1.051  10.107
 7307SOL    HW223363   3.605   1.077  10.268
 7308SOL     OW23364   3.089   1.550  10.816
 7308SOL    HW123365   3.095   1.473  10.880
 7308SOL    HW223366   3.037   1.524  10.736
 7309SOL     OW23367   2.183   0.943   9.552
 7309SOL    HW123368   2.265   0.982   9.510
 7309SOL    HW223369   2.156   0.861   9.503
 7310SOL     OW23370   3.320   0.735  10.038
 7310SOL    HW123371   3.315   0.670  10.113
 7310SOL    HW223372   3.400   0.794  10.051
 7311SOL     OW23373   2.323   1.266  11.037
 7311SOL    HW123374   2.273   1.267  10.951
 7311SOL    HW223375   2.260   1.248  11.113
 7312SOL     OW23376   2.973   1.776   9.547
 7312SOL    HW123377   2.913   1.714   9.597
 7312SOL    HW223378   3.004   1.732   9.462
 7313SOL     OW23379   2.064   0.285  10.808
 7313SOL    HW123380   1.984   0.345  10.795
 7313SOL    HW223381   2.054   0.236  10.894
 7314SOL     OW23382   3.494   1.377   9.391
 7314SOL    HW123383   3.462   1.471   9.381
 7314SOL    HW223384   3.418   1.314   9.379
 7315SOL     OW23385   2.326   1.743   9.633
 7315SOL    HW123386   2.359   1.782   9.719
 7315SOL    HW223387   2.402   1.736   9.568
 7316SOL     OW23388   3.262   0.107   9.736
 7316SOL    HW123389   3.238   0.070   9.646
 7316SOL    HW223390   3.361   0.123   9.740
 7317SOL     OW23391   2.111   1.785  10.551
 7317SOL    HW123392   2.168   1.720  10.601
 7317SOL    HW223393   2.095   1.752  10.458
 7318SOL     OW23394   2.802   1.698  10.214
 7318SOL    HW123395   2.882   1.641  10.235
 7318SOL    HW223396   2.753   1.658  10.137
 7319SOL     OW23397   2.244   0.700   9.790
 7319SOL    HW123398   2.289   0.610   9.787
 7319SOL    HW223399   2.150   0.689   9.823
 7320SOL     OW23400   3.409   0.222  11.039
 7320SOL    HW123401   3.404   0.259  11.131
 7320SOL    HW223402   3.337   0.153  11.027
 7321SOL     OW23403   2.476   0.122   9.427
 7321SOL    HW123404   2.574   0.100   9.434
 7321SOL    HW223405   2.445   0.105   9.334
 7322SOL     OW23406   2.643   0.264  11.059
 7322SOL    HW123407   2.710   0.203  11.102
 7322SOL    HW223408   2.570   0.283  11.124
 7323SOL     OW23409   2.750   1.514  10.505
 7323SOL    HW123410   2.727   1.489  10.411
 7323SOL    HW223411   2.811   1.445  10.544
 7324SOL     OW23412   3.213   0.590  10.743
 7324SOL    HW123413   3.241   0.547  10.828
 7324SOL    HW223414   3.238   0.686  10.744
 7325SOL     OW23415   2.665   1.402  10.234
 7325SOL    HW123416   2.755   1.416  10.192
 7325SOL    HW223417   2.594   1.404  10.163
 7326SOL     OW23418   2.784   0.503  10.209
 7326SOL    HW123419   2.759   0.494  10.113
 7326SOL    HW223420   2.832   0.421  10.240
 7327SOL     OW23421   2.401   0.064   9.822
 7327SOL    HW123422   2.320   0.065   9.880
 7327SOL    HW223423   2.404   0.147   9.767
 7328SOL     OW23424   3.296   1.188   9.351
 7328SOL    HW123425   3.328   1.112   9.408
 7328SOL    HW223426   3.204   1.215   9.381
 7329SOL     OW23427   2.159   0.035   9.481
 7329SOL    HW123428   2.208   0.119   9.460
 7329SOL    HW223429   2.221  -0.030   9.526
 7330SOL     OW23430   2.797   0.236   9.790
 7330SOL    HW123431   2.749   0.277   9.712
 7330SOL    HW223432   2.896   0.234   9.771
 7331SOL     OW23433   2.938   0.683  10.774
 7331SOL    HW123434   2.858   0.622  10.777
 7331SOL    HW223435   3.019   0.630  10.750
 7332SOL     OW23436   3.089   1.570  10.103
 7332SOL    HW123437   3.110   1.644  10.038
 7332SOL    HW223438   3.157   1.570  10.176
 7333SOL     OW23439   2.321   1.152  10.051
 7333SOL    HW123440   2.250   1.125  10.116
 7333SOL    HW223441   2.295   1.124   9.958
 7334SOL     OW23442   3.133   1.797   9.901
 7334SOL    HW123443   3.177   1.861   9.837
 7334SOL    HW223444   3.083   1.849   9.971
 7335SOL     OW23445   2.894   0.549   9.326
 7335SOL    HW123446   2.853   0.631   9.287
 7335SOL    HW223447   2.958   0.575   9.399
 7336SOL     OW23448   1.940   0.556  10.696
 7336SOL    HW123449   2.032   0.555  10.655
 7336SOL    HW223450   1.934   0.630  10.763
 7337SOL     OW23451   2.423   0.222  10.457
 7337SOL    HW123452   2.461   0.138  10.494
 7337SOL    HW223453   2.335   0.241  10.501
 7338SOL     OW23454   2.728   0.454   9.952
 7338SOL    HW123455   2.696   0.526   9.890
 7338SOL    HW223456   2.752   0.373   9.899
 7339SOL     OW23457   2.879   0.039  10.063
 7339SOL    HW123458   2.807   0.044   9.994
 7339SOL    HW223459   2.855  -0.030  10.132
 7340SOL     OW23460   3.291   1.173  10.177
 7340SOL    HW123461   3.236   1.089  10.170
 7340SOL    HW223462   3.317   1.202  10.085
 7341SOL     OW23463   3.328   0.590  10.302
 7341SOL    HW123464   3.298   0.495  10.309
 7341SOL    HW223465   3.401   0.606  10.368
 7342SOL     OW23466   3.719   0.833   9.687
 7342SOL    HW123467   3.761   0.769   9.751
 7342SOL    HW223468   3.681   0.782   9.609
 7343SOL     OW23469   2.350   1.385   9.484
 7343SOL    HW123470   2.263   1.370   9.531
 7343SOL    HW223471   2.333   1.411   9.389
 7344SOL     OW23472   3.526   1.280   9.967
 7344SOL    HW123473   3.625   1.288   9.981
 7344SOL    HW223474   3.481   1.364   9.998
 7345SOL     OW23475   3.252   0.575   9.388
 7345SOL    HW123476   3.198   0.554   9.469
 7345SOL    HW223477   3.343   0.534   9.397
 7346SOL     OW23478   2.389   0.256   9.638
 7346SOL    HW123479   2.416   0.197   9.563
 7346SOL    HW223480   2.389   0.351   9.607
 7347SOL     OW23481   3.616   1.223  10.898
 7347SOL    HW123482   3.707   1.184  10.885
 7347SOL    HW223483   3.624   1.319  10.922
 7348SOL     OW23484   2.926   1.347  10.650
 7348SOL    HW123485   2.846   1.324  10.705
 7348SOL    HW223486   3.009   1.321  10.699
 7349SOL     OW23487   3.454   1.629  10.935
 7349SOL    HW123488   3.481   1.663  10.845
 7349SOL    HW223489   3.533   1.591  10.981
 7350SOL     OW23490   2.973   1.195  10.410
 7350SOL    HW123491   2.933   1.239  10.491
 7350SOL    HW223492   2.932   1.232  10.327
 7351SOL     OW23493   3.500   1.099  10.389
 7351SOL    HW123494   3.505   1.180  10.448
 7351SOL    HW223495   3.414   1.101  10.338
 7352SOL     OW23496   2.777   0.089  10.712
 7352SOL    HW123497   2.802   0.069  10.617
 7352SOL    HW223498   2.849   0.145  10.754
 7353SOL     OW23499   2.842   1.116  11.029
 7353SOL    HW123500   2.743   1.122  11.039
 7353SOL    HW223501   2.865   1.036  10.973
 7354SOL     OW23502   2.567   1.050   9.678
 7354SOL    HW123503   2.553   1.057   9.777
 7354SOL    HW223504   2.651   0.999   9.660
 7355SOL     OW23505   2.272   0.813  10.561
 7355SOL    HW123506   2.358   0.825  10.611
 7355SOL    HW223507   2.230   0.726  10.588
 7356SOL     OW23508   3.136   0.386  10.572
 7356SOL    HW123509   3.157   0.460  10.636
 7356SOL    HW223510   3.047   0.403  10.529
 7357SOL     OW23511   1.926   1.564  10.641
 7357SOL    HW123512   1.880   1.646  10.607
 7357SOL    HW223513   2.024   1.583  10.650
 7358SOL     OW23514   2.229   1.100   9.811
 7358SOL    HW123515   2.222   1.183   9.755
 7358SOL    HW223516   2.233   1.020   9.751
 7359SOL     OW23517   2.428   0.537  10.175
 7359SOL    HW123518   2.440   0.603  10.101
 7359SOL    HW223519   2.474   0.571  10.258
 7360SOL     OW23520   3.114   1.348   9.698
 7360SOL    HW123521   3.164   1.425   9.738
 7360SOL    HW223522   3.019   1.350   9.730
 7361SOL     OW23523   3.134   1.445  10.452
 7361SOL    HW123524   3.181   1.458  10.539
 7361SOL    HW223525   3.068   1.371  10.461
 7362SOL     OW23526   3.444   0.639   9.782
 7362SOL    HW123527   3.413   0.700   9.855
 7362SOL    HW223528   3.494   0.691   9.713
 7363SOL     OW23529   2.216   1.510  10.639
 7363SOL    HW123530   2.195   1.466  10.552
 7363SOL    HW223531   2.313   1.536  10.642
 7364SOL     OW23532   2.264   0.751  10.908
 7364SOL    HW123533   2.332   0.806  10.861
 7364SOL    HW223534   2.304   0.663  10.935
 7365SOL     OW23535   3.449   0.779  10.980
 7365SOL    HW123536   3.357   0.817  10.975
 7365SOL    HW223537   3.509   0.826  10.915
 7366SOL     OW23538   2.875   0.105  11.080
 7366SOL    HW123539   2.881   0.190  11.028
 7366SOL    HW223540   2.907   0.029  11.023
 7367SOL     OW23541   2.366   0.050  11.050
 7367SOL    HW123542   2.324  -0.007  10.980
 7367SOL    HW223543   2.300   0.119  11.082
 7368SOL     OW23544   2.435   0.870  10.339
 7368SOL    HW123545   2.479   0.959  10.330
 7368SOL    HW223546   2.372   0.870  10.416
 7369SOL     OW23547   3.222   0.862  10.355
 7369SOL    HW123548   3.147   0.862  10.289
 7369SOL    HW223549   3.259   0.770  10.364
 7370SOL     OW23550   3.071   0.525   9.585
 7370SOL    HW123551   3.084   0.441   9.639
 7370SOL    HW223552   3.042   0.599   9.645
 7371SOL     OW23553   2.169   0.213  10.541
 7371SOL    HW123554   2.146   0.250  10.631
 7371SOL    HW223555   2.139   0.118  10.535
 7372SOL     OW23556   1.899   1.310  10.592
 7372SOL    HW123557   1.952   1.261  10.660
 7372SOL    HW223558   1.921   1.408  10.597
 7373SOL     OW23559   2.594   0.634  10.374
 7373SOL    HW123560   2.653   0.608  10.298
 7373SOL    HW223561   2.566   0.730  10.363
 7374SOL     OW23562   3.590   0.935  11.164
 7374SOL    HW123563   3.544   0.928  11.075
 7374SOL    HW223564   3.528   0.979  11.230
 7375SOL     OW23565   2.169   0.063   9.928
 7375SOL    HW123566   2.158   0.157   9.961
 7375SOL    HW223567   2.164   0.000  10.005
 7376SOL     OW23568   3.484   0.367   9.684
 7376SOL    HW123569   3.486   0.291   9.748
 7376SOL    HW223570   3.436   0.444   9.724
 7377SOL     OW23571   2.885   0.766  10.276
 7377SOL    HW123572   2.900   0.787  10.372
 7377SOL    HW223573   2.855   0.671  10.267
 7378SOL     OW23574   2.842   1.573  11.010
 7378SOL    HW123575   2.822   1.617  10.922
 7378SOL    HW223576   2.881   1.482  10.994
 7379SOL     OW23577   3.721   1.518  10.915
 7379SOL    HW123578   3.735   1.545  10.820
 7379SOL    HW223579   3.804   1.540  10.968
 7380SOL     OW23580   2.212   0.898  11.114
 7380SOL    HW123581   2.288   0.942  11.162
 7380SOL    HW223582   2.247   0.851  11.032
 7381SOL     OW23583   3.402   0.274   9.435
 7381SOL    HW123584   3.341   0.199   9.458
 7381SOL    HW223585   3.424   0.326   9.518
 7382SOL     OW23586   3.165   0.838   9.352
 7382SOL    HW123587   3.199   0.745   9.367
 7382SOL    HW223588   3.183   0.865   9.257
 7383SOL     OW23589   2.930   1.333  10.159
 7383SOL    HW123590   2.937   1.249  10.104
 7383SOL    HW223591   2.992   1.402  10.123
 7384SOL     OW23592   2.181   0.810  10.259
 7384SOL    HW123593   2.274   0.846  10.264
 7384SOL    HW223594   2.175   0.725  10.311
 7385SOL     OW23595   2.201   0.509  10.316
 7385SOL    HW123596   2.149   0.426  10.299
 7385SOL    HW223597   2.278   0.514  10.252
 7386SOL     OW23598   3.000   0.380  10.988
 7386SOL    HW123599   2.955   0.443  11.052
 7386SOL    HW223600   3.093   0.411  10.971
 7387SOL     OW23601   3.022   0.207  10.787
 7387SOL    HW123602   3.022   0.271  10.864
 7387SOL    HW223603   3.050   0.255  10.704
 7388SOL     OW23604   1.870   1.326   9.510
 7388SOL    HW123605   1.777   1.347   9.479
 7388SOL    HW223606   1.880   1.227   9.523
 7389SOL     OW23607   1.950   1.801  10.237
 7389SOL    HW123608   1.908   1.715  10.210
 7389SOL    HW223609   2.044   1.804  10.203
 7390SOL     OW23610   2.366   1.568  10.220
 7390SOL    HW123611   2.432   1.642  10.229
 7390SOL    HW223612   2.410   1.489  10.178
 7391SOL     OW23613   2.864   0.796  10.548
 7391SOL    HW123614   2.905   0.764  10.634
 7391SOL    HW223615   2.768   0.769  10.545
 7392SOL     OW23616   1.902   0.544  10.424
 7392SOL    HW123617   1.987   0.511  10.383
 7392SOL    HW223618   1.915   0.559  10.522
 7393SOL     OW23619   2.051   0.520  11.032
 7393SOL    HW123620   2.110   0.480  10.962
 7393SOL    HW223621   1.993   0.591  10.991
 7394SOL     OW23622   3.231   0.950  10.970
 7394SOL    HW123623   3.270   1.039  10.990
 7394SOL    HW223624   3.241   0.930  10.873
 7395SOL     OW23625   2.677   0.572   9.635
 7395SOL    HW123626   2.684   0.483   9.589
 7395SOL    HW223627   2.583   0.606   9.627
 7396SOL     OW23628   3.519   0.604  10.516
 7396SOL    HW123629   3.481   0.535  10.578
 7396SOL    HW223630   3.601   0.568  10.472
 7397SOL     OW23631   2.114   1.564  11.054
 7397SOL    HW123632   2.084   1.621  11.130
 7397SOL    HW223633   2.107   1.467  11.080
 7398SOL     OW23634   2.533   0.464  10.579
 7398SOL    HW123635   2.499   0.375  10.549
 7398SOL    HW223636   2.559   0.518  10.499
 7399SOL     OW23637   2.792   1.678  10.775
 7399SOL    HW123638   2.768   1.660  10.680
 7399SOL    HW223639   2.822   1.772  10.785
 7400SOL     OW23640   2.335   0.500   9.501
 7400SOL    HW123641   2.396   0.580   9.505
 7400SOL    HW223642   2.240   0.531   9.508
 7401SOL     OW23643   2.021   1.137  10.776
 7401SOL    HW123644   2.043   1.076  10.852
 7401SOL    HW223645   2.031   1.088  10.690
 7402SOL     OW23646   3.209   1.059  10.544
 7402SOL    HW123647   3.233   0.996  10.470
 7402SOL    HW223648   3.119   1.099  10.526
 7403SOL     OW23649   3.164   0.855   9.619
 7403SOL    HW123650   3.078   0.824   9.661
 7403SOL    HW223651   3.160   0.841   9.520
 7404SOL     OW23652   3.621   1.747  10.464
 7404SOL    HW123653   3.682   1.777  10.391
 7404SOL    HW223654   3.583   1.658  10.442
 7405SOL     OW23655   3.114   1.731  10.438
 7405SOL    HW123656   3.198   1.736  10.384
 7405SOL    HW223657   3.091   1.635  10.456
 7406SOL     OW23658   1.945   1.258  10.332
 7406SOL    HW123659   1.940   1.257  10.432
 7406SOL    HW223660   1.862   1.217  10.294
 7407SOL     OW23661   2.550   1.662  11.026
 7407SOL    HW123662   2.494   1.743  11.035
 7407SOL    HW223663   2.602   1.666  10.940
 7408SOL     OW23664   3.588   0.135   9.833
 7408SOL    HW123665   3.661   0.118   9.766
 7408SOL    HW223666   3.557   0.048   9.871
 7409SOL     OW23667   3.250   1.573   9.787
 7409SOL    HW123668   3.317   1.585   9.713
 7409SOL    HW223669   3.210   1.662   9.810
 7410SOL     OW23670   1.992   1.794  11.161
 7410SOL    HW123671   1.951   1.720  11.214
 7410SOL    HW223672   2.056   1.845  11.219
 7411SOL     OW23673   3.142   0.927   9.982
 7411SOL    HW123674   3.202   0.846   9.984
 7411SOL    HW223675   3.182   0.996   9.922
 7412SOL     OW23676   2.692   1.273  10.732
 7412SOL    HW123677   2.687   1.306  10.827
 7412SOL    HW223678   2.606   1.292  10.686
 7413SOL     OW23679   2.534   1.616   9.464
 7413SOL    HW123680   2.543   1.626   9.365
 7413SOL    HW223681   2.494   1.527   9.485
 7414SOL     OW23682   3.512   1.720  10.704
 7414SOL    HW123683   3.565   1.730  10.620
 7414SOL    HW223684   3.485   1.810  10.738
 7415SOL     OW23685   3.703   0.175  10.273
 7415SOL    HW123686   3.742   0.090  10.237
 7415SOL    HW223687   3.605   0.177  10.254
 7416SOL     OW23688   2.125   0.326  10.030
 7416SOL    HW123689   2.046   0.377   9.996
 7416SOL    HW223690   2.116   0.311  10.128
 7417SOL     OW23691   3.056   1.612   9.341
 7417SOL    HW123692   3.062   1.519   9.378
 7417SOL    HW223693   2.997   1.612   9.261
 7418SOL     OW23694   2.684   1.002  10.682
 7418SOL    HW123695   2.724   1.001  10.590
 7418SOL    HW223696   2.694   1.094  10.722
 7419SOL     OW23697   2.778   0.910   9.601
 7419SOL    HW123698   2.841   0.948   9.533
 7419SOL    HW223699   2.818   0.827   9.640
 7420SOL     OW23700   3.366   1.607   9.354
 7420SOL    HW123701   3.274   1.644   9.361
 7420SOL    HW223702   3.404   1.627   9.264
 7421SOL     OW23703   2.234   1.288  10.800
 7421SOL    HW123704   2.221   1.381  10.766
 7421SOL    HW223705   2.150   1.236  10.787
 7422SOL     OW23706   3.476   1.292  10.599
 7422SOL    HW123707   3.536   1.295  10.679
 7422SOL    HW223708   3.401   1.356  10.612
 7423SOL     OW23709   2.901   1.098  10.006
 7423SOL    HW123710   2.831   1.051  10.060
 7423SOL    HW223711   2.960   1.030   9.963
 7424SOL     OW23712   2.876   0.236  10.281
 7424SOL    HW123713   2.868   0.200  10.188
 7424SOL    HW223714   2.874   0.160  10.346
 7425SOL     OW23715   2.452   1.487   9.801
 7425SOL    HW123716   2.494   1.429   9.731
 7425SOL    HW223717   2.408   1.566   9.757
 7426SOL     OW23718   3.571   0.385  10.691
 7426SOL    HW123719   3.644   0.454  10.695
 7426SOL    HW223720   3.599   0.310  10.632
 7427SOL     OW23721   2.117   1.348   9.600
 7427SOL    HW123722   2.021   1.349   9.573
 7427SOL    HW223723   2.129   1.401   9.684
 7428SOL     OW23724   1.967   1.013  11.036
 7428SOL    HW123725   1.890   0.980  11.090
 7428SOL    HW223726   2.052   0.983  11.078
 7429SOL     OW23727   2.534   0.203  10.799
 7429SOL    HW123728   2.624   0.187  10.759
 7429SOL    HW223729   2.542   0.208  10.898
 7430SOL     OW23730   1.937   0.345   9.343
 7430SOL    HW123731   1.845   0.317   9.314
 7430SOL    HW223732   1.968   0.422   9.287
 7431SOL     OW23733   3.302   0.856  10.708
 7431SOL    HW123734   3.245   0.908  10.645
 7431SOL    HW223735   3.398   0.868  10.684
 7432SOL     OW23736   1.934   0.166   9.628
 7432SOL    HW123737   1.917   0.249   9.574
 7432SOL    HW223738   2.024   0.129   9.606
 7433SOL     OW23739   3.045   1.335   9.429
 7433SOL    HW123740   2.946   1.324   9.431
 7433SOL    HW223741   3.079   1.350   9.522
 7434SOL     OW23742   2.475   0.842  10.741
 7434SOL    HW123743   2.531   0.923  10.724
 7434SOL    HW223744   2.534   0.762  10.744
 7435SOL     OW23745   3.355   1.767  10.269
 7435SOL    HW123746   3.388   1.831  10.200
 7435SOL    HW223747   3.421   1.761  10.344
 7436SOL     OW23748   2.578   0.565  11.018
 7436SOL    HW123749   2.597   0.630  11.092
 7436SOL    HW223750   2.638   0.485  11.027
 7437SOL     OW23751   3.312   1.220  10.943
 7437SOL    HW123752   3.303   1.210  11.042
 7437SOL    HW223753   3.408   1.213  10.917
 7438SOL     OW23754   2.252   1.741  10.870
 7438SOL    HW123755   2.161   1.782  10.868
 7438SOL    HW223756   2.245   1.647  10.902
 7439SOL     OW23757   3.536   0.883  10.564
 7439SOL    HW123758   3.509   0.794  10.527
 7439SOL    HW223759   3.537   0.951  10.491
 7440SOL     OW23760   3.087   0.325   9.759
 7440SOL    HW123761   3.152   0.251   9.748
 7440SOL    HW223762   3.107   0.375   9.843
 7441SOL     OW23763   2.456   0.745   9.962
 7441SOL    HW123764   2.506   0.830   9.943
 7441SOL    HW223765   2.368   0.747   9.914
 7442SOL     OW23766   3.639   0.342  10.952
 7442SOL    HW123767   3.622   0.373  10.858
 7442SOL    HW223768   3.555   0.305  10.990
 7443SOL     OW23769   3.592   0.934  10.827
 7443SOL    HW123770   3.630   1.025  10.842
 7443SOL    HW223771   3.584   0.917  10.728
 7444SOL     OW23772   2.721   1.374   9.326
 7444SOL    HW123773   2.675   1.389   9.414
 7444SOL    HW223774   2.765   1.459   9.296
 7445SOL     OW23775   2.523   1.790  10.263
 7445SOL    HW123776   2.477   1.878  10.250
 7445SOL    HW223777   2.622   1.802  10.256
 7446SOL     OW23778   2.721   0.956  10.171
 7446SOL    HW123779   2.775   0.887  10.219
 7446SOL    HW223780   2.689   1.025  10.237
 7447SOL     OW23781   2.945   0.984   9.397
 7447SOL    HW123782   2.922   1.037   9.315
 7447SOL    HW223783   3.026   0.928   9.378
 7448SOL     OW23784   3.723   1.569  10.161
 7448SOL    HW123785   3.652   1.557  10.091
 7448SOL    HW223786   3.724   1.490  10.221
 7449SOL     OW23787   2.083   1.314  11.154
 7449SOL    HW123788   2.018   1.241  11.133
 7449SOL    HW223789   2.087   1.328  11.252
 7450SOL     OW23790   1.941   1.240   9.963
 7450SOL    HW123791   1.940   1.193  10.051
 7450SOL    HW223792   2.023   1.212   9.912
 7451SOL     OW23793   2.534   1.391  10.934
 7451SOL    HW123794   2.456   1.341  10.972
 7451SOL    HW223795   2.531   1.486  10.965
 7452SOL     OW23796   3.686   0.192  10.537
 7452SOL    HW123797   3.682   0.102  10.581
 7452SOL    HW223798   3.689   0.181  10.438
 7453SOL     OW23799   2.290   0.424   9.830
 7453SOL    HW123800   2.320   0.352   9.768
 7453SOL    HW223801   2.251   0.384   9.913
 7454SOL     OW23802   3.567   1.487  10.414
 7454SOL    HW123803   3.474   1.462  10.387
 7454SOL    HW223804   3.593   1.437  10.496
 7455SOL     OW23805   2.179   0.547  10.590
 7455SOL    HW123806   2.217   0.488  10.662
 7455SOL    HW223807   2.219   0.521  10.502
 7456SOL     OW23808   2.674   1.586   9.997
 7456SOL    HW123809   2.706   1.596   9.903
 7456SOL    HW223810   2.595   1.524   9.999
 7457SOL     OW23811   3.286   0.214  10.422
 7457SOL    HW123812   3.338   0.149  10.477
 7457SOL    HW223813   3.237   0.277  10.483
 7458SOL     OW23814   2.863   0.034  10.464
 7458SOL    HW123815   2.800  -0.038  10.433
 7458SOL    HW223816   2.956  -0.002  10.464
 7459SOL     OW23817   2.632   1.330   9.611
 7459SOL    HW123818   2.586   1.243   9.628
 7459SOL    HW223819   2.723   1.327   9.652
 7460SOL     OW23820   2.480   1.567  10.594
 7460SOL    HW123821   2.475   1.649  10.651
 7460SOL    HW223822   2.569   1.564  10.549
 7461SOL     OW23823   3.214   0.052   9.478
 7461SOL    HW123824   3.249   0.011   9.394
 7461SOL    HW223825   3.124   0.014   9.498
 7462SOL     OW23826   3.162   0.453  10.001
 7462SOL    HW123827   3.103   0.533  10.005
 7462SOL    HW223828   3.177   0.418  10.094
 7463SOL     OW23829   3.455   0.221  10.192
 7463SOL    HW123830   3.371   0.220  10.246
 7463SOL    HW223831   3.457   0.304  10.136
 7464SOL     OW23832   1.901   1.077   9.610
 7464SOL    HW123833   2.000   1.066   9.601
 7464SOL    HW223834   1.861   0.991   9.642
 7465SOL     OW23835   2.737   1.646   9.647
 7465SOL    HW123836   2.660   1.611   9.593
 7465SOL    HW223837   2.705   1.717   9.709
 7466SOL     OW23838   2.092   0.628  11.285
 7466SOL    HW123839   1.999   0.626  11.322
 7466SOL    HW223840   2.093   0.589  11.193
 7467SOL     OW23841   2.087   0.275  12.168
 7467SOL    HW123842   2.122   0.258  12.260
 7467SOL    HW223843   1.999   0.230  12.156
 7468SOL     OW23844   1.881   0.368  11.819
 7468SOL    HW123845   1.799   0.411  11.858
 7468SOL    HW223846   1.853   0.295  11.756
 7469SOL     OW23847   2.431   1.275  12.337
 7469SOL    HW123848   2.338   1.268  12.300
 7469SOL    HW223849   2.442   1.364  12.381
 7470SOL     OW23850   3.417   1.511  11.875
 7470SOL    HW123851   3.360   1.495  11.956
 7470SOL    HW223852   3.358   1.521  11.795
 7471SOL     OW23853   2.997   0.703  11.889
 7471SOL    HW123854   3.054   0.781  11.864
 7471SOL    HW223855   2.937   0.729  11.965
 7472SOL     OW23856   3.617   0.607  11.403
 7472SOL    HW123857   3.605   0.594  11.304
 7472SOL    HW223858   3.587   0.526  11.452
 7473SOL     OW23859   2.630   1.144  12.195
 7473SOL    HW123860   2.552   1.161  12.255
 7473SOL    HW223861   2.664   1.231  12.159
 7474SOL     OW23862   2.547   1.012  11.837
 7474SOL    HW123863   2.616   0.996  11.907
 7474SOL    HW223864   2.474   1.069  11.875
 7475SOL     OW23865   2.197   1.435  12.233
 7475SOL    HW123866   2.119   1.404  12.180
 7475SOL    HW223867   2.255   1.493  12.176
 7476SOL     OW23868   3.465   0.447  11.909
 7476SOL    HW123869   3.391   0.493  11.859
 7476SOL    HW223870   3.516   0.515  11.962
 7477SOL     OW23871   2.093   1.713  11.655
 7477SOL    HW123872   2.127   1.790  11.709
 7477SOL    HW223873   2.137   1.713  11.565
 7478SOL     OW23874   2.092   1.434  11.710
 7478SOL    HW123875   2.066   1.530  11.710
 7478SOL    HW223876   2.021   1.380  11.755
 7479SOL     OW23877   2.102   1.091  12.058
 7479SOL    HW123878   2.116   1.007  12.110
 7479SOL    HW223879   2.047   1.155  12.113
 7480SOL     OW23880   2.468   0.964  11.295
 7480SOL    HW123881   2.475   1.048  11.241
 7480SOL    HW223882   2.514   0.977  11.383
 7481SOL     OW23883   1.984   0.643  11.735
 7481SOL    HW123884   1.939   0.555  11.752
 7481SOL    HW223885   1.983   0.697  11.819
 7482SOL     OW23886   3.704   1.767  11.531
 7482SOL    HW123887   3.758   1.738  11.611
 7482SOL    HW223888   3.734   1.857  11.502
 7483SOL     OW23889   1.889   1.596  11.289
 7483SOL    HW123890   1.870   1.500  11.310
 7483SOL    HW223891   1.856   1.654  11.364
 7484SOL     OW23892   3.551   0.922  11.784
 7484SOL    HW123893   3.646   0.893  11.792
 7484SOL    HW223894   3.543   0.987  11.709
 7485SOL     OW23895   3.503   1.108  11.604
 7485SOL    HW123896   3.589   1.110  11.552
 7485SOL    HW223897   3.517   1.155  11.692
 7486SOL     OW23898   1.975   0.737  12.769
 7486SOL    HW123899   2.063   0.724  12.814
 7486SOL    HW223900   1.962   0.834  12.747
 7487SOL     OW23901   2.475   1.365  11.898
 7487SOL    HW123902   2.426   1.278  11.907
 7487SOL    HW223903   2.452   1.408  11.811
 7488SOL     OW23904   2.671   0.004  11.674
 7488SOL    HW123905   2.711   0.095  11.665
 7488SOL    HW223906   2.571   0.012  11.680
 7489SOL     OW23907   2.059   0.976  12.436
 7489SOL    HW123908   2.148   0.931  12.422
 7489SOL    HW223909   1.986   0.911  12.417
 7490SOL     OW23910   3.387   0.999  11.362
 7490SOL    HW123911   3.324   0.923  11.375
 7490SOL    HW223912   3.435   1.017  11.448
 7491SOL     OW23913   3.328   1.417  12.125
 7491SOL    HW123914   3.269   1.423  12.205
 7491SOL    HW223915   3.313   1.329  12.079
 7492SOL     OW23916   3.529   1.714  11.744
 7492SOL    HW123917   3.488   1.691  11.656
 7492SOL    HW223918   3.511   1.640  11.809
 7493SOL     OW23919   2.460   0.729  11.442
 7493SOL    HW123920   2.484   0.798  11.374
 7493SOL    HW223921   2.382   0.762  11.496
 7494SOL     OW23922   3.143   0.345  12.116
 7494SOL    HW123923   3.057   0.295  12.103
 7494SOL    HW223924   3.205   0.291  12.172
 7495SOL     OW23925   3.438   1.662  11.479
 7495SOL    HW123926   3.527   1.708  11.482
 7495SOL    HW223927   3.417   1.638  11.384
 7496SOL     OW23928   2.853   0.410  12.414
 7496SOL    HW123929   2.776   0.444  12.468
 7496SOL    HW223930   2.819   0.359  12.335
 7497SOL     OW23931   2.903   0.701  11.601
 7497SOL    HW123932   2.929   0.697  11.697
 7497SOL    HW223933   2.818   0.650  11.587
 7498SOL     OW23934   1.938   0.811  11.961
 7498SOL    HW123935   2.037   0.799  11.970
 7498SOL    HW223936   1.914   0.906  11.982
 7499SOL     OW23937   2.727   0.348  11.367
 7499SOL    HW123938   2.786   0.411  11.318
 7499SOL    HW223939   2.746   0.254  11.338
 7500SOL     OW23940   3.224   1.144  11.717
 7500SOL    HW123941   3.307   1.115  11.669
 7500SOL    HW223942   3.175   1.211  11.661
 7501SOL     OW23943   2.412   0.196  12.057
 7501SOL    HW123944   2.407   0.191  12.157
 7501SOL    HW223945   2.414   0.292  12.028
 7502SOL     OW23946   2.870   1.456  11.649
 7502SOL    HW123947   2.824   1.528  11.597
 7502SOL    HW223948   2.866   1.476  11.747
 7503SOL     OW23949   2.213   1.801  12.025
 7503SOL    HW123950   2.263   1.715  12.031
 7503SOL    HW223951   2.278   1.878  12.022
 7504SOL     OW23952   3.657   1.066  12.045
 7504SOL    HW123953   3.595   1.051  11.969
 7504SOL    HW223954   3.605   1.077  12.130
 7505SOL     OW23955   2.183   0.943  11.414
 7505SOL    HW123956   2.265   0.982  11.372
 7505SOL    HW223957   2.156   0.861  11.365
 7506SOL     OW23958   3.320   0.735  11.900
 7506SOL    HW123959   3.315   0.670  11.975
 7506SOL    HW223960   3.400   0.794  11.913
 7507SOL     OW23961   2.973   1.776  11.409
 7507SOL    HW123962   2.913   1.714  11.459
 7507SOL    HW223963   3.004   1.732  11.324
 7508SOL     OW23964   3.494   1.377  11.253
 7508SOL    HW123965   3.462   1.471  11.243
 7508SOL    HW223966   3.418   1.314  11.241
 7509SOL     OW23967   2.326   1.743  11.495
 7509SOL    HW123968   2.359   1.782  11.581
 7509SOL    HW223969   2.402   1.736  11.430
 7510SOL     OW23970   3.262   0.107  11.598
 7510SOL    HW123971   3.238   0.070  11.508
 7510SOL    HW223972   3.361   0.123  11.602
 7511SOL     OW23973   2.111   1.785  12.413
 7511SOL    HW123974   2.168   1.720  12.463
 7511SOL    HW223975   2.095   1.752  12.320
 7512SOL     OW23976   2.802   1.698  12.076
 7512SOL    HW123977   2.882   1.641  12.097
 7512SOL    HW223978   2.753   1.658  11.999
 7513SOL     OW23979   2.244   0.700  11.652
 7513SOL    HW123980   2.289   0.610  11.649
 7513SOL    HW223981   2.150   0.689  11.685
 7514SOL     OW23982   2.476   0.122  11.289
 7514SOL    HW123983   2.574   0.100  11.296
 7514SOL    HW223984   2.445   0.105  11.196
 7515SOL     OW23985   2.665   1.402  12.096
 7515SOL    HW123986   2.755   1.416  12.054
 7515SOL    HW223987   2.594   1.404  12.025
 7516SOL     OW23988   2.784   0.503  12.071
 7516SOL    HW123989   2.759   0.494  11.975
 7516SOL    HW223990   2.832   0.421  12.102
 7517SOL     OW23991   2.401   0.064  11.684
 7517SOL    HW123992   2.320   0.065  11.742
 7517SOL    HW223993   2.404   0.147  11.629
 7518SOL     OW23994   3.296   1.188  11.213
 7518SOL    HW123995   3.328   1.112  11.270
 7518SOL    HW223996   3.204   1.215  11.243
 7519SOL     OW23997   2.159   0.035  11.343
 7519SOL    HW123998   2.208   0.119  11.322
 7519SOL    HW223999   2.221  -0.030  11.388
 7520SOL     OW24000   2.797   0.236  11.652
 7520SOL    HW124001   2.749   0.277  11.574
 7520SOL    HW224002   2.896   0.234  11.633
 7521SOL     OW24003   3.089   1.570  11.965
 7521SOL    HW124004   3.110   1.644  11.900
 7521SOL    HW224005   3.157   1.570  12.038
 7522SOL     OW24006   2.321   1.152  11.913
 7522SOL    HW124007   2.250   1.125  11.978
 7522SOL    HW224008   2.295   1.124  11.820
 7523SOL     OW24009   3.133   1.797  11.763
 7523SOL    HW124010   3.177   1.861  11.699
 7523SOL    HW224011   3.083   1.849  11.833
 7524SOL     OW24012   2.894   0.549  11.188
 7524SOL    HW124013   2.853   0.631  11.149
 7524SOL    HW224014   2.958   0.575  11.261
 7525SOL     OW24015   2.423   0.222  12.319
 7525SOL    HW124016   2.461   0.138  12.356
 7525SOL    HW224017   2.335   0.241  12.363
 7526SOL     OW24018   2.728   0.454  11.814
 7526SOL    HW124019   2.696   0.526  11.752
 7526SOL    HW224020   2.752   0.373  11.761
 7527SOL     OW24021   2.879   0.039  11.925
 7527SOL    HW124022   2.807   0.044  11.856
 7527SOL    HW224023   2.855  -0.030  11.994
 7528SOL     OW24024   3.291   1.173  12.039
 7528SOL    HW124025   3.236   1.089  12.032
 7528SOL    HW224026   3.317   1.202  11.947
 7529SOL     OW24027   3.328   0.590  12.164
 7529SOL    HW124028   3.298   0.495  12.171
 7529SOL    HW224029   3.401   0.606  12.230
 7530SOL     OW24030   3.719   0.833  11.549
 7530SOL    HW124031   3.761   0.769  11.613
 7530SOL    HW224032   3.681   0.782  11.471
 7531SOL     OW24033   2.350   1.385  11.346
 7531SOL    HW124034   2.263   1.370  11.393
 7531SOL    HW224035   2.333   1.411  11.251
 7532SOL     OW24036   3.526   1.280  11.829
 7532SOL    HW124037   3.625   1.288  11.843
 7532SOL    HW224038   3.481   1.364  11.860
 7533SOL     OW24039   3.252   0.575  11.250
 7533SOL    HW124040   3.198   0.554  11.331
 7533SOL    HW224041   3.343   0.534  11.259
 7534SOL     OW24042   2.389   0.256  11.500
 7534SOL    HW124043   2.416   0.197  11.425
 7534SOL    HW224044   2.389   0.351  11.469
 7535SOL     OW24045   2.973   1.195  12.272
 7535SOL    HW124046   2.933   1.239  12.353
 7535SOL    HW224047   2.932   1.232  12.189
 7536SOL     OW24048   3.500   1.099  12.251
 7536SOL    HW124049   3.505   1.180  12.310
 7536SOL    HW224050   3.414   1.101  12.200
 7537SOL     OW24051   2.567   1.050  11.540
 7537SOL    HW124052   2.553   1.057  11.639
 7537SOL    HW224053   2.651   0.999  11.522
 7538SOL     OW24054   2.272   0.813  12.423
 7538SOL    HW124055   2.358   0.825  12.473
 7538SOL    HW224056   2.230   0.726  12.450
 7539SOL     OW24057   3.136   0.386  12.434
 7539SOL    HW124058   3.157   0.460  12.498
 7539SOL    HW224059   3.047   0.403  12.391
 7540SOL     OW24060   2.229   1.100  11.673
 7540SOL    HW124061   2.222   1.183  11.617
 7540SOL    HW224062   2.233   1.020  11.613
 7541SOL     OW24063   2.428   0.537  12.037
 7541SOL    HW124064   2.440   0.603  11.963
 7541SOL    HW224065   2.474   0.571  12.120
 7542SOL     OW24066   3.114   1.348  11.560
 7542SOL    HW124067   3.164   1.425  11.600
 7542SOL    HW224068   3.019   1.350  11.592
 7543SOL     OW24069   3.134   1.445  12.314
 7543SOL    HW124070   3.181   1.458  12.401
 7543SOL    HW224071   3.068   1.371  12.323
 7544SOL     OW24072   3.444   0.639  11.644
 7544SOL    HW124073   3.413   0.700  11.717
 7544SOL    HW224074   3.494   0.691  11.575
 7545SOL     OW24075   2.216   1.510  12.501
 7545SOL    HW124076   2.195   1.466  12.414
 7545SOL    HW224077   2.313   1.536  12.504
 7546SOL     OW24078   2.435   0.870  12.201
 7546SOL    HW124079   2.479   0.959  12.192
 7546SOL    HW224080   2.372   0.870  12.278
 7547SOL     OW24081   3.222   0.862  12.217
 7547SOL    HW124082   3.147   0.862  12.151
 7547SOL    HW224083   3.259   0.770  12.226
 7548SOL     OW24084   3.071   0.525  11.447
 7548SOL    HW124085   3.084   0.441  11.501
 7548SOL    HW224086   3.042   0.599  11.507
 7549SOL     OW24087   2.169   0.213  12.403
 7549SOL    HW124088   2.146   0.250  12.493
 7549SOL    HW224089   2.139   0.118  12.397
 7550SOL     OW24090   1.899   1.310  12.454
 7550SOL    HW124091   1.952   1.261  12.522
 7550SOL    HW224092   1.921   1.408  12.459
 7551SOL     OW24093   2.594   0.634  12.236
 7551SOL    HW124094   2.653   0.608  12.160
 7551SOL    HW224095   2.566   0.730  12.225
 7552SOL     OW24096   2.169   0.063  11.790
 7552SOL    HW124097   2.158   0.157  11.823
 7552SOL    HW224098   2.164   0.000  11.867
 7553SOL     OW24099   3.484   0.367  11.546
 7553SOL    HW124100   3.486   0.291  11.610
 7553SOL    HW224101   3.436   0.444  11.586
 7554SOL     OW24102   2.885   0.766  12.138
 7554SOL    HW124103   2.900   0.787  12.234
 7554SOL    HW224104   2.855   0.671  12.129
 7555SOL     OW24105   3.402   0.274  11.297
 7555SOL    HW124106   3.341   0.199  11.320
 7555SOL    HW224107   3.424   0.326  11.380
 7556SOL     OW24108   3.165   0.838  11.214
 7556SOL    HW124109   3.199   0.745  11.229
 7556SOL    HW224110   3.183   0.865  11.119
 7557SOL     OW24111   2.930   1.333  12.021
 7557SOL    HW124112   2.937   1.249  11.966
 7557SOL    HW224113   2.992   1.402  11.985
 7558SOL     OW24114   2.181   0.810  12.121
 7558SOL    HW124115   2.274   0.846  12.126
 7558SOL    HW224116   2.175   0.725  12.173
 7559SOL     OW24117   2.201   0.509  12.178
 7559SOL    HW124118   2.149   0.426  12.161
 7559SOL    HW224119   2.278   0.514  12.114
 7560SOL     OW24120   3.022   0.207  12.649
 7560SOL    HW124121   3.022   0.271  12.726
 7560SOL    HW224122   3.050   0.255  12.566
 7561SOL     OW24123   1.870   1.326  11.372
 7561SOL    HW124124   1.777   1.347  11.341
 7561SOL    HW224125   1.880   1.227  11.385
 7562SOL     OW24126   1.950   1.801  12.099
 7562SOL    HW124127   1.908   1.715  12.072
 7562SOL    HW224128   2.044   1.804  12.065
 7563SOL     OW24129   2.366   1.568  12.082
 7563SOL    HW124130   2.432   1.642  12.091
 7563SOL    HW224131   2.410   1.489  12.040
 7564SOL     OW24132   2.864   0.796  12.410
 7564SOL    HW124133   2.905   0.764  12.496
 7564SOL    HW224134   2.768   0.769  12.407
 7565SOL     OW24135   1.902   0.544  12.286
 7565SOL    HW124136   1.987   0.511  12.245
 7565SOL    HW224137   1.915   0.559  12.384
 7566SOL     OW24138   2.677   0.572  11.497
 7566SOL    HW124139   2.684   0.483  11.451
 7566SOL    HW224140   2.583   0.606  11.489
 7567SOL     OW24141   3.519   0.604  12.378
 7567SOL    HW124142   3.481   0.535  12.440
 7567SOL    HW224143   3.601   0.568  12.334
 7568SOL     OW24144   2.533   0.464  12.441
 7568SOL    HW124145   2.499   0.375  12.411
 7568SOL    HW224146   2.559   0.518  12.361
 7569SOL     OW24147   2.792   1.678  12.637
 7569SOL    HW124148   2.768   1.660  12.542
 7569SOL    HW224149   2.822   1.772  12.647
 7570SOL     OW24150   2.335   0.500  11.363
 7570SOL    HW124151   2.396   0.580  11.367
 7570SOL    HW224152   2.240   0.531  11.370
 7571SOL     OW24153   3.209   1.059  12.406
 7571SOL    HW124154   3.233   0.996  12.332
 7571SOL    HW224155   3.119   1.099  12.388
 7572SOL     OW24156   3.164   0.855  11.481
 7572SOL    HW124157   3.078   0.824  11.523
 7572SOL    HW224158   3.160   0.841  11.382
 7573SOL     OW24159   3.621   1.747  12.326
 7573SOL    HW124160   3.682   1.777  12.253
 7573SOL    HW224161   3.583   1.658  12.304
 7574SOL     OW24162   3.114   1.731  12.300
 7574SOL    HW124163   3.198   1.736  12.246
 7574SOL    HW224164   3.091   1.635  12.318
 7575SOL     OW24165   1.945   1.258  12.194
 7575SOL    HW124166   1.940   1.257  12.294
 7575SOL    HW224167   1.862   1.217  12.156
 7576SOL     OW24168   3.588   0.135  11.695
 7576SOL    HW124169   3.661   0.118  11.628
 7576SOL    HW224170   3.557   0.048  11.733
 7577SOL     OW24171   3.250   1.573  11.649
 7577SOL    HW124172   3.317   1.585  11.575
 7577SOL    HW224173   3.210   1.662  11.672
 7578SOL     OW24174   3.142   0.927  11.844
 7578SOL    HW124175   3.202   0.846  11.846
 7578SOL    HW224176   3.182   0.996  11.784
 7579SOL     OW24177   2.534   1.616  11.326
 7579SOL    HW124178   2.543   1.626  11.227
 7579SOL    HW224179   2.494   1.527  11.347
 7580SOL     OW24180   3.512   1.720  12.566
 7580SOL    HW124181   3.565   1.730  12.482
 7580SOL    HW224182   3.485   1.810  12.600
 7581SOL     OW24183   3.703   0.175  12.135
 7581SOL    HW124184   3.742   0.090  12.099
 7581SOL    HW224185   3.605   0.177  12.116
 7582SOL     OW24186   2.125   0.326  11.892
 7582SOL    HW124187   2.046   0.377  11.858
 7582SOL    HW224188   2.116   0.311  11.990
 7583SOL     OW24189   3.056   1.612  11.203
 7583SOL    HW124190   3.062   1.519  11.240
 7583SOL    HW224191   2.997   1.612  11.123
 7584SOL     OW24192   2.684   1.002  12.544
 7584SOL    HW124193   2.724   1.001  12.452
 7584SOL    HW224194   2.694   1.094  12.584
 7585SOL     OW24195   2.778   0.910  11.463
 7585SOL    HW124196   2.841   0.948  11.395
 7585SOL    HW224197   2.818   0.827  11.502
 7586SOL     OW24198   3.366   1.607  11.216
 7586SOL    HW124199   3.274   1.644  11.223
 7586SOL    HW224200   3.404   1.627  11.126
 7587SOL     OW24201   2.901   1.098  11.868
 7587SOL    HW124202   2.831   1.051  11.922
 7587SOL    HW224203   2.960   1.030  11.825
 7588SOL     OW24204   2.876   0.236  12.143
 7588SOL    HW124205   2.868   0.200  12.050
 7588SOL    HW224206   2.874   0.160  12.208
 7589SOL     OW24207   2.452   1.487  11.663
 7589SOL    HW124208   2.494   1.429  11.593
 7589SOL    HW224209   2.408   1.566  11.619
 7590SOL     OW24210   3.571   0.385  12.553
 7590SOL    HW124211   3.644   0.454  12.557
 7590SOL    HW224212   3.599   0.310  12.494
 7591SOL     OW24213   2.117   1.348  11.462
 7591SOL    HW124214   2.021   1.349  11.435
 7591SOL    HW224215   2.129   1.401  11.546
 7592SOL     OW24216   1.937   0.345  11.205
 7592SOL    HW124217   1.845   0.317  11.176
 7592SOL    HW224218   1.968   0.422  11.149
 7593SOL     OW24219   1.934   0.166  11.490
 7593SOL    HW124220   1.917   0.249  11.436
 7593SOL    HW224221   2.024   0.129  11.468
 7594SOL     OW24222   3.045   1.335  11.291
 7594SOL    HW124223   2.946   1.324  11.293
 7594SOL    HW224224   3.079   1.350  11.384
 7595SOL     OW24225   3.355   1.767  12.131
 7595SOL    HW124226   3.388   1.831  12.062
 7595SOL    HW224227   3.421   1.761  12.206
 7596SOL     OW24228   3.536   0.883  12.426
 7596SOL    HW124229   3.509   0.794  12.389
 7596SOL    HW224230   3.537   0.951  12.353
 7597SOL     OW24231   3.087   0.325  11.621
 7597SOL    HW124232   3.152   0.251  11.610
 7597SOL    HW224233   3.107   0.375  11.705
 7598SOL     OW24234   2.456   0.745  11.824
 7598SOL    HW124235   2.506   0.830  11.805
 7598SOL    HW224236   2.368   0.747  11.776
 7599SOL     OW24237   3.592   0.934  12.689
 7599SOL    HW124238   3.630   1.025  12.704
 7599SOL    HW224239   3.584   0.917  12.590
 7600SOL     OW24240   2.721   1.374  11.188
 7600SOL    HW124241   2.675   1.389  11.276
 7600SOL    HW224242   2.765   1.459  11.158
 7601SOL     OW24243   2.523   1.790  12.125
 7601SOL    HW124244   2.477   1.878  12.112
 7601SOL    HW224245   2.622   1.802  12.118
 7602SOL     OW24246   2.721   0.956  12.033
 7602SOL    HW124247   2.775   0.887  12.081
 7602SOL    HW224248   2.689   1.025  12.099
 7603SOL     OW24249   2.945   0.984  11.259
 7603SOL    HW124250   2.922   1.037  11.177
 7603SOL    HW224251   3.026   0.928  11.240
 7604SOL     OW24252   3.723   1.569  12.023
 7604SOL    HW124253   3.652   1.557  11.953
 7604SOL    HW224254   3.724   1.490  12.083
 7605SOL     OW24255   1.941   1.240  11.825
 7605SOL    HW124256   1.940   1.193  11.913
 7605SOL    HW224257   2.023   1.212  11.774
 7606SOL     OW24258   3.686   0.192  12.399
 7606SOL    HW124259   3.682   0.102  12.443
 7606SOL    HW224260   3.689   0.181  12.300
 7607SOL     OW24261   2.290   0.424  11.692
 7607SOL    HW124262   2.320   0.352  11.630
 7607SOL    HW224263   2.251   0.384  11.775
 7608SOL     OW24264   3.567   1.487  12.276
 7608SOL    HW124265   3.474   1.462  12.249
 7608SOL    HW224266   3.593   1.437  12.358
 7609SOL     OW24267   2.674   1.586  11.859
 7609SOL    HW124268   2.706   1.596  11.765
 7609SOL    HW224269   2.595   1.524  11.861
 7610SOL     OW24270   3.286   0.214  12.284
 7610SOL    HW124271   3.338   0.149  12.339
 7610SOL    HW224272   3.237   0.277  12.345
 7611SOL     OW24273   2.863   0.034  12.326
 7611SOL    HW124274   2.800  -0.038  12.295
 7611SOL    HW224275   2.956  -0.002  12.326
 7612SOL     OW24276   2.632   1.330  11.473
 7612SOL    HW124277   2.586   1.243  11.490
 7612SOL    HW224278   2.723   1.327  11.514
 7613SOL     OW24279   3.214   0.052  11.340
 7613SOL    HW124280   3.249   0.011  11.256
 7613SOL    HW224281   3.124   0.014  11.360
 7614SOL     OW24282   3.162   0.453  11.863
 7614SOL    HW124283   3.103   0.533  11.867
 7614SOL    HW224284   3.177   0.418  11.956
 7615SOL     OW24285   3.455   0.221  12.054
 7615SOL    HW124286   3.371   0.220  12.108
 7615SOL    HW224287   3.457   0.304  11.998
 7616SOL     OW24288   1.901   1.077  11.472
 7616SOL    HW124289   2.000   1.066  11.463
 7616SOL    HW224290   1.861   0.991  11.504
 7617SOL     OW24291   2.737   1.646  11.509
 7617SOL    HW124292   2.660   1.611  11.455
 7617SOL    HW224293   2.705   1.717  11.571
 7618SOL     OW24294   2.092   2.490   0.113
 7618SOL    HW124295   1.999   2.488   0.150
 7618SOL    HW224296   2.093   2.451   0.021
 7619SOL     OW24297   2.087   2.137   0.996
 7619SOL    HW124298   2.122   2.120   1.088
 7619SOL    HW224299   1.999   2.092   0.984
 7620SOL     OW24300   1.881   2.230   0.647
 7620SOL    HW124301   1.799   2.273   0.686
 7620SOL    HW224302   1.853   2.157   0.584
 7621SOL     OW24303   2.431   3.137   1.165
 7621SOL    HW124304   2.338   3.130   1.128
 7621SOL    HW224305   2.442   3.226   1.209
 7622SOL     OW24306   3.417   3.373   0.703
 7622SOL    HW124307   3.360   3.357   0.784
 7622SOL    HW224308   3.358   3.383   0.623
 7623SOL     OW24309   2.997   2.565   0.717
 7623SOL    HW124310   3.054   2.643   0.692
 7623SOL    HW224311   2.937   2.591   0.793
 7624SOL     OW24312   3.617   2.469   0.231
 7624SOL    HW124313   3.605   2.456   0.132
 7624SOL    HW224314   3.587   2.388   0.280
 7625SOL     OW24315   2.630   3.006   1.023
 7625SOL    HW124316   2.552   3.023   1.083
 7625SOL    HW224317   2.664   3.093   0.987
 7626SOL     OW24318   2.712   2.660   1.823
 7626SOL    HW124319   2.708   2.736   1.888
 7626SOL    HW224320   2.734   2.696   1.732
 7627SOL     OW24321   2.547   2.874   0.665
 7627SOL    HW124322   2.616   2.858   0.735
 7627SOL    HW224323   2.474   2.931   0.703
 7628SOL     OW24324   2.548   3.023   1.803
 7628SOL    HW124325   2.608   3.102   1.817
 7628SOL    HW224326   2.462   3.054   1.762
 7629SOL     OW24327   2.197   3.297   1.061
 7629SOL    HW124328   2.119   3.266   1.008
 7629SOL    HW224329   2.255   3.355   1.004
 7630SOL     OW24330   3.322   3.367   1.339
 7630SOL    HW124331   3.346   3.461   1.365
 7630SOL    HW224332   3.306   3.313   1.421
 7631SOL     OW24333   2.300   2.254   1.499
 7631SOL    HW124334   2.382   2.198   1.508
 7631SOL    HW224335   2.219   2.196   1.503
 7632SOL     OW24336   3.465   2.309   0.737
 7632SOL    HW124337   3.391   2.355   0.687
 7632SOL    HW224338   3.516   2.377   0.790
 7633SOL     OW24339   2.989   3.203   1.690
 7633SOL    HW124340   3.036   3.203   1.778
 7633SOL    HW224341   2.941   3.116   1.679
 7634SOL     OW24342   2.092   3.296   0.538
 7634SOL    HW124343   2.066   3.392   0.538
 7634SOL    HW224344   2.021   3.242   0.583
 7635SOL     OW24345   2.102   2.953   0.886
 7635SOL    HW124346   2.116   2.869   0.938
 7635SOL    HW224347   2.047   3.017   0.941
 7636SOL     OW24348   2.482   3.648   1.439
 7636SOL    HW124349   2.390   3.631   1.474
 7636SOL    HW224350   2.510   3.740   1.465
 7637SOL     OW24351   2.468   2.826   0.123
 7637SOL    HW124352   2.475   2.910   0.069
 7637SOL    HW224353   2.514   2.839   0.211
 7638SOL     OW24354   3.456   1.976   1.480
 7638SOL    HW124355   3.438   2.043   1.408
 7638SOL    HW224356   3.453   2.022   1.569
 7639SOL     OW24357   1.984   2.505   0.563
 7639SOL    HW124358   1.939   2.417   0.580
 7639SOL    HW224359   1.983   2.559   0.647
 7640SOL     OW24360   3.704   3.629   0.359
 7640SOL    HW124361   3.758   3.600   0.439
 7640SOL    HW224362   3.734   3.719   0.330
 7641SOL     OW24363   1.889   3.458   0.117
 7641SOL    HW124364   1.870   3.362   0.138
 7641SOL    HW224365   1.856   3.516   0.192
 7642SOL     OW24366   3.551   2.784   0.612
 7642SOL    HW124367   3.646   2.755   0.620
 7642SOL    HW224368   3.543   2.849   0.537
 7643SOL     OW24369   3.503   2.970   0.432
 7643SOL    HW124370   3.589   2.972   0.380
 7643SOL    HW224371   3.517   3.017   0.520
 7644SOL     OW24372   1.975   2.599   1.597
 7644SOL    HW124373   2.063   2.586   1.642
 7644SOL    HW224374   1.962   2.696   1.575
 7645SOL     OW24375   2.475   3.227   0.726
 7645SOL    HW124376   2.426   3.140   0.735
 7645SOL    HW224377   2.452   3.270   0.639
 7646SOL     OW24378   3.155   3.090   1.423
 7646SOL    HW124379   3.192   3.017   1.365
 7646SOL    HW224380   3.207   3.095   1.508
 7647SOL     OW24381   2.671   1.866   0.502
 7647SOL    HW124382   2.711   1.957   0.493
 7647SOL    HW224383   2.571   1.874   0.508
 7648SOL     OW24384   2.059   2.838   1.264
 7648SOL    HW124385   2.148   2.793   1.250
 7648SOL    HW224386   1.986   2.773   1.245
 7649SOL     OW24387   3.387   2.861   0.190
 7649SOL    HW124388   3.324   2.785   0.203
 7649SOL    HW224389   3.435   2.879   0.276
 7650SOL     OW24390   3.049   3.654   1.616
 7650SOL    HW124391   3.073   3.714   1.540
 7650SOL    HW224392   3.056   3.559   1.586
 7651SOL     OW24393   2.179   2.113   1.801
 7651SOL    HW124394   2.250   2.184   1.807
 7651SOL    HW224395   2.091   2.152   1.829
 7652SOL     OW24396   3.328   3.279   0.953
 7652SOL    HW124397   3.269   3.285   1.033
 7652SOL    HW224398   3.313   3.191   0.907
 7653SOL     OW24399   3.529   3.576   0.572
 7653SOL    HW124400   3.488   3.553   0.484
 7653SOL    HW224401   3.511   3.502   0.637
 7654SOL     OW24402   2.460   2.591   0.270
 7654SOL    HW124403   2.484   2.660   0.202
 7654SOL    HW224404   2.382   2.624   0.324
 7655SOL     OW24405   3.143   2.207   0.944
 7655SOL    HW124406   3.057   2.157   0.931
 7655SOL    HW224407   3.205   2.153   1.000
 7656SOL     OW24408   3.438   3.524   0.307
 7656SOL    HW124409   3.527   3.570   0.310
 7656SOL    HW224410   3.417   3.500   0.212
 7657SOL     OW24411   2.669   2.467   1.465
 7657SOL    HW124412   2.622   2.464   1.554
 7657SOL    HW224413   2.618   2.412   1.399
 7658SOL     OW24414   3.256   2.331   1.674
 7658SOL    HW124415   3.236   2.374   1.762
 7658SOL    HW224416   3.334   2.269   1.683
 7659SOL     OW24417   2.835   2.752   1.572
 7659SOL    HW124418   2.881   2.668   1.543
 7659SOL    HW224419   2.779   2.786   1.497
 7660SOL     OW24420   2.853   2.272   1.242
 7660SOL    HW124421   2.776   2.306   1.296
 7660SOL    HW224422   2.819   2.221   1.163
 7661SOL     OW24423   2.903   2.563   0.429
 7661SOL    HW124424   2.929   2.559   0.525
 7661SOL    HW224425   2.818   2.512   0.415
 7662SOL     OW24426   1.938   2.673   0.789
 7662SOL    HW124427   2.037   2.661   0.798
 7662SOL    HW224428   1.914   2.768   0.810
 7663SOL     OW24429   1.992   3.683   1.571
 7663SOL    HW124430   1.982   3.668   1.670
 7663SOL    HW224431   1.906   3.719   1.535
 7664SOL     OW24432   2.727   2.210   0.195
 7664SOL    HW124433   2.786   2.273   0.146
 7664SOL    HW224434   2.746   2.116   0.166
 7665SOL     OW24435   3.581   2.447   1.831
 7665SOL    HW124436   3.555   2.536   1.795
 7665SOL    HW224437   3.579   2.379   1.758
 7666SOL     OW24438   3.224   3.006   0.545
 7666SOL    HW124439   3.307   2.977   0.497
 7666SOL    HW224440   3.175   3.073   0.489
 7667SOL     OW24441   2.412   2.058   0.885
 7667SOL    HW124442   2.407   2.053   0.985
 7667SOL    HW224443   2.414   2.154   0.856
 7668SOL     OW24444   2.870   3.318   0.477
 7668SOL    HW124445   2.824   3.390   0.425
 7668SOL    HW224446   2.866   3.338   0.575
 7669SOL     OW24447   2.213   3.663   0.853
 7669SOL    HW124448   2.263   3.577   0.859
 7669SOL    HW224449   2.278   3.740   0.850
 7670SOL     OW24450   3.657   2.928   0.873
 7670SOL    HW124451   3.595   2.913   0.797
 7670SOL    HW224452   3.605   2.939   0.958
 7671SOL     OW24453   3.089   3.412   1.506
 7671SOL    HW124454   3.095   3.335   1.570
 7671SOL    HW224455   3.037   3.386   1.426
 7672SOL     OW24456   2.183   2.805   0.242
 7672SOL    HW124457   2.265   2.844   0.200
 7672SOL    HW224458   2.156   2.723   0.193
 7673SOL     OW24459   3.320   2.597   0.728
 7673SOL    HW124460   3.315   2.532   0.803
 7673SOL    HW224461   3.400   2.656   0.741
 7674SOL     OW24462   2.323   3.128   1.727
 7674SOL    HW124463   2.273   3.129   1.641
 7674SOL    HW224464   2.260   3.110   1.803
 7675SOL     OW24465   2.973   3.638   0.237
 7675SOL    HW124466   2.913   3.576   0.287
 7675SOL    HW224467   3.004   3.594   0.152
 7676SOL     OW24468   2.064   2.147   1.498
 7676SOL    HW124469   1.984   2.207   1.485
 7676SOL    HW224470   2.054   2.098   1.584
 7677SOL     OW24471   3.494   3.239   0.081
 7677SOL    HW124472   3.462   3.333   0.071
 7677SOL    HW224473   3.418   3.176   0.069
 7678SOL     OW24474   2.326   3.605   0.323
 7678SOL    HW124475   2.359   3.644   0.409
 7678SOL    HW224476   2.402   3.598   0.258
 7679SOL     OW24477   3.262   1.969   0.426
 7679SOL    HW124478   3.238   1.932   0.336
 7679SOL    HW224479   3.361   1.985   0.430
 7680SOL     OW24480   2.111   3.647   1.241
 7680SOL    HW124481   2.168   3.582   1.291
 7680SOL    HW224482   2.095   3.614   1.148
 7681SOL     OW24483   2.802   3.560   0.904
 7681SOL    HW124484   2.882   3.503   0.925
 7681SOL    HW224485   2.753   3.520   0.827
 7682SOL     OW24486   2.244   2.562   0.480
 7682SOL    HW124487   2.289   2.472   0.477
 7682SOL    HW224488   2.150   2.551   0.513
 7683SOL     OW24489   3.409   2.084   1.729
 7683SOL    HW124490   3.404   2.121   1.821
 7683SOL    HW224491   3.337   2.015   1.717
 7684SOL     OW24492   2.476   1.984   0.117
 7684SOL    HW124493   2.574   1.962   0.124
 7684SOL    HW224494   2.445   1.967   0.024
 7685SOL     OW24495   2.643   2.126   1.749
 7685SOL    HW124496   2.710   2.065   1.792
 7685SOL    HW224497   2.570   2.145   1.814
 7686SOL     OW24498   2.750   3.376   1.195
 7686SOL    HW124499   2.727   3.351   1.101
 7686SOL    HW224500   2.811   3.307   1.234
 7687SOL     OW24501   3.213   2.452   1.433
 7687SOL    HW124502   3.241   2.409   1.518
 7687SOL    HW224503   3.238   2.548   1.434
 7688SOL     OW24504   2.665   3.264   0.924
 7688SOL    HW124505   2.755   3.278   0.882
 7688SOL    HW224506   2.594   3.266   0.853
 7689SOL     OW24507   2.784   2.365   0.899
 7689SOL    HW124508   2.759   2.356   0.803
 7689SOL    HW224509   2.832   2.283   0.930
 7690SOL     OW24510   2.401   1.926   0.512
 7690SOL    HW124511   2.320   1.927   0.570
 7690SOL    HW224512   2.404   2.009   0.457
 7691SOL     OW24513   3.296   3.050   0.041
 7691SOL    HW124514   3.328   2.974   0.098
 7691SOL    HW224515   3.204   3.077   0.071
 7692SOL     OW24516   2.159   1.897   0.171
 7692SOL    HW124517   2.208   1.981   0.150
 7692SOL    HW224518   2.221   1.832   0.216
 7693SOL     OW24519   2.797   2.098   0.480
 7693SOL    HW124520   2.749   2.139   0.402
 7693SOL    HW224521   2.896   2.096   0.461
 7694SOL     OW24522   2.938   2.545   1.464
 7694SOL    HW124523   2.858   2.484   1.467
 7694SOL    HW224524   3.019   2.492   1.440
 7695SOL     OW24525   3.089   3.432   0.793
 7695SOL    HW124526   3.110   3.506   0.728
 7695SOL    HW224527   3.157   3.432   0.866
 7696SOL     OW24528   2.321   3.014   0.741
 7696SOL    HW124529   2.250   2.987   0.806
 7696SOL    HW224530   2.295   2.986   0.648
 7697SOL     OW24531   3.133   3.659   0.591
 7697SOL    HW124532   3.177   3.723   0.527
 7697SOL    HW224533   3.083   3.711   0.661
 7698SOL     OW24534   2.894   2.411   0.016
 7698SOL    HW124535   2.853   2.493  -0.023
 7698SOL    HW224536   2.958   2.437   0.089
 7699SOL     OW24537   1.940   2.418   1.386
 7699SOL    HW124538   2.032   2.417   1.345
 7699SOL    HW224539   1.934   2.492   1.453
 7700SOL     OW24540   2.423   2.084   1.147
 7700SOL    HW124541   2.461   2.000   1.184
 7700SOL    HW224542   2.335   2.103   1.191
 7701SOL     OW24543   2.728   2.316   0.642
 7701SOL    HW124544   2.696   2.388   0.580
 7701SOL    HW224545   2.752   2.235   0.589
 7702SOL     OW24546   2.879   1.901   0.753
 7702SOL    HW124547   2.807   1.906   0.684
 7702SOL    HW224548   2.855   1.832   0.822
 7703SOL     OW24549   3.291   3.035   0.867
 7703SOL    HW124550   3.236   2.951   0.860
 7703SOL    HW224551   3.317   3.064   0.775
 7704SOL     OW24552   3.328   2.452   0.992
 7704SOL    HW124553   3.298   2.357   0.999
 7704SOL    HW224554   3.401   2.468   1.058
 7705SOL     OW24555   3.719   2.695   0.377
 7705SOL    HW124556   3.761   2.631   0.441
 7705SOL    HW224557   3.681   2.644   0.299
 7706SOL     OW24558   2.350   3.247   0.174
 7706SOL    HW124559   2.263   3.232   0.221
 7706SOL    HW224560   2.333   3.273   0.079
 7707SOL     OW24561   3.526   3.142   0.657
 7707SOL    HW124562   3.625   3.150   0.671
 7707SOL    HW224563   3.481   3.226   0.688
 7708SOL     OW24564   3.252   2.437   0.078
 7708SOL    HW124565   3.198   2.416   0.159
 7708SOL    HW224566   3.343   2.396   0.087
 7709SOL     OW24567   2.389   2.118   0.328
 7709SOL    HW124568   2.416   2.059   0.253
 7709SOL    HW224569   2.389   2.213   0.297
 7710SOL     OW24570   3.616   3.085   1.588
 7710SOL    HW124571   3.707   3.046   1.575
 7710SOL    HW224572   3.624   3.181   1.612
 7711SOL     OW24573   2.926   3.209   1.340
 7711SOL    HW124574   2.846   3.186   1.395
 7711SOL    HW224575   3.009   3.183   1.389
 7712SOL     OW24576   3.454   3.491   1.625
 7712SOL    HW124577   3.481   3.525   1.535
 7712SOL    HW224578   3.533   3.453   1.671
 7713SOL     OW24579   2.973   3.057   1.100
 7713SOL    HW124580   2.933   3.101   1.181
 7713SOL    HW224581   2.932   3.094   1.017
 7714SOL     OW24582   3.500   2.961   1.079
 7714SOL    HW124583   3.505   3.042   1.138
 7714SOL    HW224584   3.414   2.963   1.028
 7715SOL     OW24585   2.777   1.951   1.402
 7715SOL    HW124586   2.802   1.931   1.307
 7715SOL    HW224587   2.849   2.007   1.444
 7716SOL     OW24588   2.842   2.978   1.719
 7716SOL    HW124589   2.743   2.984   1.729
 7716SOL    HW224590   2.865   2.898   1.663
 7717SOL     OW24591   2.567   2.912   0.368
 7717SOL    HW124592   2.553   2.919   0.467
 7717SOL    HW224593   2.651   2.861   0.350
 7718SOL     OW24594   2.272   2.675   1.251
 7718SOL    HW124595   2.358   2.687   1.301
 7718SOL    HW224596   2.230   2.588   1.278
 7719SOL     OW24597   3.136   2.248   1.262
 7719SOL    HW124598   3.157   2.322   1.326
 7719SOL    HW224599   3.047   2.265   1.219
 7720SOL     OW24600   1.926   3.426   1.331
 7720SOL    HW124601   1.880   3.508   1.297
 7720SOL    HW224602   2.024   3.445   1.340
 7721SOL     OW24603   2.229   2.962   0.501
 7721SOL    HW124604   2.222   3.045   0.445
 7721SOL    HW224605   2.233   2.882   0.441
 7722SOL     OW24606   2.428   2.399   0.865
 7722SOL    HW124607   2.440   2.465   0.791
 7722SOL    HW224608   2.474   2.433   0.948
 7723SOL     OW24609   3.114   3.210   0.388
 7723SOL    HW124610   3.164   3.287   0.428
 7723SOL    HW224611   3.019   3.212   0.420
 7724SOL     OW24612   3.134   3.307   1.142
 7724SOL    HW124613   3.181   3.320   1.229
 7724SOL    HW224614   3.068   3.233   1.151
 7725SOL     OW24615   3.444   2.501   0.472
 7725SOL    HW124616   3.413   2.562   0.545
 7725SOL    HW224617   3.494   2.553   0.403
 7726SOL     OW24618   2.216   3.372   1.329
 7726SOL    HW124619   2.195   3.328   1.242
 7726SOL    HW224620   2.313   3.398   1.332
 7727SOL     OW24621   2.264   2.613   1.598
 7727SOL    HW124622   2.332   2.668   1.551
 7727SOL    HW224623   2.304   2.525   1.625
 7728SOL     OW24624   3.449   2.641   1.670
 7728SOL    HW124625   3.357   2.679   1.665
 7728SOL    HW224626   3.509   2.688   1.605
 7729SOL     OW24627   2.875   1.967   1.770
 7729SOL    HW124628   2.881   2.052   1.718
 7729SOL    HW224629   2.907   1.891   1.713
 7730SOL     OW24630   2.366   1.912   1.740
 7730SOL    HW124631   2.324   1.855   1.670
 7730SOL    HW224632   2.300   1.981   1.772
 7731SOL     OW24633   2.435   2.732   1.029
 7731SOL    HW124634   2.479   2.821   1.020
 7731SOL    HW224635   2.372   2.732   1.106
 7732SOL     OW24636   3.222   2.724   1.045
 7732SOL    HW124637   3.147   2.724   0.979
 7732SOL    HW224638   3.259   2.632   1.054
 7733SOL     OW24639   3.071   2.387   0.275
 7733SOL    HW124640   3.084   2.303   0.329
 7733SOL    HW224641   3.042   2.461   0.335
 7734SOL     OW24642   2.169   2.075   1.231
 7734SOL    HW124643   2.146   2.112   1.321
 7734SOL    HW224644   2.139   1.980   1.225
 7735SOL     OW24645   1.899   3.172   1.282
 7735SOL    HW124646   1.952   3.123   1.350
 7735SOL    HW224647   1.921   3.270   1.287
 7736SOL     OW24648   2.594   2.496   1.064
 7736SOL    HW124649   2.653   2.470   0.988
 7736SOL    HW224650   2.566   2.592   1.053
 7737SOL     OW24651   3.590   2.797   1.854
 7737SOL    HW124652   3.544   2.790   1.765
 7737SOL    HW224653   3.528   2.841   1.920
 7738SOL     OW24654   2.169   1.925   0.618
 7738SOL    HW124655   2.158   2.019   0.651
 7738SOL    HW224656   2.164   1.862   0.695
 7739SOL     OW24657   3.484   2.229   0.374
 7739SOL    HW124658   3.486   2.153   0.438
 7739SOL    HW224659   3.436   2.306   0.414
 7740SOL     OW24660   2.885   2.628   0.966
 7740SOL    HW124661   2.900   2.649   1.062
 7740SOL    HW224662   2.855   2.533   0.957
 7741SOL     OW24663   2.842   3.435   1.700
 7741SOL    HW124664   2.822   3.479   1.612
 7741SOL    HW224665   2.881   3.344   1.684
 7742SOL     OW24666   3.721   3.380   1.605
 7742SOL    HW124667   3.735   3.407   1.510
 7742SOL    HW224668   3.804   3.402   1.658
 7743SOL     OW24669   2.212   2.760   1.804
 7743SOL    HW124670   2.288   2.804   1.852
 7743SOL    HW224671   2.247   2.713   1.722
 7744SOL     OW24672   3.402   2.136   0.125
 7744SOL    HW124673   3.341   2.061   0.148
 7744SOL    HW224674   3.424   2.188   0.208
 7745SOL     OW24675   3.165   2.700   0.042
 7745SOL    HW124676   3.199   2.607   0.057
 7745SOL    HW224677   3.183   2.727  -0.053
 7746SOL     OW24678   2.930   3.195   0.849
 7746SOL    HW124679   2.937   3.111   0.794
 7746SOL    HW224680   2.992   3.264   0.813
 7747SOL     OW24681   2.181   2.672   0.949
 7747SOL    HW124682   2.274   2.708   0.954
 7747SOL    HW224683   2.175   2.587   1.001
 7748SOL     OW24684   2.201   2.371   1.006
 7748SOL    HW124685   2.149   2.288   0.989
 7748SOL    HW224686   2.278   2.376   0.942
 7749SOL     OW24687   3.000   2.242   1.678
 7749SOL    HW124688   2.955   2.305   1.742
 7749SOL    HW224689   3.093   2.273   1.661
 7750SOL     OW24690   3.022   2.069   1.477
 7750SOL    HW124691   3.022   2.133   1.554
 7750SOL    HW224692   3.050   2.117   1.394
 7751SOL     OW24693   1.950   3.663   0.927
 7751SOL    HW124694   1.908   3.577   0.900
 7751SOL    HW224695   2.044   3.666   0.893
 7752SOL     OW24696   2.366   3.430   0.910
 7752SOL    HW124697   2.432   3.504   0.919
 7752SOL    HW224698   2.410   3.351   0.868
 7753SOL     OW24699   2.864   2.658   1.238
 7753SOL    HW124700   2.905   2.626   1.324
 7753SOL    HW224701   2.768   2.631   1.235
 7754SOL     OW24702   1.902   2.406   1.114
 7754SOL    HW124703   1.987   2.373   1.073
 7754SOL    HW224704   1.915   2.421   1.212
 7755SOL     OW24705   2.051   2.382   1.722
 7755SOL    HW124706   2.110   2.342   1.652
 7755SOL    HW224707   1.993   2.453   1.681
 7756SOL     OW24708   3.231   2.812   1.660
 7756SOL    HW124709   3.270   2.901   1.680
 7756SOL    HW224710   3.241   2.792   1.563
 7757SOL     OW24711   2.677   2.434   0.325
 7757SOL    HW124712   2.684   2.345   0.279
 7757SOL    HW224713   2.583   2.468   0.317
 7758SOL     OW24714   3.519   2.466   1.206
 7758SOL    HW124715   3.481   2.397   1.268
 7758SOL    HW224716   3.601   2.430   1.162
 7759SOL     OW24717   2.114   3.426   1.744
 7759SOL    HW124718   2.084   3.483   1.820
 7759SOL    HW224719   2.107   3.329   1.770
 7760SOL     OW24720   2.533   2.326   1.269
 7760SOL    HW124721   2.499   2.237   1.239
 7760SOL    HW224722   2.559   2.380   1.189
 7761SOL     OW24723   2.792   3.540   1.465
 7761SOL    HW124724   2.768   3.522   1.370
 7761SOL    HW224725   2.822   3.634   1.475
 7762SOL     OW24726   2.335   2.362   0.191
 7762SOL    HW124727   2.396   2.442   0.195
 7762SOL    HW224728   2.240   2.393   0.198
 7763SOL     OW24729   2.021   2.999   1.466
 7763SOL    HW124730   2.043   2.938   1.542
 7763SOL    HW224731   2.031   2.950   1.380
 7764SOL     OW24732   3.209   2.921   1.234
 7764SOL    HW124733   3.233   2.858   1.160
 7764SOL    HW224734   3.119   2.961   1.216
 7765SOL     OW24735   3.164   2.717   0.309
 7765SOL    HW124736   3.078   2.686   0.351
 7765SOL    HW224737   3.160   2.703   0.210
 7766SOL     OW24738   3.621   3.609   1.154
 7766SOL    HW124739   3.682   3.639   1.081
 7766SOL    HW224740   3.583   3.520   1.132
 7767SOL     OW24741   3.114   3.593   1.128
 7767SOL    HW124742   3.198   3.598   1.074
 7767SOL    HW224743   3.091   3.497   1.146
 7768SOL     OW24744   1.945   3.120   1.022
 7768SOL    HW124745   1.940   3.119   1.122
 7768SOL    HW224746   1.862   3.079   0.984
 7769SOL     OW24747   2.550   3.524   1.716
 7769SOL    HW124748   2.494   3.605   1.725
 7769SOL    HW224749   2.602   3.528   1.630
 7770SOL     OW24750   2.765   1.948   0.133
 7770SOL    HW124751   2.816   1.949   0.047
 7770SOL    HW224752   2.821   1.906   0.204
 7771SOL     OW24753   3.588   1.997   0.523
 7771SOL    HW124754   3.661   1.980   0.456
 7771SOL    HW224755   3.557   1.910   0.561
 7772SOL     OW24756   3.250   3.435   0.477
 7772SOL    HW124757   3.317   3.447   0.403
 7772SOL    HW224758   3.210   3.524   0.500
 7773SOL     OW24759   1.992   3.656   1.851
 7773SOL    HW124760   1.951   3.582   1.904
 7773SOL    HW224761   2.056   3.707   1.909
 7774SOL     OW24762   3.142   2.789   0.672
 7774SOL    HW124763   3.202   2.708   0.674
 7774SOL    HW224764   3.182   2.858   0.612
 7775SOL     OW24765   2.692   3.135   1.422
 7775SOL    HW124766   2.687   3.168   1.517
 7775SOL    HW224767   2.606   3.154   1.376
 7776SOL     OW24768   2.534   3.478   0.154
 7776SOL    HW124769   2.543   3.488   0.055
 7776SOL    HW224770   2.494   3.389   0.175
 7777SOL     OW24771   3.512   3.582   1.394
 7777SOL    HW124772   3.565   3.592   1.310
 7777SOL    HW224773   3.485   3.672   1.428
 7778SOL     OW24774   3.703   2.037   0.963
 7778SOL    HW124775   3.742   1.952   0.927
 7778SOL    HW224776   3.605   2.039   0.944
 7779SOL     OW24777   2.125   2.188   0.720
 7779SOL    HW124778   2.046   2.239   0.686
 7779SOL    HW224779   2.116   2.173   0.818
 7780SOL     OW24780   3.056   3.474   0.031
 7780SOL    HW124781   3.062   3.381   0.068
 7780SOL    HW224782   2.997   3.474  -0.049
 7781SOL     OW24783   2.684   2.864   1.372
 7781SOL    HW124784   2.724   2.863   1.280
 7781SOL    HW224785   2.694   2.956   1.412
 7782SOL     OW24786   2.778   2.772   0.291
 7782SOL    HW124787   2.841   2.810   0.223
 7782SOL    HW224788   2.818   2.689   0.330
 7783SOL     OW24789   3.366   3.469   0.044
 7783SOL    HW124790   3.274   3.506   0.051
 7783SOL    HW224791   3.404   3.489  -0.046
 7784SOL     OW24792   2.234   3.150   1.490
 7784SOL    HW124793   2.221   3.243   1.456
 7784SOL    HW224794   2.150   3.098   1.477
 7785SOL     OW24795   3.476   3.154   1.289
 7785SOL    HW124796   3.536   3.157   1.369
 7785SOL    HW224797   3.401   3.218   1.302
 7786SOL     OW24798   2.901   2.960   0.696
 7786SOL    HW124799   2.831   2.913   0.750
 7786SOL    HW224800   2.960   2.892   0.653
 7787SOL     OW24801   2.876   2.098   0.971
 7787SOL    HW124802   2.868   2.062   0.878
 7787SOL    HW224803   2.874   2.022   1.036
 7788SOL     OW24804   2.452   3.349   0.491
 7788SOL    HW124805   2.494   3.291   0.421
 7788SOL    HW224806   2.408   3.428   0.447
 7789SOL     OW24807   3.571   2.247   1.381
 7789SOL    HW124808   3.644   2.316   1.385
 7789SOL    HW224809   3.599   2.172   1.322
 7790SOL     OW24810   2.117   3.210   0.290
 7790SOL    HW124811   2.021   3.211   0.263
 7790SOL    HW224812   2.129   3.263   0.374
 7791SOL     OW24813   1.967   2.875   1.726
 7791SOL    HW124814   1.890   2.842   1.780
 7791SOL    HW224815   2.052   2.845   1.768
 7792SOL     OW24816   2.534   2.065   1.489
 7792SOL    HW124817   2.624   2.049   1.449
 7792SOL    HW224818   2.542   2.070   1.588
 7793SOL     OW24819   3.302   2.718   1.398
 7793SOL    HW124820   3.245   2.770   1.335
 7793SOL    HW224821   3.398   2.730   1.374
 7794SOL     OW24822   1.934   2.028   0.318
 7794SOL    HW124823   1.917   2.111   0.264
 7794SOL    HW224824   2.024   1.991   0.296
 7795SOL     OW24825   3.045   3.197   0.119
 7795SOL    HW124826   2.946   3.186   0.121
 7795SOL    HW224827   3.079   3.212   0.212
 7796SOL     OW24828   2.475   2.704   1.431
 7796SOL    HW124829   2.531   2.785   1.414
 7796SOL    HW224830   2.534   2.624   1.434
 7797SOL     OW24831   3.355   3.629   0.959
 7797SOL    HW124832   3.388   3.693   0.890
 7797SOL    HW224833   3.421   3.623   1.034
 7798SOL     OW24834   2.578   2.427   1.708
 7798SOL    HW124835   2.597   2.492   1.782
 7798SOL    HW224836   2.638   2.347   1.717
 7799SOL     OW24837   3.312   3.082   1.633
 7799SOL    HW124838   3.303   3.072   1.732
 7799SOL    HW224839   3.408   3.075   1.607
 7800SOL     OW24840   2.252   3.603   1.560
 7800SOL    HW124841   2.161   3.644   1.558
 7800SOL    HW224842   2.245   3.509   1.592
 7801SOL     OW24843   3.536   2.745   1.254
 7801SOL    HW124844   3.509   2.656   1.217
 7801SOL    HW224845   3.537   2.813   1.181
 7802SOL     OW24846   3.087   2.187   0.449
 7802SOL    HW124847   3.152   2.113   0.438
 7802SOL    HW224848   3.107   2.237   0.533
 7803SOL     OW24849   2.456   2.607   0.652
 7803SOL    HW124850   2.506   2.692   0.633
 7803SOL    HW224851   2.368   2.609   0.604
 7804SOL     OW24852   3.639   2.204   1.642
 7804SOL    HW124853   3.622   2.235   1.548
 7804SOL    HW224854   3.555   2.167   1.680
 7805SOL     OW24855   3.592   2.796   1.517
 7805SOL    HW124856   3.630   2.887   1.532
 7805SOL    HW224857   3.584   2.779   1.418
 7806SOL     OW24858   2.721   3.236   0.016
 7806SOL    HW124859   2.675   3.251   0.104
 7806SOL    HW224860   2.765   3.321  -0.014
 7807SOL     OW24861   2.523   3.652   0.953
 7807SOL    HW124862   2.477   3.740   0.940
 7807SOL    HW224863   2.622   3.664   0.946
 7808SOL     OW24864   2.721   2.818   0.861
 7808SOL    HW124865   2.775   2.749   0.909
 7808SOL    HW224866   2.689   2.887   0.927
 7809SOL     OW24867   2.945   2.846   0.087
 7809SOL    HW124868   2.922   2.899   0.005
 7809SOL    HW224869   3.026   2.790   0.068
 7810SOL     OW24870   3.723   3.431   0.851
 7810SOL    HW124871   3.652   3.419   0.781
 7810SOL    HW224872   3.724   3.352   0.911
 7811SOL     OW24873   2.083   3.176   1.844
 7811SOL    HW124874   2.018   3.103   1.823
 7811SOL    HW224875   2.087   3.190   1.942
 7812SOL     OW24876   1.941   3.102   0.653
 7812SOL    HW124877   1.940   3.055   0.741
 7812SOL    HW224878   2.023   3.074   0.602
 7813SOL     OW24879   2.534   3.253   1.624
 7813SOL    HW124880   2.456   3.203   1.662
 7813SOL    HW224881   2.531   3.348   1.655
 7814SOL     OW24882   3.686   2.054   1.227
 7814SOL    HW124883   3.682   1.964   1.271
 7814SOL    HW224884   3.689   2.043   1.128
 7815SOL     OW24885   2.290   2.286   0.520
 7815SOL    HW124886   2.320   2.214   0.458
 7815SOL    HW224887   2.251   2.246   0.603
 7816SOL     OW24888   3.567   3.349   1.104
 7816SOL    HW124889   3.474   3.324   1.077
 7816SOL    HW224890   3.593   3.299   1.186
 7817SOL     OW24891   2.179   2.409   1.280
 7817SOL    HW124892   2.217   2.350   1.352
 7817SOL    HW224893   2.219   2.383   1.192
 7818SOL     OW24894   2.674   3.448   0.687
 7818SOL    HW124895   2.706   3.458   0.593
 7818SOL    HW224896   2.595   3.386   0.689
 7819SOL     OW24897   3.286   2.076   1.112
 7819SOL    HW124898   3.338   2.011   1.167
 7819SOL    HW224899   3.237   2.139   1.173
 7820SOL     OW24900   2.863   1.896   1.154
 7820SOL    HW124901   2.800   1.824   1.123
 7820SOL    HW224902   2.956   1.860   1.154
 7821SOL     OW24903   2.632   3.192   0.301
 7821SOL    HW124904   2.586   3.105   0.318
 7821SOL    HW224905   2.723   3.189   0.342
 7822SOL     OW24906   2.480   3.429   1.284
 7822SOL    HW124907   2.475   3.511   1.341
 7822SOL    HW224908   2.569   3.426   1.239
 7823SOL     OW24909   3.214   1.914   0.168
 7823SOL    HW124910   3.249   1.873   0.084
 7823SOL    HW224911   3.124   1.876   0.188
 7824SOL     OW24912   3.162   2.315   0.691
 7824SOL    HW124913   3.103   2.395   0.695
 7824SOL    HW224914   3.177   2.280   0.784
 7825SOL     OW24915   3.455   2.083   0.882
 7825SOL    HW124916   3.371   2.082   0.936
 7825SOL    HW224917   3.457   2.166   0.826
 7826SOL     OW24918   1.901   2.939   0.300
 7826SOL    HW124919   2.000   2.928   0.291
 7826SOL    HW224920   1.861   2.853   0.332
 7827SOL     OW24921   2.737   3.508   0.337
 7827SOL    HW124922   2.660   3.473   0.283
 7827SOL    HW224923   2.705   3.579   0.399
 7828SOL     OW24924   2.092   2.490   1.975
 7828SOL    HW124925   1.999   2.488   2.012
 7828SOL    HW224926   2.093   2.451   1.883
 7829SOL     OW24927   2.087   2.137   2.858
 7829SOL    HW124928   2.122   2.120   2.950
 7829SOL    HW224929   1.999   2.092   2.846
 7830SOL     OW24930   1.881   2.230   2.509
 7830SOL    HW124931   1.799   2.273   2.548
 7830SOL    HW224932   1.853   2.157   2.446
 7831SOL     OW24933   2.431   3.137   3.027
 7831SOL    HW124934   2.338   3.130   2.990
 7831SOL    HW224935   2.442   3.226   3.071
 7832SOL     OW24936   3.417   3.373   2.565
 7832SOL    HW124937   3.360   3.357   2.646
 7832SOL    HW224938   3.358   3.383   2.485
 7833SOL     OW24939   2.997   2.565   2.579
 7833SOL    HW124940   3.054   2.643   2.554
 7833SOL    HW224941   2.937   2.591   2.655
 7834SOL     OW24942   3.617   2.469   2.093
 7834SOL    HW124943   3.605   2.456   1.994
 7834SOL    HW224944   3.587   2.388   2.142
 7835SOL     OW24945   2.630   3.006   2.885
 7835SOL    HW124946   2.552   3.023   2.945
 7835SOL    HW224947   2.664   3.093   2.849
 7836SOL     OW24948   2.712   2.660   3.685
 7836SOL    HW124949   2.708   2.736   3.750
 7836SOL    HW224950   2.734   2.696   3.594
 7837SOL     OW24951   2.547   2.874   2.527
 7837SOL    HW124952   2.616   2.858   2.597
 7837SOL    HW224953   2.474   2.931   2.565
 7838SOL     OW24954   2.548   3.023   3.665
 7838SOL    HW124955   2.608   3.102   3.679
 7838SOL    HW224956   2.462   3.054   3.624
 7839SOL     OW24957   2.197   3.297   2.923
 7839SOL    HW124958   2.119   3.266   2.870
 7839SOL    HW224959   2.255   3.355   2.866
 7840SOL     OW24960   3.322   3.367   3.201
 7840SOL    HW124961   3.346   3.461   3.227
 7840SOL    HW224962   3.306   3.313   3.283
 7841SOL     OW24963   2.300   2.254   3.361
 7841SOL    HW124964   2.382   2.198   3.370
 7841SOL    HW224965   2.219   2.196   3.365
 7842SOL     OW24966   3.465   2.309   2.599
 7842SOL    HW124967   3.391   2.355   2.549
 7842SOL    HW224968   3.516   2.377   2.652
 7843SOL     OW24969   2.093   3.575   2.345
 7843SOL    HW124970   2.127   3.652   2.399
 7843SOL    HW224971   2.137   3.575   2.255
 7844SOL     OW24972   2.989   3.203   3.552
 7844SOL    HW124973   3.036   3.203   3.640
 7844SOL    HW224974   2.941   3.116   3.541
 7845SOL     OW24975   2.092   3.296   2.400
 7845SOL    HW124976   2.066   3.392   2.400
 7845SOL    HW224977   2.021   3.242   2.445
 7846SOL     OW24978   2.102   2.953   2.748
 7846SOL    HW124979   2.116   2.869   2.800
 7846SOL    HW224980   2.047   3.017   2.803
 7847SOL     OW24981   2.482   3.648   3.301
 7847SOL    HW124982   2.390   3.631   3.336
 7847SOL    HW224983   2.510   3.740   3.327
 7848SOL     OW24984   2.468   2.826   1.985
 7848SOL    HW124985   2.475   2.910   1.931
 7848SOL    HW224986   2.514   2.839   2.073
 7849SOL     OW24987   3.456   1.976   3.342
 7849SOL    HW124988   3.438   2.043   3.270
 7849SOL    HW224989   3.453   2.022   3.431
 7850SOL     OW24990   1.984   2.505   2.425
 7850SOL    HW124991   1.939   2.417   2.442
 7850SOL    HW224992   1.983   2.559   2.509
 7851SOL     OW24993   3.704   3.629   2.221
 7851SOL    HW124994   3.758   3.600   2.301
 7851SOL    HW224995   3.734   3.719   2.192
 7852SOL     OW24996   1.889   3.458   1.979
 7852SOL    HW124997   1.870   3.362   2.000
 7852SOL    HW224998   1.856   3.516   2.054
 7853SOL     OW24999   3.551   2.784   2.474
 7853SOL    HW125000   3.646   2.755   2.482
 7853SOL    HW225001   3.543   2.849   2.399
 7854SOL     OW25002   3.503   2.970   2.294
 7854SOL    HW125003   3.589   2.972   2.242
 7854SOL    HW225004   3.517   3.017   2.382
 7855SOL     OW25005   1.975   2.599   3.459
 7855SOL    HW125006   2.063   2.586   3.504
 7855SOL    HW225007   1.962   2.696   3.437
 7856SOL     OW25008   2.475   3.227   2.588
 7856SOL    HW125009   2.426   3.140   2.597
 7856SOL    HW225010   2.452   3.270   2.501
 7857SOL     OW25011   3.155   3.090   3.285
 7857SOL    HW125012   3.192   3.017   3.227
 7857SOL    HW225013   3.207   3.095   3.370
 7858SOL     OW25014   2.671   1.866   2.364
 7858SOL    HW125015   2.711   1.957   2.355
 7858SOL    HW225016   2.571   1.874   2.370
 7859SOL     OW25017   2.059   2.838   3.126
 7859SOL    HW125018   2.148   2.793   3.112
 7859SOL    HW225019   1.986   2.773   3.107
 7860SOL     OW25020   3.387   2.861   2.052
 7860SOL    HW125021   3.324   2.785   2.065
 7860SOL    HW225022   3.435   2.879   2.138
 7861SOL     OW25023   2.179   2.113   3.663
 7861SOL    HW125024   2.250   2.184   3.669
 7861SOL    HW225025   2.091   2.152   3.691
 7862SOL     OW25026   3.328   3.279   2.815
 7862SOL    HW125027   3.269   3.285   2.895
 7862SOL    HW225028   3.313   3.191   2.769
 7863SOL     OW25029   3.529   3.576   2.434
 7863SOL    HW125030   3.488   3.553   2.346
 7863SOL    HW225031   3.511   3.502   2.499
 7864SOL     OW25032   2.460   2.591   2.132
 7864SOL    HW125033   2.484   2.660   2.064
 7864SOL    HW225034   2.382   2.624   2.186
 7865SOL     OW25035   3.143   2.207   2.806
 7865SOL    HW125036   3.057   2.157   2.793
 7865SOL    HW225037   3.205   2.153   2.862
 7866SOL     OW25038   3.438   3.524   2.169
 7866SOL    HW125039   3.527   3.570   2.172
 7866SOL    HW225040   3.417   3.500   2.074
 7867SOL     OW25041   2.669   2.467   3.327
 7867SOL    HW125042   2.622   2.464   3.416
 7867SOL    HW225043   2.618   2.412   3.261
 7868SOL     OW25044   3.256   2.331   3.536
 7868SOL    HW125045   3.236   2.374   3.624
 7868SOL    HW225046   3.334   2.269   3.545
 7869SOL     OW25047   2.835   2.752   3.434
 7869SOL    HW125048   2.881   2.668   3.405
 7869SOL    HW225049   2.779   2.786   3.359
 7870SOL     OW25050   2.853   2.272   3.104
 7870SOL    HW125051   2.776   2.306   3.158
 7870SOL    HW225052   2.819   2.221   3.025
 7871SOL     OW25053   2.903   2.563   2.291
 7871SOL    HW125054   2.929   2.559   2.387
 7871SOL    HW225055   2.818   2.512   2.277
 7872SOL     OW25056   1.938   2.673   2.651
 7872SOL    HW125057   2.037   2.661   2.660
 7872SOL    HW225058   1.914   2.768   2.672
 7873SOL     OW25059   1.992   3.683   3.433
 7873SOL    HW125060   1.982   3.668   3.532
 7873SOL    HW225061   1.906   3.719   3.397
 7874SOL     OW25062   2.727   2.210   2.057
 7874SOL    HW125063   2.786   2.273   2.008
 7874SOL    HW225064   2.746   2.116   2.028
 7875SOL     OW25065   3.581   2.447   3.693
 7875SOL    HW125066   3.555   2.536   3.657
 7875SOL    HW225067   3.579   2.379   3.620
 7876SOL     OW25068   3.224   3.006   2.407
 7876SOL    HW125069   3.307   2.977   2.359
 7876SOL    HW225070   3.175   3.073   2.351
 7877SOL     OW25071   2.412   2.058   2.747
 7877SOL    HW125072   2.407   2.053   2.847
 7877SOL    HW225073   2.414   2.154   2.718
 7878SOL     OW25074   2.870   3.318   2.339
 7878SOL    HW125075   2.824   3.390   2.287
 7878SOL    HW225076   2.866   3.338   2.437
 7879SOL     OW25077   2.213   3.663   2.715
 7879SOL    HW125078   2.263   3.577   2.721
 7879SOL    HW225079   2.278   3.740   2.712
 7880SOL     OW25080   3.657   2.928   2.735
 7880SOL    HW125081   3.595   2.913   2.659
 7880SOL    HW225082   3.605   2.939   2.820
 7881SOL     OW25083   3.089   3.412   3.368
 7881SOL    HW125084   3.095   3.335   3.432
 7881SOL    HW225085   3.037   3.386   3.288
 7882SOL     OW25086   2.183   2.805   2.104
 7882SOL    HW125087   2.265   2.844   2.062
 7882SOL    HW225088   2.156   2.723   2.055
 7883SOL     OW25089   3.320   2.597   2.590
 7883SOL    HW125090   3.315   2.532   2.665
 7883SOL    HW225091   3.400   2.656   2.603
 7884SOL     OW25092   2.323   3.128   3.589
 7884SOL    HW125093   2.273   3.129   3.503
 7884SOL    HW225094   2.260   3.110   3.665
 7885SOL     OW25095   2.973   3.638   2.099
 7885SOL    HW125096   2.913   3.576   2.149
 7885SOL    HW225097   3.004   3.594   2.014
 7886SOL     OW25098   2.064   2.147   3.360
 7886SOL    HW125099   1.984   2.207   3.347
 7886SOL    HW225100   2.054   2.098   3.446
 7887SOL     OW25101   3.494   3.239   1.943
 7887SOL    HW125102   3.462   3.333   1.933
 7887SOL    HW225103   3.418   3.176   1.931
 7888SOL     OW25104   2.326   3.605   2.185
 7888SOL    HW125105   2.359   3.644   2.271
 7888SOL    HW225106   2.402   3.598   2.120
 7889SOL     OW25107   3.262   1.969   2.288
 7889SOL    HW125108   3.238   1.932   2.198
 7889SOL    HW225109   3.361   1.985   2.292
 7890SOL     OW25110   2.111   3.647   3.103
 7890SOL    HW125111   2.168   3.582   3.153
 7890SOL    HW225112   2.095   3.614   3.010
 7891SOL     OW25113   2.802   3.560   2.766
 7891SOL    HW125114   2.882   3.503   2.787
 7891SOL    HW225115   2.753   3.520   2.689
 7892SOL     OW25116   2.244   2.562   2.342
 7892SOL    HW125117   2.289   2.472   2.339
 7892SOL    HW225118   2.150   2.551   2.375
 7893SOL     OW25119   3.409   2.084   3.591
 7893SOL    HW125120   3.404   2.121   3.683
 7893SOL    HW225121   3.337   2.015   3.579
 7894SOL     OW25122   2.476   1.984   1.979
 7894SOL    HW125123   2.574   1.962   1.986
 7894SOL    HW225124   2.445   1.967   1.886
 7895SOL     OW25125   2.643   2.126   3.611
 7895SOL    HW125126   2.710   2.065   3.654
 7895SOL    HW225127   2.570   2.145   3.676
 7896SOL     OW25128   2.750   3.376   3.057
 7896SOL    HW125129   2.727   3.351   2.963
 7896SOL    HW225130   2.811   3.307   3.096
 7897SOL     OW25131   3.213   2.452   3.295
 7897SOL    HW125132   3.241   2.409   3.380
 7897SOL    HW225133   3.238   2.548   3.296
 7898SOL     OW25134   2.665   3.264   2.786
 7898SOL    HW125135   2.755   3.278   2.744
 7898SOL    HW225136   2.594   3.266   2.715
 7899SOL     OW25137   2.784   2.365   2.761
 7899SOL    HW125138   2.759   2.356   2.665
 7899SOL    HW225139   2.832   2.283   2.792
 7900SOL     OW25140   2.401   1.926   2.374
 7900SOL    HW125141   2.320   1.927   2.432
 7900SOL    HW225142   2.404   2.009   2.319
 7901SOL     OW25143   3.296   3.050   1.903
 7901SOL    HW125144   3.328   2.974   1.960
 7901SOL    HW225145   3.204   3.077   1.933
 7902SOL     OW25146   2.159   1.897   2.033
 7902SOL    HW125147   2.208   1.981   2.012
 7902SOL    HW225148   2.221   1.832   2.078
 7903SOL     OW25149   2.797   2.098   2.342
 7903SOL    HW125150   2.749   2.139   2.264
 7903SOL    HW225151   2.896   2.096   2.323
 7904SOL     OW25152   2.938   2.545   3.326
 7904SOL    HW125153   2.858   2.484   3.329
 7904SOL    HW225154   3.019   2.492   3.302
 7905SOL     OW25155   3.089   3.432   2.655
 7905SOL    HW125156   3.110   3.506   2.590
 7905SOL    HW225157   3.157   3.432   2.728
 7906SOL     OW25158   2.321   3.014   2.603
 7906SOL    HW125159   2.250   2.987   2.668
 7906SOL    HW225160   2.295   2.986   2.510
 7907SOL     OW25161   3.133   3.659   2.453
 7907SOL    HW125162   3.177   3.723   2.389
 7907SOL    HW225163   3.083   3.711   2.523
 7908SOL     OW25164   2.894   2.411   1.878
 7908SOL    HW125165   2.853   2.493   1.839
 7908SOL    HW225166   2.958   2.437   1.951
 7909SOL     OW25167   1.940   2.418   3.248
 7909SOL    HW125168   2.032   2.417   3.207
 7909SOL    HW225169   1.934   2.492   3.315
 7910SOL     OW25170   2.423   2.084   3.009
 7910SOL    HW125171   2.461   2.000   3.046
 7910SOL    HW225172   2.335   2.103   3.053
 7911SOL     OW25173   2.728   2.316   2.504
 7911SOL    HW125174   2.696   2.388   2.442
 7911SOL    HW225175   2.752   2.235   2.451
 7912SOL     OW25176   2.879   1.901   2.615
 7912SOL    HW125177   2.807   1.906   2.546
 7912SOL    HW225178   2.855   1.832   2.684
 7913SOL     OW25179   3.291   3.035   2.729
 7913SOL    HW125180   3.236   2.951   2.722
 7913SOL    HW225181   3.317   3.064   2.637
 7914SOL     OW25182   3.328   2.452   2.854
 7914SOL    HW125183   3.298   2.357   2.861
 7914SOL    HW225184   3.401   2.468   2.920
 7915SOL     OW25185   3.719   2.695   2.239
 7915SOL    HW125186   3.761   2.631   2.303
 7915SOL    HW225187   3.681   2.644   2.161
 7916SOL     OW25188   2.350   3.247   2.036
 7916SOL    HW125189   2.263   3.232   2.083
 7916SOL    HW225190   2.333   3.273   1.941
 7917SOL     OW25191   3.252   2.437   1.940
 7917SOL    HW125192   3.198   2.416   2.021
 7917SOL    HW225193   3.343   2.396   1.949
 7918SOL     OW25194   2.389   2.118   2.190
 7918SOL    HW125195   2.416   2.059   2.115
 7918SOL    HW225196   2.389   2.213   2.159
 7919SOL     OW25197   3.616   3.085   3.450
 7919SOL    HW125198   3.707   3.046   3.437
 7919SOL    HW225199   3.624   3.181   3.474
 7920SOL     OW25200   2.926   3.209   3.202
 7920SOL    HW125201   2.846   3.186   3.257
 7920SOL    HW225202   3.009   3.183   3.251
 7921SOL     OW25203   2.973   3.057   2.962
 7921SOL    HW125204   2.933   3.101   3.043
 7921SOL    HW225205   2.932   3.094   2.879
 7922SOL     OW25206   3.500   2.961   2.941
 7922SOL    HW125207   3.505   3.042   3.000
 7922SOL    HW225208   3.414   2.963   2.890
 7923SOL     OW25209   2.777   1.951   3.264
 7923SOL    HW125210   2.802   1.931   3.169
 7923SOL    HW225211   2.849   2.007   3.306
 7924SOL     OW25212   2.842   2.978   3.581
 7924SOL    HW125213   2.743   2.984   3.591
 7924SOL    HW225214   2.865   2.898   3.525
 7925SOL     OW25215   2.567   2.912   2.230
 7925SOL    HW125216   2.553   2.919   2.329
 7925SOL    HW225217   2.651   2.861   2.212
 7926SOL     OW25218   2.272   2.675   3.113
 7926SOL    HW125219   2.358   2.687   3.163
 7926SOL    HW225220   2.230   2.588   3.140
 7927SOL     OW25221   3.136   2.248   3.124
 7927SOL    HW125222   3.157   2.322   3.188
 7927SOL    HW225223   3.047   2.265   3.081
 7928SOL     OW25224   1.926   3.426   3.193
 7928SOL    HW125225   1.880   3.508   3.159
 7928SOL    HW225226   2.024   3.445   3.202
 7929SOL     OW25227   2.229   2.962   2.363
 7929SOL    HW125228   2.222   3.045   2.307
 7929SOL    HW225229   2.233   2.882   2.303
 7930SOL     OW25230   2.428   2.399   2.727
 7930SOL    HW125231   2.440   2.465   2.653
 7930SOL    HW225232   2.474   2.433   2.810
 7931SOL     OW25233   3.114   3.210   2.250
 7931SOL    HW125234   3.164   3.287   2.290
 7931SOL    HW225235   3.019   3.212   2.282
 7932SOL     OW25236   3.134   3.307   3.004
 7932SOL    HW125237   3.181   3.320   3.091
 7932SOL    HW225238   3.068   3.233   3.013
 7933SOL     OW25239   3.444   2.501   2.334
 7933SOL    HW125240   3.413   2.562   2.407
 7933SOL    HW225241   3.494   2.553   2.265
 7934SOL     OW25242   2.216   3.372   3.191
 7934SOL    HW125243   2.195   3.328   3.104
 7934SOL    HW225244   2.313   3.398   3.194
 7935SOL     OW25245   2.264   2.613   3.460
 7935SOL    HW125246   2.332   2.668   3.413
 7935SOL    HW225247   2.304   2.525   3.487
 7936SOL     OW25248   3.449   2.641   3.532
 7936SOL    HW125249   3.357   2.679   3.527
 7936SOL    HW225250   3.509   2.688   3.467
 7937SOL     OW25251   2.875   1.967   3.632
 7937SOL    HW125252   2.881   2.052   3.580
 7937SOL    HW225253   2.907   1.891   3.575
 7938SOL     OW25254   2.366   1.912   3.602
 7938SOL    HW125255   2.324   1.855   3.532
 7938SOL    HW225256   2.300   1.981   3.634
 7939SOL     OW25257   2.435   2.732   2.891
 7939SOL    HW125258   2.479   2.821   2.882
 7939SOL    HW225259   2.372   2.732   2.968
 7940SOL     OW25260   3.222   2.724   2.907
 7940SOL    HW125261   3.147   2.724   2.841
 7940SOL    HW225262   3.259   2.632   2.916
 7941SOL     OW25263   3.071   2.387   2.137
 7941SOL    HW125264   3.084   2.303   2.191
 7941SOL    HW225265   3.042   2.461   2.197
 7942SOL     OW25266   2.169   2.075   3.093
 7942SOL    HW125267   2.146   2.112   3.183
 7942SOL    HW225268   2.139   1.980   3.087
 7943SOL     OW25269   1.899   3.172   3.144
 7943SOL    HW125270   1.952   3.123   3.212
 7943SOL    HW225271   1.921   3.270   3.149
 7944SOL     OW25272   2.594   2.496   2.926
 7944SOL    HW125273   2.653   2.470   2.850
 7944SOL    HW225274   2.566   2.592   2.915
 7945SOL     OW25275   3.590   2.797   3.716
 7945SOL    HW125276   3.544   2.790   3.627
 7945SOL    HW225277   3.528   2.841   3.782
 7946SOL     OW25278   2.169   1.925   2.480
 7946SOL    HW125279   2.158   2.019   2.513
 7946SOL    HW225280   2.164   1.862   2.557
 7947SOL     OW25281   3.484   2.229   2.236
 7947SOL    HW125282   3.486   2.153   2.300
 7947SOL    HW225283   3.436   2.306   2.276
 7948SOL     OW25284   2.885   2.628   2.828
 7948SOL    HW125285   2.900   2.649   2.924
 7948SOL    HW225286   2.855   2.533   2.819
 7949SOL     OW25287   2.842   3.435   3.562
 7949SOL    HW125288   2.822   3.479   3.474
 7949SOL    HW225289   2.881   3.344   3.546
 7950SOL     OW25290   2.212   2.760   3.666
 7950SOL    HW125291   2.288   2.804   3.714
 7950SOL    HW225292   2.247   2.713   3.584
 7951SOL     OW25293   3.402   2.136   1.987
 7951SOL    HW125294   3.341   2.061   2.010
 7951SOL    HW225295   3.424   2.188   2.070
 7952SOL     OW25296   3.165   2.700   1.904
 7952SOL    HW125297   3.199   2.607   1.919
 7952SOL    HW225298   3.183   2.727   1.809
 7953SOL     OW25299   2.930   3.195   2.711
 7953SOL    HW125300   2.937   3.111   2.656
 7953SOL    HW225301   2.992   3.264   2.675
 7954SOL     OW25302   2.181   2.672   2.811
 7954SOL    HW125303   2.274   2.708   2.816
 7954SOL    HW225304   2.175   2.587   2.863
 7955SOL     OW25305   2.201   2.371   2.868
 7955SOL    HW125306   2.149   2.288   2.851
 7955SOL    HW225307   2.278   2.376   2.804
 7956SOL     OW25308   3.000   2.242   3.540
 7956SOL    HW125309   2.955   2.305   3.604
 7956SOL    HW225310   3.093   2.273   3.523
 7957SOL     OW25311   3.022   2.069   3.339
 7957SOL    HW125312   3.022   2.133   3.416
 7957SOL    HW225313   3.050   2.117   3.256
 7958SOL     OW25314   1.870   3.188   2.062
 7958SOL    HW125315   1.777   3.209   2.031
 7958SOL    HW225316   1.880   3.089   2.075
 7959SOL     OW25317   1.950   3.663   2.789
 7959SOL    HW125318   1.908   3.577   2.762
 7959SOL    HW225319   2.044   3.666   2.755
 7960SOL     OW25320   2.366   3.430   2.772
 7960SOL    HW125321   2.432   3.504   2.781
 7960SOL    HW225322   2.410   3.351   2.730
 7961SOL     OW25323   2.864   2.658   3.100
 7961SOL    HW125324   2.905   2.626   3.186
 7961SOL    HW225325   2.768   2.631   3.097
 7962SOL     OW25326   1.902   2.406   2.976
 7962SOL    HW125327   1.987   2.373   2.935
 7962SOL    HW225328   1.915   2.421   3.074
 7963SOL     OW25329   2.051   2.382   3.584
 7963SOL    HW125330   2.110   2.342   3.514
 7963SOL    HW225331   1.993   2.453   3.543
 7964SOL     OW25332   3.231   2.812   3.522
 7964SOL    HW125333   3.270   2.901   3.542
 7964SOL    HW225334   3.241   2.792   3.425
 7965SOL     OW25335   2.677   2.434   2.187
 7965SOL    HW125336   2.684   2.345   2.141
 7965SOL    HW225337   2.583   2.468   2.179
 7966SOL     OW25338   3.519   2.466   3.068
 7966SOL    HW125339   3.481   2.397   3.130
 7966SOL    HW225340   3.601   2.430   3.024
 7967SOL     OW25341   2.114   3.426   3.606
 7967SOL    HW125342   2.084   3.483   3.682
 7967SOL    HW225343   2.107   3.329   3.632
 7968SOL     OW25344   2.533   2.326   3.131
 7968SOL    HW125345   2.499   2.237   3.101
 7968SOL    HW225346   2.559   2.380   3.051
 7969SOL     OW25347   2.792   3.540   3.327
 7969SOL    HW125348   2.768   3.522   3.232
 7969SOL    HW225349   2.822   3.634   3.337
 7970SOL     OW25350   2.335   2.362   2.053
 7970SOL    HW125351   2.396   2.442   2.057
 7970SOL    HW225352   2.240   2.393   2.060
 7971SOL     OW25353   2.021   2.999   3.328
 7971SOL    HW125354   2.043   2.938   3.404
 7971SOL    HW225355   2.031   2.950   3.242
 7972SOL     OW25356   3.209   2.921   3.096
 7972SOL    HW125357   3.233   2.858   3.022
 7972SOL    HW225358   3.119   2.961   3.078
 7973SOL     OW25359   3.164   2.717   2.171
 7973SOL    HW125360   3.078   2.686   2.213
 7973SOL    HW225361   3.160   2.703   2.072
 7974SOL     OW25362   3.114   3.593   2.990
 7974SOL    HW125363   3.198   3.598   2.936
 7974SOL    HW225364   3.091   3.497   3.008
 7975SOL     OW25365   1.945   3.120   2.884
 7975SOL    HW125366   1.940   3.119   2.984
 7975SOL    HW225367   1.862   3.079   2.846
 7976SOL     OW25368   2.550   3.524   3.578
 7976SOL    HW125369   2.494   3.605   3.587
 7976SOL    HW225370   2.602   3.528   3.492
 7977SOL     OW25371   3.588   1.997   2.385
 7977SOL    HW125372   3.661   1.980   2.318
 7977SOL    HW225373   3.557   1.910   2.423
 7978SOL     OW25374   3.250   3.435   2.339
 7978SOL    HW125375   3.317   3.447   2.265
 7978SOL    HW225376   3.210   3.524   2.362
 7979SOL     OW25377   1.992   3.656   3.713
 7979SOL    HW125378   1.951   3.582   3.766
 7979SOL    HW225379   2.056   3.707   3.771
 7980SOL     OW25380   3.142   2.789   2.534
 7980SOL    HW125381   3.202   2.708   2.536
 7980SOL    HW225382   3.182   2.858   2.474
 7981SOL     OW25383   2.692   3.135   3.284
 7981SOL    HW125384   2.687   3.168   3.379
 7981SOL    HW225385   2.606   3.154   3.238
 7982SOL     OW25386   2.534   3.478   2.016
 7982SOL    HW125387   2.543   3.488   1.917
 7982SOL    HW225388   2.494   3.389   2.037
 7983SOL     OW25389   3.703   2.037   2.825
 7983SOL    HW125390   3.742   1.952   2.789
 7983SOL    HW225391   3.605   2.039   2.806
 7984SOL     OW25392   2.125   2.188   2.582
 7984SOL    HW125393   2.046   2.239   2.548
 7984SOL    HW225394   2.116   2.173   2.680
 7985SOL     OW25395   3.056   3.474   1.893
 7985SOL    HW125396   3.062   3.381   1.930
 7985SOL    HW225397   2.997   3.474   1.813
 7986SOL     OW25398   2.684   2.864   3.234
 7986SOL    HW125399   2.724   2.863   3.142
 7986SOL    HW225400   2.694   2.956   3.274
 7987SOL     OW25401   2.778   2.772   2.153
 7987SOL    HW125402   2.841   2.810   2.085
 7987SOL    HW225403   2.818   2.689   2.192
 7988SOL     OW25404   3.366   3.469   1.906
 7988SOL    HW125405   3.274   3.506   1.913
 7988SOL    HW225406   3.404   3.489   1.816
 7989SOL     OW25407   2.234   3.150   3.352
 7989SOL    HW125408   2.221   3.243   3.318
 7989SOL    HW225409   2.150   3.098   3.339
 7990SOL     OW25410   3.476   3.154   3.151
 7990SOL    HW125411   3.536   3.157   3.231
 7990SOL    HW225412   3.401   3.218   3.164
 7991SOL     OW25413   2.901   2.960   2.558
 7991SOL    HW125414   2.831   2.913   2.612
 7991SOL    HW225415   2.960   2.892   2.515
 7992SOL     OW25416   2.876   2.098   2.833
 7992SOL    HW125417   2.868   2.062   2.740
 7992SOL    HW225418   2.874   2.022   2.898
 7993SOL     OW25419   2.452   3.349   2.353
 7993SOL    HW125420   2.494   3.291   2.283
 7993SOL    HW225421   2.408   3.428   2.309
 7994SOL     OW25422   3.571   2.247   3.243
 7994SOL    HW125423   3.644   2.316   3.247
 7994SOL    HW225424   3.599   2.172   3.184
 7995SOL     OW25425   2.117   3.210   2.152
 7995SOL    HW125426   2.021   3.211   2.125
 7995SOL    HW225427   2.129   3.263   2.236
 7996SOL     OW25428   1.967   2.875   3.588
 7996SOL    HW125429   1.890   2.842   3.642
 7996SOL    HW225430   2.052   2.845   3.630
 7997SOL     OW25431   2.534   2.065   3.351
 7997SOL    HW125432   2.624   2.049   3.311
 7997SOL    HW225433   2.542   2.070   3.450
 7998SOL     OW25434   1.937   2.207   1.895
 7998SOL    HW125435   1.845   2.179   1.866
 7998SOL    HW225436   1.968   2.284   1.839
 7999SOL     OW25437   3.302   2.718   3.260
 7999SOL    HW125438   3.245   2.770   3.197
 7999SOL    HW225439   3.398   2.730   3.236
 8000SOL     OW25440   1.934   2.028   2.180
 8000SOL    HW125441   1.917   2.111   2.126
 8000SOL    HW225442   2.024   1.991   2.158
 8001SOL     OW25443   3.045   3.197   1.981
 8001SOL    HW125444   2.946   3.186   1.983
 8001SOL    HW225445   3.079   3.212   2.074
 8002SOL     OW25446   2.475   2.704   3.293
 8002SOL    HW125447   2.531   2.785   3.276
 8002SOL    HW225448   2.534   2.624   3.296
 8003SOL     OW25449   2.578   2.427   3.570
 8003SOL    HW125450   2.597   2.492   3.644
 8003SOL    HW225451   2.638   2.347   3.579
 8004SOL     OW25452   3.312   3.082   3.495
 8004SOL    HW125453   3.303   3.072   3.594
 8004SOL    HW225454   3.408   3.075   3.469
 8005SOL     OW25455   2.252   3.603   3.422
 8005SOL    HW125456   2.161   3.644   3.420
 8005SOL    HW225457   2.245   3.509   3.454
 8006SOL     OW25458   3.536   2.745   3.116
 8006SOL    HW125459   3.509   2.656   3.079
 8006SOL    HW225460   3.537   2.813   3.043
 8007SOL     OW25461   3.087   2.187   2.311
 8007SOL    HW125462   3.152   2.113   2.300
 8007SOL    HW225463   3.107   2.237   2.395
 8008SOL     OW25464   2.456   2.607   2.514
 8008SOL    HW125465   2.506   2.692   2.495
 8008SOL    HW225466   2.368   2.609   2.466
 8009SOL     OW25467   3.639   2.204   3.504
 8009SOL    HW125468   3.622   2.235   3.410
 8009SOL    HW225469   3.555   2.167   3.542
 8010SOL     OW25470   3.592   2.796   3.379
 8010SOL    HW125471   3.630   2.887   3.394
 8010SOL    HW225472   3.584   2.779   3.280
 8011SOL     OW25473   2.721   3.236   1.878
 8011SOL    HW125474   2.675   3.251   1.966
 8011SOL    HW225475   2.765   3.321   1.848
 8012SOL     OW25476   2.523   3.652   2.815
 8012SOL    HW125477   2.477   3.740   2.802
 8012SOL    HW225478   2.622   3.664   2.808
 8013SOL     OW25479   2.721   2.818   2.723
 8013SOL    HW125480   2.775   2.749   2.771
 8013SOL    HW225481   2.689   2.887   2.789
 8014SOL     OW25482   2.945   2.846   1.949
 8014SOL    HW125483   2.922   2.899   1.867
 8014SOL    HW225484   3.026   2.790   1.930
 8015SOL     OW25485   2.083   3.176   3.706
 8015SOL    HW125486   2.018   3.103   3.685
 8015SOL    HW225487   2.087   3.190   3.804
 8016SOL     OW25488   1.941   3.102   2.515
 8016SOL    HW125489   1.940   3.055   2.603
 8016SOL    HW225490   2.023   3.074   2.464
 8017SOL     OW25491   2.534   3.253   3.486
 8017SOL    HW125492   2.456   3.203   3.524
 8017SOL    HW225493   2.531   3.348   3.517
 8018SOL     OW25494   3.686   2.054   3.089
 8018SOL    HW125495   3.682   1.964   3.133
 8018SOL    HW225496   3.689   2.043   2.990
 8019SOL     OW25497   2.290   2.286   2.382
 8019SOL    HW125498   2.320   2.214   2.320
 8019SOL    HW225499   2.251   2.246   2.465
 8020SOL     OW25500   2.179   2.409   3.142
 8020SOL    HW125501   2.217   2.350   3.214
 8020SOL    HW225502   2.219   2.383   3.054
 8021SOL     OW25503   2.674   3.448   2.549
 8021SOL    HW125504   2.706   3.458   2.455
 8021SOL    HW225505   2.595   3.386   2.551
 8022SOL     OW25506   3.286   2.076   2.974
 8022SOL    HW125507   3.338   2.011   3.029
 8022SOL    HW225508   3.237   2.139   3.035
 8023SOL     OW25509   2.863   1.896   3.016
 8023SOL    HW125510   2.800   1.824   2.985
 8023SOL    HW225511   2.956   1.860   3.016
 8024SOL     OW25512   2.632   3.192   2.163
 8024SOL    HW125513   2.586   3.105   2.180
 8024SOL    HW225514   2.723   3.189   2.204
 8025SOL     OW25515   2.480   3.429   3.146
 8025SOL    HW125516   2.475   3.511   3.203
 8025SOL    HW225517   2.569   3.426   3.101
 8026SOL     OW25518   3.214   1.914   2.030
 8026SOL    HW125519   3.249   1.873   1.946
 8026SOL    HW225520   3.124   1.876   2.050
 8027SOL     OW25521   3.162   2.315   2.553
 8027SOL    HW125522   3.103   2.395   2.557
 8027SOL    HW225523   3.177   2.280   2.646
 8028SOL     OW25524   3.455   2.083   2.744
 8028SOL    HW125525   3.371   2.082   2.798
 8028SOL    HW225526   3.457   2.166   2.688
 8029SOL     OW25527   1.901   2.939   2.162
 8029SOL    HW125528   2.000   2.928   2.153
 8029SOL    HW225529   1.861   2.853   2.194
 8030SOL     OW25530   2.737   3.508   2.199
 8030SOL    HW125531   2.660   3.473   2.145
 8030SOL    HW225532   2.705   3.579   2.261
 8031SOL     OW25533   2.092   2.490   3.837
 8031SOL    HW125534   1.999   2.488   3.874
 8031SOL    HW225535   2.093   2.451   3.745
 8032SOL     OW25536   2.087   2.137   4.720
 8032SOL    HW125537   2.122   2.120   4.812
 8032SOL    HW225538   1.999   2.092   4.708
 8033SOL     OW25539   1.881   2.230   4.371
 8033SOL    HW125540   1.799   2.273   4.410
 8033SOL    HW225541   1.853   2.157   4.308
 8034SOL     OW25542   2.431   3.137   4.889
 8034SOL    HW125543   2.338   3.130   4.852
 8034SOL    HW225544   2.442   3.226   4.933
 8035SOL     OW25545   3.417   3.373   4.427
 8035SOL    HW125546   3.360   3.357   4.508
 8035SOL    HW225547   3.358   3.383   4.347
 8036SOL     OW25548   2.997   2.565   4.441
 8036SOL    HW125549   3.054   2.643   4.416
 8036SOL    HW225550   2.937   2.591   4.517
 8037SOL     OW25551   3.617   2.469   3.955
 8037SOL    HW125552   3.605   2.456   3.856
 8037SOL    HW225553   3.587   2.388   4.004
 8038SOL     OW25554   2.630   3.006   4.747
 8038SOL    HW125555   2.552   3.023   4.807
 8038SOL    HW225556   2.664   3.093   4.711
 8039SOL     OW25557   2.712   2.660   5.547
 8039SOL    HW125558   2.708   2.736   5.612
 8039SOL    HW225559   2.734   2.696   5.456
 8040SOL     OW25560   2.547   2.874   4.389
 8040SOL    HW125561   2.616   2.858   4.459
 8040SOL    HW225562   2.474   2.931   4.427
 8041SOL     OW25563   2.548   3.023   5.527
 8041SOL    HW125564   2.608   3.102   5.541
 8041SOL    HW225565   2.462   3.054   5.486
 8042SOL     OW25566   2.197   3.297   4.785
 8042SOL    HW125567   2.119   3.266   4.732
 8042SOL    HW225568   2.255   3.355   4.728
 8043SOL     OW25569   2.300   2.254   5.223
 8043SOL    HW125570   2.382   2.198   5.232
 8043SOL    HW225571   2.219   2.196   5.227
 8044SOL     OW25572   3.465   2.309   4.461
 8044SOL    HW125573   3.391   2.355   4.411
 8044SOL    HW225574   3.516   2.377   4.514
 8045SOL     OW25575   2.093   3.575   4.207
 8045SOL    HW125576   2.127   3.652   4.261
 8045SOL    HW225577   2.137   3.575   4.117
 8046SOL     OW25578   2.989   3.203   5.414
 8046SOL    HW125579   3.036   3.203   5.502
 8046SOL    HW225580   2.941   3.116   5.403
 8047SOL     OW25581   2.092   3.296   4.262
 8047SOL    HW125582   2.066   3.392   4.262
 8047SOL    HW225583   2.021   3.242   4.307
 8048SOL     OW25584   2.102   2.953   4.610
 8048SOL    HW125585   2.116   2.869   4.662
 8048SOL    HW225586   2.047   3.017   4.665
 8049SOL     OW25587   2.482   3.648   5.163
 8049SOL    HW125588   2.390   3.631   5.198
 8049SOL    HW225589   2.510   3.740   5.189
 8050SOL     OW25590   2.468   2.826   3.847
 8050SOL    HW125591   2.475   2.910   3.793
 8050SOL    HW225592   2.514   2.839   3.935
 8051SOL     OW25593   3.456   1.976   5.204
 8051SOL    HW125594   3.438   2.043   5.132
 8051SOL    HW225595   3.453   2.022   5.293
 8052SOL     OW25596   1.984   2.505   4.287
 8052SOL    HW125597   1.939   2.417   4.304
 8052SOL    HW225598   1.983   2.559   4.371
 8053SOL     OW25599   3.704   3.629   4.083
 8053SOL    HW125600   3.758   3.600   4.163
 8053SOL    HW225601   3.734   3.719   4.054
 8054SOL     OW25602   1.889   3.458   3.841
 8054SOL    HW125603   1.870   3.362   3.862
 8054SOL    HW225604   1.856   3.516   3.916
 8055SOL     OW25605   3.551   2.784   4.336
 8055SOL    HW125606   3.646   2.755   4.344
 8055SOL    HW225607   3.543   2.849   4.261
 8056SOL     OW25608   1.975   2.599   5.321
 8056SOL    HW125609   2.063   2.586   5.366
 8056SOL    HW225610   1.962   2.696   5.299
 8057SOL     OW25611   2.475   3.227   4.450
 8057SOL    HW125612   2.426   3.140   4.459
 8057SOL    HW225613   2.452   3.270   4.363
 8058SOL     OW25614   3.155   3.090   5.147
 8058SOL    HW125615   3.192   3.017   5.089
 8058SOL    HW225616   3.207   3.095   5.232
 8059SOL     OW25617   2.671   1.866   4.226
 8059SOL    HW125618   2.711   1.957   4.217
 8059SOL    HW225619   2.571   1.874   4.232
 8060SOL     OW25620   2.059   2.838   4.988
 8060SOL    HW125621   2.148   2.793   4.974
 8060SOL    HW225622   1.986   2.773   4.969
 8061SOL     OW25623   3.387   2.861   3.914
 8061SOL    HW125624   3.324   2.785   3.927
 8061SOL    HW225625   3.435   2.879   4.000
 8062SOL     OW25626   2.179   2.113   5.525
 8062SOL    HW125627   2.250   2.184   5.531
 8062SOL    HW225628   2.091   2.152   5.553
 8063SOL     OW25629   3.328   3.279   4.677
 8063SOL    HW125630   3.269   3.285   4.757
 8063SOL    HW225631   3.313   3.191   4.631
 8064SOL     OW25632   3.529   3.576   4.296
 8064SOL    HW125633   3.488   3.553   4.208
 8064SOL    HW225634   3.511   3.502   4.361
 8065SOL     OW25635   2.460   2.591   3.994
 8065SOL    HW125636   2.484   2.660   3.926
 8065SOL    HW225637   2.382   2.624   4.048
 8066SOL     OW25638   3.143   2.207   4.668
 8066SOL    HW125639   3.057   2.157   4.655
 8066SOL    HW225640   3.205   2.153   4.724
 8067SOL     OW25641   3.438   3.524   4.031
 8067SOL    HW125642   3.527   3.570   4.034
 8067SOL    HW225643   3.417   3.500   3.936
 8068SOL     OW25644   2.669   2.467   5.189
 8068SOL    HW125645   2.622   2.464   5.278
 8068SOL    HW225646   2.618   2.412   5.123
 8069SOL     OW25647   3.256   2.331   5.398
 8069SOL    HW125648   3.236   2.374   5.486
 8069SOL    HW225649   3.334   2.269   5.407
 8070SOL     OW25650   2.835   2.752   5.296
 8070SOL    HW125651   2.881   2.668   5.267
 8070SOL    HW225652   2.779   2.786   5.221
 8071SOL     OW25653   2.853   2.272   4.966
 8071SOL    HW125654   2.776   2.306   5.020
 8071SOL    HW225655   2.819   2.221   4.887
 8072SOL     OW25656   2.903   2.563   4.153
 8072SOL    HW125657   2.929   2.559   4.249
 8072SOL    HW225658   2.818   2.512   4.139
 8073SOL     OW25659   1.938   2.673   4.513
 8073SOL    HW125660   2.037   2.661   4.522
 8073SOL    HW225661   1.914   2.768   4.534
 8074SOL     OW25662   1.992   3.683   5.295
 8074SOL    HW125663   1.982   3.668   5.394
 8074SOL    HW225664   1.906   3.719   5.259
 8075SOL     OW25665   2.727   2.210   3.919
 8075SOL    HW125666   2.786   2.273   3.870
 8075SOL    HW225667   2.746   2.116   3.890
 8076SOL     OW25668   3.581   2.447   5.555
 8076SOL    HW125669   3.555   2.536   5.519
 8076SOL    HW225670   3.579   2.379   5.482
 8077SOL     OW25671   3.224   3.006   4.269
 8077SOL    HW125672   3.307   2.977   4.221
 8077SOL    HW225673   3.175   3.073   4.213
 8078SOL     OW25674   2.412   2.058   4.609
 8078SOL    HW125675   2.407   2.053   4.709
 8078SOL    HW225676   2.414   2.154   4.580
 8079SOL     OW25677   2.870   3.318   4.201
 8079SOL    HW125678   2.824   3.390   4.149
 8079SOL    HW225679   2.866   3.338   4.299
 8080SOL     OW25680   2.213   3.663   4.577
 8080SOL    HW125681   2.263   3.577   4.583
 8080SOL    HW225682   2.278   3.740   4.574
 8081SOL     OW25683   3.657   2.928   4.597
 8081SOL    HW125684   3.595   2.913   4.521
 8081SOL    HW225685   3.605   2.939   4.682
 8082SOL     OW25686   2.183   2.805   3.966
 8082SOL    HW125687   2.265   2.844   3.924
 8082SOL    HW225688   2.156   2.723   3.917
 8083SOL     OW25689   3.320   2.597   4.452
 8083SOL    HW125690   3.315   2.532   4.527
 8083SOL    HW225691   3.400   2.656   4.465
 8084SOL     OW25692   2.323   3.128   5.451
 8084SOL    HW125693   2.273   3.129   5.365
 8084SOL    HW225694   2.260   3.110   5.527
 8085SOL     OW25695   2.973   3.638   3.961
 8085SOL    HW125696   2.913   3.576   4.011
 8085SOL    HW225697   3.004   3.594   3.876
 8086SOL     OW25698   2.064   2.147   5.222
 8086SOL    HW125699   1.984   2.207   5.209
 8086SOL    HW225700   2.054   2.098   5.308
 8087SOL     OW25701   2.326   3.605   4.047
 8087SOL    HW125702   2.359   3.644   4.133
 8087SOL    HW225703   2.402   3.598   3.982
 8088SOL     OW25704   3.262   1.969   4.150
 8088SOL    HW125705   3.238   1.932   4.060
 8088SOL    HW225706   3.361   1.985   4.154
 8089SOL     OW25707   2.111   3.647   4.965
 8089SOL    HW125708   2.168   3.582   5.015
 8089SOL    HW225709   2.095   3.614   4.872
 8090SOL     OW25710   2.802   3.560   4.628
 8090SOL    HW125711   2.882   3.503   4.649
 8090SOL    HW225712   2.753   3.520   4.551
 8091SOL     OW25713   2.244   2.562   4.204
 8091SOL    HW125714   2.289   2.472   4.201
 8091SOL    HW225715   2.150   2.551   4.237
 8092SOL     OW25716   3.409   2.084   5.453
 8092SOL    HW125717   3.404   2.121   5.545
 8092SOL    HW225718   3.337   2.015   5.441
 8093SOL     OW25719   2.476   1.984   3.841
 8093SOL    HW125720   2.574   1.962   3.848
 8093SOL    HW225721   2.445   1.967   3.748
 8094SOL     OW25722   2.643   2.126   5.473
 8094SOL    HW125723   2.710   2.065   5.516
 8094SOL    HW225724   2.570   2.145   5.538
 8095SOL     OW25725   2.750   3.376   4.919
 8095SOL    HW125726   2.727   3.351   4.825
 8095SOL    HW225727   2.811   3.307   4.958
 8096SOL     OW25728   3.213   2.452   5.157
 8096SOL    HW125729   3.241   2.409   5.242
 8096SOL    HW225730   3.238   2.548   5.158
 8097SOL     OW25731   2.665   3.264   4.648
 8097SOL    HW125732   2.755   3.278   4.606
 8097SOL    HW225733   2.594   3.266   4.577
 8098SOL     OW25734   2.784   2.365   4.623
 8098SOL    HW125735   2.759   2.356   4.527
 8098SOL    HW225736   2.832   2.283   4.654
 8099SOL     OW25737   2.401   1.926   4.236
 8099SOL    HW125738   2.320   1.927   4.294
 8099SOL    HW225739   2.404   2.009   4.181
 8100SOL     OW25740   3.296   3.050   3.765
 8100SOL    HW125741   3.328   2.974   3.822
 8100SOL    HW225742   3.204   3.077   3.795
 8101SOL     OW25743   2.159   1.897   3.895
 8101SOL    HW125744   2.208   1.981   3.874
 8101SOL    HW225745   2.221   1.832   3.940
 8102SOL     OW25746   2.797   2.098   4.204
 8102SOL    HW125747   2.749   2.139   4.126
 8102SOL    HW225748   2.896   2.096   4.185
 8103SOL     OW25749   2.938   2.545   5.188
 8103SOL    HW125750   2.858   2.484   5.191
 8103SOL    HW225751   3.019   2.492   5.164
 8104SOL     OW25752   3.089   3.432   4.517
 8104SOL    HW125753   3.110   3.506   4.452
 8104SOL    HW225754   3.157   3.432   4.590
 8105SOL     OW25755   2.321   3.014   4.465
 8105SOL    HW125756   2.250   2.987   4.530
 8105SOL    HW225757   2.295   2.986   4.372
 8106SOL     OW25758   3.133   3.659   4.315
 8106SOL    HW125759   3.177   3.723   4.251
 8106SOL    HW225760   3.083   3.711   4.385
 8107SOL     OW25761   2.894   2.411   3.740
 8107SOL    HW125762   2.853   2.493   3.701
 8107SOL    HW225763   2.958   2.437   3.813
 8108SOL     OW25764   1.940   2.418   5.110
 8108SOL    HW125765   2.032   2.417   5.069
 8108SOL    HW225766   1.934   2.492   5.177
 8109SOL     OW25767   2.423   2.084   4.871
 8109SOL    HW125768   2.461   2.000   4.908
 8109SOL    HW225769   2.335   2.103   4.915
 8110SOL     OW25770   2.728   2.316   4.366
 8110SOL    HW125771   2.696   2.388   4.304
 8110SOL    HW225772   2.752   2.235   4.313
 8111SOL     OW25773   2.879   1.901   4.477
 8111SOL    HW125774   2.807   1.906   4.408
 8111SOL    HW225775   2.855   1.832   4.546
 8112SOL     OW25776   3.291   3.035   4.591
 8112SOL    HW125777   3.236   2.951   4.584
 8112SOL    HW225778   3.317   3.064   4.499
 8113SOL     OW25779   3.328   2.452   4.716
 8113SOL    HW125780   3.298   2.357   4.723
 8113SOL    HW225781   3.401   2.468   4.782
 8114SOL     OW25782   3.719   2.695   4.101
 8114SOL    HW125783   3.761   2.631   4.165
 8114SOL    HW225784   3.681   2.644   4.023
 8115SOL     OW25785   2.350   3.247   3.898
 8115SOL    HW125786   2.263   3.232   3.945
 8115SOL    HW225787   2.333   3.273   3.803
 8116SOL     OW25788   3.526   3.142   4.381
 8116SOL    HW125789   3.625   3.150   4.395
 8116SOL    HW225790   3.481   3.226   4.412
 8117SOL     OW25791   3.252   2.437   3.802
 8117SOL    HW125792   3.198   2.416   3.883
 8117SOL    HW225793   3.343   2.396   3.811
 8118SOL     OW25794   2.389   2.118   4.052
 8118SOL    HW125795   2.416   2.059   3.977
 8118SOL    HW225796   2.389   2.213   4.021
 8119SOL     OW25797   2.926   3.209   5.064
 8119SOL    HW125798   2.846   3.186   5.119
 8119SOL    HW225799   3.009   3.183   5.113
 8120SOL     OW25800   2.973   3.057   4.824
 8120SOL    HW125801   2.933   3.101   4.905
 8120SOL    HW225802   2.932   3.094   4.741
 8121SOL     OW25803   3.500   2.961   4.803
 8121SOL    HW125804   3.505   3.042   4.862
 8121SOL    HW225805   3.414   2.963   4.752
 8122SOL     OW25806   2.777   1.951   5.126
 8122SOL    HW125807   2.802   1.931   5.031
 8122SOL    HW225808   2.849   2.007   5.168
 8123SOL     OW25809   2.842   2.978   5.443
 8123SOL    HW125810   2.743   2.984   5.453
 8123SOL    HW225811   2.865   2.898   5.387
 8124SOL     OW25812   2.567   2.912   4.092
 8124SOL    HW125813   2.553   2.919   4.191
 8124SOL    HW225814   2.651   2.861   4.074
 8125SOL     OW25815   2.272   2.675   4.975
 8125SOL    HW125816   2.358   2.687   5.025
 8125SOL    HW225817   2.230   2.588   5.002
 8126SOL     OW25818   3.136   2.248   4.986
 8126SOL    HW125819   3.157   2.322   5.050
 8126SOL    HW225820   3.047   2.265   4.943
 8127SOL     OW25821   1.926   3.426   5.055
 8127SOL    HW125822   1.880   3.508   5.021
 8127SOL    HW225823   2.024   3.445   5.064
 8128SOL     OW25824   2.229   2.962   4.225
 8128SOL    HW125825   2.222   3.045   4.169
 8128SOL    HW225826   2.233   2.882   4.165
 8129SOL     OW25827   2.428   2.399   4.589
 8129SOL    HW125828   2.440   2.465   4.515
 8129SOL    HW225829   2.474   2.433   4.672
 8130SOL     OW25830   3.114   3.210   4.112
 8130SOL    HW125831   3.164   3.287   4.152
 8130SOL    HW225832   3.019   3.212   4.144
 8131SOL     OW25833   3.134   3.307   4.866
 8131SOL    HW125834   3.181   3.320   4.953
 8131SOL    HW225835   3.068   3.233   4.875
 8132SOL     OW25836   3.444   2.501   4.196
 8132SOL    HW125837   3.413   2.562   4.269
 8132SOL    HW225838   3.494   2.553   4.127
 8133SOL     OW25839   2.216   3.372   5.053
 8133SOL    HW125840   2.195   3.328   4.966
 8133SOL    HW225841   2.313   3.398   5.056
 8134SOL     OW25842   2.264   2.613   5.322
 8134SOL    HW125843   2.332   2.668   5.275
 8134SOL    HW225844   2.304   2.525   5.349
 8135SOL     OW25845   3.449   2.641   5.394
 8135SOL    HW125846   3.357   2.679   5.389
 8135SOL    HW225847   3.509   2.688   5.329
 8136SOL     OW25848   2.875   1.967   5.494
 8136SOL    HW125849   2.881   2.052   5.442
 8136SOL    HW225850   2.907   1.891   5.437
 8137SOL     OW25851   2.366   1.912   5.464
 8137SOL    HW125852   2.324   1.855   5.394
 8137SOL    HW225853   2.300   1.981   5.496
 8138SOL     OW25854   2.435   2.732   4.753
 8138SOL    HW125855   2.479   2.821   4.744
 8138SOL    HW225856   2.372   2.732   4.830
 8139SOL     OW25857   3.222   2.724   4.769
 8139SOL    HW125858   3.147   2.724   4.703
 8139SOL    HW225859   3.259   2.632   4.778
 8140SOL     OW25860   3.071   2.387   3.999
 8140SOL    HW125861   3.084   2.303   4.053
 8140SOL    HW225862   3.042   2.461   4.059
 8141SOL     OW25863   2.169   2.075   4.955
 8141SOL    HW125864   2.146   2.112   5.045
 8141SOL    HW225865   2.139   1.980   4.949
 8142SOL     OW25866   1.899   3.172   5.006
 8142SOL    HW125867   1.952   3.123   5.074
 8142SOL    HW225868   1.921   3.270   5.011
 8143SOL     OW25869   2.594   2.496   4.788
 8143SOL    HW125870   2.653   2.470   4.712
 8143SOL    HW225871   2.566   2.592   4.777
 8144SOL     OW25872   3.590   2.797   5.578
 8144SOL    HW125873   3.544   2.790   5.489
 8144SOL    HW225874   3.528   2.841   5.644
 8145SOL     OW25875   2.169   1.925   4.342
 8145SOL    HW125876   2.158   2.019   4.375
 8145SOL    HW225877   2.164   1.862   4.419
 8146SOL     OW25878   3.484   2.229   4.098
 8146SOL    HW125879   3.486   2.153   4.162
 8146SOL    HW225880   3.436   2.306   4.138
 8147SOL     OW25881   2.885   2.628   4.690
 8147SOL    HW125882   2.900   2.649   4.786
 8147SOL    HW225883   2.855   2.533   4.681
 8148SOL     OW25884   2.842   3.435   5.424
 8148SOL    HW125885   2.822   3.479   5.336
 8148SOL    HW225886   2.881   3.344   5.408
 8149SOL     OW25887   3.721   3.380   5.329
 8149SOL    HW125888   3.735   3.407   5.234
 8149SOL    HW225889   3.804   3.402   5.382
 8150SOL     OW25890   2.212   2.760   5.528
 8150SOL    HW125891   2.288   2.804   5.576
 8150SOL    HW225892   2.247   2.713   5.446
 8151SOL     OW25893   3.402   2.136   3.849
 8151SOL    HW125894   3.341   2.061   3.872
 8151SOL    HW225895   3.424   2.188   3.932
 8152SOL     OW25896   3.165   2.700   3.766
 8152SOL    HW125897   3.199   2.607   3.781
 8152SOL    HW225898   3.183   2.727   3.671
 8153SOL     OW25899   2.930   3.195   4.573
 8153SOL    HW125900   2.937   3.111   4.518
 8153SOL    HW225901   2.992   3.264   4.537
 8154SOL     OW25902   2.181   2.672   4.673
 8154SOL    HW125903   2.274   2.708   4.678
 8154SOL    HW225904   2.175   2.587   4.725
 8155SOL     OW25905   2.201   2.371   4.730
 8155SOL    HW125906   2.149   2.288   4.713
 8155SOL    HW225907   2.278   2.376   4.666
 8156SOL     OW25908   3.000   2.242   5.402
 8156SOL    HW125909   2.955   2.305   5.466
 8156SOL    HW225910   3.093   2.273   5.385
 8157SOL     OW25911   3.022   2.069   5.201
 8157SOL    HW125912   3.022   2.133   5.278
 8157SOL    HW225913   3.050   2.117   5.118
 8158SOL     OW25914   1.870   3.188   3.924
 8158SOL    HW125915   1.777   3.209   3.893
 8158SOL    HW225916   1.880   3.089   3.937
 8159SOL     OW25917   1.950   3.663   4.651
 8159SOL    HW125918   1.908   3.577   4.624
 8159SOL    HW225919   2.044   3.666   4.617
 8160SOL     OW25920   2.366   3.430   4.634
 8160SOL    HW125921   2.432   3.504   4.643
 8160SOL    HW225922   2.410   3.351   4.592
 8161SOL     OW25923   2.864   2.658   4.962
 8161SOL    HW125924   2.905   2.626   5.048
 8161SOL    HW225925   2.768   2.631   4.959
 8162SOL     OW25926   1.902   2.406   4.838
 8162SOL    HW125927   1.987   2.373   4.797
 8162SOL    HW225928   1.915   2.421   4.936
 8163SOL     OW25929   2.051   2.382   5.446
 8163SOL    HW125930   2.110   2.342   5.376
 8163SOL    HW225931   1.993   2.453   5.405
 8164SOL     OW25932   3.231   2.812   5.384
 8164SOL    HW125933   3.270   2.901   5.404
 8164SOL    HW225934   3.241   2.792   5.287
 8165SOL     OW25935   2.677   2.434   4.049
 8165SOL    HW125936   2.684   2.345   4.003
 8165SOL    HW225937   2.583   2.468   4.041
 8166SOL     OW25938   3.519   2.466   4.930
 8166SOL    HW125939   3.481   2.397   4.992
 8166SOL    HW225940   3.601   2.430   4.886
 8167SOL     OW25941   2.114   3.426   5.468
 8167SOL    HW125942   2.084   3.483   5.544
 8167SOL    HW225943   2.107   3.329   5.494
 8168SOL     OW25944   2.533   2.326   4.993
 8168SOL    HW125945   2.499   2.237   4.963
 8168SOL    HW225946   2.559   2.380   4.913
 8169SOL     OW25947   2.792   3.540   5.189
 8169SOL    HW125948   2.768   3.522   5.094
 8169SOL    HW225949   2.822   3.634   5.199
 8170SOL     OW25950   2.335   2.362   3.915
 8170SOL    HW125951   2.396   2.442   3.919
 8170SOL    HW225952   2.240   2.393   3.922
 8171SOL     OW25953   2.021   2.999   5.190
 8171SOL    HW125954   2.043   2.938   5.266
 8171SOL    HW225955   2.031   2.950   5.104
 8172SOL     OW25956   3.209   2.921   4.958
 8172SOL    HW125957   3.233   2.858   4.884
 8172SOL    HW225958   3.119   2.961   4.940
 8173SOL     OW25959   3.164   2.717   4.033
 8173SOL    HW125960   3.078   2.686   4.075
 8173SOL    HW225961   3.160   2.703   3.934
 8174SOL     OW25962   3.621   3.609   4.878
 8174SOL    HW125963   3.682   3.639   4.805
 8174SOL    HW225964   3.583   3.520   4.856
 8175SOL     OW25965   3.114   3.593   4.852
 8175SOL    HW125966   3.198   3.598   4.798
 8175SOL    HW225967   3.091   3.497   4.870
 8176SOL     OW25968   1.945   3.120   4.746
 8176SOL    HW125969   1.940   3.119   4.846
 8176SOL    HW225970   1.862   3.079   4.708
 8177SOL     OW25971   2.550   3.524   5.440
 8177SOL    HW125972   2.494   3.605   5.449
 8177SOL    HW225973   2.602   3.528   5.354
 8178SOL     OW25974   3.588   1.997   4.247
 8178SOL    HW125975   3.661   1.980   4.180
 8178SOL    HW225976   3.557   1.910   4.285
 8179SOL     OW25977   3.250   3.435   4.201
 8179SOL    HW125978   3.317   3.447   4.127
 8179SOL    HW225979   3.210   3.524   4.224
 8180SOL     OW25980   1.992   3.656   5.575
 8180SOL    HW125981   1.951   3.582   5.628
 8180SOL    HW225982   2.056   3.707   5.633
 8181SOL     OW25983   3.142   2.789   4.396
 8181SOL    HW125984   3.202   2.708   4.398
 8181SOL    HW225985   3.182   2.858   4.336
 8182SOL     OW25986   2.692   3.135   5.146
 8182SOL    HW125987   2.687   3.168   5.241
 8182SOL    HW225988   2.606   3.154   5.100
 8183SOL     OW25989   2.534   3.478   3.878
 8183SOL    HW125990   2.543   3.488   3.779
 8183SOL    HW225991   2.494   3.389   3.899
 8184SOL     OW25992   3.512   3.582   5.118
 8184SOL    HW125993   3.565   3.592   5.034
 8184SOL    HW225994   3.485   3.672   5.152
 8185SOL     OW25995   3.703   2.037   4.687
 8185SOL    HW125996   3.742   1.952   4.651
 8185SOL    HW225997   3.605   2.039   4.668
 8186SOL     OW25998   2.125   2.188   4.444
 8186SOL    HW125999   2.046   2.239   4.410
 8186SOL    HW226000   2.116   2.173   4.542
 8187SOL     OW26001   2.684   2.864   5.096
 8187SOL    HW126002   2.724   2.863   5.004
 8187SOL    HW226003   2.694   2.956   5.136
 8188SOL     OW26004   2.778   2.772   4.015
 8188SOL    HW126005   2.841   2.810   3.947
 8188SOL    HW226006   2.818   2.689   4.054
 8189SOL     OW26007   2.234   3.150   5.214
 8189SOL    HW126008   2.221   3.243   5.180
 8189SOL    HW226009   2.150   3.098   5.201
 8190SOL     OW26010   2.901   2.960   4.420
 8190SOL    HW126011   2.831   2.913   4.474
 8190SOL    HW226012   2.960   2.892   4.377
 8191SOL     OW26013   2.876   2.098   4.695
 8191SOL    HW126014   2.868   2.062   4.602
 8191SOL    HW226015   2.874   2.022   4.760
 8192SOL     OW26016   2.452   3.349   4.215
 8192SOL    HW126017   2.494   3.291   4.145
 8192SOL    HW226018   2.408   3.428   4.171
 8193SOL     OW26019   3.571   2.247   5.105
 8193SOL    HW126020   3.644   2.316   5.109
 8193SOL    HW226021   3.599   2.172   5.046
 8194SOL     OW26022   2.117   3.210   4.014
 8194SOL    HW126023   2.021   3.211   3.987
 8194SOL    HW226024   2.129   3.263   4.098
 8195SOL     OW26025   1.967   2.875   5.450
 8195SOL    HW126026   1.890   2.842   5.504
 8195SOL    HW226027   2.052   2.845   5.492
 8196SOL     OW26028   2.534   2.065   5.213
 8196SOL    HW126029   2.624   2.049   5.173
 8196SOL    HW226030   2.542   2.070   5.312
 8197SOL     OW26031   1.937   2.207   3.757
 8197SOL    HW126032   1.845   2.179   3.728
 8197SOL    HW226033   1.968   2.284   3.701
 8198SOL     OW26034   3.302   2.718   5.122
 8198SOL    HW126035   3.245   2.770   5.059
 8198SOL    HW226036   3.398   2.730   5.098
 8199SOL     OW26037   1.934   2.028   4.042
 8199SOL    HW126038   1.917   2.111   3.988
 8199SOL    HW226039   2.024   1.991   4.020
 8200SOL     OW26040   3.045   3.197   3.843
 8200SOL    HW126041   2.946   3.186   3.845
 8200SOL    HW226042   3.079   3.212   3.936
 8201SOL     OW26043   2.475   2.704   5.155
 8201SOL    HW126044   2.531   2.785   5.138
 8201SOL    HW226045   2.534   2.624   5.158
 8202SOL     OW26046   3.355   3.629   4.683
 8202SOL    HW126047   3.388   3.693   4.614
 8202SOL    HW226048   3.421   3.623   4.758
 8203SOL     OW26049   2.578   2.427   5.432
 8203SOL    HW126050   2.597   2.492   5.506
 8203SOL    HW226051   2.638   2.347   5.441
 8204SOL     OW26052   3.312   3.082   5.357
 8204SOL    HW126053   3.303   3.072   5.456
 8204SOL    HW226054   3.408   3.075   5.331
 8205SOL     OW26055   2.252   3.603   5.284
 8205SOL    HW126056   2.161   3.644   5.282
 8205SOL    HW226057   2.245   3.509   5.316
 8206SOL     OW26058   3.536   2.745   4.978
 8206SOL    HW126059   3.509   2.656   4.941
 8206SOL    HW226060   3.537   2.813   4.905
 8207SOL     OW26061   3.087   2.187   4.173
 8207SOL    HW126062   3.152   2.113   4.162
 8207SOL    HW226063   3.107   2.237   4.257
 8208SOL     OW26064   2.456   2.607   4.376
 8208SOL    HW126065   2.506   2.692   4.357
 8208SOL    HW226066   2.368   2.609   4.328
 8209SOL     OW26067   3.639   2.204   5.366
 8209SOL    HW126068   3.622   2.235   5.272
 8209SOL    HW226069   3.555   2.167   5.404
 8210SOL     OW26070   3.592   2.796   5.241
 8210SOL    HW126071   3.630   2.887   5.256
 8210SOL    HW226072   3.584   2.779   5.142
 8211SOL     OW26073   2.721   3.236   3.740
 8211SOL    HW126074   2.675   3.251   3.828
 8211SOL    HW226075   2.765   3.321   3.710
 8212SOL     OW26076   2.523   3.652   4.677
 8212SOL    HW126077   2.477   3.740   4.664
 8212SOL    HW226078   2.622   3.664   4.670
 8213SOL     OW26079   2.721   2.818   4.585
 8213SOL    HW126080   2.775   2.749   4.633
 8213SOL    HW226081   2.689   2.887   4.651
 8214SOL     OW26082   2.945   2.846   3.811
 8214SOL    HW126083   2.922   2.899   3.729
 8214SOL    HW226084   3.026   2.790   3.792
 8215SOL     OW26085   3.723   3.431   4.575
 8215SOL    HW126086   3.652   3.419   4.505
 8215SOL    HW226087   3.724   3.352   4.635
 8216SOL     OW26088   2.083   3.176   5.568
 8216SOL    HW126089   2.018   3.103   5.547
 8216SOL    HW226090   2.087   3.190   5.666
 8217SOL     OW26091   1.941   3.102   4.377
 8217SOL    HW126092   1.940   3.055   4.465
 8217SOL    HW226093   2.023   3.074   4.326
 8218SOL     OW26094   2.534   3.253   5.348
 8218SOL    HW126095   2.456   3.203   5.386
 8218SOL    HW226096   2.531   3.348   5.379
 8219SOL     OW26097   3.686   2.054   4.951
 8219SOL    HW126098   3.682   1.964   4.995
 8219SOL    HW226099   3.689   2.043   4.852
 8220SOL     OW26100   2.290   2.286   4.244
 8220SOL    HW126101   2.320   2.214   4.182
 8220SOL    HW226102   2.251   2.246   4.327
 8221SOL     OW26103   3.567   3.349   4.828
 8221SOL    HW126104   3.474   3.324   4.801
 8221SOL    HW226105   3.593   3.299   4.910
 8222SOL     OW26106   2.179   2.409   5.004
 8222SOL    HW126107   2.217   2.350   5.076
 8222SOL    HW226108   2.219   2.383   4.916
 8223SOL     OW26109   2.674   3.448   4.411
 8223SOL    HW126110   2.706   3.458   4.317
 8223SOL    HW226111   2.595   3.386   4.413
 8224SOL     OW26112   3.286   2.076   4.836
 8224SOL    HW126113   3.338   2.011   4.891
 8224SOL    HW226114   3.237   2.139   4.897
 8225SOL     OW26115   2.863   1.896   4.878
 8225SOL    HW126116   2.800   1.824   4.847
 8225SOL    HW226117   2.956   1.860   4.878
 8226SOL     OW26118   2.632   3.192   4.025
 8226SOL    HW126119   2.586   3.105   4.042
 8226SOL    HW226120   2.723   3.189   4.066
 8227SOL     OW26121   2.480   3.429   5.008
 8227SOL    HW126122   2.475   3.511   5.065
 8227SOL    HW226123   2.569   3.426   4.963
 8228SOL     OW26124   3.214   1.914   3.892
 8228SOL    HW126125   3.249   1.873   3.808
 8228SOL    HW226126   3.124   1.876   3.912
 8229SOL     OW26127   3.162   2.315   4.415
 8229SOL    HW126128   3.103   2.395   4.419
 8229SOL    HW226129   3.177   2.280   4.508
 8230SOL     OW26130   3.455   2.083   4.606
 8230SOL    HW126131   3.371   2.082   4.660
 8230SOL    HW226132   3.457   2.166   4.550
 8231SOL     OW26133   1.901   2.939   4.024
 8231SOL    HW126134   2.000   2.928   4.015
 8231SOL    HW226135   1.861   2.853   4.056
 8232SOL     OW26136   2.737   3.508   4.061
 8232SOL    HW126137   2.660   3.473   4.007
 8232SOL    HW226138   2.705   3.579   4.123
 8233SOL     OW26139   2.092   2.490   5.699
 8233SOL    HW126140   1.999   2.488   5.736
 8233SOL    HW226141   2.093   2.451   5.607
 8234SOL     OW26142   2.087   2.137   6.582
 8234SOL    HW126143   2.122   2.120   6.674
 8234SOL    HW226144   1.999   2.092   6.570
 8235SOL     OW26145   1.881   2.230   6.233
 8235SOL    HW126146   1.799   2.273   6.272
 8235SOL    HW226147   1.853   2.157   6.170
 8236SOL     OW26148   2.431   3.137   6.751
 8236SOL    HW126149   2.338   3.130   6.714
 8236SOL    HW226150   2.442   3.226   6.795
 8237SOL     OW26151   2.997   2.565   6.303
 8237SOL    HW126152   3.054   2.643   6.278
 8237SOL    HW226153   2.937   2.591   6.379
 8238SOL     OW26154   3.617   2.469   5.817
 8238SOL    HW126155   3.605   2.456   5.718
 8238SOL    HW226156   3.587   2.388   5.866
 8239SOL     OW26157   2.630   3.006   6.609
 8239SOL    HW126158   2.552   3.023   6.669
 8239SOL    HW226159   2.664   3.093   6.573
 8240SOL     OW26160   2.712   2.660   7.409
 8240SOL    HW126161   2.708   2.736   7.474
 8240SOL    HW226162   2.734   2.696   7.318
 8241SOL     OW26163   2.547   2.874   6.251
 8241SOL    HW126164   2.616   2.858   6.321
 8241SOL    HW226165   2.474   2.931   6.289
 8242SOL     OW26166   2.548   3.023   7.389
 8242SOL    HW126167   2.608   3.102   7.403
 8242SOL    HW226168   2.462   3.054   7.348
 8243SOL     OW26169   2.197   3.297   6.647
 8243SOL    HW126170   2.119   3.266   6.594
 8243SOL    HW226171   2.255   3.355   6.590
 8244SOL     OW26172   2.300   2.254   7.085
 8244SOL    HW126173   2.382   2.198   7.094
 8244SOL    HW226174   2.219   2.196   7.089
 8245SOL     OW26175   3.465   2.309   6.323
 8245SOL    HW126176   3.391   2.355   6.273
 8245SOL    HW226177   3.516   2.377   6.376
 8246SOL     OW26178   2.093   3.575   6.069
 8246SOL    HW126179   2.127   3.652   6.123
 8246SOL    HW226180   2.137   3.575   5.979
 8247SOL     OW26181   2.989   3.203   7.276
 8247SOL    HW126182   3.036   3.203   7.364
 8247SOL    HW226183   2.941   3.116   7.265
 8248SOL     OW26184   2.092   3.296   6.124
 8248SOL    HW126185   2.066   3.392   6.124
 8248SOL    HW226186   2.021   3.242   6.169
 8249SOL     OW26187   2.102   2.953   6.472
 8249SOL    HW126188   2.116   2.869   6.524
 8249SOL    HW226189   2.047   3.017   6.527
 8250SOL     OW26190   2.482   3.648   7.025
 8250SOL    HW126191   2.390   3.631   7.060
 8250SOL    HW226192   2.510   3.740   7.051
 8251SOL     OW26193   2.468   2.826   5.709
 8251SOL    HW126194   2.475   2.910   5.655
 8251SOL    HW226195   2.514   2.839   5.797
 8252SOL     OW26196   3.456   1.976   7.066
 8252SOL    HW126197   3.438   2.043   6.994
 8252SOL    HW226198   3.453   2.022   7.155
 8253SOL     OW26199   1.984   2.505   6.149
 8253SOL    HW126200   1.939   2.417   6.166
 8253SOL    HW226201   1.983   2.559   6.233
 8254SOL     OW26202   1.889   3.458   5.703
 8254SOL    HW126203   1.870   3.362   5.724
 8254SOL    HW226204   1.856   3.516   5.778
 8255SOL     OW26205   3.551   2.784   6.198
 8255SOL    HW126206   3.646   2.755   6.206
 8255SOL    HW226207   3.543   2.849   6.123
 8256SOL     OW26208   3.503   2.970   6.018
 8256SOL    HW126209   3.589   2.972   5.966
 8256SOL    HW226210   3.517   3.017   6.106
 8257SOL     OW26211   1.975   2.599   7.183
 8257SOL    HW126212   2.063   2.586   7.228
 8257SOL    HW226213   1.962   2.696   7.161
 8258SOL     OW26214   2.475   3.227   6.312
 8258SOL    HW126215   2.426   3.140   6.321
 8258SOL    HW226216   2.452   3.270   6.225
 8259SOL     OW26217   3.155   3.090   7.009
 8259SOL    HW126218   3.192   3.017   6.951
 8259SOL    HW226219   3.207   3.095   7.094
 8260SOL     OW26220   2.671   1.866   6.088
 8260SOL    HW126221   2.711   1.957   6.079
 8260SOL    HW226222   2.571   1.874   6.094
 8261SOL     OW26223   2.059   2.838   6.850
 8261SOL    HW126224   2.148   2.793   6.836
 8261SOL    HW226225   1.986   2.773   6.831
 8262SOL     OW26226   3.387   2.861   5.776
 8262SOL    HW126227   3.324   2.785   5.789
 8262SOL    HW226228   3.435   2.879   5.862
 8263SOL     OW26229   3.049   3.654   7.202
 8263SOL    HW126230   3.073   3.714   7.126
 8263SOL    HW226231   3.056   3.559   7.172
 8264SOL     OW26232   2.179   2.113   7.387
 8264SOL    HW126233   2.250   2.184   7.393
 8264SOL    HW226234   2.091   2.152   7.415
 8265SOL     OW26235   2.460   2.591   5.856
 8265SOL    HW126236   2.484   2.660   5.788
 8265SOL    HW226237   2.382   2.624   5.910
 8266SOL     OW26238   3.143   2.207   6.530
 8266SOL    HW126239   3.057   2.157   6.517
 8266SOL    HW226240   3.205   2.153   6.586
 8267SOL     OW26241   2.669   2.467   7.051
 8267SOL    HW126242   2.622   2.464   7.140
 8267SOL    HW226243   2.618   2.412   6.985
 8268SOL     OW26244   3.256   2.331   7.260
 8268SOL    HW126245   3.236   2.374   7.348
 8268SOL    HW226246   3.334   2.269   7.269
 8269SOL     OW26247   2.835   2.752   7.158
 8269SOL    HW126248   2.881   2.668   7.129
 8269SOL    HW226249   2.779   2.786   7.083
 8270SOL     OW26250   2.853   2.272   6.828
 8270SOL    HW126251   2.776   2.306   6.882
 8270SOL    HW226252   2.819   2.221   6.749
 8271SOL     OW26253   2.903   2.563   6.015
 8271SOL    HW126254   2.929   2.559   6.111
 8271SOL    HW226255   2.818   2.512   6.001
 8272SOL     OW26256   1.938   2.673   6.375
 8272SOL    HW126257   2.037   2.661   6.384
 8272SOL    HW226258   1.914   2.768   6.396
 8273SOL     OW26259   1.992   3.683   7.157
 8273SOL    HW126260   1.982   3.668   7.256
 8273SOL    HW226261   1.906   3.719   7.121
 8274SOL     OW26262   2.727   2.210   5.781
 8274SOL    HW126263   2.786   2.273   5.732
 8274SOL    HW226264   2.746   2.116   5.752
 8275SOL     OW26265   3.581   2.447   7.417
 8275SOL    HW126266   3.555   2.536   7.381
 8275SOL    HW226267   3.579   2.379   7.344
 8276SOL     OW26268   3.224   3.006   6.131
 8276SOL    HW126269   3.307   2.977   6.083
 8276SOL    HW226270   3.175   3.073   6.075
 8277SOL     OW26271   2.412   2.058   6.471
 8277SOL    HW126272   2.407   2.053   6.571
 8277SOL    HW226273   2.414   2.154   6.442
 8278SOL     OW26274   2.870   3.318   6.063
 8278SOL    HW126275   2.824   3.390   6.011
 8278SOL    HW226276   2.866   3.338   6.161
 8279SOL     OW26277   2.213   3.663   6.439
 8279SOL    HW126278   2.263   3.577   6.445
 8279SOL    HW226279   2.278   3.740   6.436
 8280SOL     OW26280   3.657   2.928   6.459
 8280SOL    HW126281   3.595   2.913   6.383
 8280SOL    HW226282   3.605   2.939   6.544
 8281SOL     OW26283   3.089   3.412   7.092
 8281SOL    HW126284   3.095   3.335   7.156
 8281SOL    HW226285   3.037   3.386   7.012
 8282SOL     OW26286   2.183   2.805   5.828
 8282SOL    HW126287   2.265   2.844   5.786
 8282SOL    HW226288   2.156   2.723   5.779
 8283SOL     OW26289   3.320   2.597   6.314
 8283SOL    HW126290   3.315   2.532   6.389
 8283SOL    HW226291   3.400   2.656   6.327
 8284SOL     OW26292   2.323   3.128   7.313
 8284SOL    HW126293   2.273   3.129   7.227
 8284SOL    HW226294   2.260   3.110   7.389
 8285SOL     OW26295   2.973   3.638   5.823
 8285SOL    HW126296   2.913   3.576   5.873
 8285SOL    HW226297   3.004   3.594   5.738
 8286SOL     OW26298   2.064   2.147   7.084
 8286SOL    HW126299   1.984   2.207   7.071
 8286SOL    HW226300   2.054   2.098   7.170
 8287SOL     OW26301   2.326   3.605   5.909
 8287SOL    HW126302   2.359   3.644   5.995
 8287SOL    HW226303   2.402   3.598   5.844
 8288SOL     OW26304   3.262   1.969   6.012
 8288SOL    HW126305   3.238   1.932   5.922
 8288SOL    HW226306   3.361   1.985   6.016
 8289SOL     OW26307   2.111   3.647   6.827
 8289SOL    HW126308   2.168   3.582   6.877
 8289SOL    HW226309   2.095   3.614   6.734
 8290SOL     OW26310   2.802   3.560   6.490
 8290SOL    HW126311   2.882   3.503   6.511
 8290SOL    HW226312   2.753   3.520   6.413
 8291SOL     OW26313   2.244   2.562   6.066
 8291SOL    HW126314   2.289   2.472   6.063
 8291SOL    HW226315   2.150   2.551   6.099
 8292SOL     OW26316   3.409   2.084   7.315
 8292SOL    HW126317   3.404   2.121   7.407
 8292SOL    HW226318   3.337   2.015   7.303
 8293SOL     OW26319   2.476   1.984   5.703
 8293SOL    HW126320   2.574   1.962   5.710
 8293SOL    HW226321   2.445   1.967   5.610
 8294SOL     OW26322   2.643   2.126   7.335
 8294SOL    HW126323   2.710   2.065   7.378
 8294SOL    HW226324   2.570   2.145   7.400
 8295SOL     OW26325   2.750   3.376   6.781
 8295SOL    HW126326   2.727   3.351   6.687
 8295SOL    HW226327   2.811   3.307   6.820
 8296SOL     OW26328   3.213   2.452   7.019
 8296SOL    HW126329   3.241   2.409   7.104
 8296SOL    HW226330   3.238   2.548   7.020
 8297SOL     OW26331   2.665   3.264   6.510
 8297SOL    HW126332   2.755   3.278   6.468
 8297SOL    HW226333   2.594   3.266   6.439
 8298SOL     OW26334   2.784   2.365   6.485
 8298SOL    HW126335   2.759   2.356   6.389
 8298SOL    HW226336   2.832   2.283   6.516
 8299SOL     OW26337   2.401   1.926   6.098
 8299SOL    HW126338   2.320   1.927   6.156
 8299SOL    HW226339   2.404   2.009   6.043
 8300SOL     OW26340   3.296   3.050   5.627
 8300SOL    HW126341   3.328   2.974   5.684
 8300SOL    HW226342   3.204   3.077   5.657
 8301SOL     OW26343   2.159   1.897   5.757
 8301SOL    HW126344   2.208   1.981   5.736
 8301SOL    HW226345   2.221   1.832   5.802
 8302SOL     OW26346   2.797   2.098   6.066
 8302SOL    HW126347   2.749   2.139   5.988
 8302SOL    HW226348   2.896   2.096   6.047
 8303SOL     OW26349   2.938   2.545   7.050
 8303SOL    HW126350   2.858   2.484   7.053
 8303SOL    HW226351   3.019   2.492   7.026
 8304SOL     OW26352   2.321   3.014   6.327
 8304SOL    HW126353   2.250   2.987   6.392
 8304SOL    HW226354   2.295   2.986   6.234
 8305SOL     OW26355   2.894   2.411   5.602
 8305SOL    HW126356   2.853   2.493   5.563
 8305SOL    HW226357   2.958   2.437   5.675
 8306SOL     OW26358   1.940   2.418   6.972
 8306SOL    HW126359   2.032   2.417   6.931
 8306SOL    HW226360   1.934   2.492   7.039
 8307SOL     OW26361   2.423   2.084   6.733
 8307SOL    HW126362   2.461   2.000   6.770
 8307SOL    HW226363   2.335   2.103   6.777
 8308SOL     OW26364   2.728   2.316   6.228
 8308SOL    HW126365   2.696   2.388   6.166
 8308SOL    HW226366   2.752   2.235   6.175
 8309SOL     OW26367   2.879   1.901   6.339
 8309SOL    HW126368   2.807   1.906   6.270
 8309SOL    HW226369   2.855   1.832   6.408
 8310SOL     OW26370   3.291   3.035   6.453
 8310SOL    HW126371   3.236   2.951   6.446
 8310SOL    HW226372   3.317   3.064   6.361
 8311SOL     OW26373   3.328   2.452   6.578
 8311SOL    HW126374   3.298   2.357   6.585
 8311SOL    HW226375   3.401   2.468   6.644
 8312SOL     OW26376   3.719   2.695   5.963
 8312SOL    HW126377   3.761   2.631   6.027
 8312SOL    HW226378   3.681   2.644   5.885
 8313SOL     OW26379   2.350   3.247   5.760
 8313SOL    HW126380   2.263   3.232   5.807
 8313SOL    HW226381   2.333   3.273   5.665
 8314SOL     OW26382   3.526   3.142   6.243
 8314SOL    HW126383   3.625   3.150   6.257
 8314SOL    HW226384   3.481   3.226   6.274
 8315SOL     OW26385   3.252   2.437   5.664
 8315SOL    HW126386   3.198   2.416   5.745
 8315SOL    HW226387   3.343   2.396   5.673
 8316SOL     OW26388   2.389   2.118   5.914
 8316SOL    HW126389   2.416   2.059   5.839
 8316SOL    HW226390   2.389   2.213   5.883
 8317SOL     OW26391   2.926   3.209   6.926
 8317SOL    HW126392   2.846   3.186   6.981
 8317SOL    HW226393   3.009   3.183   6.975
 8318SOL     OW26394   3.454   3.491   7.211
 8318SOL    HW126395   3.481   3.525   7.121
 8318SOL    HW226396   3.533   3.453   7.257
 8319SOL     OW26397   2.973   3.057   6.686
 8319SOL    HW126398   2.933   3.101   6.767
 8319SOL    HW226399   2.932   3.094   6.603
 8320SOL     OW26400   2.777   1.951   6.988
 8320SOL    HW126401   2.802   1.931   6.893
 8320SOL    HW226402   2.849   2.007   7.030
 8321SOL     OW26403   2.842   2.978   7.305
 8321SOL    HW126404   2.743   2.984   7.315
 8321SOL    HW226405   2.865   2.898   7.249
 8322SOL     OW26406   2.567   2.912   5.954
 8322SOL    HW126407   2.553   2.919   6.053
 8322SOL    HW226408   2.651   2.861   5.936
 8323SOL     OW26409   3.136   2.248   6.848
 8323SOL    HW126410   3.157   2.322   6.912
 8323SOL    HW226411   3.047   2.265   6.805
 8324SOL     OW26412   1.926   3.426   6.917
 8324SOL    HW126413   1.880   3.508   6.883
 8324SOL    HW226414   2.024   3.445   6.926
 8325SOL     OW26415   2.229   2.962   6.087
 8325SOL    HW126416   2.222   3.045   6.031
 8325SOL    HW226417   2.233   2.882   6.027
 8326SOL     OW26418   2.428   2.399   6.451
 8326SOL    HW126419   2.440   2.465   6.377
 8326SOL    HW226420   2.474   2.433   6.534
 8327SOL     OW26421   3.114   3.210   5.974
 8327SOL    HW126422   3.164   3.287   6.014
 8327SOL    HW226423   3.019   3.212   6.006
 8328SOL     OW26424   3.444   2.501   6.058
 8328SOL    HW126425   3.413   2.562   6.131
 8328SOL    HW226426   3.494   2.553   5.989
 8329SOL     OW26427   2.216   3.372   6.915
 8329SOL    HW126428   2.195   3.328   6.828
 8329SOL    HW226429   2.313   3.398   6.918
 8330SOL     OW26430   2.264   2.613   7.184
 8330SOL    HW126431   2.332   2.668   7.137
 8330SOL    HW226432   2.304   2.525   7.211
 8331SOL     OW26433   3.449   2.641   7.256
 8331SOL    HW126434   3.357   2.679   7.251
 8331SOL    HW226435   3.509   2.688   7.191
 8332SOL     OW26436   2.875   1.967   7.356
 8332SOL    HW126437   2.881   2.052   7.304
 8332SOL    HW226438   2.907   1.891   7.299
 8333SOL     OW26439   2.366   1.912   7.326
 8333SOL    HW126440   2.324   1.855   7.256
 8333SOL    HW226441   2.300   1.981   7.358
 8334SOL     OW26442   2.435   2.732   6.615
 8334SOL    HW126443   2.479   2.821   6.606
 8334SOL    HW226444   2.372   2.732   6.692
 8335SOL     OW26445   3.222   2.724   6.631
 8335SOL    HW126446   3.147   2.724   6.565
 8335SOL    HW226447   3.259   2.632   6.640
 8336SOL     OW26448   3.071   2.387   5.861
 8336SOL    HW126449   3.084   2.303   5.915
 8336SOL    HW226450   3.042   2.461   5.921
 8337SOL     OW26451   2.169   2.075   6.817
 8337SOL    HW126452   2.146   2.112   6.907
 8337SOL    HW226453   2.139   1.980   6.811
 8338SOL     OW26454   1.899   3.172   6.868
 8338SOL    HW126455   1.952   3.123   6.936
 8338SOL    HW226456   1.921   3.270   6.873
 8339SOL     OW26457   2.594   2.496   6.650
 8339SOL    HW126458   2.653   2.470   6.574
 8339SOL    HW226459   2.566   2.592   6.639
 8340SOL     OW26460   3.590   2.797   7.440
 8340SOL    HW126461   3.544   2.790   7.351
 8340SOL    HW226462   3.528   2.841   7.506
 8341SOL     OW26463   2.169   1.925   6.204
 8341SOL    HW126464   2.158   2.019   6.237
 8341SOL    HW226465   2.164   1.862   6.281
 8342SOL     OW26466   3.484   2.229   5.960
 8342SOL    HW126467   3.486   2.153   6.024
 8342SOL    HW226468   3.436   2.306   6.000
 8343SOL     OW26469   2.885   2.628   6.552
 8343SOL    HW126470   2.900   2.649   6.648
 8343SOL    HW226471   2.855   2.533   6.543
 8344SOL     OW26472   2.842   3.435   7.286
 8344SOL    HW126473   2.822   3.479   7.198
 8344SOL    HW226474   2.881   3.344   7.270
 8345SOL     OW26475   2.212   2.760   7.390
 8345SOL    HW126476   2.288   2.804   7.438
 8345SOL    HW226477   2.247   2.713   7.308
 8346SOL     OW26478   3.402   2.136   5.711
 8346SOL    HW126479   3.341   2.061   5.734
 8346SOL    HW226480   3.424   2.188   5.794
 8347SOL     OW26481   3.165   2.700   5.628
 8347SOL    HW126482   3.199   2.607   5.643
 8347SOL    HW226483   3.183   2.727   5.533
 8348SOL     OW26484   2.930   3.195   6.435
 8348SOL    HW126485   2.937   3.111   6.380
 8348SOL    HW226486   2.992   3.264   6.399
 8349SOL     OW26487   2.181   2.672   6.535
 8349SOL    HW126488   2.274   2.708   6.540
 8349SOL    HW226489   2.175   2.587   6.587
 8350SOL     OW26490   2.201   2.371   6.592
 8350SOL    HW126491   2.149   2.288   6.575
 8350SOL    HW226492   2.278   2.376   6.528
 8351SOL     OW26493   3.000   2.242   7.264
 8351SOL    HW126494   2.955   2.305   7.328
 8351SOL    HW226495   3.093   2.273   7.247
 8352SOL     OW26496   3.022   2.069   7.063
 8352SOL    HW126497   3.022   2.133   7.140
 8352SOL    HW226498   3.050   2.117   6.980
 8353SOL     OW26499   1.870   3.188   5.786
 8353SOL    HW126500   1.777   3.209   5.755
 8353SOL    HW226501   1.880   3.089   5.799
 8354SOL     OW26502   1.950   3.663   6.513
 8354SOL    HW126503   1.908   3.577   6.486
 8354SOL    HW226504   2.044   3.666   6.479
 8355SOL     OW26505   2.366   3.430   6.496
 8355SOL    HW126506   2.432   3.504   6.505
 8355SOL    HW226507   2.410   3.351   6.454
 8356SOL     OW26508   2.864   2.658   6.824
 8356SOL    HW126509   2.905   2.626   6.910
 8356SOL    HW226510   2.768   2.631   6.821
 8357SOL     OW26511   1.902   2.406   6.700
 8357SOL    HW126512   1.987   2.373   6.659
 8357SOL    HW226513   1.915   2.421   6.798
 8358SOL     OW26514   2.051   2.382   7.308
 8358SOL    HW126515   2.110   2.342   7.238
 8358SOL    HW226516   1.993   2.453   7.267
 8359SOL     OW26517   3.231   2.812   7.246
 8359SOL    HW126518   3.270   2.901   7.266
 8359SOL    HW226519   3.241   2.792   7.149
 8360SOL     OW26520   2.677   2.434   5.911
 8360SOL    HW126521   2.684   2.345   5.865
 8360SOL    HW226522   2.583   2.468   5.903
 8361SOL     OW26523   3.519   2.466   6.792
 8361SOL    HW126524   3.481   2.397   6.854
 8361SOL    HW226525   3.601   2.430   6.748
 8362SOL     OW26526   2.114   3.426   7.330
 8362SOL    HW126527   2.084   3.483   7.406
 8362SOL    HW226528   2.107   3.329   7.356
 8363SOL     OW26529   2.533   2.326   6.855
 8363SOL    HW126530   2.499   2.237   6.825
 8363SOL    HW226531   2.559   2.380   6.775
 8364SOL     OW26532   2.792   3.540   7.051
 8364SOL    HW126533   2.768   3.522   6.956
 8364SOL    HW226534   2.822   3.634   7.061
 8365SOL     OW26535   2.335   2.362   5.777
 8365SOL    HW126536   2.396   2.442   5.781
 8365SOL    HW226537   2.240   2.393   5.784
 8366SOL     OW26538   2.021   2.999   7.052
 8366SOL    HW126539   2.043   2.938   7.128
 8366SOL    HW226540   2.031   2.950   6.966
 8367SOL     OW26541   3.209   2.921   6.820
 8367SOL    HW126542   3.233   2.858   6.746
 8367SOL    HW226543   3.119   2.961   6.802
 8368SOL     OW26544   3.164   2.717   5.895
 8368SOL    HW126545   3.078   2.686   5.937
 8368SOL    HW226546   3.160   2.703   5.796
 8369SOL     OW26547   1.945   3.120   6.608
 8369SOL    HW126548   1.940   3.119   6.708
 8369SOL    HW226549   1.862   3.079   6.570
 8370SOL     OW26550   2.550   3.524   7.302
 8370SOL    HW126551   2.494   3.605   7.311
 8370SOL    HW226552   2.602   3.528   7.216
 8371SOL     OW26553   3.588   1.997   6.109
 8371SOL    HW126554   3.661   1.980   6.042
 8371SOL    HW226555   3.557   1.910   6.147
 8372SOL     OW26556   3.250   3.435   6.063
 8372SOL    HW126557   3.317   3.447   5.989
 8372SOL    HW226558   3.210   3.524   6.086
 8373SOL     OW26559   1.992   3.656   7.437
 8373SOL    HW126560   1.951   3.582   7.490
 8373SOL    HW226561   2.056   3.707   7.495
 8374SOL     OW26562   3.142   2.789   6.258
 8374SOL    HW126563   3.202   2.708   6.260
 8374SOL    HW226564   3.182   2.858   6.198
 8375SOL     OW26565   2.692   3.135   7.008
 8375SOL    HW126566   2.687   3.168   7.103
 8375SOL    HW226567   2.606   3.154   6.962
 8376SOL     OW26568   2.534   3.478   5.740
 8376SOL    HW126569   2.543   3.488   5.641
 8376SOL    HW226570   2.494   3.389   5.761
 8377SOL     OW26571   3.703   2.037   6.549
 8377SOL    HW126572   3.742   1.952   6.513
 8377SOL    HW226573   3.605   2.039   6.530
 8378SOL     OW26574   2.125   2.188   6.306
 8378SOL    HW126575   2.046   2.239   6.272
 8378SOL    HW226576   2.116   2.173   6.404
 8379SOL     OW26577   3.056   3.474   5.617
 8379SOL    HW126578   3.062   3.381   5.654
 8379SOL    HW226579   2.997   3.474   5.537
 8380SOL     OW26580   2.684   2.864   6.958
 8380SOL    HW126581   2.724   2.863   6.866
 8380SOL    HW226582   2.694   2.956   6.998
 8381SOL     OW26583   2.778   2.772   5.877
 8381SOL    HW126584   2.841   2.810   5.809
 8381SOL    HW226585   2.818   2.689   5.916
 8382SOL     OW26586   2.234   3.150   7.076
 8382SOL    HW126587   2.221   3.243   7.042
 8382SOL    HW226588   2.150   3.098   7.063
 8383SOL     OW26589   2.901   2.960   6.282
 8383SOL    HW126590   2.831   2.913   6.336
 8383SOL    HW226591   2.960   2.892   6.239
 8384SOL     OW26592   2.876   2.098   6.557
 8384SOL    HW126593   2.868   2.062   6.464
 8384SOL    HW226594   2.874   2.022   6.622
 8385SOL     OW26595   2.452   3.349   6.077
 8385SOL    HW126596   2.494   3.291   6.007
 8385SOL    HW226597   2.408   3.428   6.033
 8386SOL     OW26598   3.571   2.247   6.967
 8386SOL    HW126599   3.644   2.316   6.971
 8386SOL    HW226600   3.599   2.172   6.908
 8387SOL     OW26601   2.117   3.210   5.876
 8387SOL    HW126602   2.021   3.211   5.849
 8387SOL    HW226603   2.129   3.263   5.960
 8388SOL     OW26604   1.967   2.875   7.312
 8388SOL    HW126605   1.890   2.842   7.366
 8388SOL    HW226606   2.052   2.845   7.354
 8389SOL     OW26607   2.534   2.065   7.075
 8389SOL    HW126608   2.624   2.049   7.035
 8389SOL    HW226609   2.542   2.070   7.174
 8390SOL     OW26610   1.937   2.207   5.619
 8390SOL    HW126611   1.845   2.179   5.590
 8390SOL    HW226612   1.968   2.284   5.563
 8391SOL     OW26613   3.302   2.718   6.984
 8391SOL    HW126614   3.245   2.770   6.921
 8391SOL    HW226615   3.398   2.730   6.960
 8392SOL     OW26616   1.934   2.028   5.904
 8392SOL    HW126617   1.917   2.111   5.850
 8392SOL    HW226618   2.024   1.991   5.882
 8393SOL     OW26619   3.045   3.197   5.705
 8393SOL    HW126620   2.946   3.186   5.707
 8393SOL    HW226621   3.079   3.212   5.798
 8394SOL     OW26622   2.475   2.704   7.017
 8394SOL    HW126623   2.531   2.785   7.000
 8394SOL    HW226624   2.534   2.624   7.020
 8395SOL     OW26625   2.578   2.427   7.294
 8395SOL    HW126626   2.597   2.492   7.368
 8395SOL    HW226627   2.638   2.347   7.303
 8396SOL     OW26628   3.312   3.082   7.219
 8396SOL    HW126629   3.303   3.072   7.318
 8396SOL    HW226630   3.408   3.075   7.193
 8397SOL     OW26631   2.252   3.603   7.146
 8397SOL    HW126632   2.161   3.644   7.144
 8397SOL    HW226633   2.245   3.509   7.178
 8398SOL     OW26634   3.536   2.745   6.840
 8398SOL    HW126635   3.509   2.656   6.803
 8398SOL    HW226636   3.537   2.813   6.767
 8399SOL     OW26637   3.087   2.187   6.035
 8399SOL    HW126638   3.152   2.113   6.024
 8399SOL    HW226639   3.107   2.237   6.119
 8400SOL     OW26640   2.456   2.607   6.238
 8400SOL    HW126641   2.506   2.692   6.219
 8400SOL    HW226642   2.368   2.609   6.190
 8401SOL     OW26643   3.639   2.204   7.228
 8401SOL    HW126644   3.622   2.235   7.134
 8401SOL    HW226645   3.555   2.167   7.266
 8402SOL     OW26646   3.592   2.796   7.103
 8402SOL    HW126647   3.630   2.887   7.118
 8402SOL    HW226648   3.584   2.779   7.004
 8403SOL     OW26649   2.721   3.236   5.602
 8403SOL    HW126650   2.675   3.251   5.690
 8403SOL    HW226651   2.765   3.321   5.572
 8404SOL     OW26652   2.523   3.652   6.539
 8404SOL    HW126653   2.477   3.740   6.526
 8404SOL    HW226654   2.622   3.664   6.532
 8405SOL     OW26655   2.721   2.818   6.447
 8405SOL    HW126656   2.775   2.749   6.495
 8405SOL    HW226657   2.689   2.887   6.513
 8406SOL     OW26658   2.945   2.846   5.673
 8406SOL    HW126659   2.922   2.899   5.591
 8406SOL    HW226660   3.026   2.790   5.654
 8407SOL     OW26661   2.083   3.176   7.430
 8407SOL    HW126662   2.018   3.103   7.409
 8407SOL    HW226663   2.087   3.190   7.528
 8408SOL     OW26664   1.941   3.102   6.239
 8408SOL    HW126665   1.940   3.055   6.327
 8408SOL    HW226666   2.023   3.074   6.188
 8409SOL     OW26667   2.534   3.253   7.210
 8409SOL    HW126668   2.456   3.203   7.248
 8409SOL    HW226669   2.531   3.348   7.241
 8410SOL     OW26670   3.686   2.054   6.813
 8410SOL    HW126671   3.682   1.964   6.857
 8410SOL    HW226672   3.689   2.043   6.714
 8411SOL     OW26673   2.290   2.286   6.106
 8411SOL    HW126674   2.320   2.214   6.044
 8411SOL    HW226675   2.251   2.246   6.189
 8412SOL     OW26676   2.179   2.409   6.866
 8412SOL    HW126677   2.217   2.350   6.938
 8412SOL    HW226678   2.219   2.383   6.778
 8413SOL     OW26679   2.674   3.448   6.273
 8413SOL    HW126680   2.706   3.458   6.179
 8413SOL    HW226681   2.595   3.386   6.275
 8414SOL     OW26682   3.286   2.076   6.698
 8414SOL    HW126683   3.338   2.011   6.753
 8414SOL    HW226684   3.237   2.139   6.759
 8415SOL     OW26685   2.863   1.896   6.740
 8415SOL    HW126686   2.800   1.824   6.709
 8415SOL    HW226687   2.956   1.860   6.740
 8416SOL     OW26688   2.632   3.192   5.887
 8416SOL    HW126689   2.586   3.105   5.904
 8416SOL    HW226690   2.723   3.189   5.928
 8417SOL     OW26691   2.480   3.429   6.870
 8417SOL    HW126692   2.475   3.511   6.927
 8417SOL    HW226693   2.569   3.426   6.825
 8418SOL     OW26694   3.214   1.914   5.754
 8418SOL    HW126695   3.249   1.873   5.670
 8418SOL    HW226696   3.124   1.876   5.774
 8419SOL     OW26697   3.162   2.315   6.277
 8419SOL    HW126698   3.103   2.395   6.281
 8419SOL    HW226699   3.177   2.280   6.370
 8420SOL     OW26700   3.455   2.083   6.468
 8420SOL    HW126701   3.371   2.082   6.522
 8420SOL    HW226702   3.457   2.166   6.412
 8421SOL     OW26703   1.901   2.939   5.886
 8421SOL    HW126704   2.000   2.928   5.877
 8421SOL    HW226705   1.861   2.853   5.918
 8422SOL     OW26706   2.737   3.508   5.923
 8422SOL    HW126707   2.660   3.473   5.869
 8422SOL    HW226708   2.705   3.579   5.985
 8423SOL     OW26709   2.092   2.490   7.561
 8423SOL    HW126710   1.999   2.488   7.598
 8423SOL    HW226711   2.093   2.451   7.469
 8424SOL     OW26712   2.087   2.137   8.444
 8424SOL    HW126713   2.122   2.120   8.536
 8424SOL    HW226714   1.999   2.092   8.432
 8425SOL     OW26715   1.881   2.230   8.095
 8425SOL    HW126716   1.799   2.273   8.134
 8425SOL    HW226717   1.853   2.157   8.032
 8426SOL     OW26718   2.431   3.137   8.613
 8426SOL    HW126719   2.338   3.130   8.576
 8426SOL    HW226720   2.442   3.226   8.657
 8427SOL     OW26721   2.997   2.565   8.165
 8427SOL    HW126722   3.054   2.643   8.140
 8427SOL    HW226723   2.937   2.591   8.241
 8428SOL     OW26724   3.617   2.469   7.679
 8428SOL    HW126725   3.605   2.456   7.580
 8428SOL    HW226726   3.587   2.388   7.728
 8429SOL     OW26727   2.630   3.006   8.471
 8429SOL    HW126728   2.552   3.023   8.531
 8429SOL    HW226729   2.664   3.093   8.435
 8430SOL     OW26730   2.712   2.660   9.271
 8430SOL    HW126731   2.708   2.736   9.336
 8430SOL    HW226732   2.734   2.696   9.180
 8431SOL     OW26733   2.547   2.874   8.113
 8431SOL    HW126734   2.616   2.858   8.183
 8431SOL    HW226735   2.474   2.931   8.151
 8432SOL     OW26736   2.548   3.023   9.251
 8432SOL    HW126737   2.608   3.102   9.265
 8432SOL    HW226738   2.462   3.054   9.210
 8433SOL     OW26739   2.197   3.297   8.509
 8433SOL    HW126740   2.119   3.266   8.456
 8433SOL    HW226741   2.255   3.355   8.452
 8434SOL     OW26742   3.322   3.367   8.787
 8434SOL    HW126743   3.346   3.461   8.813
 8434SOL    HW226744   3.306   3.313   8.869
 8435SOL     OW26745   2.300   2.254   8.947
 8435SOL    HW126746   2.382   2.198   8.956
 8435SOL    HW226747   2.219   2.196   8.951
 8436SOL     OW26748   3.465   2.309   8.185
 8436SOL    HW126749   3.391   2.355   8.135
 8436SOL    HW226750   3.516   2.377   8.238
 8437SOL     OW26751   2.093   3.575   7.931
 8437SOL    HW126752   2.127   3.652   7.985
 8437SOL    HW226753   2.137   3.575   7.841
 8438SOL     OW26754   2.989   3.203   9.138
 8438SOL    HW126755   3.036   3.203   9.226
 8438SOL    HW226756   2.941   3.116   9.127
 8439SOL     OW26757   2.092   3.296   7.986
 8439SOL    HW126758   2.066   3.392   7.986
 8439SOL    HW226759   2.021   3.242   8.031
 8440SOL     OW26760   2.102   2.953   8.334
 8440SOL    HW126761   2.116   2.869   8.386
 8440SOL    HW226762   2.047   3.017   8.389
 8441SOL     OW26763   2.482   3.648   8.887
 8441SOL    HW126764   2.390   3.631   8.922
 8441SOL    HW226765   2.510   3.740   8.913
 8442SOL     OW26766   2.468   2.826   7.571
 8442SOL    HW126767   2.475   2.910   7.517
 8442SOL    HW226768   2.514   2.839   7.659
 8443SOL     OW26769   3.456   1.976   8.928
 8443SOL    HW126770   3.438   2.043   8.856
 8443SOL    HW226771   3.453   2.022   9.017
 8444SOL     OW26772   1.984   2.505   8.011
 8444SOL    HW126773   1.939   2.417   8.028
 8444SOL    HW226774   1.983   2.559   8.095
 8445SOL     OW26775   3.704   3.629   7.807
 8445SOL    HW126776   3.758   3.600   7.887
 8445SOL    HW226777   3.734   3.719   7.778
 8446SOL     OW26778   1.889   3.458   7.565
 8446SOL    HW126779   1.870   3.362   7.586
 8446SOL    HW226780   1.856   3.516   7.640
 8447SOL     OW26781   3.551   2.784   8.060
 8447SOL    HW126782   3.646   2.755   8.068
 8447SOL    HW226783   3.543   2.849   7.985
 8448SOL     OW26784   3.503   2.970   7.880
 8448SOL    HW126785   3.589   2.972   7.828
 8448SOL    HW226786   3.517   3.017   7.968
 8449SOL     OW26787   1.975   2.599   9.045
 8449SOL    HW126788   2.063   2.586   9.090
 8449SOL    HW226789   1.962   2.696   9.023
 8450SOL     OW26790   2.475   3.227   8.174
 8450SOL    HW126791   2.426   3.140   8.183
 8450SOL    HW226792   2.452   3.270   8.087
 8451SOL     OW26793   3.155   3.090   8.871
 8451SOL    HW126794   3.192   3.017   8.813
 8451SOL    HW226795   3.207   3.095   8.956
 8452SOL     OW26796   2.671   1.866   7.950
 8452SOL    HW126797   2.711   1.957   7.941
 8452SOL    HW226798   2.571   1.874   7.956
 8453SOL     OW26799   2.059   2.838   8.712
 8453SOL    HW126800   2.148   2.793   8.698
 8453SOL    HW226801   1.986   2.773   8.693
 8454SOL     OW26802   3.387   2.861   7.638
 8454SOL    HW126803   3.324   2.785   7.651
 8454SOL    HW226804   3.435   2.879   7.724
 8455SOL     OW26805   3.049   3.654   9.064
 8455SOL    HW126806   3.073   3.714   8.988
 8455SOL    HW226807   3.056   3.559   9.034
 8456SOL     OW26808   2.179   2.113   9.249
 8456SOL    HW126809   2.250   2.184   9.255
 8456SOL    HW226810   2.091   2.152   9.277
 8457SOL     OW26811   2.460   2.591   7.718
 8457SOL    HW126812   2.484   2.660   7.650
 8457SOL    HW226813   2.382   2.624   7.772
 8458SOL     OW26814   3.143   2.207   8.392
 8458SOL    HW126815   3.057   2.157   8.379
 8458SOL    HW226816   3.205   2.153   8.448
 8459SOL     OW26817   3.438   3.524   7.755
 8459SOL    HW126818   3.527   3.570   7.758
 8459SOL    HW226819   3.417   3.500   7.660
 8460SOL     OW26820   2.669   2.467   8.913
 8460SOL    HW126821   2.622   2.464   9.002
 8460SOL    HW226822   2.618   2.412   8.847
 8461SOL     OW26823   3.256   2.331   9.122
 8461SOL    HW126824   3.236   2.374   9.210
 8461SOL    HW226825   3.334   2.269   9.131
 8462SOL     OW26826   2.835   2.752   9.020
 8462SOL    HW126827   2.881   2.668   8.991
 8462SOL    HW226828   2.779   2.786   8.945
 8463SOL     OW26829   2.853   2.272   8.690
 8463SOL    HW126830   2.776   2.306   8.744
 8463SOL    HW226831   2.819   2.221   8.611
 8464SOL     OW26832   2.903   2.563   7.877
 8464SOL    HW126833   2.929   2.559   7.973
 8464SOL    HW226834   2.818   2.512   7.863
 8465SOL     OW26835   1.938   2.673   8.237
 8465SOL    HW126836   2.037   2.661   8.246
 8465SOL    HW226837   1.914   2.768   8.258
 8466SOL     OW26838   1.992   3.683   9.019
 8466SOL    HW126839   1.982   3.668   9.118
 8466SOL    HW226840   1.906   3.719   8.983
 8467SOL     OW26841   2.727   2.210   7.643
 8467SOL    HW126842   2.786   2.273   7.594
 8467SOL    HW226843   2.746   2.116   7.614
 8468SOL     OW26844   3.581   2.447   9.279
 8468SOL    HW126845   3.555   2.536   9.243
 8468SOL    HW226846   3.579   2.379   9.206
 8469SOL     OW26847   3.224   3.006   7.993
 8469SOL    HW126848   3.307   2.977   7.945
 8469SOL    HW226849   3.175   3.073   7.937
 8470SOL     OW26850   2.412   2.058   8.333
 8470SOL    HW126851   2.407   2.053   8.433
 8470SOL    HW226852   2.414   2.154   8.304
 8471SOL     OW26853   2.870   3.318   7.925
 8471SOL    HW126854   2.824   3.390   7.873
 8471SOL    HW226855   2.866   3.338   8.023
 8472SOL     OW26856   2.213   3.663   8.301
 8472SOL    HW126857   2.263   3.577   8.307
 8472SOL    HW226858   2.278   3.740   8.298
 8473SOL     OW26859   3.657   2.928   8.321
 8473SOL    HW126860   3.595   2.913   8.245
 8473SOL    HW226861   3.605   2.939   8.406
 8474SOL     OW26862   3.089   3.412   8.954
 8474SOL    HW126863   3.095   3.335   9.018
 8474SOL    HW226864   3.037   3.386   8.874
 8475SOL     OW26865   2.183   2.805   7.690
 8475SOL    HW126866   2.265   2.844   7.648
 8475SOL    HW226867   2.156   2.723   7.641
 8476SOL     OW26868   3.320   2.597   8.176
 8476SOL    HW126869   3.315   2.532   8.251
 8476SOL    HW226870   3.400   2.656   8.189
 8477SOL     OW26871   2.323   3.128   9.175
 8477SOL    HW126872   2.273   3.129   9.089
 8477SOL    HW226873   2.260   3.110   9.251
 8478SOL     OW26874   2.064   2.147   8.946
 8478SOL    HW126875   1.984   2.207   8.933
 8478SOL    HW226876   2.054   2.098   9.032
 8479SOL     OW26877   3.494   3.239   7.529
 8479SOL    HW126878   3.462   3.333   7.519
 8479SOL    HW226879   3.418   3.176   7.517
 8480SOL     OW26880   2.326   3.605   7.771
 8480SOL    HW126881   2.359   3.644   7.857
 8480SOL    HW226882   2.402   3.598   7.706
 8481SOL     OW26883   3.262   1.969   7.874
 8481SOL    HW126884   3.238   1.932   7.784
 8481SOL    HW226885   3.361   1.985   7.878
 8482SOL     OW26886   2.111   3.647   8.689
 8482SOL    HW126887   2.168   3.582   8.739
 8482SOL    HW226888   2.095   3.614   8.596
 8483SOL     OW26889   2.802   3.560   8.352
 8483SOL    HW126890   2.882   3.503   8.373
 8483SOL    HW226891   2.753   3.520   8.275
 8484SOL     OW26892   2.244   2.562   7.928
 8484SOL    HW126893   2.289   2.472   7.925
 8484SOL    HW226894   2.150   2.551   7.961
 8485SOL     OW26895   3.409   2.084   9.177
 8485SOL    HW126896   3.404   2.121   9.269
 8485SOL    HW226897   3.337   2.015   9.165
 8486SOL     OW26898   2.476   1.984   7.565
 8486SOL    HW126899   2.574   1.962   7.572
 8486SOL    HW226900   2.445   1.967   7.472
 8487SOL     OW26901   2.643   2.126   9.197
 8487SOL    HW126902   2.710   2.065   9.240
 8487SOL    HW226903   2.570   2.145   9.262
 8488SOL     OW26904   2.750   3.376   8.643
 8488SOL    HW126905   2.727   3.351   8.549
 8488SOL    HW226906   2.811   3.307   8.682
 8489SOL     OW26907   3.213   2.452   8.881
 8489SOL    HW126908   3.241   2.409   8.966
 8489SOL    HW226909   3.238   2.548   8.882
 8490SOL     OW26910   2.665   3.264   8.372
 8490SOL    HW126911   2.755   3.278   8.330
 8490SOL    HW226912   2.594   3.266   8.301
 8491SOL     OW26913   2.784   2.365   8.347
 8491SOL    HW126914   2.759   2.356   8.251
 8491SOL    HW226915   2.832   2.283   8.378
 8492SOL     OW26916   2.401   1.926   7.960
 8492SOL    HW126917   2.320   1.927   8.018
 8492SOL    HW226918   2.404   2.009   7.905
 8493SOL     OW26919   3.296   3.050   7.489
 8493SOL    HW126920   3.328   2.974   7.546
 8493SOL    HW226921   3.204   3.077   7.519
 8494SOL     OW26922   2.159   1.897   7.619
 8494SOL    HW126923   2.208   1.981   7.598
 8494SOL    HW226924   2.221   1.832   7.664
 8495SOL     OW26925   2.797   2.098   7.928
 8495SOL    HW126926   2.749   2.139   7.850
 8495SOL    HW226927   2.896   2.096   7.909
 8496SOL     OW26928   2.938   2.545   8.912
 8496SOL    HW126929   2.858   2.484   8.915
 8496SOL    HW226930   3.019   2.492   8.888
 8497SOL     OW26931   2.321   3.014   8.189
 8497SOL    HW126932   2.250   2.987   8.254
 8497SOL    HW226933   2.295   2.986   8.096
 8498SOL     OW26934   2.894   2.411   7.464
 8498SOL    HW126935   2.853   2.493   7.425
 8498SOL    HW226936   2.958   2.437   7.537
 8499SOL     OW26937   1.940   2.418   8.834
 8499SOL    HW126938   2.032   2.417   8.793
 8499SOL    HW226939   1.934   2.492   8.901
 8500SOL     OW26940   2.423   2.084   8.595
 8500SOL    HW126941   2.461   2.000   8.632
 8500SOL    HW226942   2.335   2.103   8.639
 8501SOL     OW26943   2.728   2.316   8.090
 8501SOL    HW126944   2.696   2.388   8.028
 8501SOL    HW226945   2.752   2.235   8.037
 8502SOL     OW26946   2.879   1.901   8.201
 8502SOL    HW126947   2.807   1.906   8.132
 8502SOL    HW226948   2.855   1.832   8.270
 8503SOL     OW26949   3.291   3.035   8.315
 8503SOL    HW126950   3.236   2.951   8.308
 8503SOL    HW226951   3.317   3.064   8.223
 8504SOL     OW26952   3.328   2.452   8.440
 8504SOL    HW126953   3.298   2.357   8.447
 8504SOL    HW226954   3.401   2.468   8.506
 8505SOL     OW26955   3.719   2.695   7.825
 8505SOL    HW126956   3.761   2.631   7.889
 8505SOL    HW226957   3.681   2.644   7.747
 8506SOL     OW26958   2.350   3.247   7.622
 8506SOL    HW126959   2.263   3.232   7.669
 8506SOL    HW226960   2.333   3.273   7.527
 8507SOL     OW26961   3.252   2.437   7.526
 8507SOL    HW126962   3.198   2.416   7.607
 8507SOL    HW226963   3.343   2.396   7.535
 8508SOL     OW26964   2.389   2.118   7.776
 8508SOL    HW126965   2.416   2.059   7.701
 8508SOL    HW226966   2.389   2.213   7.745
 8509SOL     OW26967   3.616   3.085   9.036
 8509SOL    HW126968   3.707   3.046   9.023
 8509SOL    HW226969   3.624   3.181   9.060
 8510SOL     OW26970   2.926   3.209   8.788
 8510SOL    HW126971   2.846   3.186   8.843
 8510SOL    HW226972   3.009   3.183   8.837
 8511SOL     OW26973   3.454   3.491   9.073
 8511SOL    HW126974   3.481   3.525   8.983
 8511SOL    HW226975   3.533   3.453   9.119
 8512SOL     OW26976   2.973   3.057   8.548
 8512SOL    HW126977   2.933   3.101   8.629
 8512SOL    HW226978   2.932   3.094   8.465
 8513SOL     OW26979   3.500   2.961   8.527
 8513SOL    HW126980   3.505   3.042   8.586
 8513SOL    HW226981   3.414   2.963   8.476
 8514SOL     OW26982   2.777   1.951   8.850
 8514SOL    HW126983   2.802   1.931   8.755
 8514SOL    HW226984   2.849   2.007   8.892
 8515SOL     OW26985   2.842   2.978   9.167
 8515SOL    HW126986   2.743   2.984   9.177
 8515SOL    HW226987   2.865   2.898   9.111
 8516SOL     OW26988   2.567   2.912   7.816
 8516SOL    HW126989   2.553   2.919   7.915
 8516SOL    HW226990   2.651   2.861   7.798
 8517SOL     OW26991   2.272   2.675   8.699
 8517SOL    HW126992   2.358   2.687   8.749
 8517SOL    HW226993   2.230   2.588   8.726
 8518SOL     OW26994   3.136   2.248   8.710
 8518SOL    HW126995   3.157   2.322   8.774
 8518SOL    HW226996   3.047   2.265   8.667
 8519SOL     OW26997   1.926   3.426   8.779
 8519SOL    HW126998   1.880   3.508   8.745
 8519SOL    HW226999   2.024   3.445   8.788
 8520SOL     OW27000   2.229   2.962   7.949
 8520SOL    HW127001   2.222   3.045   7.893
 8520SOL    HW227002   2.233   2.882   7.889
 8521SOL     OW27003   2.428   2.399   8.313
 8521SOL    HW127004   2.440   2.465   8.239
 8521SOL    HW227005   2.474   2.433   8.396
 8522SOL     OW27006   3.114   3.210   7.836
 8522SOL    HW127007   3.164   3.287   7.876
 8522SOL    HW227008   3.019   3.212   7.868
 8523SOL     OW27009   3.134   3.307   8.590
 8523SOL    HW127010   3.181   3.320   8.677
 8523SOL    HW227011   3.068   3.233   8.599
 8524SOL     OW27012   3.444   2.501   7.920
 8524SOL    HW127013   3.413   2.562   7.993
 8524SOL    HW227014   3.494   2.553   7.851
 8525SOL     OW27015   2.216   3.372   8.777
 8525SOL    HW127016   2.195   3.328   8.690
 8525SOL    HW227017   2.313   3.398   8.780
 8526SOL     OW27018   2.264   2.613   9.046
 8526SOL    HW127019   2.332   2.668   8.999
 8526SOL    HW227020   2.304   2.525   9.073
 8527SOL     OW27021   3.449   2.641   9.118
 8527SOL    HW127022   3.357   2.679   9.113
 8527SOL    HW227023   3.509   2.688   9.053
 8528SOL     OW27024   2.875   1.967   9.218
 8528SOL    HW127025   2.881   2.052   9.166
 8528SOL    HW227026   2.907   1.891   9.161
 8529SOL     OW27027   2.366   1.912   9.188
 8529SOL    HW127028   2.324   1.855   9.118
 8529SOL    HW227029   2.300   1.981   9.220
 8530SOL     OW27030   2.435   2.732   8.477
 8530SOL    HW127031   2.479   2.821   8.468
 8530SOL    HW227032   2.372   2.732   8.554
 8531SOL     OW27033   3.222   2.724   8.493
 8531SOL    HW127034   3.147   2.724   8.427
 8531SOL    HW227035   3.259   2.632   8.502
 8532SOL     OW27036   3.071   2.387   7.723
 8532SOL    HW127037   3.084   2.303   7.777
 8532SOL    HW227038   3.042   2.461   7.783
 8533SOL     OW27039   2.169   2.075   8.679
 8533SOL    HW127040   2.146   2.112   8.769
 8533SOL    HW227041   2.139   1.980   8.673
 8534SOL     OW27042   1.899   3.172   8.730
 8534SOL    HW127043   1.952   3.123   8.798
 8534SOL    HW227044   1.921   3.270   8.735
 8535SOL     OW27045   2.594   2.496   8.512
 8535SOL    HW127046   2.653   2.470   8.436
 8535SOL    HW227047   2.566   2.592   8.501
 8536SOL     OW27048   3.590   2.797   9.302
 8536SOL    HW127049   3.544   2.790   9.213
 8536SOL    HW227050   3.528   2.841   9.368
 8537SOL     OW27051   2.169   1.925   8.066
 8537SOL    HW127052   2.158   2.019   8.099
 8537SOL    HW227053   2.164   1.862   8.143
 8538SOL     OW27054   3.484   2.229   7.822
 8538SOL    HW127055   3.486   2.153   7.886
 8538SOL    HW227056   3.436   2.306   7.862
 8539SOL     OW27057   2.885   2.628   8.414
 8539SOL    HW127058   2.900   2.649   8.510
 8539SOL    HW227059   2.855   2.533   8.405
 8540SOL     OW27060   2.842   3.435   9.148
 8540SOL    HW127061   2.822   3.479   9.060
 8540SOL    HW227062   2.881   3.344   9.132
 8541SOL     OW27063   2.212   2.760   9.252
 8541SOL    HW127064   2.288   2.804   9.300
 8541SOL    HW227065   2.247   2.713   9.170
 8542SOL     OW27066   3.402   2.136   7.573
 8542SOL    HW127067   3.341   2.061   7.596
 8542SOL    HW227068   3.424   2.188   7.656
 8543SOL     OW27069   3.165   2.700   7.490
 8543SOL    HW127070   3.199   2.607   7.505
 8543SOL    HW227071   3.183   2.727   7.395
 8544SOL     OW27072   2.930   3.195   8.297
 8544SOL    HW127073   2.937   3.111   8.242
 8544SOL    HW227074   2.992   3.264   8.261
 8545SOL     OW27075   2.181   2.672   8.397
 8545SOL    HW127076   2.274   2.708   8.402
 8545SOL    HW227077   2.175   2.587   8.449
 8546SOL     OW27078   2.201   2.371   8.454
 8546SOL    HW127079   2.149   2.288   8.437
 8546SOL    HW227080   2.278   2.376   8.390
 8547SOL     OW27081   3.000   2.242   9.126
 8547SOL    HW127082   2.955   2.305   9.190
 8547SOL    HW227083   3.093   2.273   9.109
 8548SOL     OW27084   3.022   2.069   8.925
 8548SOL    HW127085   3.022   2.133   9.002
 8548SOL    HW227086   3.050   2.117   8.842
 8549SOL     OW27087   1.870   3.188   7.648
 8549SOL    HW127088   1.777   3.209   7.617
 8549SOL    HW227089   1.880   3.089   7.661
 8550SOL     OW27090   1.950   3.663   8.375
 8550SOL    HW127091   1.908   3.577   8.348
 8550SOL    HW227092   2.044   3.666   8.341
 8551SOL     OW27093   2.366   3.430   8.358
 8551SOL    HW127094   2.432   3.504   8.367
 8551SOL    HW227095   2.410   3.351   8.316
 8552SOL     OW27096   2.864   2.658   8.686
 8552SOL    HW127097   2.905   2.626   8.772
 8552SOL    HW227098   2.768   2.631   8.683
 8553SOL     OW27099   1.902   2.406   8.562
 8553SOL    HW127100   1.987   2.373   8.521
 8553SOL    HW227101   1.915   2.421   8.660
 8554SOL     OW27102   2.051   2.382   9.170
 8554SOL    HW127103   2.110   2.342   9.100
 8554SOL    HW227104   1.993   2.453   9.129
 8555SOL     OW27105   3.231   2.812   9.108
 8555SOL    HW127106   3.270   2.901   9.128
 8555SOL    HW227107   3.241   2.792   9.011
 8556SOL     OW27108   2.677   2.434   7.773
 8556SOL    HW127109   2.684   2.345   7.727
 8556SOL    HW227110   2.583   2.468   7.765
 8557SOL     OW27111   3.519   2.466   8.654
 8557SOL    HW127112   3.481   2.397   8.716
 8557SOL    HW227113   3.601   2.430   8.610
 8558SOL     OW27114   2.114   3.426   9.192
 8558SOL    HW127115   2.084   3.483   9.268
 8558SOL    HW227116   2.107   3.329   9.218
 8559SOL     OW27117   2.533   2.326   8.717
 8559SOL    HW127118   2.499   2.237   8.687
 8559SOL    HW227119   2.559   2.380   8.637
 8560SOL     OW27120   2.792   3.540   8.913
 8560SOL    HW127121   2.768   3.522   8.818
 8560SOL    HW227122   2.822   3.634   8.923
 8561SOL     OW27123   2.335   2.362   7.639
 8561SOL    HW127124   2.396   2.442   7.643
 8561SOL    HW227125   2.240   2.393   7.646
 8562SOL     OW27126   2.021   2.999   8.914
 8562SOL    HW127127   2.043   2.938   8.990
 8562SOL    HW227128   2.031   2.950   8.828
 8563SOL     OW27129   3.209   2.921   8.682
 8563SOL    HW127130   3.233   2.858   8.608
 8563SOL    HW227131   3.119   2.961   8.664
 8564SOL     OW27132   3.164   2.717   7.757
 8564SOL    HW127133   3.078   2.686   7.799
 8564SOL    HW227134   3.160   2.703   7.658
 8565SOL     OW27135   3.114   3.593   8.576
 8565SOL    HW127136   3.198   3.598   8.522
 8565SOL    HW227137   3.091   3.497   8.594
 8566SOL     OW27138   1.945   3.120   8.470
 8566SOL    HW127139   1.940   3.119   8.570
 8566SOL    HW227140   1.862   3.079   8.432
 8567SOL     OW27141   2.550   3.524   9.164
 8567SOL    HW127142   2.494   3.605   9.173
 8567SOL    HW227143   2.602   3.528   9.078
 8568SOL     OW27144   3.588   1.997   7.971
 8568SOL    HW127145   3.661   1.980   7.904
 8568SOL    HW227146   3.557   1.910   8.009
 8569SOL     OW27147   3.250   3.435   7.925
 8569SOL    HW127148   3.317   3.447   7.851
 8569SOL    HW227149   3.210   3.524   7.948
 8570SOL     OW27150   1.992   3.656   9.299
 8570SOL    HW127151   1.951   3.582   9.352
 8570SOL    HW227152   2.056   3.707   9.357
 8571SOL     OW27153   3.142   2.789   8.120
 8571SOL    HW127154   3.202   2.708   8.122
 8571SOL    HW227155   3.182   2.858   8.060
 8572SOL     OW27156   2.692   3.135   8.870
 8572SOL    HW127157   2.687   3.168   8.965
 8572SOL    HW227158   2.606   3.154   8.824
 8573SOL     OW27159   2.534   3.478   7.602
 8573SOL    HW127160   2.543   3.488   7.503
 8573SOL    HW227161   2.494   3.389   7.623
 8574SOL     OW27162   3.703   2.037   8.411
 8574SOL    HW127163   3.742   1.952   8.375
 8574SOL    HW227164   3.605   2.039   8.392
 8575SOL     OW27165   2.125   2.188   8.168
 8575SOL    HW127166   2.046   2.239   8.134
 8575SOL    HW227167   2.116   2.173   8.266
 8576SOL     OW27168   3.056   3.474   7.479
 8576SOL    HW127169   3.062   3.381   7.516
 8576SOL    HW227170   2.997   3.474   7.399
 8577SOL     OW27171   2.684   2.864   8.820
 8577SOL    HW127172   2.724   2.863   8.728
 8577SOL    HW227173   2.694   2.956   8.860
 8578SOL     OW27174   2.778   2.772   7.739
 8578SOL    HW127175   2.841   2.810   7.671
 8578SOL    HW227176   2.818   2.689   7.778
 8579SOL     OW27177   3.366   3.469   7.492
 8579SOL    HW127178   3.274   3.506   7.499
 8579SOL    HW227179   3.404   3.489   7.402
 8580SOL     OW27180   2.234   3.150   8.938
 8580SOL    HW127181   2.221   3.243   8.904
 8580SOL    HW227182   2.150   3.098   8.925
 8581SOL     OW27183   3.476   3.154   8.737
 8581SOL    HW127184   3.536   3.157   8.817
 8581SOL    HW227185   3.401   3.218   8.750
 8582SOL     OW27186   2.901   2.960   8.144
 8582SOL    HW127187   2.831   2.913   8.198
 8582SOL    HW227188   2.960   2.892   8.101
 8583SOL     OW27189   2.876   2.098   8.419
 8583SOL    HW127190   2.868   2.062   8.326
 8583SOL    HW227191   2.874   2.022   8.484
 8584SOL     OW27192   2.452   3.349   7.939
 8584SOL    HW127193   2.494   3.291   7.869
 8584SOL    HW227194   2.408   3.428   7.895
 8585SOL     OW27195   3.571   2.247   8.829
 8585SOL    HW127196   3.644   2.316   8.833
 8585SOL    HW227197   3.599   2.172   8.770
 8586SOL     OW27198   2.117   3.210   7.738
 8586SOL    HW127199   2.021   3.211   7.711
 8586SOL    HW227200   2.129   3.263   7.822
 8587SOL     OW27201   1.967   2.875   9.174
 8587SOL    HW127202   1.890   2.842   9.228
 8587SOL    HW227203   2.052   2.845   9.216
 8588SOL     OW27204   2.534   2.065   8.937
 8588SOL    HW127205   2.624   2.049   8.897
 8588SOL    HW227206   2.542   2.070   9.036
 8589SOL     OW27207   1.937   2.207   7.481
 8589SOL    HW127208   1.845   2.179   7.452
 8589SOL    HW227209   1.968   2.284   7.425
 8590SOL     OW27210   3.302   2.718   8.846
 8590SOL    HW127211   3.245   2.770   8.783
 8590SOL    HW227212   3.398   2.730   8.822
 8591SOL     OW27213   1.934   2.028   7.766
 8591SOL    HW127214   1.917   2.111   7.712
 8591SOL    HW227215   2.024   1.991   7.744
 8592SOL     OW27216   3.045   3.197   7.567
 8592SOL    HW127217   2.946   3.186   7.569
 8592SOL    HW227218   3.079   3.212   7.660
 8593SOL     OW27219   2.475   2.704   8.879
 8593SOL    HW127220   2.531   2.785   8.862
 8593SOL    HW227221   2.534   2.624   8.882
 8594SOL     OW27222   2.578   2.427   9.156
 8594SOL    HW127223   2.597   2.492   9.230
 8594SOL    HW227224   2.638   2.347   9.165
 8595SOL     OW27225   3.312   3.082   9.081
 8595SOL    HW127226   3.303   3.072   9.180
 8595SOL    HW227227   3.408   3.075   9.055
 8596SOL     OW27228   2.252   3.603   9.008
 8596SOL    HW127229   2.161   3.644   9.006
 8596SOL    HW227230   2.245   3.509   9.040
 8597SOL     OW27231   3.536   2.745   8.702
 8597SOL    HW127232   3.509   2.656   8.665
 8597SOL    HW227233   3.537   2.813   8.629
 8598SOL     OW27234   3.087   2.187   7.897
 8598SOL    HW127235   3.152   2.113   7.886
 8598SOL    HW227236   3.107   2.237   7.981
 8599SOL     OW27237   2.456   2.607   8.100
 8599SOL    HW127238   2.506   2.692   8.081
 8599SOL    HW227239   2.368   2.609   8.052
 8600SOL     OW27240   3.639   2.204   9.090
 8600SOL    HW127241   3.622   2.235   8.996
 8600SOL    HW227242   3.555   2.167   9.128
 8601SOL     OW27243   3.592   2.796   8.965
 8601SOL    HW127244   3.630   2.887   8.980
 8601SOL    HW227245   3.584   2.779   8.866
 8602SOL     OW27246   2.721   3.236   7.464
 8602SOL    HW127247   2.675   3.251   7.552
 8602SOL    HW227248   2.765   3.321   7.434
 8603SOL     OW27249   2.523   3.652   8.401
 8603SOL    HW127250   2.477   3.740   8.388
 8603SOL    HW227251   2.622   3.664   8.394
 8604SOL     OW27252   2.721   2.818   8.309
 8604SOL    HW127253   2.775   2.749   8.357
 8604SOL    HW227254   2.689   2.887   8.375
 8605SOL     OW27255   2.945   2.846   7.535
 8605SOL    HW127256   2.922   2.899   7.453
 8605SOL    HW227257   3.026   2.790   7.516
 8606SOL     OW27258   2.083   3.176   9.292
 8606SOL    HW127259   2.018   3.103   9.271
 8606SOL    HW227260   2.087   3.190   9.390
 8607SOL     OW27261   1.941   3.102   8.101
 8607SOL    HW127262   1.940   3.055   8.189
 8607SOL    HW227263   2.023   3.074   8.050
 8608SOL     OW27264   2.534   3.253   9.072
 8608SOL    HW127265   2.456   3.203   9.110
 8608SOL    HW227266   2.531   3.348   9.103
 8609SOL     OW27267   3.686   2.054   8.675
 8609SOL    HW127268   3.682   1.964   8.719
 8609SOL    HW227269   3.689   2.043   8.576
 8610SOL     OW27270   2.290   2.286   7.968
 8610SOL    HW127271   2.320   2.214   7.906
 8610SOL    HW227272   2.251   2.246   8.051
 8611SOL     OW27273   2.179   2.409   8.728
 8611SOL    HW127274   2.217   2.350   8.800
 8611SOL    HW227275   2.219   2.383   8.640
 8612SOL     OW27276   2.674   3.448   8.135
 8612SOL    HW127277   2.706   3.458   8.041
 8612SOL    HW227278   2.595   3.386   8.137
 8613SOL     OW27279   3.286   2.076   8.560
 8613SOL    HW127280   3.338   2.011   8.615
 8613SOL    HW227281   3.237   2.139   8.621
 8614SOL     OW27282   2.863   1.896   8.602
 8614SOL    HW127283   2.800   1.824   8.571
 8614SOL    HW227284   2.956   1.860   8.602
 8615SOL     OW27285   2.632   3.192   7.749
 8615SOL    HW127286   2.586   3.105   7.766
 8615SOL    HW227287   2.723   3.189   7.790
 8616SOL     OW27288   2.480   3.429   8.732
 8616SOL    HW127289   2.475   3.511   8.789
 8616SOL    HW227290   2.569   3.426   8.687
 8617SOL     OW27291   3.214   1.914   7.616
 8617SOL    HW127292   3.249   1.873   7.532
 8617SOL    HW227293   3.124   1.876   7.636
 8618SOL     OW27294   3.162   2.315   8.139
 8618SOL    HW127295   3.103   2.395   8.143
 8618SOL    HW227296   3.177   2.280   8.232
 8619SOL     OW27297   3.455   2.083   8.330
 8619SOL    HW127298   3.371   2.082   8.384
 8619SOL    HW227299   3.457   2.166   8.274
 8620SOL     OW27300   1.901   2.939   7.748
 8620SOL    HW127301   2.000   2.928   7.739
 8620SOL    HW227302   1.861   2.853   7.780
 8621SOL     OW27303   2.737   3.508   7.785
 8621SOL    HW127304   2.660   3.473   7.731
 8621SOL    HW227305   2.705   3.579   7.847
 8622SOL     OW27306   2.092   2.490   9.423
 8622SOL    HW127307   1.999   2.488   9.460
 8622SOL    HW227308   2.093   2.451   9.331
 8623SOL     OW27309   2.087   2.137  10.306
 8623SOL    HW127310   2.122   2.120  10.398
 8623SOL    HW227311   1.999   2.092  10.294
 8624SOL     OW27312   1.881   2.230   9.957
 8624SOL    HW127313   1.799   2.273   9.996
 8624SOL    HW227314   1.853   2.157   9.894
 8625SOL     OW27315   2.431   3.137  10.475
 8625SOL    HW127316   2.338   3.130  10.438
 8625SOL    HW227317   2.442   3.226  10.519
 8626SOL     OW27318   2.997   2.565  10.027
 8626SOL    HW127319   3.054   2.643  10.002
 8626SOL    HW227320   2.937   2.591  10.103
 8627SOL     OW27321   3.617   2.469   9.541
 8627SOL    HW127322   3.605   2.456   9.442
 8627SOL    HW227323   3.587   2.388   9.590
 8628SOL     OW27324   2.630   3.006  10.333
 8628SOL    HW127325   2.552   3.023  10.393
 8628SOL    HW227326   2.664   3.093  10.297
 8629SOL     OW27327   2.712   2.660  11.133
 8629SOL    HW127328   2.708   2.736  11.198
 8629SOL    HW227329   2.734   2.696  11.042
 8630SOL     OW27330   2.547   2.874   9.975
 8630SOL    HW127331   2.616   2.858  10.045
 8630SOL    HW227332   2.474   2.931  10.013
 8631SOL     OW27333   2.548   3.023  11.113
 8631SOL    HW127334   2.608   3.102  11.127
 8631SOL    HW227335   2.462   3.054  11.072
 8632SOL     OW27336   2.197   3.297  10.371
 8632SOL    HW127337   2.119   3.266  10.318
 8632SOL    HW227338   2.255   3.355  10.314
 8633SOL     OW27339   3.322   3.367  10.649
 8633SOL    HW127340   3.346   3.461  10.675
 8633SOL    HW227341   3.306   3.313  10.731
 8634SOL     OW27342   2.300   2.254  10.809
 8634SOL    HW127343   2.382   2.198  10.818
 8634SOL    HW227344   2.219   2.196  10.813
 8635SOL     OW27345   3.465   2.309  10.047
 8635SOL    HW127346   3.391   2.355   9.997
 8635SOL    HW227347   3.516   2.377  10.100
 8636SOL     OW27348   2.093   3.575   9.793
 8636SOL    HW127349   2.127   3.652   9.847
 8636SOL    HW227350   2.137   3.575   9.703
 8637SOL     OW27351   2.989   3.203  11.000
 8637SOL    HW127352   3.036   3.203  11.088
 8637SOL    HW227353   2.941   3.116  10.989
 8638SOL     OW27354   2.092   3.296   9.848
 8638SOL    HW127355   2.066   3.392   9.848
 8638SOL    HW227356   2.021   3.242   9.893
 8639SOL     OW27357   2.102   2.953  10.196
 8639SOL    HW127358   2.116   2.869  10.248
 8639SOL    HW227359   2.047   3.017  10.251
 8640SOL     OW27360   2.482   3.648  10.749
 8640SOL    HW127361   2.390   3.631  10.784
 8640SOL    HW227362   2.510   3.740  10.775
 8641SOL     OW27363   2.468   2.826   9.433
 8641SOL    HW127364   2.475   2.910   9.379
 8641SOL    HW227365   2.514   2.839   9.521
 8642SOL     OW27366   3.456   1.976  10.790
 8642SOL    HW127367   3.438   2.043  10.718
 8642SOL    HW227368   3.453   2.022  10.879
 8643SOL     OW27369   1.984   2.505   9.873
 8643SOL    HW127370   1.939   2.417   9.890
 8643SOL    HW227371   1.983   2.559   9.957
 8644SOL     OW27372   1.889   3.458   9.427
 8644SOL    HW127373   1.870   3.362   9.448
 8644SOL    HW227374   1.856   3.516   9.502
 8645SOL     OW27375   3.551   2.784   9.922
 8645SOL    HW127376   3.646   2.755   9.930
 8645SOL    HW227377   3.543   2.849   9.847
 8646SOL     OW27378   3.503   2.970   9.742
 8646SOL    HW127379   3.589   2.972   9.690
 8646SOL    HW227380   3.517   3.017   9.830
 8647SOL     OW27381   1.975   2.599  10.907
 8647SOL    HW127382   2.063   2.586  10.952
 8647SOL    HW227383   1.962   2.696  10.885
 8648SOL     OW27384   2.475   3.227  10.036
 8648SOL    HW127385   2.426   3.140  10.045
 8648SOL    HW227386   2.452   3.270   9.949
 8649SOL     OW27387   3.155   3.090  10.733
 8649SOL    HW127388   3.192   3.017  10.675
 8649SOL    HW227389   3.207   3.095  10.818
 8650SOL     OW27390   2.671   1.866   9.812
 8650SOL    HW127391   2.711   1.957   9.803
 8650SOL    HW227392   2.571   1.874   9.818
 8651SOL     OW27393   2.059   2.838  10.574
 8651SOL    HW127394   2.148   2.793  10.560
 8651SOL    HW227395   1.986   2.773  10.555
 8652SOL     OW27396   3.387   2.861   9.500
 8652SOL    HW127397   3.324   2.785   9.513
 8652SOL    HW227398   3.435   2.879   9.586
 8653SOL     OW27399   3.049   3.654  10.926
 8653SOL    HW127400   3.073   3.714  10.850
 8653SOL    HW227401   3.056   3.559  10.896
 8654SOL     OW27402   2.179   2.113  11.111
 8654SOL    HW127403   2.250   2.184  11.117
 8654SOL    HW227404   2.091   2.152  11.139
 8655SOL     OW27405   3.328   3.279  10.263
 8655SOL    HW127406   3.269   3.285  10.343
 8655SOL    HW227407   3.313   3.191  10.217
 8656SOL     OW27408   2.460   2.591   9.580
 8656SOL    HW127409   2.484   2.660   9.512
 8656SOL    HW227410   2.382   2.624   9.634
 8657SOL     OW27411   3.143   2.207  10.254
 8657SOL    HW127412   3.057   2.157  10.241
 8657SOL    HW227413   3.205   2.153  10.310
 8658SOL     OW27414   2.669   2.467  10.775
 8658SOL    HW127415   2.622   2.464  10.864
 8658SOL    HW227416   2.618   2.412  10.709
 8659SOL     OW27417   3.256   2.331  10.984
 8659SOL    HW127418   3.236   2.374  11.072
 8659SOL    HW227419   3.334   2.269  10.993
 8660SOL     OW27420   2.835   2.752  10.882
 8660SOL    HW127421   2.881   2.668  10.853
 8660SOL    HW227422   2.779   2.786  10.807
 8661SOL     OW27423   2.853   2.272  10.552
 8661SOL    HW127424   2.776   2.306  10.606
 8661SOL    HW227425   2.819   2.221  10.473
 8662SOL     OW27426   2.903   2.563   9.739
 8662SOL    HW127427   2.929   2.559   9.835
 8662SOL    HW227428   2.818   2.512   9.725
 8663SOL     OW27429   1.938   2.673  10.099
 8663SOL    HW127430   2.037   2.661  10.108
 8663SOL    HW227431   1.914   2.768  10.120
 8664SOL     OW27432   1.992   3.683  10.881
 8664SOL    HW127433   1.982   3.668  10.980
 8664SOL    HW227434   1.906   3.719  10.845
 8665SOL     OW27435   2.727   2.210   9.505
 8665SOL    HW127436   2.786   2.273   9.456
 8665SOL    HW227437   2.746   2.116   9.476
 8666SOL     OW27438   3.581   2.447  11.141
 8666SOL    HW127439   3.555   2.536  11.105
 8666SOL    HW227440   3.579   2.379  11.068
 8667SOL     OW27441   3.224   3.006   9.855
 8667SOL    HW127442   3.307   2.977   9.807
 8667SOL    HW227443   3.175   3.073   9.799
 8668SOL     OW27444   2.412   2.058  10.195
 8668SOL    HW127445   2.407   2.053  10.295
 8668SOL    HW227446   2.414   2.154  10.166
 8669SOL     OW27447   2.870   3.318   9.787
 8669SOL    HW127448   2.824   3.390   9.735
 8669SOL    HW227449   2.866   3.338   9.885
 8670SOL     OW27450   2.213   3.663  10.163
 8670SOL    HW127451   2.263   3.577  10.169
 8670SOL    HW227452   2.278   3.740  10.160
 8671SOL     OW27453   3.657   2.928  10.183
 8671SOL    HW127454   3.595   2.913  10.107
 8671SOL    HW227455   3.605   2.939  10.268
 8672SOL     OW27456   3.089   3.412  10.816
 8672SOL    HW127457   3.095   3.335  10.880
 8672SOL    HW227458   3.037   3.386  10.736
 8673SOL     OW27459   2.183   2.805   9.552
 8673SOL    HW127460   2.265   2.844   9.510
 8673SOL    HW227461   2.156   2.723   9.503
 8674SOL     OW27462   3.320   2.597  10.038
 8674SOL    HW127463   3.315   2.532  10.113
 8674SOL    HW227464   3.400   2.656  10.051
 8675SOL     OW27465   2.323   3.128  11.037
 8675SOL    HW127466   2.273   3.129  10.951
 8675SOL    HW227467   2.260   3.110  11.113
 8676SOL     OW27468   2.973   3.638   9.547
 8676SOL    HW127469   2.913   3.576   9.597
 8676SOL    HW227470   3.004   3.594   9.462
 8677SOL     OW27471   2.064   2.147  10.808
 8677SOL    HW127472   1.984   2.207  10.795
 8677SOL    HW227473   2.054   2.098  10.894
 8678SOL     OW27474   2.326   3.605   9.633
 8678SOL    HW127475   2.359   3.644   9.719
 8678SOL    HW227476   2.402   3.598   9.568
 8679SOL     OW27477   3.262   1.969   9.736
 8679SOL    HW127478   3.238   1.932   9.646
 8679SOL    HW227479   3.361   1.985   9.740
 8680SOL     OW27480   2.111   3.647  10.551
 8680SOL    HW127481   2.168   3.582  10.601
 8680SOL    HW227482   2.095   3.614  10.458
 8681SOL     OW27483   2.802   3.560  10.214
 8681SOL    HW127484   2.882   3.503  10.235
 8681SOL    HW227485   2.753   3.520  10.137
 8682SOL     OW27486   2.244   2.562   9.790
 8682SOL    HW127487   2.289   2.472   9.787
 8682SOL    HW227488   2.150   2.551   9.823
 8683SOL     OW27489   3.409   2.084  11.039
 8683SOL    HW127490   3.404   2.121  11.131
 8683SOL    HW227491   3.337   2.015  11.027
 8684SOL     OW27492   2.476   1.984   9.427
 8684SOL    HW127493   2.574   1.962   9.434
 8684SOL    HW227494   2.445   1.967   9.334
 8685SOL     OW27495   2.643   2.126  11.059
 8685SOL    HW127496   2.710   2.065  11.102
 8685SOL    HW227497   2.570   2.145  11.124
 8686SOL     OW27498   2.750   3.376  10.505
 8686SOL    HW127499   2.727   3.351  10.411
 8686SOL    HW227500   2.811   3.307  10.544
 8687SOL     OW27501   3.213   2.452  10.743
 8687SOL    HW127502   3.241   2.409  10.828
 8687SOL    HW227503   3.238   2.548  10.744
 8688SOL     OW27504   2.665   3.264  10.234
 8688SOL    HW127505   2.755   3.278  10.192
 8688SOL    HW227506   2.594   3.266  10.163
 8689SOL     OW27507   2.784   2.365  10.209
 8689SOL    HW127508   2.759   2.356  10.113
 8689SOL    HW227509   2.832   2.283  10.240
 8690SOL     OW27510   2.401   1.926   9.822
 8690SOL    HW127511   2.320   1.927   9.880
 8690SOL    HW227512   2.404   2.009   9.767
 8691SOL     OW27513   3.296   3.050   9.351
 8691SOL    HW127514   3.328   2.974   9.408
 8691SOL    HW227515   3.204   3.077   9.381
 8692SOL     OW27516   2.159   1.897   9.481
 8692SOL    HW127517   2.208   1.981   9.460
 8692SOL    HW227518   2.221   1.832   9.526
 8693SOL     OW27519   2.797   2.098   9.790
 8693SOL    HW127520   2.749   2.139   9.712
 8693SOL    HW227521   2.896   2.096   9.771
 8694SOL     OW27522   2.938   2.545  10.774
 8694SOL    HW127523   2.858   2.484  10.777
 8694SOL    HW227524   3.019   2.492  10.750
 8695SOL     OW27525   3.089   3.432  10.103
 8695SOL    HW127526   3.110   3.506  10.038
 8695SOL    HW227527   3.157   3.432  10.176
 8696SOL     OW27528   2.321   3.014  10.051
 8696SOL    HW127529   2.250   2.987  10.116
 8696SOL    HW227530   2.295   2.986   9.958
 8697SOL     OW27531   3.133   3.659   9.901
 8697SOL    HW127532   3.177   3.723   9.837
 8697SOL    HW227533   3.083   3.711   9.971
 8698SOL     OW27534   2.894   2.411   9.326
 8698SOL    HW127535   2.853   2.493   9.287
 8698SOL    HW227536   2.958   2.437   9.399
 8699SOL     OW27537   1.940   2.418  10.696
 8699SOL    HW127538   2.032   2.417  10.655
 8699SOL    HW227539   1.934   2.492  10.763
 8700SOL     OW27540   2.423   2.084  10.457
 8700SOL    HW127541   2.461   2.000  10.494
 8700SOL    HW227542   2.335   2.103  10.501
 8701SOL     OW27543   2.728   2.316   9.952
 8701SOL    HW127544   2.696   2.388   9.890
 8701SOL    HW227545   2.752   2.235   9.899
 8702SOL     OW27546   2.879   1.901  10.063
 8702SOL    HW127547   2.807   1.906   9.994
 8702SOL    HW227548   2.855   1.832  10.132
 8703SOL     OW27549   3.291   3.035  10.177
 8703SOL    HW127550   3.236   2.951  10.170
 8703SOL    HW227551   3.317   3.064  10.085
 8704SOL     OW27552   3.328   2.452  10.302
 8704SOL    HW127553   3.298   2.357  10.309
 8704SOL    HW227554   3.401   2.468  10.368
 8705SOL     OW27555   3.719   2.695   9.687
 8705SOL    HW127556   3.761   2.631   9.751
 8705SOL    HW227557   3.681   2.644   9.609
 8706SOL     OW27558   2.350   3.247   9.484
 8706SOL    HW127559   2.263   3.232   9.531
 8706SOL    HW227560   2.333   3.273   9.389
 8707SOL     OW27561   3.252   2.437   9.388
 8707SOL    HW127562   3.198   2.416   9.469
 8707SOL    HW227563   3.343   2.396   9.397
 8708SOL     OW27564   2.389   2.118   9.638
 8708SOL    HW127565   2.416   2.059   9.563
 8708SOL    HW227566   2.389   2.213   9.607
 8709SOL     OW27567   3.616   3.085  10.898
 8709SOL    HW127568   3.707   3.046  10.885
 8709SOL    HW227569   3.624   3.181  10.922
 8710SOL     OW27570   2.926   3.209  10.650
 8710SOL    HW127571   2.846   3.186  10.705
 8710SOL    HW227572   3.009   3.183  10.699
 8711SOL     OW27573   3.454   3.491  10.935
 8711SOL    HW127574   3.481   3.525  10.845
 8711SOL    HW227575   3.533   3.453  10.981
 8712SOL     OW27576   2.973   3.057  10.410
 8712SOL    HW127577   2.933   3.101  10.491
 8712SOL    HW227578   2.932   3.094  10.327
 8713SOL     OW27579   3.500   2.961  10.389
 8713SOL    HW127580   3.505   3.042  10.448
 8713SOL    HW227581   3.414   2.963  10.338
 8714SOL     OW27582   2.777   1.951  10.712
 8714SOL    HW127583   2.802   1.931  10.617
 8714SOL    HW227584   2.849   2.007  10.754
 8715SOL     OW27585   2.842   2.978  11.029
 8715SOL    HW127586   2.743   2.984  11.039
 8715SOL    HW227587   2.865   2.898  10.973
 8716SOL     OW27588   2.567   2.912   9.678
 8716SOL    HW127589   2.553   2.919   9.777
 8716SOL    HW227590   2.651   2.861   9.660
 8717SOL     OW27591   2.272   2.675  10.561
 8717SOL    HW127592   2.358   2.687  10.611
 8717SOL    HW227593   2.230   2.588  10.588
 8718SOL     OW27594   3.136   2.248  10.572
 8718SOL    HW127595   3.157   2.322  10.636
 8718SOL    HW227596   3.047   2.265  10.529
 8719SOL     OW27597   1.926   3.426  10.641
 8719SOL    HW127598   1.880   3.508  10.607
 8719SOL    HW227599   2.024   3.445  10.650
 8720SOL     OW27600   2.229   2.962   9.811
 8720SOL    HW127601   2.222   3.045   9.755
 8720SOL    HW227602   2.233   2.882   9.751
 8721SOL     OW27603   2.428   2.399  10.175
 8721SOL    HW127604   2.440   2.465  10.101
 8721SOL    HW227605   2.474   2.433  10.258
 8722SOL     OW27606   3.114   3.210   9.698
 8722SOL    HW127607   3.164   3.287   9.738
 8722SOL    HW227608   3.019   3.212   9.730
 8723SOL     OW27609   3.134   3.307  10.452
 8723SOL    HW127610   3.181   3.320  10.539
 8723SOL    HW227611   3.068   3.233  10.461
 8724SOL     OW27612   3.444   2.501   9.782
 8724SOL    HW127613   3.413   2.562   9.855
 8724SOL    HW227614   3.494   2.553   9.713
 8725SOL     OW27615   2.216   3.372  10.639
 8725SOL    HW127616   2.195   3.328  10.552
 8725SOL    HW227617   2.313   3.398  10.642
 8726SOL     OW27618   2.264   2.613  10.908
 8726SOL    HW127619   2.332   2.668  10.861
 8726SOL    HW227620   2.304   2.525  10.935
 8727SOL     OW27621   3.449   2.641  10.980
 8727SOL    HW127622   3.357   2.679  10.975
 8727SOL    HW227623   3.509   2.688  10.915
 8728SOL     OW27624   2.875   1.967  11.080
 8728SOL    HW127625   2.881   2.052  11.028
 8728SOL    HW227626   2.907   1.891  11.023
 8729SOL     OW27627   2.366   1.912  11.050
 8729SOL    HW127628   2.324   1.855  10.980
 8729SOL    HW227629   2.300   1.981  11.082
 8730SOL     OW27630   2.435   2.732  10.339
 8730SOL    HW127631   2.479   2.821  10.330
 8730SOL    HW227632   2.372   2.732  10.416
 8731SOL     OW27633   3.222   2.724  10.355
 8731SOL    HW127634   3.147   2.724  10.289
 8731SOL    HW227635   3.259   2.632  10.364
 8732SOL     OW27636   3.071   2.387   9.585
 8732SOL    HW127637   3.084   2.303   9.639
 8732SOL    HW227638   3.042   2.461   9.645
 8733SOL     OW27639   2.169   2.075  10.541
 8733SOL    HW127640   2.146   2.112  10.631
 8733SOL    HW227641   2.139   1.980  10.535
 8734SOL     OW27642   1.899   3.172  10.592
 8734SOL    HW127643   1.952   3.123  10.660
 8734SOL    HW227644   1.921   3.270  10.597
 8735SOL     OW27645   2.594   2.496  10.374
 8735SOL    HW127646   2.653   2.470  10.298
 8735SOL    HW227647   2.566   2.592  10.363
 8736SOL     OW27648   3.590   2.797  11.164
 8736SOL    HW127649   3.544   2.790  11.075
 8736SOL    HW227650   3.528   2.841  11.230
 8737SOL     OW27651   2.169   1.925   9.928
 8737SOL    HW127652   2.158   2.019   9.961
 8737SOL    HW227653   2.164   1.862  10.005
 8738SOL     OW27654   3.484   2.229   9.684
 8738SOL    HW127655   3.486   2.153   9.748
 8738SOL    HW227656   3.436   2.306   9.724
 8739SOL     OW27657   2.885   2.628  10.276
 8739SOL    HW127658   2.900   2.649  10.372
 8739SOL    HW227659   2.855   2.533  10.267
 8740SOL     OW27660   2.842   3.435  11.010
 8740SOL    HW127661   2.822   3.479  10.922
 8740SOL    HW227662   2.881   3.344  10.994
 8741SOL     OW27663   3.721   3.380  10.915
 8741SOL    HW127664   3.735   3.407  10.820
 8741SOL    HW227665   3.804   3.402  10.968
 8742SOL     OW27666   2.212   2.760  11.114
 8742SOL    HW127667   2.288   2.804  11.162
 8742SOL    HW227668   2.247   2.713  11.032
 8743SOL     OW27669   3.402   2.136   9.435
 8743SOL    HW127670   3.341   2.061   9.458
 8743SOL    HW227671   3.424   2.188   9.518
 8744SOL     OW27672   3.165   2.700   9.352
 8744SOL    HW127673   3.199   2.607   9.367
 8744SOL    HW227674   3.183   2.727   9.257
 8745SOL     OW27675   2.930   3.195  10.159
 8745SOL    HW127676   2.937   3.111  10.104
 8745SOL    HW227677   2.992   3.264  10.123
 8746SOL     OW27678   2.181   2.672  10.259
 8746SOL    HW127679   2.274   2.708  10.264
 8746SOL    HW227680   2.175   2.587  10.311
 8747SOL     OW27681   2.201   2.371  10.316
 8747SOL    HW127682   2.149   2.288  10.299
 8747SOL    HW227683   2.278   2.376  10.252
 8748SOL     OW27684   3.000   2.242  10.988
 8748SOL    HW127685   2.955   2.305  11.052
 8748SOL    HW227686   3.093   2.273  10.971
 8749SOL     OW27687   3.022   2.069  10.787
 8749SOL    HW127688   3.022   2.133  10.864
 8749SOL    HW227689   3.050   2.117  10.704
 8750SOL     OW27690   1.870   3.188   9.510
 8750SOL    HW127691   1.777   3.209   9.479
 8750SOL    HW227692   1.880   3.089   9.523
 8751SOL     OW27693   1.950   3.663  10.237
 8751SOL    HW127694   1.908   3.577  10.210
 8751SOL    HW227695   2.044   3.666  10.203
 8752SOL     OW27696   2.366   3.430  10.220
 8752SOL    HW127697   2.432   3.504  10.229
 8752SOL    HW227698   2.410   3.351  10.178
 8753SOL     OW27699   2.864   2.658  10.548
 8753SOL    HW127700   2.905   2.626  10.634
 8753SOL    HW227701   2.768   2.631  10.545
 8754SOL     OW27702   1.902   2.406  10.424
 8754SOL    HW127703   1.987   2.373  10.383
 8754SOL    HW227704   1.915   2.421  10.522
 8755SOL     OW27705   2.051   2.382  11.032
 8755SOL    HW127706   2.110   2.342  10.962
 8755SOL    HW227707   1.993   2.453  10.991
 8756SOL     OW27708   3.231   2.812  10.970
 8756SOL    HW127709   3.270   2.901  10.990
 8756SOL    HW227710   3.241   2.792  10.873
 8757SOL     OW27711   2.677   2.434   9.635
 8757SOL    HW127712   2.684   2.345   9.589
 8757SOL    HW227713   2.583   2.468   9.627
 8758SOL     OW27714   3.519   2.466  10.516
 8758SOL    HW127715   3.481   2.397  10.578
 8758SOL    HW227716   3.601   2.430  10.472
 8759SOL     OW27717   2.114   3.426  11.054
 8759SOL    HW127718   2.084   3.483  11.130
 8759SOL    HW227719   2.107   3.329  11.080
 8760SOL     OW27720   2.533   2.326  10.579
 8760SOL    HW127721   2.499   2.237  10.549
 8760SOL    HW227722   2.559   2.380  10.499
 8761SOL     OW27723   2.792   3.540  10.775
 8761SOL    HW127724   2.768   3.522  10.680
 8761SOL    HW227725   2.822   3.634  10.785
 8762SOL     OW27726   2.335   2.362   9.501
 8762SOL    HW127727   2.396   2.442   9.505
 8762SOL    HW227728   2.240   2.393   9.508
 8763SOL     OW27729   2.021   2.999  10.776
 8763SOL    HW127730   2.043   2.938  10.852
 8763SOL    HW227731   2.031   2.950  10.690
 8764SOL     OW27732   3.209   2.921  10.544
 8764SOL    HW127733   3.233   2.858  10.470
 8764SOL    HW227734   3.119   2.961  10.526
 8765SOL     OW27735   3.164   2.717   9.619
 8765SOL    HW127736   3.078   2.686   9.661
 8765SOL    HW227737   3.160   2.703   9.520
 8766SOL     OW27738   3.621   3.609  10.464
 8766SOL    HW127739   3.682   3.639  10.391
 8766SOL    HW227740   3.583   3.520  10.442
 8767SOL     OW27741   3.114   3.593  10.438
 8767SOL    HW127742   3.198   3.598  10.384
 8767SOL    HW227743   3.091   3.497  10.456
 8768SOL     OW27744   1.945   3.120  10.332
 8768SOL    HW127745   1.940   3.119  10.432
 8768SOL    HW227746   1.862   3.079  10.294
 8769SOL     OW27747   2.550   3.524  11.026
 8769SOL    HW127748   2.494   3.605  11.035
 8769SOL    HW227749   2.602   3.528  10.940
 8770SOL     OW27750   3.588   1.997   9.833
 8770SOL    HW127751   3.661   1.980   9.766
 8770SOL    HW227752   3.557   1.910   9.871
 8771SOL     OW27753   1.992   3.656  11.161
 8771SOL    HW127754   1.951   3.582  11.214
 8771SOL    HW227755   2.056   3.707  11.219
 8772SOL     OW27756   3.142   2.789   9.982
 8772SOL    HW127757   3.202   2.708   9.984
 8772SOL    HW227758   3.182   2.858   9.922
 8773SOL     OW27759   2.692   3.135  10.732
 8773SOL    HW127760   2.687   3.168  10.827
 8773SOL    HW227761   2.606   3.154  10.686
 8774SOL     OW27762   2.534   3.478   9.464
 8774SOL    HW127763   2.543   3.488   9.365
 8774SOL    HW227764   2.494   3.389   9.485
 8775SOL     OW27765   3.512   3.582  10.704
 8775SOL    HW127766   3.565   3.592  10.620
 8775SOL    HW227767   3.485   3.672  10.738
 8776SOL     OW27768   3.703   2.037  10.273
 8776SOL    HW127769   3.742   1.952  10.237
 8776SOL    HW227770   3.605   2.039  10.254
 8777SOL     OW27771   2.125   2.188  10.030
 8777SOL    HW127772   2.046   2.239   9.996
 8777SOL    HW227773   2.116   2.173  10.128
 8778SOL     OW27774   3.056   3.474   9.341
 8778SOL    HW127775   3.062   3.381   9.378
 8778SOL    HW227776   2.997   3.474   9.261
 8779SOL     OW27777   2.684   2.864  10.682
 8779SOL    HW127778   2.724   2.863  10.590
 8779SOL    HW227779   2.694   2.956  10.722
 8780SOL     OW27780   2.778   2.772   9.601
 8780SOL    HW127781   2.841   2.810   9.533
 8780SOL    HW227782   2.818   2.689   9.640
 8781SOL     OW27783   2.234   3.150  10.800
 8781SOL    HW127784   2.221   3.243  10.766
 8781SOL    HW227785   2.150   3.098  10.787
 8782SOL     OW27786   3.476   3.154  10.599
 8782SOL    HW127787   3.536   3.157  10.679
 8782SOL    HW227788   3.401   3.218  10.612
 8783SOL     OW27789   2.901   2.960  10.006
 8783SOL    HW127790   2.831   2.913  10.060
 8783SOL    HW227791   2.960   2.892   9.963
 8784SOL     OW27792   2.876   2.098  10.281
 8784SOL    HW127793   2.868   2.062  10.188
 8784SOL    HW227794   2.874   2.022  10.346
 8785SOL     OW27795   2.452   3.349   9.801
 8785SOL    HW127796   2.494   3.291   9.731
 8785SOL    HW227797   2.408   3.428   9.757
 8786SOL     OW27798   3.571   2.247  10.691
 8786SOL    HW127799   3.644   2.316  10.695
 8786SOL    HW227800   3.599   2.172  10.632
 8787SOL     OW27801   2.117   3.210   9.600
 8787SOL    HW127802   2.021   3.211   9.573
 8787SOL    HW227803   2.129   3.263   9.684
 8788SOL     OW27804   1.967   2.875  11.036
 8788SOL    HW127805   1.890   2.842  11.090
 8788SOL    HW227806   2.052   2.845  11.078
 8789SOL     OW27807   2.534   2.065  10.799
 8789SOL    HW127808   2.624   2.049  10.759
 8789SOL    HW227809   2.542   2.070  10.898
 8790SOL     OW27810   1.937   2.207   9.343
 8790SOL    HW127811   1.845   2.179   9.314
 8790SOL    HW227812   1.968   2.284   9.287
 8791SOL     OW27813   3.302   2.718  10.708
 8791SOL    HW127814   3.245   2.770  10.645
 8791SOL    HW227815   3.398   2.730  10.684
 8792SOL     OW27816   1.934   2.028   9.628
 8792SOL    HW127817   1.917   2.111   9.574
 8792SOL    HW227818   2.024   1.991   9.606
 8793SOL     OW27819   3.045   3.197   9.429
 8793SOL    HW127820   2.946   3.186   9.431
 8793SOL    HW227821   3.079   3.212   9.522
 8794SOL     OW27822   2.475   2.704  10.741
 8794SOL    HW127823   2.531   2.785  10.724
 8794SOL    HW227824   2.534   2.624  10.744
 8795SOL     OW27825   3.355   3.629  10.269
 8795SOL    HW127826   3.388   3.693  10.200
 8795SOL    HW227827   3.421   3.623  10.344
 8796SOL     OW27828   2.578   2.427  11.018
 8796SOL    HW127829   2.597   2.492  11.092
 8796SOL    HW227830   2.638   2.347  11.027
 8797SOL     OW27831   3.312   3.082  10.943
 8797SOL    HW127832   3.303   3.072  11.042
 8797SOL    HW227833   3.408   3.075  10.917
 8798SOL     OW27834   2.252   3.603  10.870
 8798SOL    HW127835   2.161   3.644  10.868
 8798SOL    HW227836   2.245   3.509  10.902
 8799SOL     OW27837   3.536   2.745  10.564
 8799SOL    HW127838   3.509   2.656  10.527
 8799SOL    HW227839   3.537   2.813  10.491
 8800SOL     OW27840   3.087   2.187   9.759
 8800SOL    HW127841   3.152   2.113   9.748
 8800SOL    HW227842   3.107   2.237   9.843
 8801SOL     OW27843   2.456   2.607   9.962
 8801SOL    HW127844   2.506   2.692   9.943
 8801SOL    HW227845   2.368   2.609   9.914
 8802SOL     OW27846   3.639   2.204  10.952
 8802SOL    HW127847   3.622   2.235  10.858
 8802SOL    HW227848   3.555   2.167  10.990
 8803SOL     OW27849   3.592   2.796  10.827
 8803SOL    HW127850   3.630   2.887  10.842
 8803SOL    HW227851   3.584   2.779  10.728
 8804SOL     OW27852   2.721   3.236   9.326
 8804SOL    HW127853   2.675   3.251   9.414
 8804SOL    HW227854   2.765   3.321   9.296
 8805SOL     OW27855   2.523   3.652  10.263
 8805SOL    HW127856   2.477   3.740  10.250
 8805SOL    HW227857   2.622   3.664  10.256
 8806SOL     OW27858   2.721   2.818  10.171
 8806SOL    HW127859   2.775   2.749  10.219
 8806SOL    HW227860   2.689   2.887  10.237
 8807SOL     OW27861   2.945   2.846   9.397
 8807SOL    HW127862   2.922   2.899   9.315
 8807SOL    HW227863   3.026   2.790   9.378
 8808SOL     OW27864   3.723   3.431  10.161
 8808SOL    HW127865   3.652   3.419  10.091
 8808SOL    HW227866   3.724   3.352  10.221
 8809SOL     OW27867   2.083   3.176  11.154
 8809SOL    HW127868   2.018   3.103  11.133
 8809SOL    HW227869   2.087   3.190  11.252
 8810SOL     OW27870   1.941   3.102   9.963
 8810SOL    HW127871   1.940   3.055  10.051
 8810SOL    HW227872   2.023   3.074   9.912
 8811SOL     OW27873   2.534   3.253  10.934
 8811SOL    HW127874   2.456   3.203  10.972
 8811SOL    HW227875   2.531   3.348  10.965
 8812SOL     OW27876   3.686   2.054  10.537
 8812SOL    HW127877   3.682   1.964  10.581
 8812SOL    HW227878   3.689   2.043  10.438
 8813SOL     OW27879   2.290   2.286   9.830
 8813SOL    HW127880   2.320   2.214   9.768
 8813SOL    HW227881   2.251   2.246   9.913
 8814SOL     OW27882   3.567   3.349  10.414
 8814SOL    HW127883   3.474   3.324  10.387
 8814SOL    HW227884   3.593   3.299  10.496
 8815SOL     OW27885   2.179   2.409  10.590
 8815SOL    HW127886   2.217   2.350  10.662
 8815SOL    HW227887   2.219   2.383  10.502
 8816SOL     OW27888   2.674   3.448   9.997
 8816SOL    HW127889   2.706   3.458   9.903
 8816SOL    HW227890   2.595   3.386   9.999
 8817SOL     OW27891   3.286   2.076  10.422
 8817SOL    HW127892   3.338   2.011  10.477
 8817SOL    HW227893   3.237   2.139  10.483
 8818SOL     OW27894   2.863   1.896  10.464
 8818SOL    HW127895   2.800   1.824  10.433
 8818SOL    HW227896   2.956   1.860  10.464
 8819SOL     OW27897   2.632   3.192   9.611
 8819SOL    HW127898   2.586   3.105   9.628
 8819SOL    HW227899   2.723   3.189   9.652
 8820SOL     OW27900   2.480   3.429  10.594
 8820SOL    HW127901   2.475   3.511  10.651
 8820SOL    HW227902   2.569   3.426  10.549
 8821SOL     OW27903   3.214   1.914   9.478
 8821SOL    HW127904   3.249   1.873   9.394
 8821SOL    HW227905   3.124   1.876   9.498
 8822SOL     OW27906   3.162   2.315  10.001
 8822SOL    HW127907   3.103   2.395  10.005
 8822SOL    HW227908   3.177   2.280  10.094
 8823SOL     OW27909   3.455   2.083  10.192
 8823SOL    HW127910   3.371   2.082  10.246
 8823SOL    HW227911   3.457   2.166  10.136
 8824SOL     OW27912   1.901   2.939   9.610
 8824SOL    HW127913   2.000   2.928   9.601
 8824SOL    HW227914   1.861   2.853   9.642
 8825SOL     OW27915   2.737   3.508   9.647
 8825SOL    HW127916   2.660   3.473   9.593
 8825SOL    HW227917   2.705   3.579   9.709
 8826SOL     OW27918   2.092   2.490  11.285
 8826SOL    HW127919   1.999   2.488  11.322
 8826SOL    HW227920   2.093   2.451  11.193
 8827SOL     OW27921   2.087   2.137  12.168
 8827SOL    HW127922   2.122   2.120  12.260
 8827SOL    HW227923   1.999   2.092  12.156
 8828SOL     OW27924   1.881   2.230  11.819
 8828SOL    HW127925   1.799   2.273  11.858
 8828SOL    HW227926   1.853   2.157  11.756
 8829SOL     OW27927   2.431   3.137  12.337
 8829SOL    HW127928   2.338   3.130  12.300
 8829SOL    HW227929   2.442   3.226  12.381
 8830SOL     OW27930   3.417   3.373  11.875
 8830SOL    HW127931   3.360   3.357  11.956
 8830SOL    HW227932   3.358   3.383  11.795
 8831SOL     OW27933   2.997   2.565  11.889
 8831SOL    HW127934   3.054   2.643  11.864
 8831SOL    HW227935   2.937   2.591  11.965
 8832SOL     OW27936   3.617   2.469  11.403
 8832SOL    HW127937   3.605   2.456  11.304
 8832SOL    HW227938   3.587   2.388  11.452
 8833SOL     OW27939   2.630   3.006  12.195
 8833SOL    HW127940   2.552   3.023  12.255
 8833SOL    HW227941   2.664   3.093  12.159
 8834SOL     OW27942   2.547   2.874  11.837
 8834SOL    HW127943   2.616   2.858  11.907
 8834SOL    HW227944   2.474   2.931  11.875
 8835SOL     OW27945   2.197   3.297  12.233
 8835SOL    HW127946   2.119   3.266  12.180
 8835SOL    HW227947   2.255   3.355  12.176
 8836SOL     OW27948   3.465   2.309  11.909
 8836SOL    HW127949   3.391   2.355  11.859
 8836SOL    HW227950   3.516   2.377  11.962
 8837SOL     OW27951   2.093   3.575  11.655
 8837SOL    HW127952   2.127   3.652  11.709
 8837SOL    HW227953   2.137   3.575  11.565
 8838SOL     OW27954   2.092   3.296  11.710
 8838SOL    HW127955   2.066   3.392  11.710
 8838SOL    HW227956   2.021   3.242  11.755
 8839SOL     OW27957   2.102   2.953  12.058
 8839SOL    HW127958   2.116   2.869  12.110
 8839SOL    HW227959   2.047   3.017  12.113
 8840SOL     OW27960   2.468   2.826  11.295
 8840SOL    HW127961   2.475   2.910  11.241
 8840SOL    HW227962   2.514   2.839  11.383
 8841SOL     OW27963   1.984   2.505  11.735
 8841SOL    HW127964   1.939   2.417  11.752
 8841SOL    HW227965   1.983   2.559  11.819
 8842SOL     OW27966   3.704   3.629  11.531
 8842SOL    HW127967   3.758   3.600  11.611
 8842SOL    HW227968   3.734   3.719  11.502
 8843SOL     OW27969   1.889   3.458  11.289
 8843SOL    HW127970   1.870   3.362  11.310
 8843SOL    HW227971   1.856   3.516  11.364
 8844SOL     OW27972   3.551   2.784  11.784
 8844SOL    HW127973   3.646   2.755  11.792
 8844SOL    HW227974   3.543   2.849  11.709
 8845SOL     OW27975   3.503   2.970  11.604
 8845SOL    HW127976   3.589   2.972  11.552
 8845SOL    HW227977   3.517   3.017  11.692
 8846SOL     OW27978   1.975   2.599  12.769
 8846SOL    HW127979   2.063   2.586  12.814
 8846SOL    HW227980   1.962   2.696  12.747
 8847SOL     OW27981   2.475   3.227  11.898
 8847SOL    HW127982   2.426   3.140  11.907
 8847SOL    HW227983   2.452   3.270  11.811
 8848SOL     OW27984   2.671   1.866  11.674
 8848SOL    HW127985   2.711   1.957  11.665
 8848SOL    HW227986   2.571   1.874  11.680
 8849SOL     OW27987   2.059   2.838  12.436
 8849SOL    HW127988   2.148   2.793  12.422
 8849SOL    HW227989   1.986   2.773  12.417
 8850SOL     OW27990   3.387   2.861  11.362
 8850SOL    HW127991   3.324   2.785  11.375
 8850SOL    HW227992   3.435   2.879  11.448
 8851SOL     OW27993   3.328   3.279  12.125
 8851SOL    HW127994   3.269   3.285  12.205
 8851SOL    HW227995   3.313   3.191  12.079
 8852SOL     OW27996   3.529   3.576  11.744
 8852SOL    HW127997   3.488   3.553  11.656
 8852SOL    HW227998   3.511   3.502  11.809
 8853SOL     OW27999   2.460   2.591  11.442
 8853SOL    HW128000   2.484   2.660  11.374
 8853SOL    HW228001   2.382   2.624  11.496
 8854SOL     OW28002   3.143   2.207  12.116
 8854SOL    HW128003   3.057   2.157  12.103
 8854SOL    HW228004   3.205   2.153  12.172
 8855SOL     OW28005   3.438   3.524  11.479
 8855SOL    HW128006   3.527   3.570  11.482
 8855SOL    HW228007   3.417   3.500  11.384
 8856SOL     OW28008   2.853   2.272  12.414
 8856SOL    HW128009   2.776   2.306  12.468
 8856SOL    HW228010   2.819   2.221  12.335
 8857SOL     OW28011   2.903   2.563  11.601
 8857SOL    HW128012   2.929   2.559  11.697
 8857SOL    HW228013   2.818   2.512  11.587
 8858SOL     OW28014   1.938   2.673  11.961
 8858SOL    HW128015   2.037   2.661  11.970
 8858SOL    HW228016   1.914   2.768  11.982
 8859SOL     OW28017   2.727   2.210  11.367
 8859SOL    HW128018   2.786   2.273  11.318
 8859SOL    HW228019   2.746   2.116  11.338
 8860SOL     OW28020   3.224   3.006  11.717
 8860SOL    HW128021   3.307   2.977  11.669
 8860SOL    HW228022   3.175   3.073  11.661
 8861SOL     OW28023   2.412   2.058  12.057
 8861SOL    HW128024   2.407   2.053  12.157
 8861SOL    HW228025   2.414   2.154  12.028
 8862SOL     OW28026   2.870   3.318  11.649
 8862SOL    HW128027   2.824   3.390  11.597
 8862SOL    HW228028   2.866   3.338  11.747
 8863SOL     OW28029   2.213   3.663  12.025
 8863SOL    HW128030   2.263   3.577  12.031
 8863SOL    HW228031   2.278   3.740  12.022
 8864SOL     OW28032   3.657   2.928  12.045
 8864SOL    HW128033   3.595   2.913  11.969
 8864SOL    HW228034   3.605   2.939  12.130
 8865SOL     OW28035   2.183   2.805  11.414
 8865SOL    HW128036   2.265   2.844  11.372
 8865SOL    HW228037   2.156   2.723  11.365
 8866SOL     OW28038   3.320   2.597  11.900
 8866SOL    HW128039   3.315   2.532  11.975
 8866SOL    HW228040   3.400   2.656  11.913
 8867SOL     OW28041   2.973   3.638  11.409
 8867SOL    HW128042   2.913   3.576  11.459
 8867SOL    HW228043   3.004   3.594  11.324
 8868SOL     OW28044   3.494   3.239  11.253
 8868SOL    HW128045   3.462   3.333  11.243
 8868SOL    HW228046   3.418   3.176  11.241
 8869SOL     OW28047   2.326   3.605  11.495
 8869SOL    HW128048   2.359   3.644  11.581
 8869SOL    HW228049   2.402   3.598  11.430
 8870SOL     OW28050   3.262   1.969  11.598
 8870SOL    HW128051   3.238   1.932  11.508
 8870SOL    HW228052   3.361   1.985  11.602
 8871SOL     OW28053   2.111   3.647  12.413
 8871SOL    HW128054   2.168   3.582  12.463
 8871SOL    HW228055   2.095   3.614  12.320
 8872SOL     OW28056   2.802   3.560  12.076
 8872SOL    HW128057   2.882   3.503  12.097
 8872SOL    HW228058   2.753   3.520  11.999
 8873SOL     OW28059   2.244   2.562  11.652
 8873SOL    HW128060   2.289   2.472  11.649
 8873SOL    HW228061   2.150   2.551  11.685
 8874SOL     OW28062   2.476   1.984  11.289
 8874SOL    HW128063   2.574   1.962  11.296
 8874SOL    HW228064   2.445   1.967  11.196
 8875SOL     OW28065   2.665   3.264  12.096
 8875SOL    HW128066   2.755   3.278  12.054
 8875SOL    HW228067   2.594   3.266  12.025
 8876SOL     OW28068   2.784   2.365  12.071
 8876SOL    HW128069   2.759   2.356  11.975
 8876SOL    HW228070   2.832   2.283  12.102
 8877SOL     OW28071   2.401   1.926  11.684
 8877SOL    HW128072   2.320   1.927  11.742
 8877SOL    HW228073   2.404   2.009  11.629
 8878SOL     OW28074   3.296   3.050  11.213
 8878SOL    HW128075   3.328   2.974  11.270
 8878SOL    HW228076   3.204   3.077  11.243
 8879SOL     OW28077   2.159   1.897  11.343
 8879SOL    HW128078   2.208   1.981  11.322
 8879SOL    HW228079   2.221   1.832  11.388
 8880SOL     OW28080   2.797   2.098  11.652
 8880SOL    HW128081   2.749   2.139  11.574
 8880SOL    HW228082   2.896   2.096  11.633
 8881SOL     OW28083   3.089   3.432  11.965
 8881SOL    HW128084   3.110   3.506  11.900
 8881SOL    HW228085   3.157   3.432  12.038
 8882SOL     OW28086   2.321   3.014  11.913
 8882SOL    HW128087   2.250   2.987  11.978
 8882SOL    HW228088   2.295   2.986  11.820
 8883SOL     OW28089   3.133   3.659  11.763
 8883SOL    HW128090   3.177   3.723  11.699
 8883SOL    HW228091   3.083   3.711  11.833
 8884SOL     OW28092   2.894   2.411  11.188
 8884SOL    HW128093   2.853   2.493  11.149
 8884SOL    HW228094   2.958   2.437  11.261
 8885SOL     OW28095   2.423   2.084  12.319
 8885SOL    HW128096   2.461   2.000  12.356
 8885SOL    HW228097   2.335   2.103  12.363
 8886SOL     OW28098   2.728   2.316  11.814
 8886SOL    HW128099   2.696   2.388  11.752
 8886SOL    HW228100   2.752   2.235  11.761
 8887SOL     OW28101   2.879   1.901  11.925
 8887SOL    HW128102   2.807   1.906  11.856
 8887SOL    HW228103   2.855   1.832  11.994
 8888SOL     OW28104   3.291   3.035  12.039
 8888SOL    HW128105   3.236   2.951  12.032
 8888SOL    HW228106   3.317   3.064  11.947
 8889SOL     OW28107   3.328   2.452  12.164
 8889SOL    HW128108   3.298   2.357  12.171
 8889SOL    HW228109   3.401   2.468  12.230
 8890SOL     OW28110   3.719   2.695  11.549
 8890SOL    HW128111   3.761   2.631  11.613
 8890SOL    HW228112   3.681   2.644  11.471
 8891SOL     OW28113   2.350   3.247  11.346
 8891SOL    HW128114   2.263   3.232  11.393
 8891SOL    HW228115   2.333   3.273  11.251
 8892SOL     OW28116   3.526   3.142  11.829
 8892SOL    HW128117   3.625   3.150  11.843
 8892SOL    HW228118   3.481   3.226  11.860
 8893SOL     OW28119   3.252   2.437  11.250
 8893SOL    HW128120   3.198   2.416  11.331
 8893SOL    HW228121   3.343   2.396  11.259
 8894SOL     OW28122   2.389   2.118  11.500
 8894SOL    HW128123   2.416   2.059  11.425
 8894SOL    HW228124   2.389   2.213  11.469
 8895SOL     OW28125   2.973   3.057  12.272
 8895SOL    HW128126   2.933   3.101  12.353
 8895SOL    HW228127   2.932   3.094  12.189
 8896SOL     OW28128   3.500   2.961  12.251
 8896SOL    HW128129   3.505   3.042  12.310
 8896SOL    HW228130   3.414   2.963  12.200
 8897SOL     OW28131   2.567   2.912  11.540
 8897SOL    HW128132   2.553   2.919  11.639
 8897SOL    HW228133   2.651   2.861  11.522
 8898SOL     OW28134   2.272   2.675  12.423
 8898SOL    HW128135   2.358   2.687  12.473
 8898SOL    HW228136   2.230   2.588  12.450
 8899SOL     OW28137   3.136   2.248  12.434
 8899SOL    HW128138   3.157   2.322  12.498
 8899SOL    HW228139   3.047   2.265  12.391
 8900SOL     OW28140   2.229   2.962  11.673
 8900SOL    HW128141   2.222   3.045  11.617
 8900SOL    HW228142   2.233   2.882  11.613
 8901SOL     OW28143   2.428   2.399  12.037
 8901SOL    HW128144   2.440   2.465  11.963
 8901SOL    HW228145   2.474   2.433  12.120
 8902SOL     OW28146   3.114   3.210  11.560
 8902SOL    HW128147   3.164   3.287  11.600
 8902SOL    HW228148   3.019   3.212  11.592
 8903SOL     OW28149   3.134   3.307  12.314
 8903SOL    HW128150   3.181   3.320  12.401
 8903SOL    HW228151   3.068   3.233  12.323
 8904SOL     OW28152   3.444   2.501  11.644
 8904SOL    HW128153   3.413   2.562  11.717
 8904SOL    HW228154   3.494   2.553  11.575
 8905SOL     OW28155   2.216   3.372  12.501
 8905SOL    HW128156   2.195   3.328  12.414
 8905SOL    HW228157   2.313   3.398  12.504
 8906SOL     OW28158   2.435   2.732  12.201
 8906SOL    HW128159   2.479   2.821  12.192
 8906SOL    HW228160   2.372   2.732  12.278
 8907SOL     OW28161   3.222   2.724  12.217
 8907SOL    HW128162   3.147   2.724  12.151
 8907SOL    HW228163   3.259   2.632  12.226
 8908SOL     OW28164   3.071   2.387  11.447
 8908SOL    HW128165   3.084   2.303  11.501
 8908SOL    HW228166   3.042   2.461  11.507
 8909SOL     OW28167   2.169   2.075  12.403
 8909SOL    HW128168   2.146   2.112  12.493
 8909SOL    HW228169   2.139   1.980  12.397
 8910SOL     OW28170   1.899   3.172  12.454
 8910SOL    HW128171   1.952   3.123  12.522
 8910SOL    HW228172   1.921   3.270  12.459
 8911SOL     OW28173   2.594   2.496  12.236
 8911SOL    HW128174   2.653   2.470  12.160
 8911SOL    HW228175   2.566   2.592  12.225
 8912SOL     OW28176   2.169   1.925  11.790
 8912SOL    HW128177   2.158   2.019  11.823
 8912SOL    HW228178   2.164   1.862  11.867
 8913SOL     OW28179   3.484   2.229  11.546
 8913SOL    HW128180   3.486   2.153  11.610
 8913SOL    HW228181   3.436   2.306  11.586
 8914SOL     OW28182   2.885   2.628  12.138
 8914SOL    HW128183   2.900   2.649  12.234
 8914SOL    HW228184   2.855   2.533  12.129
 8915SOL     OW28185   3.402   2.136  11.297
 8915SOL    HW128186   3.341   2.061  11.320
 8915SOL    HW228187   3.424   2.188  11.380
 8916SOL     OW28188   3.165   2.700  11.214
 8916SOL    HW128189   3.199   2.607  11.229
 8916SOL    HW228190   3.183   2.727  11.119
 8917SOL     OW28191   2.930   3.195  12.021
 8917SOL    HW128192   2.937   3.111  11.966
 8917SOL    HW228193   2.992   3.264  11.985
 8918SOL     OW28194   2.181   2.672  12.121
 8918SOL    HW128195   2.274   2.708  12.126
 8918SOL    HW228196   2.175   2.587  12.173
 8919SOL     OW28197   2.201   2.371  12.178
 8919SOL    HW128198   2.149   2.288  12.161
 8919SOL    HW228199   2.278   2.376  12.114
 8920SOL     OW28200   3.022   2.069  12.649
 8920SOL    HW128201   3.022   2.133  12.726
 8920SOL    HW228202   3.050   2.117  12.566
 8921SOL     OW28203   1.870   3.188  11.372
 8921SOL    HW128204   1.777   3.209  11.341
 8921SOL    HW228205   1.880   3.089  11.385
 8922SOL     OW28206   1.950   3.663  12.099
 8922SOL    HW128207   1.908   3.577  12.072
 8922SOL    HW228208   2.044   3.666  12.065
 8923SOL     OW28209   2.366   3.430  12.082
 8923SOL    HW128210   2.432   3.504  12.091
 8923SOL    HW228211   2.410   3.351  12.040
 8924SOL     OW28212   2.864   2.658  12.410
 8924SOL    HW128213   2.905   2.626  12.496
 8924SOL    HW228214   2.768   2.631  12.407
 8925SOL     OW28215   1.902   2.406  12.286
 8925SOL    HW128216   1.987   2.373  12.245
 8925SOL    HW228217   1.915   2.421  12.384
 8926SOL     OW28218   2.677   2.434  11.497
 8926SOL    HW128219   2.684   2.345  11.451
 8926SOL    HW228220   2.583   2.468  11.489
 8927SOL     OW28221   3.519   2.466  12.378
 8927SOL    HW128222   3.481   2.397  12.440
 8927SOL    HW228223   3.601   2.430  12.334
 8928SOL     OW28224   2.533   2.326  12.441
 8928SOL    HW128225   2.499   2.237  12.411
 8928SOL    HW228226   2.559   2.380  12.361
 8929SOL     OW28227   2.792   3.540  12.637
 8929SOL    HW128228   2.768   3.522  12.542
 8929SOL    HW228229   2.822   3.634  12.647
 8930SOL     OW28230   2.335   2.362  11.363
 8930SOL    HW128231   2.396   2.442  11.367
 8930SOL    HW228232   2.240   2.393  11.370
 8931SOL     OW28233   3.209   2.921  12.406
 8931SOL    HW128234   3.233   2.858  12.332
 8931SOL    HW228235   3.119   2.961  12.388
 8932SOL     OW28236   3.164   2.717  11.481
 8932SOL    HW128237   3.078   2.686  11.523
 8932SOL    HW228238   3.160   2.703  11.382
 8933SOL     OW28239   3.621   3.609  12.326
 8933SOL    HW128240   3.682   3.639  12.253
 8933SOL    HW228241   3.583   3.520  12.304
 8934SOL     OW28242   3.114   3.593  12.300
 8934SOL    HW128243   3.198   3.598  12.246
 8934SOL    HW228244   3.091   3.497  12.318
 8935SOL     OW28245   1.945   3.120  12.194
 8935SOL    HW128246   1.940   3.119  12.294
 8935SOL    HW228247   1.862   3.079  12.156
 8936SOL     OW28248   3.588   1.997  11.695
 8936SOL    HW128249   3.661   1.980  11.628
 8936SOL    HW228250   3.557   1.910  11.733
 8937SOL     OW28251   3.250   3.435  11.649
 8937SOL    HW128252   3.317   3.447  11.575
 8937SOL    HW228253   3.210   3.524  11.672
 8938SOL     OW28254   3.142   2.789  11.844
 8938SOL    HW128255   3.202   2.708  11.846
 8938SOL    HW228256   3.182   2.858  11.784
 8939SOL     OW28257   2.534   3.478  11.326
 8939SOL    HW128258   2.543   3.488  11.227
 8939SOL    HW228259   2.494   3.389  11.347
 8940SOL     OW28260   3.512   3.582  12.566
 8940SOL    HW128261   3.565   3.592  12.482
 8940SOL    HW228262   3.485   3.672  12.600
 8941SOL     OW28263   3.703   2.037  12.135
 8941SOL    HW128264   3.742   1.952  12.099
 8941SOL    HW228265   3.605   2.039  12.116
 8942SOL     OW28266   2.125   2.188  11.892
 8942SOL    HW128267   2.046   2.239  11.858
 8942SOL    HW228268   2.116   2.173  11.990
 8943SOL     OW28269   3.056   3.474  11.203
 8943SOL    HW128270   3.062   3.381  11.240
 8943SOL    HW228271   2.997   3.474  11.123
 8944SOL     OW28272   2.684   2.864  12.544
 8944SOL    HW128273   2.724   2.863  12.452
 8944SOL    HW228274   2.694   2.956  12.584
 8945SOL     OW28275   2.778   2.772  11.463
 8945SOL    HW128276   2.841   2.810  11.395
 8945SOL    HW228277   2.818   2.689  11.502
 8946SOL     OW28278   3.366   3.469  11.216
 8946SOL    HW128279   3.274   3.506  11.223
 8946SOL    HW228280   3.404   3.489  11.126
 8947SOL     OW28281   2.901   2.960  11.868
 8947SOL    HW128282   2.831   2.913  11.922
 8947SOL    HW228283   2.960   2.892  11.825
 8948SOL     OW28284   2.876   2.098  12.143
 8948SOL    HW128285   2.868   2.062  12.050
 8948SOL    HW228286   2.874   2.022  12.208
 8949SOL     OW28287   2.452   3.349  11.663
 8949SOL    HW128288   2.494   3.291  11.593
 8949SOL    HW228289   2.408   3.428  11.619
 8950SOL     OW28290   3.571   2.247  12.553
 8950SOL    HW128291   3.644   2.316  12.557
 8950SOL    HW228292   3.599   2.172  12.494
 8951SOL     OW28293   2.117   3.210  11.462
 8951SOL    HW128294   2.021   3.211  11.435
 8951SOL    HW228295   2.129   3.263  11.546
 8952SOL     OW28296   1.937   2.207  11.205
 8952SOL    HW128297   1.845   2.179  11.176
 8952SOL    HW228298   1.968   2.284  11.149
 8953SOL     OW28299   1.934   2.028  11.490
 8953SOL    HW128300   1.917   2.111  11.436
 8953SOL    HW228301   2.024   1.991  11.468
 8954SOL     OW28302   3.045   3.197  11.291
 8954SOL    HW128303   2.946   3.186  11.293
 8954SOL    HW228304   3.079   3.212  11.384
 8955SOL     OW28305   3.355   3.629  12.131
 8955SOL    HW128306   3.388   3.693  12.062
 8955SOL    HW228307   3.421   3.623  12.206
 8956SOL     OW28308   3.536   2.745  12.426
 8956SOL    HW128309   3.509   2.656  12.389
 8956SOL    HW228310   3.537   2.813  12.353
 8957SOL     OW28311   3.087   2.187  11.621
 8957SOL    HW128312   3.152   2.113  11.610
 8957SOL    HW228313   3.107   2.237  11.705
 8958SOL     OW28314   2.456   2.607  11.824
 8958SOL    HW128315   2.506   2.692  11.805
 8958SOL    HW228316   2.368   2.609  11.776
 8959SOL     OW28317   3.592   2.796  12.689
 8959SOL    HW128318   3.630   2.887  12.704
 8959SOL    HW228319   3.584   2.779  12.590
 8960SOL     OW28320   2.721   3.236  11.188
 8960SOL    HW128321   2.675   3.251  11.276
 8960SOL    HW228322   2.765   3.321  11.158
 8961SOL     OW28323   2.523   3.652  12.125
 8961SOL    HW128324   2.477   3.740  12.112
 8961SOL    HW228325   2.622   3.664  12.118
 8962SOL     OW28326   2.721   2.818  12.033
 8962SOL    HW128327   2.775   2.749  12.081
 8962SOL    HW228328   2.689   2.887  12.099
 8963SOL     OW28329   2.945   2.846  11.259
 8963SOL    HW128330   2.922   2.899  11.177
 8963SOL    HW228331   3.026   2.790  11.240
 8964SOL     OW28332   3.723   3.431  12.023
 8964SOL    HW128333   3.652   3.419  11.953
 8964SOL    HW228334   3.724   3.352  12.083
 8965SOL     OW28335   1.941   3.102  11.825
 8965SOL    HW128336   1.940   3.055  11.913
 8965SOL    HW228337   2.023   3.074  11.774
 8966SOL     OW28338   3.686   2.054  12.399
 8966SOL    HW128339   3.682   1.964  12.443
 8966SOL    HW228340   3.689   2.043  12.300
 8967SOL     OW28341   2.290   2.286  11.692
 8967SOL    HW128342   2.320   2.214  11.630
 8967SOL    HW228343   2.251   2.246  11.775
 8968SOL     OW28344   3.567   3.349  12.276
 8968SOL    HW128345   3.474   3.324  12.249
 8968SOL    HW228346   3.593   3.299  12.358
 8969SOL     OW28347   2.674   3.448  11.859
 8969SOL    HW128348   2.706   3.458  11.765
 8969SOL    HW228349   2.595   3.386  11.861
 8970SOL     OW28350   3.286   2.076  12.284
 8970SOL    HW128351   3.338   2.011  12.339
 8970SOL    HW228352   3.237   2.139  12.345
 8971SOL     OW28353   2.863   1.896  12.326
 8971SOL    HW128354   2.800   1.824  12.295
 8971SOL    HW228355   2.956   1.860  12.326
 8972SOL     OW28356   2.632   3.192  11.473
 8972SOL    HW128357   2.586   3.105  11.490
 8972SOL    HW228358   2.723   3.189  11.514
 8973SOL     OW28359   3.214   1.914  11.340
 8973SOL    HW128360   3.249   1.873  11.256
 8973SOL    HW228361   3.124   1.876  11.360
 8974SOL     OW28362   3.162   2.315  11.863
 8974SOL    HW128363   3.103   2.395  11.867
 8974SOL    HW228364   3.177   2.280  11.956
 8975SOL     OW28365   3.455   2.083  12.054
 8975SOL    HW128366   3.371   2.082  12.108
 8975SOL    HW228367   3.457   2.166  11.998
 8976SOL     OW28368   1.901   2.939  11.472
 8976SOL    HW128369   2.000   2.928  11.463
 8976SOL    HW228370   1.861   2.853  11.504
 8977SOL     OW28371   2.737   3.508  11.509
 8977SOL    HW128372   2.660   3.473  11.455
 8977SOL    HW228373   2.705   3.579  11.571
 8978SOL     OW28374   2.092   4.352   0.113
 8978SOL    HW128375   1.999   4.350   0.150
 8978SOL    HW228376   2.093   4.313   0.021
 8979SOL     OW28377   2.087   3.999   0.996
 8979SOL    HW128378   2.122   3.982   1.088
 8979SOL    HW228379   1.999   3.954   0.984
 8980SOL     OW28380   1.881   4.092   0.647
 8980SOL    HW128381   1.799   4.135   0.686
 8980SOL    HW228382   1.853   4.019   0.584
 8981SOL     OW28383   2.431   4.999   1.165
 8981SOL    HW128384   2.338   4.992   1.128
 8981SOL    HW228385   2.442   5.088   1.209
 8982SOL     OW28386   3.417   5.235   0.703
 8982SOL    HW128387   3.360   5.219   0.784
 8982SOL    HW228388   3.358   5.245   0.623
 8983SOL     OW28389   2.997   4.427   0.717
 8983SOL    HW128390   3.054   4.505   0.692
 8983SOL    HW228391   2.937   4.453   0.793
 8984SOL     OW28392   3.617   4.331   0.231
 8984SOL    HW128393   3.605   4.318   0.132
 8984SOL    HW228394   3.587   4.250   0.280
 8985SOL     OW28395   2.630   4.868   1.023
 8985SOL    HW128396   2.552   4.885   1.083
 8985SOL    HW228397   2.664   4.955   0.987
 8986SOL     OW28398   2.712   4.522   1.823
 8986SOL    HW128399   2.708   4.598   1.888
 8986SOL    HW228400   2.734   4.558   1.732
 8987SOL     OW28401   2.547   4.736   0.665
 8987SOL    HW128402   2.616   4.720   0.735
 8987SOL    HW228403   2.474   4.793   0.703
 8988SOL     OW28404   2.548   4.885   1.803
 8988SOL    HW128405   2.608   4.964   1.817
 8988SOL    HW228406   2.462   4.916   1.762
 8989SOL     OW28407   2.197   5.159   1.061
 8989SOL    HW128408   2.119   5.128   1.008
 8989SOL    HW228409   2.255   5.217   1.004
 8990SOL     OW28410   3.322   5.229   1.339
 8990SOL    HW128411   3.346   5.323   1.365
 8990SOL    HW228412   3.306   5.175   1.421
 8991SOL     OW28413   2.300   4.116   1.499
 8991SOL    HW128414   2.382   4.060   1.508
 8991SOL    HW228415   2.219   4.058   1.503
 8992SOL     OW28416   3.465   4.171   0.737
 8992SOL    HW128417   3.391   4.217   0.687
 8992SOL    HW228418   3.516   4.239   0.790
 8993SOL     OW28419   2.093   5.437   0.483
 8993SOL    HW128420   2.127   5.514   0.537
 8993SOL    HW228421   2.137   5.437   0.393
 8994SOL     OW28422   2.989   5.065   1.690
 8994SOL    HW128423   3.036   5.065   1.778
 8994SOL    HW228424   2.941   4.978   1.679
 8995SOL     OW28425   2.092   5.158   0.538
 8995SOL    HW128426   2.066   5.254   0.538
 8995SOL    HW228427   2.021   5.104   0.583
 8996SOL     OW28428   2.102   4.815   0.886
 8996SOL    HW128429   2.116   4.731   0.938
 8996SOL    HW228430   2.047   4.879   0.941
 8997SOL     OW28431   2.482   5.510   1.439
 8997SOL    HW128432   2.390   5.493   1.474
 8997SOL    HW228433   2.510   5.602   1.465
 8998SOL     OW28434   2.468   4.688   0.123
 8998SOL    HW128435   2.475   4.772   0.069
 8998SOL    HW228436   2.514   4.701   0.211
 8999SOL     OW28437   3.456   3.838   1.480
 8999SOL    HW128438   3.438   3.905   1.408
 8999SOL    HW228439   3.453   3.884   1.569
 9000SOL     OW28440   1.984   4.367   0.563
 9000SOL    HW128441   1.939   4.279   0.580
 9000SOL    HW228442   1.983   4.421   0.647
 9001SOL     OW28443   3.704   5.491   0.359
 9001SOL    HW128444   3.758   5.462   0.439
 9001SOL    HW228445   3.734   5.581   0.330
 9002SOL     OW28446   1.889   5.320   0.117
 9002SOL    HW128447   1.870   5.224   0.138
 9002SOL    HW228448   1.856   5.378   0.192
 9003SOL     OW28449   3.551   4.646   0.612
 9003SOL    HW128450   3.646   4.617   0.620
 9003SOL    HW228451   3.543   4.711   0.537
 9004SOL     OW28452   3.503   4.832   0.432
 9004SOL    HW128453   3.589   4.834   0.380
 9004SOL    HW228454   3.517   4.879   0.520
 9005SOL     OW28455   1.975   4.461   1.597
 9005SOL    HW128456   2.063   4.448   1.642
 9005SOL    HW228457   1.962   4.558   1.575
 9006SOL     OW28458   2.475   5.089   0.726
 9006SOL    HW128459   2.426   5.002   0.735
 9006SOL    HW228460   2.452   5.132   0.639
 9007SOL     OW28461   3.155   4.952   1.423
 9007SOL    HW128462   3.192   4.879   1.365
 9007SOL    HW228463   3.207   4.957   1.508
 9008SOL     OW28464   2.671   3.728   0.502
 9008SOL    HW128465   2.711   3.819   0.493
 9008SOL    HW228466   2.571   3.736   0.508
 9009SOL     OW28467   2.059   4.700   1.264
 9009SOL    HW128468   2.148   4.655   1.250
 9009SOL    HW228469   1.986   4.635   1.245
 9010SOL     OW28470   3.387   4.723   0.190
 9010SOL    HW128471   3.324   4.647   0.203
 9010SOL    HW228472   3.435   4.741   0.276
 9011SOL     OW28473   3.049   5.516   1.616
 9011SOL    HW128474   3.073   5.576   1.540
 9011SOL    HW228475   3.056   5.421   1.586
 9012SOL     OW28476   2.179   3.975   1.801
 9012SOL    HW128477   2.250   4.046   1.807
 9012SOL    HW228478   2.091   4.014   1.829
 9013SOL     OW28479   3.328   5.141   0.953
 9013SOL    HW128480   3.269   5.147   1.033
 9013SOL    HW228481   3.313   5.053   0.907
 9014SOL     OW28482   3.529   5.438   0.572
 9014SOL    HW128483   3.488   5.415   0.484
 9014SOL    HW228484   3.511   5.364   0.637
 9015SOL     OW28485   2.460   4.453   0.270
 9015SOL    HW128486   2.484   4.522   0.202
 9015SOL    HW228487   2.382   4.486   0.324
 9016SOL     OW28488   3.143   4.069   0.944
 9016SOL    HW128489   3.057   4.019   0.931
 9016SOL    HW228490   3.205   4.015   1.000
 9017SOL     OW28491   3.438   5.386   0.307
 9017SOL    HW128492   3.527   5.432   0.310
 9017SOL    HW228493   3.417   5.362   0.212
 9018SOL     OW28494   2.669   4.329   1.465
 9018SOL    HW128495   2.622   4.326   1.554
 9018SOL    HW228496   2.618   4.274   1.399
 9019SOL     OW28497   3.256   4.193   1.674
 9019SOL    HW128498   3.236   4.236   1.762
 9019SOL    HW228499   3.334   4.131   1.683
 9020SOL     OW28500   2.835   4.614   1.572
 9020SOL    HW128501   2.881   4.530   1.543
 9020SOL    HW228502   2.779   4.648   1.497
 9021SOL     OW28503   2.853   4.134   1.242
 9021SOL    HW128504   2.776   4.168   1.296
 9021SOL    HW228505   2.819   4.083   1.163
 9022SOL     OW28506   2.903   4.425   0.429
 9022SOL    HW128507   2.929   4.421   0.525
 9022SOL    HW228508   2.818   4.374   0.415
 9023SOL     OW28509   1.938   4.535   0.789
 9023SOL    HW128510   2.037   4.523   0.798
 9023SOL    HW228511   1.914   4.630   0.810
 9024SOL     OW28512   1.992   5.545   1.571
 9024SOL    HW128513   1.982   5.530   1.670
 9024SOL    HW228514   1.906   5.581   1.535
 9025SOL     OW28515   2.727   4.072   0.195
 9025SOL    HW128516   2.786   4.135   0.146
 9025SOL    HW228517   2.746   3.978   0.166
 9026SOL     OW28518   3.581   4.309   1.831
 9026SOL    HW128519   3.555   4.398   1.795
 9026SOL    HW228520   3.579   4.241   1.758
 9027SOL     OW28521   3.224   4.868   0.545
 9027SOL    HW128522   3.307   4.839   0.497
 9027SOL    HW228523   3.175   4.935   0.489
 9028SOL     OW28524   2.412   3.920   0.885
 9028SOL    HW128525   2.407   3.915   0.985
 9028SOL    HW228526   2.414   4.016   0.856
 9029SOL     OW28527   2.870   5.180   0.477
 9029SOL    HW128528   2.824   5.252   0.425
 9029SOL    HW228529   2.866   5.200   0.575
 9030SOL     OW28530   2.213   5.525   0.853
 9030SOL    HW128531   2.263   5.439   0.859
 9030SOL    HW228532   2.278   5.602   0.850
 9031SOL     OW28533   3.657   4.790   0.873
 9031SOL    HW128534   3.595   4.775   0.797
 9031SOL    HW228535   3.605   4.801   0.958
 9032SOL     OW28536   3.089   5.274   1.506
 9032SOL    HW128537   3.095   5.197   1.570
 9032SOL    HW228538   3.037   5.248   1.426
 9033SOL     OW28539   2.183   4.667   0.242
 9033SOL    HW128540   2.265   4.706   0.200
 9033SOL    HW228541   2.156   4.585   0.193
 9034SOL     OW28542   3.320   4.459   0.728
 9034SOL    HW128543   3.315   4.394   0.803
 9034SOL    HW228544   3.400   4.518   0.741
 9035SOL     OW28545   2.323   4.990   1.727
 9035SOL    HW128546   2.273   4.991   1.641
 9035SOL    HW228547   2.260   4.972   1.803
 9036SOL     OW28548   2.973   5.500   0.237
 9036SOL    HW128549   2.913   5.438   0.287
 9036SOL    HW228550   3.004   5.456   0.152
 9037SOL     OW28551   2.064   4.009   1.498
 9037SOL    HW128552   1.984   4.069   1.485
 9037SOL    HW228553   2.054   3.960   1.584
 9038SOL     OW28554   3.494   5.101   0.081
 9038SOL    HW128555   3.462   5.195   0.071
 9038SOL    HW228556   3.418   5.038   0.069
 9039SOL     OW28557   2.326   5.467   0.323
 9039SOL    HW128558   2.359   5.506   0.409
 9039SOL    HW228559   2.402   5.460   0.258
 9040SOL     OW28560   3.262   3.831   0.426
 9040SOL    HW128561   3.238   3.794   0.336
 9040SOL    HW228562   3.361   3.847   0.430
 9041SOL     OW28563   2.111   5.509   1.241
 9041SOL    HW128564   2.168   5.444   1.291
 9041SOL    HW228565   2.095   5.476   1.148
 9042SOL     OW28566   2.802   5.422   0.904
 9042SOL    HW128567   2.882   5.365   0.925
 9042SOL    HW228568   2.753   5.382   0.827
 9043SOL     OW28569   2.244   4.424   0.480
 9043SOL    HW128570   2.289   4.334   0.477
 9043SOL    HW228571   2.150   4.413   0.513
 9044SOL     OW28572   3.409   3.946   1.729
 9044SOL    HW128573   3.404   3.983   1.821
 9044SOL    HW228574   3.337   3.877   1.717
 9045SOL     OW28575   2.476   3.846   0.117
 9045SOL    HW128576   2.574   3.824   0.124
 9045SOL    HW228577   2.445   3.829   0.024
 9046SOL     OW28578   2.643   3.988   1.749
 9046SOL    HW128579   2.710   3.927   1.792
 9046SOL    HW228580   2.570   4.007   1.814
 9047SOL     OW28581   2.750   5.238   1.195
 9047SOL    HW128582   2.727   5.213   1.101
 9047SOL    HW228583   2.811   5.169   1.234
 9048SOL     OW28584   3.213   4.314   1.433
 9048SOL    HW128585   3.241   4.271   1.518
 9048SOL    HW228586   3.238   4.410   1.434
 9049SOL     OW28587   2.665   5.126   0.924
 9049SOL    HW128588   2.755   5.140   0.882
 9049SOL    HW228589   2.594   5.128   0.853
 9050SOL     OW28590   2.784   4.227   0.899
 9050SOL    HW128591   2.759   4.218   0.803
 9050SOL    HW228592   2.832   4.145   0.930
 9051SOL     OW28593   2.401   3.788   0.512
 9051SOL    HW128594   2.320   3.789   0.570
 9051SOL    HW228595   2.404   3.871   0.457
 9052SOL     OW28596   3.296   4.912   0.041
 9052SOL    HW128597   3.328   4.836   0.098
 9052SOL    HW228598   3.204   4.939   0.071
 9053SOL     OW28599   2.159   3.759   0.171
 9053SOL    HW128600   2.208   3.843   0.150
 9053SOL    HW228601   2.221   3.694   0.216
 9054SOL     OW28602   2.797   3.960   0.480
 9054SOL    HW128603   2.749   4.001   0.402
 9054SOL    HW228604   2.896   3.958   0.461
 9055SOL     OW28605   2.938   4.407   1.464
 9055SOL    HW128606   2.858   4.346   1.467
 9055SOL    HW228607   3.019   4.354   1.440
 9056SOL     OW28608   3.089   5.294   0.793
 9056SOL    HW128609   3.110   5.368   0.728
 9056SOL    HW228610   3.157   5.294   0.866
 9057SOL     OW28611   2.321   4.876   0.741
 9057SOL    HW128612   2.250   4.849   0.806
 9057SOL    HW228613   2.295   4.848   0.648
 9058SOL     OW28614   3.133   5.521   0.591
 9058SOL    HW128615   3.177   5.585   0.527
 9058SOL    HW228616   3.083   5.573   0.661
 9059SOL     OW28617   2.894   4.273   0.016
 9059SOL    HW128618   2.853   4.355  -0.023
 9059SOL    HW228619   2.958   4.299   0.089
 9060SOL     OW28620   1.940   4.280   1.386
 9060SOL    HW128621   2.032   4.279   1.345
 9060SOL    HW228622   1.934   4.354   1.453
 9061SOL     OW28623   2.423   3.946   1.147
 9061SOL    HW128624   2.461   3.862   1.184
 9061SOL    HW228625   2.335   3.965   1.191
 9062SOL     OW28626   2.728   4.178   0.642
 9062SOL    HW128627   2.696   4.250   0.580
 9062SOL    HW228628   2.752   4.097   0.589
 9063SOL     OW28629   2.879   3.763   0.753
 9063SOL    HW128630   2.807   3.768   0.684
 9063SOL    HW228631   2.855   3.694   0.822
 9064SOL     OW28632   3.291   4.897   0.867
 9064SOL    HW128633   3.236   4.813   0.860
 9064SOL    HW228634   3.317   4.926   0.775
 9065SOL     OW28635   3.328   4.314   0.992
 9065SOL    HW128636   3.298   4.219   0.999
 9065SOL    HW228637   3.401   4.330   1.058
 9066SOL     OW28638   3.719   4.557   0.377
 9066SOL    HW128639   3.761   4.493   0.441
 9066SOL    HW228640   3.681   4.506   0.299
 9067SOL     OW28641   2.350   5.109   0.174
 9067SOL    HW128642   2.263   5.094   0.221
 9067SOL    HW228643   2.333   5.135   0.079
 9068SOL     OW28644   3.526   5.004   0.657
 9068SOL    HW128645   3.625   5.012   0.671
 9068SOL    HW228646   3.481   5.088   0.688
 9069SOL     OW28647   3.252   4.299   0.078
 9069SOL    HW128648   3.198   4.278   0.159
 9069SOL    HW228649   3.343   4.258   0.087
 9070SOL     OW28650   2.389   3.980   0.328
 9070SOL    HW128651   2.416   3.921   0.253
 9070SOL    HW228652   2.389   4.075   0.297
 9071SOL     OW28653   3.616   4.947   1.588
 9071SOL    HW128654   3.707   4.908   1.575
 9071SOL    HW228655   3.624   5.043   1.612
 9072SOL     OW28656   2.926   5.071   1.340
 9072SOL    HW128657   2.846   5.048   1.395
 9072SOL    HW228658   3.009   5.045   1.389
 9073SOL     OW28659   3.454   5.353   1.625
 9073SOL    HW128660   3.481   5.387   1.535
 9073SOL    HW228661   3.533   5.315   1.671
 9074SOL     OW28662   2.973   4.919   1.100
 9074SOL    HW128663   2.933   4.963   1.181
 9074SOL    HW228664   2.932   4.956   1.017
 9075SOL     OW28665   3.500   4.823   1.079
 9075SOL    HW128666   3.505   4.904   1.138
 9075SOL    HW228667   3.414   4.825   1.028
 9076SOL     OW28668   2.777   3.813   1.402
 9076SOL    HW128669   2.802   3.793   1.307
 9076SOL    HW228670   2.849   3.869   1.444
 9077SOL     OW28671   2.842   4.840   1.719
 9077SOL    HW128672   2.743   4.846   1.729
 9077SOL    HW228673   2.865   4.760   1.663
 9078SOL     OW28674   2.567   4.774   0.368
 9078SOL    HW128675   2.553   4.781   0.467
 9078SOL    HW228676   2.651   4.723   0.350
 9079SOL     OW28677   2.272   4.537   1.251
 9079SOL    HW128678   2.358   4.549   1.301
 9079SOL    HW228679   2.230   4.450   1.278
 9080SOL     OW28680   3.136   4.110   1.262
 9080SOL    HW128681   3.157   4.184   1.326
 9080SOL    HW228682   3.047   4.127   1.219
 9081SOL     OW28683   1.926   5.288   1.331
 9081SOL    HW128684   1.880   5.370   1.297
 9081SOL    HW228685   2.024   5.307   1.340
 9082SOL     OW28686   2.229   4.824   0.501
 9082SOL    HW128687   2.222   4.907   0.445
 9082SOL    HW228688   2.233   4.744   0.441
 9083SOL     OW28689   2.428   4.261   0.865
 9083SOL    HW128690   2.440   4.327   0.791
 9083SOL    HW228691   2.474   4.295   0.948
 9084SOL     OW28692   3.114   5.072   0.388
 9084SOL    HW128693   3.164   5.149   0.428
 9084SOL    HW228694   3.019   5.074   0.420
 9085SOL     OW28695   3.134   5.169   1.142
 9085SOL    HW128696   3.181   5.182   1.229
 9085SOL    HW228697   3.068   5.095   1.151
 9086SOL     OW28698   3.444   4.363   0.472
 9086SOL    HW128699   3.413   4.424   0.545
 9086SOL    HW228700   3.494   4.415   0.403
 9087SOL     OW28701   2.216   5.234   1.329
 9087SOL    HW128702   2.195   5.190   1.242
 9087SOL    HW228703   2.313   5.260   1.332
 9088SOL     OW28704   2.264   4.475   1.598
 9088SOL    HW128705   2.332   4.530   1.551
 9088SOL    HW228706   2.304   4.387   1.625
 9089SOL     OW28707   3.449   4.503   1.670
 9089SOL    HW128708   3.357   4.541   1.665
 9089SOL    HW228709   3.509   4.550   1.605
 9090SOL     OW28710   2.875   3.829   1.770
 9090SOL    HW128711   2.881   3.914   1.718
 9090SOL    HW228712   2.907   3.753   1.713
 9091SOL     OW28713   2.366   3.774   1.740
 9091SOL    HW128714   2.324   3.717   1.670
 9091SOL    HW228715   2.300   3.843   1.772
 9092SOL     OW28716   2.435   4.594   1.029
 9092SOL    HW128717   2.479   4.683   1.020
 9092SOL    HW228718   2.372   4.594   1.106
 9093SOL     OW28719   3.222   4.586   1.045
 9093SOL    HW128720   3.147   4.586   0.979
 9093SOL    HW228721   3.259   4.494   1.054
 9094SOL     OW28722   3.071   4.249   0.275
 9094SOL    HW128723   3.084   4.165   0.329
 9094SOL    HW228724   3.042   4.323   0.335
 9095SOL     OW28725   2.169   3.937   1.231
 9095SOL    HW128726   2.146   3.974   1.321
 9095SOL    HW228727   2.139   3.842   1.225
 9096SOL     OW28728   1.899   5.034   1.282
 9096SOL    HW128729   1.952   4.985   1.350
 9096SOL    HW228730   1.921   5.132   1.287
 9097SOL     OW28731   2.594   4.358   1.064
 9097SOL    HW128732   2.653   4.332   0.988
 9097SOL    HW228733   2.566   4.454   1.053
 9098SOL     OW28734   3.590   4.659   1.854
 9098SOL    HW128735   3.544   4.652   1.765
 9098SOL    HW228736   3.528   4.703   1.920
 9099SOL     OW28737   2.169   3.787   0.618
 9099SOL    HW128738   2.158   3.881   0.651
 9099SOL    HW228739   2.164   3.724   0.695
 9100SOL     OW28740   3.484   4.091   0.374
 9100SOL    HW128741   3.486   4.015   0.438
 9100SOL    HW228742   3.436   4.168   0.414
 9101SOL     OW28743   2.885   4.490   0.966
 9101SOL    HW128744   2.900   4.511   1.062
 9101SOL    HW228745   2.855   4.395   0.957
 9102SOL     OW28746   2.842   5.297   1.700
 9102SOL    HW128747   2.822   5.341   1.612
 9102SOL    HW228748   2.881   5.206   1.684
 9103SOL     OW28749   3.721   5.242   1.605
 9103SOL    HW128750   3.735   5.269   1.510
 9103SOL    HW228751   3.804   5.264   1.658
 9104SOL     OW28752   2.212   4.622   1.804
 9104SOL    HW128753   2.288   4.666   1.852
 9104SOL    HW228754   2.247   4.575   1.722
 9105SOL     OW28755   3.402   3.998   0.125
 9105SOL    HW128756   3.341   3.923   0.148
 9105SOL    HW228757   3.424   4.050   0.208
 9106SOL     OW28758   3.165   4.562   0.042
 9106SOL    HW128759   3.199   4.469   0.057
 9106SOL    HW228760   3.183   4.589  -0.053
 9107SOL     OW28761   2.930   5.057   0.849
 9107SOL    HW128762   2.937   4.973   0.794
 9107SOL    HW228763   2.992   5.126   0.813
 9108SOL     OW28764   2.181   4.534   0.949
 9108SOL    HW128765   2.274   4.570   0.954
 9108SOL    HW228766   2.175   4.449   1.001
 9109SOL     OW28767   2.201   4.233   1.006
 9109SOL    HW128768   2.149   4.150   0.989
 9109SOL    HW228769   2.278   4.238   0.942
 9110SOL     OW28770   3.000   4.104   1.678
 9110SOL    HW128771   2.955   4.167   1.742
 9110SOL    HW228772   3.093   4.135   1.661
 9111SOL     OW28773   3.022   3.931   1.477
 9111SOL    HW128774   3.022   3.995   1.554
 9111SOL    HW228775   3.050   3.979   1.394
 9112SOL     OW28776   1.950   5.525   0.927
 9112SOL    HW128777   1.908   5.439   0.900
 9112SOL    HW228778   2.044   5.528   0.893
 9113SOL     OW28779   2.366   5.292   0.910
 9113SOL    HW128780   2.432   5.366   0.919
 9113SOL    HW228781   2.410   5.213   0.868
 9114SOL     OW28782   2.864   4.520   1.238
 9114SOL    HW128783   2.905   4.488   1.324
 9114SOL    HW228784   2.768   4.493   1.235
 9115SOL     OW28785   1.902   4.268   1.114
 9115SOL    HW128786   1.987   4.235   1.073
 9115SOL    HW228787   1.915   4.283   1.212
 9116SOL     OW28788   2.051   4.244   1.722
 9116SOL    HW128789   2.110   4.204   1.652
 9116SOL    HW228790   1.993   4.315   1.681
 9117SOL     OW28791   3.231   4.674   1.660
 9117SOL    HW128792   3.270   4.763   1.680
 9117SOL    HW228793   3.241   4.654   1.563
 9118SOL     OW28794   2.677   4.296   0.325
 9118SOL    HW128795   2.684   4.207   0.279
 9118SOL    HW228796   2.583   4.330   0.317
 9119SOL     OW28797   3.519   4.328   1.206
 9119SOL    HW128798   3.481   4.259   1.268
 9119SOL    HW228799   3.601   4.292   1.162
 9120SOL     OW28800   2.114   5.288   1.744
 9120SOL    HW128801   2.084   5.345   1.820
 9120SOL    HW228802   2.107   5.191   1.770
 9121SOL     OW28803   2.533   4.188   1.269
 9121SOL    HW128804   2.499   4.099   1.239
 9121SOL    HW228805   2.559   4.242   1.189
 9122SOL     OW28806   2.792   5.402   1.465
 9122SOL    HW128807   2.768   5.384   1.370
 9122SOL    HW228808   2.822   5.496   1.475
 9123SOL     OW28809   2.335   4.224   0.191
 9123SOL    HW128810   2.396   4.304   0.195
 9123SOL    HW228811   2.240   4.255   0.198
 9124SOL     OW28812   2.021   4.861   1.466
 9124SOL    HW128813   2.043   4.800   1.542
 9124SOL    HW228814   2.031   4.812   1.380
 9125SOL     OW28815   3.209   4.783   1.234
 9125SOL    HW128816   3.233   4.720   1.160
 9125SOL    HW228817   3.119   4.823   1.216
 9126SOL     OW28818   3.164   4.579   0.309
 9126SOL    HW128819   3.078   4.548   0.351
 9126SOL    HW228820   3.160   4.565   0.210
 9127SOL     OW28821   3.621   5.471   1.154
 9127SOL    HW128822   3.682   5.501   1.081
 9127SOL    HW228823   3.583   5.382   1.132
 9128SOL     OW28824   3.114   5.455   1.128
 9128SOL    HW128825   3.198   5.460   1.074
 9128SOL    HW228826   3.091   5.359   1.146
 9129SOL     OW28827   1.945   4.982   1.022
 9129SOL    HW128828   1.940   4.981   1.122
 9129SOL    HW228829   1.862   4.941   0.984
 9130SOL     OW28830   2.550   5.386   1.716
 9130SOL    HW128831   2.494   5.467   1.725
 9130SOL    HW228832   2.602   5.390   1.630
 9131SOL     OW28833   2.765   3.810   0.133
 9131SOL    HW128834   2.816   3.811   0.047
 9131SOL    HW228835   2.821   3.768   0.204
 9132SOL     OW28836   3.588   3.859   0.523
 9132SOL    HW128837   3.661   3.842   0.456
 9132SOL    HW228838   3.557   3.772   0.561
 9133SOL     OW28839   3.250   5.297   0.477
 9133SOL    HW128840   3.317   5.309   0.403
 9133SOL    HW228841   3.210   5.386   0.500
 9134SOL     OW28842   1.992   5.518   1.851
 9134SOL    HW128843   1.951   5.444   1.904
 9134SOL    HW228844   2.056   5.569   1.909
 9135SOL     OW28845   3.142   4.651   0.672
 9135SOL    HW128846   3.202   4.570   0.674
 9135SOL    HW228847   3.182   4.720   0.612
 9136SOL     OW28848   2.692   4.997   1.422
 9136SOL    HW128849   2.687   5.030   1.517
 9136SOL    HW228850   2.606   5.016   1.376
 9137SOL     OW28851   2.534   5.340   0.154
 9137SOL    HW128852   2.543   5.350   0.055
 9137SOL    HW228853   2.494   5.251   0.175
 9138SOL     OW28854   3.512   5.444   1.394
 9138SOL    HW128855   3.565   5.454   1.310
 9138SOL    HW228856   3.485   5.534   1.428
 9139SOL     OW28857   3.703   3.899   0.963
 9139SOL    HW128858   3.742   3.814   0.927
 9139SOL    HW228859   3.605   3.901   0.944
 9140SOL     OW28860   2.125   4.050   0.720
 9140SOL    HW128861   2.046   4.101   0.686
 9140SOL    HW228862   2.116   4.035   0.818
 9141SOL     OW28863   3.056   5.336   0.031
 9141SOL    HW128864   3.062   5.243   0.068
 9141SOL    HW228865   2.997   5.336  -0.049
 9142SOL     OW28866   2.684   4.726   1.372
 9142SOL    HW128867   2.724   4.725   1.280
 9142SOL    HW228868   2.694   4.818   1.412
 9143SOL     OW28869   2.778   4.634   0.291
 9143SOL    HW128870   2.841   4.672   0.223
 9143SOL    HW228871   2.818   4.551   0.330
 9144SOL     OW28872   3.366   5.331   0.044
 9144SOL    HW128873   3.274   5.368   0.051
 9144SOL    HW228874   3.404   5.351  -0.046
 9145SOL     OW28875   2.234   5.012   1.490
 9145SOL    HW128876   2.221   5.105   1.456
 9145SOL    HW228877   2.150   4.960   1.477
 9146SOL     OW28878   3.476   5.016   1.289
 9146SOL    HW128879   3.536   5.019   1.369
 9146SOL    HW228880   3.401   5.080   1.302
 9147SOL     OW28881   2.901   4.822   0.696
 9147SOL    HW128882   2.831   4.775   0.750
 9147SOL    HW228883   2.960   4.754   0.653
 9148SOL     OW28884   2.876   3.960   0.971
 9148SOL    HW128885   2.868   3.924   0.878
 9148SOL    HW228886   2.874   3.884   1.036
 9149SOL     OW28887   2.452   5.211   0.491
 9149SOL    HW128888   2.494   5.153   0.421
 9149SOL    HW228889   2.408   5.290   0.447
 9150SOL     OW28890   3.571   4.109   1.381
 9150SOL    HW128891   3.644   4.178   1.385
 9150SOL    HW228892   3.599   4.034   1.322
 9151SOL     OW28893   2.117   5.072   0.290
 9151SOL    HW128894   2.021   5.073   0.263
 9151SOL    HW228895   2.129   5.125   0.374
 9152SOL     OW28896   1.967   4.737   1.726
 9152SOL    HW128897   1.890   4.704   1.780
 9152SOL    HW228898   2.052   4.707   1.768
 9153SOL     OW28899   2.534   3.927   1.489
 9153SOL    HW128900   2.624   3.911   1.449
 9153SOL    HW228901   2.542   3.932   1.588
 9154SOL     OW28902   3.302   4.580   1.398
 9154SOL    HW128903   3.245   4.632   1.335
 9154SOL    HW228904   3.398   4.592   1.374
 9155SOL     OW28905   1.934   3.890   0.318
 9155SOL    HW128906   1.917   3.973   0.264
 9155SOL    HW228907   2.024   3.853   0.296
 9156SOL     OW28908   3.045   5.059   0.119
 9156SOL    HW128909   2.946   5.048   0.121
 9156SOL    HW228910   3.079   5.074   0.212
 9157SOL     OW28911   2.475   4.566   1.431
 9157SOL    HW128912   2.531   4.647   1.414
 9157SOL    HW228913   2.534   4.486   1.434
 9158SOL     OW28914   3.355   5.491   0.959
 9158SOL    HW128915   3.388   5.555   0.890
 9158SOL    HW228916   3.421   5.485   1.034
 9159SOL     OW28917   2.578   4.289   1.708
 9159SOL    HW128918   2.597   4.354   1.782
 9159SOL    HW228919   2.638   4.209   1.717
 9160SOL     OW28920   3.312   4.944   1.633
 9160SOL    HW128921   3.303   4.934   1.732
 9160SOL    HW228922   3.408   4.937   1.607
 9161SOL     OW28923   2.252   5.465   1.560
 9161SOL    HW128924   2.161   5.506   1.558
 9161SOL    HW228925   2.245   5.371   1.592
 9162SOL     OW28926   3.536   4.607   1.254
 9162SOL    HW128927   3.509   4.518   1.217
 9162SOL    HW228928   3.537   4.675   1.181
 9163SOL     OW28929   3.087   4.049   0.449
 9163SOL    HW128930   3.152   3.975   0.438
 9163SOL    HW228931   3.107   4.099   0.533
 9164SOL     OW28932   2.456   4.469   0.652
 9164SOL    HW128933   2.506   4.554   0.633
 9164SOL    HW228934   2.368   4.471   0.604
 9165SOL     OW28935   3.639   4.066   1.642
 9165SOL    HW128936   3.622   4.097   1.548
 9165SOL    HW228937   3.555   4.029   1.680
 9166SOL     OW28938   3.592   4.658   1.517
 9166SOL    HW128939   3.630   4.749   1.532
 9166SOL    HW228940   3.584   4.641   1.418
 9167SOL     OW28941   2.721   5.098   0.016
 9167SOL    HW128942   2.675   5.113   0.104
 9167SOL    HW228943   2.765   5.183  -0.014
 9168SOL     OW28944   2.523   5.514   0.953
 9168SOL    HW128945   2.477   5.602   0.940
 9168SOL    HW228946   2.622   5.526   0.946
 9169SOL     OW28947   2.721   4.680   0.861
 9169SOL    HW128948   2.775   4.611   0.909
 9169SOL    HW228949   2.689   4.749   0.927
 9170SOL     OW28950   2.945   4.708   0.087
 9170SOL    HW128951   2.922   4.761   0.005
 9170SOL    HW228952   3.026   4.652   0.068
 9171SOL     OW28953   3.723   5.293   0.851
 9171SOL    HW128954   3.652   5.281   0.781
 9171SOL    HW228955   3.724   5.214   0.911
 9172SOL     OW28956   2.083   5.038   1.844
 9172SOL    HW128957   2.018   4.965   1.823
 9172SOL    HW228958   2.087   5.052   1.942
 9173SOL     OW28959   1.941   4.964   0.653
 9173SOL    HW128960   1.940   4.917   0.741
 9173SOL    HW228961   2.023   4.936   0.602
 9174SOL     OW28962   2.534   5.115   1.624
 9174SOL    HW128963   2.456   5.065   1.662
 9174SOL    HW228964   2.531   5.210   1.655
 9175SOL     OW28965   3.686   3.916   1.227
 9175SOL    HW128966   3.682   3.826   1.271
 9175SOL    HW228967   3.689   3.905   1.128
 9176SOL     OW28968   2.290   4.148   0.520
 9176SOL    HW128969   2.320   4.076   0.458
 9176SOL    HW228970   2.251   4.108   0.603
 9177SOL     OW28971   3.567   5.211   1.104
 9177SOL    HW128972   3.474   5.186   1.077
 9177SOL    HW228973   3.593   5.161   1.186
 9178SOL     OW28974   2.179   4.271   1.280
 9178SOL    HW128975   2.217   4.212   1.352
 9178SOL    HW228976   2.219   4.245   1.192
 9179SOL     OW28977   2.674   5.310   0.687
 9179SOL    HW128978   2.706   5.320   0.593
 9179SOL    HW228979   2.595   5.248   0.689
 9180SOL     OW28980   3.286   3.938   1.112
 9180SOL    HW128981   3.338   3.873   1.167
 9180SOL    HW228982   3.237   4.001   1.173
 9181SOL     OW28983   2.863   3.758   1.154
 9181SOL    HW128984   2.800   3.686   1.123
 9181SOL    HW228985   2.956   3.722   1.154
 9182SOL     OW28986   2.632   5.054   0.301
 9182SOL    HW128987   2.586   4.967   0.318
 9182SOL    HW228988   2.723   5.051   0.342
 9183SOL     OW28989   2.480   5.291   1.284
 9183SOL    HW128990   2.475   5.373   1.341
 9183SOL    HW228991   2.569   5.288   1.239
 9184SOL     OW28992   3.214   3.776   0.168
 9184SOL    HW128993   3.249   3.735   0.084
 9184SOL    HW228994   3.124   3.738   0.188
 9185SOL     OW28995   3.162   4.177   0.691
 9185SOL    HW128996   3.103   4.257   0.695
 9185SOL    HW228997   3.177   4.142   0.784
 9186SOL     OW28998   3.455   3.945   0.882
 9186SOL    HW128999   3.371   3.944   0.936
 9186SOL    HW229000   3.457   4.028   0.826
 9187SOL     OW29001   1.901   4.801   0.300
 9187SOL    HW129002   2.000   4.790   0.291
 9187SOL    HW229003   1.861   4.715   0.332
 9188SOL     OW29004   2.737   5.370   0.337
 9188SOL    HW129005   2.660   5.335   0.283
 9188SOL    HW229006   2.705   5.441   0.399
 9189SOL     OW29007   2.092   4.352   1.975
 9189SOL    HW129008   1.999   4.350   2.012
 9189SOL    HW229009   2.093   4.313   1.883
 9190SOL     OW29010   2.087   3.999   2.858
 9190SOL    HW129011   2.122   3.982   2.950
 9190SOL    HW229012   1.999   3.954   2.846
 9191SOL     OW29013   1.881   4.092   2.509
 9191SOL    HW129014   1.799   4.135   2.548
 9191SOL    HW229015   1.853   4.019   2.446
 9192SOL     OW29016   2.431   4.999   3.027
 9192SOL    HW129017   2.338   4.992   2.990
 9192SOL    HW229018   2.442   5.088   3.071
 9193SOL     OW29019   3.417   5.235   2.565
 9193SOL    HW129020   3.360   5.219   2.646
 9193SOL    HW229021   3.358   5.245   2.485
 9194SOL     OW29022   2.997   4.427   2.579
 9194SOL    HW129023   3.054   4.505   2.554
 9194SOL    HW229024   2.937   4.453   2.655
 9195SOL     OW29025   3.617   4.331   2.093
 9195SOL    HW129026   3.605   4.318   1.994
 9195SOL    HW229027   3.587   4.250   2.142
 9196SOL     OW29028   2.630   4.868   2.885
 9196SOL    HW129029   2.552   4.885   2.945
 9196SOL    HW229030   2.664   4.955   2.849
 9197SOL     OW29031   2.712   4.522   3.685
 9197SOL    HW129032   2.708   4.598   3.750
 9197SOL    HW229033   2.734   4.558   3.594
 9198SOL     OW29034   2.547   4.736   2.527
 9198SOL    HW129035   2.616   4.720   2.597
 9198SOL    HW229036   2.474   4.793   2.565
 9199SOL     OW29037   2.548   4.885   3.665
 9199SOL    HW129038   2.608   4.964   3.679
 9199SOL    HW229039   2.462   4.916   3.624
 9200SOL     OW29040   2.197   5.159   2.923
 9200SOL    HW129041   2.119   5.128   2.870
 9200SOL    HW229042   2.255   5.217   2.866
 9201SOL     OW29043   3.322   5.229   3.201
 9201SOL    HW129044   3.346   5.323   3.227
 9201SOL    HW229045   3.306   5.175   3.283
 9202SOL     OW29046   2.300   4.116   3.361
 9202SOL    HW129047   2.382   4.060   3.370
 9202SOL    HW229048   2.219   4.058   3.365
 9203SOL     OW29049   3.465   4.171   2.599
 9203SOL    HW129050   3.391   4.217   2.549
 9203SOL    HW229051   3.516   4.239   2.652
 9204SOL     OW29052   2.093   5.437   2.345
 9204SOL    HW129053   2.127   5.514   2.399
 9204SOL    HW229054   2.137   5.437   2.255
 9205SOL     OW29055   2.989   5.065   3.552
 9205SOL    HW129056   3.036   5.065   3.640
 9205SOL    HW229057   2.941   4.978   3.541
 9206SOL     OW29058   2.092   5.158   2.400
 9206SOL    HW129059   2.066   5.254   2.400
 9206SOL    HW229060   2.021   5.104   2.445
 9207SOL     OW29061   2.102   4.815   2.748
 9207SOL    HW129062   2.116   4.731   2.800
 9207SOL    HW229063   2.047   4.879   2.803
 9208SOL     OW29064   2.482   5.510   3.301
 9208SOL    HW129065   2.390   5.493   3.336
 9208SOL    HW229066   2.510   5.602   3.327
 9209SOL     OW29067   2.468   4.688   1.985
 9209SOL    HW129068   2.475   4.772   1.931
 9209SOL    HW229069   2.514   4.701   2.073
 9210SOL     OW29070   1.984   4.367   2.425
 9210SOL    HW129071   1.939   4.279   2.442
 9210SOL    HW229072   1.983   4.421   2.509
 9211SOL     OW29073   3.704   5.491   2.221
 9211SOL    HW129074   3.758   5.462   2.301
 9211SOL    HW229075   3.734   5.581   2.192
 9212SOL     OW29076   1.889   5.320   1.979
 9212SOL    HW129077   1.870   5.224   2.000
 9212SOL    HW229078   1.856   5.378   2.054
 9213SOL     OW29079   3.551   4.646   2.474
 9213SOL    HW129080   3.646   4.617   2.482
 9213SOL    HW229081   3.543   4.711   2.399
 9214SOL     OW29082   3.503   4.832   2.294
 9214SOL    HW129083   3.589   4.834   2.242
 9214SOL    HW229084   3.517   4.879   2.382
 9215SOL     OW29085   1.975   4.461   3.459
 9215SOL    HW129086   2.063   4.448   3.504
 9215SOL    HW229087   1.962   4.558   3.437
 9216SOL     OW29088   2.475   5.089   2.588
 9216SOL    HW129089   2.426   5.002   2.597
 9216SOL    HW229090   2.452   5.132   2.501
 9217SOL     OW29091   3.155   4.952   3.285
 9217SOL    HW129092   3.192   4.879   3.227
 9217SOL    HW229093   3.207   4.957   3.370
 9218SOL     OW29094   2.671   3.728   2.364
 9218SOL    HW129095   2.711   3.819   2.355
 9218SOL    HW229096   2.571   3.736   2.370
 9219SOL     OW29097   2.059   4.700   3.126
 9219SOL    HW129098   2.148   4.655   3.112
 9219SOL    HW229099   1.986   4.635   3.107
 9220SOL     OW29100   3.387   4.723   2.052
 9220SOL    HW129101   3.324   4.647   2.065
 9220SOL    HW229102   3.435   4.741   2.138
 9221SOL     OW29103   3.049   5.516   3.478
 9221SOL    HW129104   3.073   5.576   3.402
 9221SOL    HW229105   3.056   5.421   3.448
 9222SOL     OW29106   2.179   3.975   3.663
 9222SOL    HW129107   2.250   4.046   3.669
 9222SOL    HW229108   2.091   4.014   3.691
 9223SOL     OW29109   3.328   5.141   2.815
 9223SOL    HW129110   3.269   5.147   2.895
 9223SOL    HW229111   3.313   5.053   2.769
 9224SOL     OW29112   3.529   5.438   2.434
 9224SOL    HW129113   3.488   5.415   2.346
 9224SOL    HW229114   3.511   5.364   2.499
 9225SOL     OW29115   2.460   4.453   2.132
 9225SOL    HW129116   2.484   4.522   2.064
 9225SOL    HW229117   2.382   4.486   2.186
 9226SOL     OW29118   3.143   4.069   2.806
 9226SOL    HW129119   3.057   4.019   2.793
 9226SOL    HW229120   3.205   4.015   2.862
 9227SOL     OW29121   3.438   5.386   2.169
 9227SOL    HW129122   3.527   5.432   2.172
 9227SOL    HW229123   3.417   5.362   2.074
 9228SOL     OW29124   2.669   4.329   3.327
 9228SOL    HW129125   2.622   4.326   3.416
 9228SOL    HW229126   2.618   4.274   3.261
 9229SOL     OW29127   3.256   4.193   3.536
 9229SOL    HW129128   3.236   4.236   3.624
 9229SOL    HW229129   3.334   4.131   3.545
 9230SOL     OW29130   2.835   4.614   3.434
 9230SOL    HW129131   2.881   4.530   3.405
 9230SOL    HW229132   2.779   4.648   3.359
 9231SOL     OW29133   2.903   4.425   2.291
 9231SOL    HW129134   2.929   4.421   2.387
 9231SOL    HW229135   2.818   4.374   2.277
 9232SOL     OW29136   1.938   4.535   2.651
 9232SOL    HW129137   2.037   4.523   2.660
 9232SOL    HW229138   1.914   4.630   2.672
 9233SOL     OW29139   1.992   5.545   3.433
 9233SOL    HW129140   1.982   5.530   3.532
 9233SOL    HW229141   1.906   5.581   3.397
 9234SOL     OW29142   2.727   4.072   2.057
 9234SOL    HW129143   2.786   4.135   2.008
 9234SOL    HW229144   2.746   3.978   2.028
 9235SOL     OW29145   3.581   4.309   3.693
 9235SOL    HW129146   3.555   4.398   3.657
 9235SOL    HW229147   3.579   4.241   3.620
 9236SOL     OW29148   3.224   4.868   2.407
 9236SOL    HW129149   3.307   4.839   2.359
 9236SOL    HW229150   3.175   4.935   2.351
 9237SOL     OW29151   2.412   3.920   2.747
 9237SOL    HW129152   2.407   3.915   2.847
 9237SOL    HW229153   2.414   4.016   2.718
 9238SOL     OW29154   2.870   5.180   2.339
 9238SOL    HW129155   2.824   5.252   2.287
 9238SOL    HW229156   2.866   5.200   2.437
 9239SOL     OW29157   2.213   5.525   2.715
 9239SOL    HW129158   2.263   5.439   2.721
 9239SOL    HW229159   2.278   5.602   2.712
 9240SOL     OW29160   3.657   4.790   2.735
 9240SOL    HW129161   3.595   4.775   2.659
 9240SOL    HW229162   3.605   4.801   2.820
 9241SOL     OW29163   3.089   5.274   3.368
 9241SOL    HW129164   3.095   5.197   3.432
 9241SOL    HW229165   3.037   5.248   3.288
 9242SOL     OW29166   2.183   4.667   2.104
 9242SOL    HW129167   2.265   4.706   2.062
 9242SOL    HW229168   2.156   4.585   2.055
 9243SOL     OW29169   3.320   4.459   2.590
 9243SOL    HW129170   3.315   4.394   2.665
 9243SOL    HW229171   3.400   4.518   2.603
 9244SOL     OW29172   2.323   4.990   3.589
 9244SOL    HW129173   2.273   4.991   3.503
 9244SOL    HW229174   2.260   4.972   3.665
 9245SOL     OW29175   2.973   5.500   2.099
 9245SOL    HW129176   2.913   5.438   2.149
 9245SOL    HW229177   3.004   5.456   2.014
 9246SOL     OW29178   2.064   4.009   3.360
 9246SOL    HW129179   1.984   4.069   3.347
 9246SOL    HW229180   2.054   3.960   3.446
 9247SOL     OW29181   3.494   5.101   1.943
 9247SOL    HW129182   3.462   5.195   1.933
 9247SOL    HW229183   3.418   5.038   1.931
 9248SOL     OW29184   2.326   5.467   2.185
 9248SOL    HW129185   2.359   5.506   2.271
 9248SOL    HW229186   2.402   5.460   2.120
 9249SOL     OW29187   3.262   3.831   2.288
 9249SOL    HW129188   3.238   3.794   2.198
 9249SOL    HW229189   3.361   3.847   2.292
 9250SOL     OW29190   2.111   5.509   3.103
 9250SOL    HW129191   2.168   5.444   3.153
 9250SOL    HW229192   2.095   5.476   3.010
 9251SOL     OW29193   2.802   5.422   2.766
 9251SOL    HW129194   2.882   5.365   2.787
 9251SOL    HW229195   2.753   5.382   2.689
 9252SOL     OW29196   2.244   4.424   2.342
 9252SOL    HW129197   2.289   4.334   2.339
 9252SOL    HW229198   2.150   4.413   2.375
 9253SOL     OW29199   3.409   3.946   3.591
 9253SOL    HW129200   3.404   3.983   3.683
 9253SOL    HW229201   3.337   3.877   3.579
 9254SOL     OW29202   2.476   3.846   1.979
 9254SOL    HW129203   2.574   3.824   1.986
 9254SOL    HW229204   2.445   3.829   1.886
 9255SOL     OW29205   2.643   3.988   3.611
 9255SOL    HW129206   2.710   3.927   3.654
 9255SOL    HW229207   2.570   4.007   3.676
 9256SOL     OW29208   2.750   5.238   3.057
 9256SOL    HW129209   2.727   5.213   2.963
 9256SOL    HW229210   2.811   5.169   3.096
 9257SOL     OW29211   2.665   5.126   2.786
 9257SOL    HW129212   2.755   5.140   2.744
 9257SOL    HW229213   2.594   5.128   2.715
 9258SOL     OW29214   2.784   4.227   2.761
 9258SOL    HW129215   2.759   4.218   2.665
 9258SOL    HW229216   2.832   4.145   2.792
 9259SOL     OW29217   2.401   3.788   2.374
 9259SOL    HW129218   2.320   3.789   2.432
 9259SOL    HW229219   2.404   3.871   2.319
 9260SOL     OW29220   3.296   4.912   1.903
 9260SOL    HW129221   3.328   4.836   1.960
 9260SOL    HW229222   3.204   4.939   1.933
 9261SOL     OW29223   2.159   3.759   2.033
 9261SOL    HW129224   2.208   3.843   2.012
 9261SOL    HW229225   2.221   3.694   2.078
 9262SOL     OW29226   2.797   3.960   2.342
 9262SOL    HW129227   2.749   4.001   2.264
 9262SOL    HW229228   2.896   3.958   2.323
 9263SOL     OW29229   3.089   5.294   2.655
 9263SOL    HW129230   3.110   5.368   2.590
 9263SOL    HW229231   3.157   5.294   2.728
 9264SOL     OW29232   2.321   4.876   2.603
 9264SOL    HW129233   2.250   4.849   2.668
 9264SOL    HW229234   2.295   4.848   2.510
 9265SOL     OW29235   3.133   5.521   2.453
 9265SOL    HW129236   3.177   5.585   2.389
 9265SOL    HW229237   3.083   5.573   2.523
 9266SOL     OW29238   2.894   4.273   1.878
 9266SOL    HW129239   2.853   4.355   1.839
 9266SOL    HW229240   2.958   4.299   1.951
 9267SOL     OW29241   1.940   4.280   3.248
 9267SOL    HW129242   2.032   4.279   3.207
 9267SOL    HW229243   1.934   4.354   3.315
 9268SOL     OW29244   2.423   3.946   3.009
 9268SOL    HW129245   2.461   3.862   3.046
 9268SOL    HW229246   2.335   3.965   3.053
 9269SOL     OW29247   2.728   4.178   2.504
 9269SOL    HW129248   2.696   4.250   2.442
 9269SOL    HW229249   2.752   4.097   2.451
 9270SOL     OW29250   2.879   3.763   2.615
 9270SOL    HW129251   2.807   3.768   2.546
 9270SOL    HW229252   2.855   3.694   2.684
 9271SOL     OW29253   3.291   4.897   2.729
 9271SOL    HW129254   3.236   4.813   2.722
 9271SOL    HW229255   3.317   4.926   2.637
 9272SOL     OW29256   3.328   4.314   2.854
 9272SOL    HW129257   3.298   4.219   2.861
 9272SOL    HW229258   3.401   4.330   2.920
 9273SOL     OW29259   3.719   4.557   2.239
 9273SOL    HW129260   3.761   4.493   2.303
 9273SOL    HW229261   3.681   4.506   2.161
 9274SOL     OW29262   2.350   5.109   2.036
 9274SOL    HW129263   2.263   5.094   2.083
 9274SOL    HW229264   2.333   5.135   1.941
 9275SOL     OW29265   3.526   5.004   2.519
 9275SOL    HW129266   3.625   5.012   2.533
 9275SOL    HW229267   3.481   5.088   2.550
 9276SOL     OW29268   3.252   4.299   1.940
 9276SOL    HW129269   3.198   4.278   2.021
 9276SOL    HW229270   3.343   4.258   1.949
 9277SOL     OW29271   2.389   3.980   2.190
 9277SOL    HW129272   2.416   3.921   2.115
 9277SOL    HW229273   2.389   4.075   2.159
 9278SOL     OW29274   3.616   4.947   3.450
 9278SOL    HW129275   3.707   4.908   3.437
 9278SOL    HW229276   3.624   5.043   3.474
 9279SOL     OW29277   2.926   5.071   3.202
 9279SOL    HW129278   2.846   5.048   3.257
 9279SOL    HW229279   3.009   5.045   3.251
 9280SOL     OW29280   3.454   5.353   3.487
 9280SOL    HW129281   3.481   5.387   3.397
 9280SOL    HW229282   3.533   5.315   3.533
 9281SOL     OW29283   2.973   4.919   2.962
 9281SOL    HW129284   2.933   4.963   3.043
 9281SOL    HW229285   2.932   4.956   2.879
 9282SOL     OW29286   3.500   4.823   2.941
 9282SOL    HW129287   3.505   4.904   3.000
 9282SOL    HW229288   3.414   4.825   2.890
 9283SOL     OW29289   2.842   4.840   3.581
 9283SOL    HW129290   2.743   4.846   3.591
 9283SOL    HW229291   2.865   4.760   3.525
 9284SOL     OW29292   2.567   4.774   2.230
 9284SOL    HW129293   2.553   4.781   2.329
 9284SOL    HW229294   2.651   4.723   2.212
 9285SOL     OW29295   2.272   4.537   3.113
 9285SOL    HW129296   2.358   4.549   3.163
 9285SOL    HW229297   2.230   4.450   3.140
 9286SOL     OW29298   1.926   5.288   3.193
 9286SOL    HW129299   1.880   5.370   3.159
 9286SOL    HW229300   2.024   5.307   3.202
 9287SOL     OW29301   2.229   4.824   2.363
 9287SOL    HW129302   2.222   4.907   2.307
 9287SOL    HW229303   2.233   4.744   2.303
 9288SOL     OW29304   2.428   4.261   2.727
 9288SOL    HW129305   2.440   4.327   2.653
 9288SOL    HW229306   2.474   4.295   2.810
 9289SOL     OW29307   3.114   5.072   2.250
 9289SOL    HW129308   3.164   5.149   2.290
 9289SOL    HW229309   3.019   5.074   2.282
 9290SOL     OW29310   3.134   5.169   3.004
 9290SOL    HW129311   3.181   5.182   3.091
 9290SOL    HW229312   3.068   5.095   3.013
 9291SOL     OW29313   3.444   4.363   2.334
 9291SOL    HW129314   3.413   4.424   2.407
 9291SOL    HW229315   3.494   4.415   2.265
 9292SOL     OW29316   2.216   5.234   3.191
 9292SOL    HW129317   2.195   5.190   3.104
 9292SOL    HW229318   2.313   5.260   3.194
 9293SOL     OW29319   2.264   4.475   3.460
 9293SOL    HW129320   2.332   4.530   3.413
 9293SOL    HW229321   2.304   4.387   3.487
 9294SOL     OW29322   3.449   4.503   3.532
 9294SOL    HW129323   3.357   4.541   3.527
 9294SOL    HW229324   3.509   4.550   3.467
 9295SOL     OW29325   2.366   3.774   3.602
 9295SOL    HW129326   2.324   3.717   3.532
 9295SOL    HW229327   2.300   3.843   3.634
 9296SOL     OW29328   2.435   4.594   2.891
 9296SOL    HW129329   2.479   4.683   2.882
 9296SOL    HW229330   2.372   4.594   2.968
 9297SOL     OW29331   3.222   4.586   2.907
 9297SOL    HW129332   3.147   4.586   2.841
 9297SOL    HW229333   3.259   4.494   2.916
 9298SOL     OW29334   3.071   4.249   2.137
 9298SOL    HW129335   3.084   4.165   2.191
 9298SOL    HW229336   3.042   4.323   2.197
 9299SOL     OW29337   2.169   3.937   3.093
 9299SOL    HW129338   2.146   3.974   3.183
 9299SOL    HW229339   2.139   3.842   3.087
 9300SOL     OW29340   1.899   5.034   3.144
 9300SOL    HW129341   1.952   4.985   3.212
 9300SOL    HW229342   1.921   5.132   3.149
 9301SOL     OW29343   2.594   4.358   2.926
 9301SOL    HW129344   2.653   4.332   2.850
 9301SOL    HW229345   2.566   4.454   2.915
 9302SOL     OW29346   3.590   4.659   3.716
 9302SOL    HW129347   3.544   4.652   3.627
 9302SOL    HW229348   3.528   4.703   3.782
 9303SOL     OW29349   2.169   3.787   2.480
 9303SOL    HW129350   2.158   3.881   2.513
 9303SOL    HW229351   2.164   3.724   2.557
 9304SOL     OW29352   3.484   4.091   2.236
 9304SOL    HW129353   3.486   4.015   2.300
 9304SOL    HW229354   3.436   4.168   2.276
 9305SOL     OW29355   2.885   4.490   2.828
 9305SOL    HW129356   2.900   4.511   2.924
 9305SOL    HW229357   2.855   4.395   2.819
 9306SOL     OW29358   2.842   5.297   3.562
 9306SOL    HW129359   2.822   5.341   3.474
 9306SOL    HW229360   2.881   5.206   3.546
 9307SOL     OW29361   3.721   5.242   3.467
 9307SOL    HW129362   3.735   5.269   3.372
 9307SOL    HW229363   3.804   5.264   3.520
 9308SOL     OW29364   2.212   4.622   3.666
 9308SOL    HW129365   2.288   4.666   3.714
 9308SOL    HW229366   2.247   4.575   3.584
 9309SOL     OW29367   3.402   3.998   1.987
 9309SOL    HW129368   3.341   3.923   2.010
 9309SOL    HW229369   3.424   4.050   2.070
 9310SOL     OW29370   3.165   4.562   1.904
 9310SOL    HW129371   3.199   4.469   1.919
 9310SOL    HW229372   3.183   4.589   1.809
 9311SOL     OW29373   2.930   5.057   2.711
 9311SOL    HW129374   2.937   4.973   2.656
 9311SOL    HW229375   2.992   5.126   2.675
 9312SOL     OW29376   2.181   4.534   2.811
 9312SOL    HW129377   2.274   4.570   2.816
 9312SOL    HW229378   2.175   4.449   2.863
 9313SOL     OW29379   2.201   4.233   2.868
 9313SOL    HW129380   2.149   4.150   2.851
 9313SOL    HW229381   2.278   4.238   2.804
 9314SOL     OW29382   1.870   5.050   2.062
 9314SOL    HW129383   1.777   5.071   2.031
 9314SOL    HW229384   1.880   4.951   2.075
 9315SOL     OW29385   1.950   5.525   2.789
 9315SOL    HW129386   1.908   5.439   2.762
 9315SOL    HW229387   2.044   5.528   2.755
 9316SOL     OW29388   2.366   5.292   2.772
 9316SOL    HW129389   2.432   5.366   2.781
 9316SOL    HW229390   2.410   5.213   2.730
 9317SOL     OW29391   2.864   4.520   3.100
 9317SOL    HW129392   2.905   4.488   3.186
 9317SOL    HW229393   2.768   4.493   3.097
 9318SOL     OW29394   1.902   4.268   2.976
 9318SOL    HW129395   1.987   4.235   2.935
 9318SOL    HW229396   1.915   4.283   3.074
 9319SOL     OW29397   2.051   4.244   3.584
 9319SOL    HW129398   2.110   4.204   3.514
 9319SOL    HW229399   1.993   4.315   3.543
 9320SOL     OW29400   3.231   4.674   3.522
 9320SOL    HW129401   3.270   4.763   3.542
 9320SOL    HW229402   3.241   4.654   3.425
 9321SOL     OW29403   2.677   4.296   2.187
 9321SOL    HW129404   2.684   4.207   2.141
 9321SOL    HW229405   2.583   4.330   2.179
 9322SOL     OW29406   2.114   5.288   3.606
 9322SOL    HW129407   2.084   5.345   3.682
 9322SOL    HW229408   2.107   5.191   3.632
 9323SOL     OW29409   2.533   4.188   3.131
 9323SOL    HW129410   2.499   4.099   3.101
 9323SOL    HW229411   2.559   4.242   3.051
 9324SOL     OW29412   2.792   5.402   3.327
 9324SOL    HW129413   2.768   5.384   3.232
 9324SOL    HW229414   2.822   5.496   3.337
 9325SOL     OW29415   2.335   4.224   2.053
 9325SOL    HW129416   2.396   4.304   2.057
 9325SOL    HW229417   2.240   4.255   2.060
 9326SOL     OW29418   2.021   4.861   3.328
 9326SOL    HW129419   2.043   4.800   3.404
 9326SOL    HW229420   2.031   4.812   3.242
 9327SOL     OW29421   3.209   4.783   3.096
 9327SOL    HW129422   3.233   4.720   3.022
 9327SOL    HW229423   3.119   4.823   3.078
 9328SOL     OW29424   3.164   4.579   2.171
 9328SOL    HW129425   3.078   4.548   2.213
 9328SOL    HW229426   3.160   4.565   2.072
 9329SOL     OW29427   3.621   5.471   3.016
 9329SOL    HW129428   3.682   5.501   2.943
 9329SOL    HW229429   3.583   5.382   2.994
 9330SOL     OW29430   3.114   5.455   2.990
 9330SOL    HW129431   3.198   5.460   2.936
 9330SOL    HW229432   3.091   5.359   3.008
 9331SOL     OW29433   1.945   4.982   2.884
 9331SOL    HW129434   1.940   4.981   2.984
 9331SOL    HW229435   1.862   4.941   2.846
 9332SOL     OW29436   2.550   5.386   3.578
 9332SOL    HW129437   2.494   5.467   3.587
 9332SOL    HW229438   2.602   5.390   3.492
 9333SOL     OW29439   3.588   3.859   2.385
 9333SOL    HW129440   3.661   3.842   2.318
 9333SOL    HW229441   3.557   3.772   2.423
 9334SOL     OW29442   3.250   5.297   2.339
 9334SOL    HW129443   3.317   5.309   2.265
 9334SOL    HW229444   3.210   5.386   2.362
 9335SOL     OW29445   1.992   5.518   3.713
 9335SOL    HW129446   1.951   5.444   3.766
 9335SOL    HW229447   2.056   5.569   3.771
 9336SOL     OW29448   3.142   4.651   2.534
 9336SOL    HW129449   3.202   4.570   2.536
 9336SOL    HW229450   3.182   4.720   2.474
 9337SOL     OW29451   2.692   4.997   3.284
 9337SOL    HW129452   2.687   5.030   3.379
 9337SOL    HW229453   2.606   5.016   3.238
 9338SOL     OW29454   2.534   5.340   2.016
 9338SOL    HW129455   2.543   5.350   1.917
 9338SOL    HW229456   2.494   5.251   2.037
 9339SOL     OW29457   3.512   5.444   3.256
 9339SOL    HW129458   3.565   5.454   3.172
 9339SOL    HW229459   3.485   5.534   3.290
 9340SOL     OW29460   2.125   4.050   2.582
 9340SOL    HW129461   2.046   4.101   2.548
 9340SOL    HW229462   2.116   4.035   2.680
 9341SOL     OW29463   3.056   5.336   1.893
 9341SOL    HW129464   3.062   5.243   1.930
 9341SOL    HW229465   2.997   5.336   1.813
 9342SOL     OW29466   2.684   4.726   3.234
 9342SOL    HW129467   2.724   4.725   3.142
 9342SOL    HW229468   2.694   4.818   3.274
 9343SOL     OW29469   2.778   4.634   2.153
 9343SOL    HW129470   2.841   4.672   2.085
 9343SOL    HW229471   2.818   4.551   2.192
 9344SOL     OW29472   3.366   5.331   1.906
 9344SOL    HW129473   3.274   5.368   1.913
 9344SOL    HW229474   3.404   5.351   1.816
 9345SOL     OW29475   2.234   5.012   3.352
 9345SOL    HW129476   2.221   5.105   3.318
 9345SOL    HW229477   2.150   4.960   3.339
 9346SOL     OW29478   3.476   5.016   3.151
 9346SOL    HW129479   3.536   5.019   3.231
 9346SOL    HW229480   3.401   5.080   3.164
 9347SOL     OW29481   2.901   4.822   2.558
 9347SOL    HW129482   2.831   4.775   2.612
 9347SOL    HW229483   2.960   4.754   2.515
 9348SOL     OW29484   2.876   3.960   2.833
 9348SOL    HW129485   2.868   3.924   2.740
 9348SOL    HW229486   2.874   3.884   2.898
 9349SOL     OW29487   2.452   5.211   2.353
 9349SOL    HW129488   2.494   5.153   2.283
 9349SOL    HW229489   2.408   5.290   2.309
 9350SOL     OW29490   2.117   5.072   2.152
 9350SOL    HW129491   2.021   5.073   2.125
 9350SOL    HW229492   2.129   5.125   2.236
 9351SOL     OW29493   1.967   4.737   3.588
 9351SOL    HW129494   1.890   4.704   3.642
 9351SOL    HW229495   2.052   4.707   3.630
 9352SOL     OW29496   2.534   3.927   3.351
 9352SOL    HW129497   2.624   3.911   3.311
 9352SOL    HW229498   2.542   3.932   3.450
 9353SOL     OW29499   1.937   4.069   1.895
 9353SOL    HW129500   1.845   4.041   1.866
 9353SOL    HW229501   1.968   4.146   1.839
 9354SOL     OW29502   3.302   4.580   3.260
 9354SOL    HW129503   3.245   4.632   3.197
 9354SOL    HW229504   3.398   4.592   3.236
 9355SOL     OW29505   1.934   3.890   2.180
 9355SOL    HW129506   1.917   3.973   2.126
 9355SOL    HW229507   2.024   3.853   2.158
 9356SOL     OW29508   3.045   5.059   1.981
 9356SOL    HW129509   2.946   5.048   1.983
 9356SOL    HW229510   3.079   5.074   2.074
 9357SOL     OW29511   2.475   4.566   3.293
 9357SOL    HW129512   2.531   4.647   3.276
 9357SOL    HW229513   2.534   4.486   3.296
 9358SOL     OW29514   3.355   5.491   2.821
 9358SOL    HW129515   3.388   5.555   2.752
 9358SOL    HW229516   3.421   5.485   2.896
 9359SOL     OW29517   2.578   4.289   3.570
 9359SOL    HW129518   2.597   4.354   3.644
 9359SOL    HW229519   2.638   4.209   3.579
 9360SOL     OW29520   3.312   4.944   3.495
 9360SOL    HW129521   3.303   4.934   3.594
 9360SOL    HW229522   3.408   4.937   3.469
 9361SOL     OW29523   2.252   5.465   3.422
 9361SOL    HW129524   2.161   5.506   3.420
 9361SOL    HW229525   2.245   5.371   3.454
 9362SOL     OW29526   3.536   4.607   3.116
 9362SOL    HW129527   3.509   4.518   3.079
 9362SOL    HW229528   3.537   4.675   3.043
 9363SOL     OW29529   3.087   4.049   2.311
 9363SOL    HW129530   3.152   3.975   2.300
 9363SOL    HW229531   3.107   4.099   2.395
 9364SOL     OW29532   2.456   4.469   2.514
 9364SOL    HW129533   2.506   4.554   2.495
 9364SOL    HW229534   2.368   4.471   2.466
 9365SOL     OW29535   3.639   4.066   3.504
 9365SOL    HW129536   3.622   4.097   3.410
 9365SOL    HW229537   3.555   4.029   3.542
 9366SOL     OW29538   3.592   4.658   3.379
 9366SOL    HW129539   3.630   4.749   3.394
 9366SOL    HW229540   3.584   4.641   3.280
 9367SOL     OW29541   2.721   5.098   1.878
 9367SOL    HW129542   2.675   5.113   1.966
 9367SOL    HW229543   2.765   5.183   1.848
 9368SOL     OW29544   2.523   5.514   2.815
 9368SOL    HW129545   2.477   5.602   2.802
 9368SOL    HW229546   2.622   5.526   2.808
 9369SOL     OW29547   2.721   4.680   2.723
 9369SOL    HW129548   2.775   4.611   2.771
 9369SOL    HW229549   2.689   4.749   2.789
 9370SOL     OW29550   2.945   4.708   1.949
 9370SOL    HW129551   2.922   4.761   1.867
 9370SOL    HW229552   3.026   4.652   1.930
 9371SOL     OW29553   3.723   5.293   2.713
 9371SOL    HW129554   3.652   5.281   2.643
 9371SOL    HW229555   3.724   5.214   2.773
 9372SOL     OW29556   2.083   5.038   3.706
 9372SOL    HW129557   2.018   4.965   3.685
 9372SOL    HW229558   2.087   5.052   3.804
 9373SOL     OW29559   1.941   4.964   2.515
 9373SOL    HW129560   1.940   4.917   2.603
 9373SOL    HW229561   2.023   4.936   2.464
 9374SOL     OW29562   2.534   5.115   3.486
 9374SOL    HW129563   2.456   5.065   3.524
 9374SOL    HW229564   2.531   5.210   3.517
 9375SOL     OW29565   2.290   4.148   2.382
 9375SOL    HW129566   2.320   4.076   2.320
 9375SOL    HW229567   2.251   4.108   2.465
 9376SOL     OW29568   3.567   5.211   2.966
 9376SOL    HW129569   3.474   5.186   2.939
 9376SOL    HW229570   3.593   5.161   3.048
 9377SOL     OW29571   2.179   4.271   3.142
 9377SOL    HW129572   2.217   4.212   3.214
 9377SOL    HW229573   2.219   4.245   3.054
 9378SOL     OW29574   2.674   5.310   2.549
 9378SOL    HW129575   2.706   5.320   2.455
 9378SOL    HW229576   2.595   5.248   2.551
 9379SOL     OW29577   2.863   3.758   3.016
 9379SOL    HW129578   2.800   3.686   2.985
 9379SOL    HW229579   2.956   3.722   3.016
 9380SOL     OW29580   2.632   5.054   2.163
 9380SOL    HW129581   2.586   4.967   2.180
 9380SOL    HW229582   2.723   5.051   2.204
 9381SOL     OW29583   2.480   5.291   3.146
 9381SOL    HW129584   2.475   5.373   3.203
 9381SOL    HW229585   2.569   5.288   3.101
 9382SOL     OW29586   3.214   3.776   2.030
 9382SOL    HW129587   3.249   3.735   1.946
 9382SOL    HW229588   3.124   3.738   2.050
 9383SOL     OW29589   3.162   4.177   2.553
 9383SOL    HW129590   3.103   4.257   2.557
 9383SOL    HW229591   3.177   4.142   2.646
 9384SOL     OW29592   3.455   3.945   2.744
 9384SOL    HW129593   3.371   3.944   2.798
 9384SOL    HW229594   3.457   4.028   2.688
 9385SOL     OW29595   1.901   4.801   2.162
 9385SOL    HW129596   2.000   4.790   2.153
 9385SOL    HW229597   1.861   4.715   2.194
 9386SOL     OW29598   2.737   5.370   2.199
 9386SOL    HW129599   2.660   5.335   2.145
 9386SOL    HW229600   2.705   5.441   2.261
 9387SOL     OW29601   2.092   4.352   3.837
 9387SOL    HW129602   1.999   4.350   3.874
 9387SOL    HW229603   2.093   4.313   3.745
 9388SOL     OW29604   2.087   3.999   4.720
 9388SOL    HW129605   2.122   3.982   4.812
 9388SOL    HW229606   1.999   3.954   4.708
 9389SOL     OW29607   1.881   4.092   4.371
 9389SOL    HW129608   1.799   4.135   4.410
 9389SOL    HW229609   1.853   4.019   4.308
 9390SOL     OW29610   2.431   4.999   4.889
 9390SOL    HW129611   2.338   4.992   4.852
 9390SOL    HW229612   2.442   5.088   4.933
 9391SOL     OW29613   3.417   5.235   4.427
 9391SOL    HW129614   3.360   5.219   4.508
 9391SOL    HW229615   3.358   5.245   4.347
 9392SOL     OW29616   3.617   4.331   3.955
 9392SOL    HW129617   3.605   4.318   3.856
 9392SOL    HW229618   3.587   4.250   4.004
 9393SOL     OW29619   2.630   4.868   4.747
 9393SOL    HW129620   2.552   4.885   4.807
 9393SOL    HW229621   2.664   4.955   4.711
 9394SOL     OW29622   2.712   4.522   5.547
 9394SOL    HW129623   2.708   4.598   5.612
 9394SOL    HW229624   2.734   4.558   5.456
 9395SOL     OW29625   2.547   4.736   4.389
 9395SOL    HW129626   2.616   4.720   4.459
 9395SOL    HW229627   2.474   4.793   4.427
 9396SOL     OW29628   2.548   4.885   5.527
 9396SOL    HW129629   2.608   4.964   5.541
 9396SOL    HW229630   2.462   4.916   5.486
 9397SOL     OW29631   2.197   5.159   4.785
 9397SOL    HW129632   2.119   5.128   4.732
 9397SOL    HW229633   2.255   5.217   4.728
 9398SOL     OW29634   3.322   5.229   5.063
 9398SOL    HW129635   3.346   5.323   5.089
 9398SOL    HW229636   3.306   5.175   5.145
 9399SOL     OW29637   2.300   4.116   5.223
 9399SOL    HW129638   2.382   4.060   5.232
 9399SOL    HW229639   2.219   4.058   5.227
 9400SOL     OW29640   3.465   4.171   4.461
 9400SOL    HW129641   3.391   4.217   4.411
 9400SOL    HW229642   3.516   4.239   4.514
 9401SOL     OW29643   2.093   5.437   4.207
 9401SOL    HW129644   2.127   5.514   4.261
 9401SOL    HW229645   2.137   5.437   4.117
 9402SOL     OW29646   2.989   5.065   5.414
 9402SOL    HW129647   3.036   5.065   5.502
 9402SOL    HW229648   2.941   4.978   5.403
 9403SOL     OW29649   2.092   5.158   4.262
 9403SOL    HW129650   2.066   5.254   4.262
 9403SOL    HW229651   2.021   5.104   4.307
 9404SOL     OW29652   2.102   4.815   4.610
 9404SOL    HW129653   2.116   4.731   4.662
 9404SOL    HW229654   2.047   4.879   4.665
 9405SOL     OW29655   2.482   5.510   5.163
 9405SOL    HW129656   2.390   5.493   5.198
 9405SOL    HW229657   2.510   5.602   5.189
 9406SOL     OW29658   2.468   4.688   3.847
 9406SOL    HW129659   2.475   4.772   3.793
 9406SOL    HW229660   2.514   4.701   3.935
 9407SOL     OW29661   1.984   4.367   4.287
 9407SOL    HW129662   1.939   4.279   4.304
 9407SOL    HW229663   1.983   4.421   4.371
 9408SOL     OW29664   3.704   5.491   4.083
 9408SOL    HW129665   3.758   5.462   4.163
 9408SOL    HW229666   3.734   5.581   4.054
 9409SOL     OW29667   1.889   5.320   3.841
 9409SOL    HW129668   1.870   5.224   3.862
 9409SOL    HW229669   1.856   5.378   3.916
 9410SOL     OW29670   3.551   4.646   4.336
 9410SOL    HW129671   3.646   4.617   4.344
 9410SOL    HW229672   3.543   4.711   4.261
 9411SOL     OW29673   1.975   4.461   5.321
 9411SOL    HW129674   2.063   4.448   5.366
 9411SOL    HW229675   1.962   4.558   5.299
 9412SOL     OW29676   2.475   5.089   4.450
 9412SOL    HW129677   2.426   5.002   4.459
 9412SOL    HW229678   2.452   5.132   4.363
 9413SOL     OW29679   3.155   4.952   5.147
 9413SOL    HW129680   3.192   4.879   5.089
 9413SOL    HW229681   3.207   4.957   5.232
 9414SOL     OW29682   2.671   3.728   4.226
 9414SOL    HW129683   2.711   3.819   4.217
 9414SOL    HW229684   2.571   3.736   4.232
 9415SOL     OW29685   2.059   4.700   4.988
 9415SOL    HW129686   2.148   4.655   4.974
 9415SOL    HW229687   1.986   4.635   4.969
 9416SOL     OW29688   3.387   4.723   3.914
 9416SOL    HW129689   3.324   4.647   3.927
 9416SOL    HW229690   3.435   4.741   4.000
 9417SOL     OW29691   3.049   5.516   5.340
 9417SOL    HW129692   3.073   5.576   5.264
 9417SOL    HW229693   3.056   5.421   5.310
 9418SOL     OW29694   2.179   3.975   5.525
 9418SOL    HW129695   2.250   4.046   5.531
 9418SOL    HW229696   2.091   4.014   5.553
 9419SOL     OW29697   3.529   5.438   4.296
 9419SOL    HW129698   3.488   5.415   4.208
 9419SOL    HW229699   3.511   5.364   4.361
 9420SOL     OW29700   2.460   4.453   3.994
 9420SOL    HW129701   2.484   4.522   3.926
 9420SOL    HW229702   2.382   4.486   4.048
 9421SOL     OW29703   3.438   5.386   4.031
 9421SOL    HW129704   3.527   5.432   4.034
 9421SOL    HW229705   3.417   5.362   3.936
 9422SOL     OW29706   2.669   4.329   5.189
 9422SOL    HW129707   2.622   4.326   5.278
 9422SOL    HW229708   2.618   4.274   5.123
 9423SOL     OW29709   2.835   4.614   5.296
 9423SOL    HW129710   2.881   4.530   5.267
 9423SOL    HW229711   2.779   4.648   5.221
 9424SOL     OW29712   2.903   4.425   4.153
 9424SOL    HW129713   2.929   4.421   4.249
 9424SOL    HW229714   2.818   4.374   4.139
 9425SOL     OW29715   1.938   4.535   4.513
 9425SOL    HW129716   2.037   4.523   4.522
 9425SOL    HW229717   1.914   4.630   4.534
 9426SOL     OW29718   1.992   5.545   5.295
 9426SOL    HW129719   1.982   5.530   5.394
 9426SOL    HW229720   1.906   5.581   5.259
 9427SOL     OW29721   2.727   4.072   3.919
 9427SOL    HW129722   2.786   4.135   3.870
 9427SOL    HW229723   2.746   3.978   3.890
 9428SOL     OW29724   2.412   3.920   4.609
 9428SOL    HW129725   2.407   3.915   4.709
 9428SOL    HW229726   2.414   4.016   4.580
 9429SOL     OW29727   2.870   5.180   4.201
 9429SOL    HW129728   2.824   5.252   4.149
 9429SOL    HW229729   2.866   5.200   4.299
 9430SOL     OW29730   2.213   5.525   4.577
 9430SOL    HW129731   2.263   5.439   4.583
 9430SOL    HW229732   2.278   5.602   4.574
 9431SOL     OW29733   3.089   5.274   5.230
 9431SOL    HW129734   3.095   5.197   5.294
 9431SOL    HW229735   3.037   5.248   5.150
 9432SOL     OW29736   2.183   4.667   3.966
 9432SOL    HW129737   2.265   4.706   3.924
 9432SOL    HW229738   2.156   4.585   3.917
 9433SOL     OW29739   3.320   4.459   4.452
 9433SOL    HW129740   3.315   4.394   4.527
 9433SOL    HW229741   3.400   4.518   4.465
 9434SOL     OW29742   2.323   4.990   5.451
 9434SOL    HW129743   2.273   4.991   5.365
 9434SOL    HW229744   2.260   4.972   5.527
 9435SOL     OW29745   2.973   5.500   3.961
 9435SOL    HW129746   2.913   5.438   4.011
 9435SOL    HW229747   3.004   5.456   3.876
 9436SOL     OW29748   2.064   4.009   5.222
 9436SOL    HW129749   1.984   4.069   5.209
 9436SOL    HW229750   2.054   3.960   5.308
 9437SOL     OW29751   3.494   5.101   3.805
 9437SOL    HW129752   3.462   5.195   3.795
 9437SOL    HW229753   3.418   5.038   3.793
 9438SOL     OW29754   2.326   5.467   4.047
 9438SOL    HW129755   2.359   5.506   4.133
 9438SOL    HW229756   2.402   5.460   3.982
 9439SOL     OW29757   3.262   3.831   4.150
 9439SOL    HW129758   3.238   3.794   4.060
 9439SOL    HW229759   3.361   3.847   4.154
 9440SOL     OW29760   2.111   5.509   4.965
 9440SOL    HW129761   2.168   5.444   5.015
 9440SOL    HW229762   2.095   5.476   4.872
 9441SOL     OW29763   2.802   5.422   4.628
 9441SOL    HW129764   2.882   5.365   4.649
 9441SOL    HW229765   2.753   5.382   4.551
 9442SOL     OW29766   2.244   4.424   4.204
 9442SOL    HW129767   2.289   4.334   4.201
 9442SOL    HW229768   2.150   4.413   4.237
 9443SOL     OW29769   2.476   3.846   3.841
 9443SOL    HW129770   2.574   3.824   3.848
 9443SOL    HW229771   2.445   3.829   3.748
 9444SOL     OW29772   2.643   3.988   5.473
 9444SOL    HW129773   2.710   3.927   5.516
 9444SOL    HW229774   2.570   4.007   5.538
 9445SOL     OW29775   2.750   5.238   4.919
 9445SOL    HW129776   2.727   5.213   4.825
 9445SOL    HW229777   2.811   5.169   4.958
 9446SOL     OW29778   2.665   5.126   4.648
 9446SOL    HW129779   2.755   5.140   4.606
 9446SOL    HW229780   2.594   5.128   4.577
 9447SOL     OW29781   2.784   4.227   4.623
 9447SOL    HW129782   2.759   4.218   4.527
 9447SOL    HW229783   2.832   4.145   4.654
 9448SOL     OW29784   2.401   3.788   4.236
 9448SOL    HW129785   2.320   3.789   4.294
 9448SOL    HW229786   2.404   3.871   4.181
 9449SOL     OW29787   3.296   4.912   3.765
 9449SOL    HW129788   3.328   4.836   3.822
 9449SOL    HW229789   3.204   4.939   3.795
 9450SOL     OW29790   2.159   3.759   3.895
 9450SOL    HW129791   2.208   3.843   3.874
 9450SOL    HW229792   2.221   3.694   3.940
 9451SOL     OW29793   2.797   3.960   4.204
 9451SOL    HW129794   2.749   4.001   4.126
 9451SOL    HW229795   2.896   3.958   4.185
 9452SOL     OW29796   3.089   5.294   4.517
 9452SOL    HW129797   3.110   5.368   4.452
 9452SOL    HW229798   3.157   5.294   4.590
 9453SOL     OW29799   2.321   4.876   4.465
 9453SOL    HW129800   2.250   4.849   4.530
 9453SOL    HW229801   2.295   4.848   4.372
 9454SOL     OW29802   3.133   5.521   4.315
 9454SOL    HW129803   3.177   5.585   4.251
 9454SOL    HW229804   3.083   5.573   4.385
 9455SOL     OW29805   2.894   4.273   3.740
 9455SOL    HW129806   2.853   4.355   3.701
 9455SOL    HW229807   2.958   4.299   3.813
 9456SOL     OW29808   1.940   4.280   5.110
 9456SOL    HW129809   2.032   4.279   5.069
 9456SOL    HW229810   1.934   4.354   5.177
 9457SOL     OW29811   2.423   3.946   4.871
 9457SOL    HW129812   2.461   3.862   4.908
 9457SOL    HW229813   2.335   3.965   4.915
 9458SOL     OW29814   2.728   4.178   4.366
 9458SOL    HW129815   2.696   4.250   4.304
 9458SOL    HW229816   2.752   4.097   4.313
 9459SOL     OW29817   2.879   3.763   4.477
 9459SOL    HW129818   2.807   3.768   4.408
 9459SOL    HW229819   2.855   3.694   4.546
 9460SOL     OW29820   3.719   4.557   4.101
 9460SOL    HW129821   3.761   4.493   4.165
 9460SOL    HW229822   3.681   4.506   4.023
 9461SOL     OW29823   2.350   5.109   3.898
 9461SOL    HW129824   2.263   5.094   3.945
 9461SOL    HW229825   2.333   5.135   3.803
 9462SOL     OW29826   3.252   4.299   3.802
 9462SOL    HW129827   3.198   4.278   3.883
 9462SOL    HW229828   3.343   4.258   3.811
 9463SOL     OW29829   2.389   3.980   4.052
 9463SOL    HW129830   2.416   3.921   3.977
 9463SOL    HW229831   2.389   4.075   4.021
 9464SOL     OW29832   3.616   4.947   5.312
 9464SOL    HW129833   3.707   4.908   5.299
 9464SOL    HW229834   3.624   5.043   5.336
 9465SOL     OW29835   2.926   5.071   5.064
 9465SOL    HW129836   2.846   5.048   5.119
 9465SOL    HW229837   3.009   5.045   5.113
 9466SOL     OW29838   3.454   5.353   5.349
 9466SOL    HW129839   3.481   5.387   5.259
 9466SOL    HW229840   3.533   5.315   5.395
 9467SOL     OW29841   2.973   4.919   4.824
 9467SOL    HW129842   2.933   4.963   4.905
 9467SOL    HW229843   2.932   4.956   4.741
 9468SOL     OW29844   2.842   4.840   5.443
 9468SOL    HW129845   2.743   4.846   5.453
 9468SOL    HW229846   2.865   4.760   5.387
 9469SOL     OW29847   2.567   4.774   4.092
 9469SOL    HW129848   2.553   4.781   4.191
 9469SOL    HW229849   2.651   4.723   4.074
 9470SOL     OW29850   2.272   4.537   4.975
 9470SOL    HW129851   2.358   4.549   5.025
 9470SOL    HW229852   2.230   4.450   5.002
 9471SOL     OW29853   1.926   5.288   5.055
 9471SOL    HW129854   1.880   5.370   5.021
 9471SOL    HW229855   2.024   5.307   5.064
 9472SOL     OW29856   2.229   4.824   4.225
 9472SOL    HW129857   2.222   4.907   4.169
 9472SOL    HW229858   2.233   4.744   4.165
 9473SOL     OW29859   2.428   4.261   4.589
 9473SOL    HW129860   2.440   4.327   4.515
 9473SOL    HW229861   2.474   4.295   4.672
 9474SOL     OW29862   3.114   5.072   4.112
 9474SOL    HW129863   3.164   5.149   4.152
 9474SOL    HW229864   3.019   5.074   4.144
 9475SOL     OW29865   3.134   5.169   4.866
 9475SOL    HW129866   3.181   5.182   4.953
 9475SOL    HW229867   3.068   5.095   4.875
 9476SOL     OW29868   3.444   4.363   4.196
 9476SOL    HW129869   3.413   4.424   4.269
 9476SOL    HW229870   3.494   4.415   4.127
 9477SOL     OW29871   2.216   5.234   5.053
 9477SOL    HW129872   2.195   5.190   4.966
 9477SOL    HW229873   2.313   5.260   5.056
 9478SOL     OW29874   2.264   4.475   5.322
 9478SOL    HW129875   2.332   4.530   5.275
 9478SOL    HW229876   2.304   4.387   5.349
 9479SOL     OW29877   2.875   3.829   5.494
 9479SOL    HW129878   2.881   3.914   5.442
 9479SOL    HW229879   2.907   3.753   5.437
 9480SOL     OW29880   2.366   3.774   5.464
 9480SOL    HW129881   2.324   3.717   5.394
 9480SOL    HW229882   2.300   3.843   5.496
 9481SOL     OW29883   2.435   4.594   4.753
 9481SOL    HW129884   2.479   4.683   4.744
 9481SOL    HW229885   2.372   4.594   4.830
 9482SOL     OW29886   3.071   4.249   3.999
 9482SOL    HW129887   3.084   4.165   4.053
 9482SOL    HW229888   3.042   4.323   4.059
 9483SOL     OW29889   2.169   3.937   4.955
 9483SOL    HW129890   2.146   3.974   5.045
 9483SOL    HW229891   2.139   3.842   4.949
 9484SOL     OW29892   1.899   5.034   5.006
 9484SOL    HW129893   1.952   4.985   5.074
 9484SOL    HW229894   1.921   5.132   5.011
 9485SOL     OW29895   2.594   4.358   4.788
 9485SOL    HW129896   2.653   4.332   4.712
 9485SOL    HW229897   2.566   4.454   4.777
 9486SOL     OW29898   2.169   3.787   4.342
 9486SOL    HW129899   2.158   3.881   4.375
 9486SOL    HW229900   2.164   3.724   4.419
 9487SOL     OW29901   3.484   4.091   4.098
 9487SOL    HW129902   3.486   4.015   4.162
 9487SOL    HW229903   3.436   4.168   4.138
 9488SOL     OW29904   2.842   5.297   5.424
 9488SOL    HW129905   2.822   5.341   5.336
 9488SOL    HW229906   2.881   5.206   5.408
 9489SOL     OW29907   3.721   5.242   5.329
 9489SOL    HW129908   3.735   5.269   5.234
 9489SOL    HW229909   3.804   5.264   5.382
 9490SOL     OW29910   2.212   4.622   5.528
 9490SOL    HW129911   2.288   4.666   5.576
 9490SOL    HW229912   2.247   4.575   5.446
 9491SOL     OW29913   3.402   3.998   3.849
 9491SOL    HW129914   3.341   3.923   3.872
 9491SOL    HW229915   3.424   4.050   3.932
 9492SOL     OW29916   3.165   4.562   3.766
 9492SOL    HW129917   3.199   4.469   3.781
 9492SOL    HW229918   3.183   4.589   3.671
 9493SOL     OW29919   2.930   5.057   4.573
 9493SOL    HW129920   2.937   4.973   4.518
 9493SOL    HW229921   2.992   5.126   4.537
 9494SOL     OW29922   2.181   4.534   4.673
 9494SOL    HW129923   2.274   4.570   4.678
 9494SOL    HW229924   2.175   4.449   4.725
 9495SOL     OW29925   2.201   4.233   4.730
 9495SOL    HW129926   2.149   4.150   4.713
 9495SOL    HW229927   2.278   4.238   4.666
 9496SOL     OW29928   3.000   4.104   5.402
 9496SOL    HW129929   2.955   4.167   5.466
 9496SOL    HW229930   3.093   4.135   5.385
 9497SOL     OW29931   1.870   5.050   3.924
 9497SOL    HW129932   1.777   5.071   3.893
 9497SOL    HW229933   1.880   4.951   3.937
 9498SOL     OW29934   1.950   5.525   4.651
 9498SOL    HW129935   1.908   5.439   4.624
 9498SOL    HW229936   2.044   5.528   4.617
 9499SOL     OW29937   2.366   5.292   4.634
 9499SOL    HW129938   2.432   5.366   4.643
 9499SOL    HW229939   2.410   5.213   4.592
 9500SOL     OW29940   1.902   4.268   4.838
 9500SOL    HW129941   1.987   4.235   4.797
 9500SOL    HW229942   1.915   4.283   4.936
 9501SOL     OW29943   2.051   4.244   5.446
 9501SOL    HW129944   2.110   4.204   5.376
 9501SOL    HW229945   1.993   4.315   5.405
 9502SOL     OW29946   3.231   4.674   5.384
 9502SOL    HW129947   3.270   4.763   5.404
 9502SOL    HW229948   3.241   4.654   5.287
 9503SOL     OW29949   2.677   4.296   4.049
 9503SOL    HW129950   2.684   4.207   4.003
 9503SOL    HW229951   2.583   4.330   4.041
 9504SOL     OW29952   2.114   5.288   5.468
 9504SOL    HW129953   2.084   5.345   5.544
 9504SOL    HW229954   2.107   5.191   5.494
 9505SOL     OW29955   2.533   4.188   4.993
 9505SOL    HW129956   2.499   4.099   4.963
 9505SOL    HW229957   2.559   4.242   4.913
 9506SOL     OW29958   2.792   5.402   5.189
 9506SOL    HW129959   2.768   5.384   5.094
 9506SOL    HW229960   2.822   5.496   5.199
 9507SOL     OW29961   2.335   4.224   3.915
 9507SOL    HW129962   2.396   4.304   3.919
 9507SOL    HW229963   2.240   4.255   3.922
 9508SOL     OW29964   2.021   4.861   5.190
 9508SOL    HW129965   2.043   4.800   5.266
 9508SOL    HW229966   2.031   4.812   5.104
 9509SOL     OW29967   3.164   4.579   4.033
 9509SOL    HW129968   3.078   4.548   4.075
 9509SOL    HW229969   3.160   4.565   3.934
 9510SOL     OW29970   3.621   5.471   4.878
 9510SOL    HW129971   3.682   5.501   4.805
 9510SOL    HW229972   3.583   5.382   4.856
 9511SOL     OW29973   3.114   5.455   4.852
 9511SOL    HW129974   3.198   5.460   4.798
 9511SOL    HW229975   3.091   5.359   4.870
 9512SOL     OW29976   1.945   4.982   4.746
 9512SOL    HW129977   1.940   4.981   4.846
 9512SOL    HW229978   1.862   4.941   4.708
 9513SOL     OW29979   2.550   5.386   5.440
 9513SOL    HW129980   2.494   5.467   5.449
 9513SOL    HW229981   2.602   5.390   5.354
 9514SOL     OW29982   3.588   3.859   4.247
 9514SOL    HW129983   3.661   3.842   4.180
 9514SOL    HW229984   3.557   3.772   4.285
 9515SOL     OW29985   3.250   5.297   4.201
 9515SOL    HW129986   3.317   5.309   4.127
 9515SOL    HW229987   3.210   5.386   4.224
 9516SOL     OW29988   1.992   5.518   5.575
 9516SOL    HW129989   1.951   5.444   5.628
 9516SOL    HW229990   2.056   5.569   5.633
 9517SOL     OW29991   2.692   4.997   5.146
 9517SOL    HW129992   2.687   5.030   5.241
 9517SOL    HW229993   2.606   5.016   5.100
 9518SOL     OW29994   2.534   5.340   3.878
 9518SOL    HW129995   2.543   5.350   3.779
 9518SOL    HW229996   2.494   5.251   3.899
 9519SOL     OW29997   3.512   5.444   5.118
 9519SOL    HW129998   3.565   5.454   5.034
 9519SOL    HW229999   3.485   5.534   5.152
 9520SOL     OW30000   3.703   3.899   4.687
 9520SOL    HW130001   3.742   3.814   4.651
 9520SOL    HW230002   3.605   3.901   4.668
 9521SOL     OW30003   2.125   4.050   4.444
 9521SOL    HW130004   2.046   4.101   4.410
 9521SOL    HW230005   2.116   4.035   4.542
 9522SOL     OW30006   3.056   5.336   3.755
 9522SOL    HW130007   3.062   5.243   3.792
 9522SOL    HW230008   2.997   5.336   3.675
 9523SOL     OW30009   2.684   4.726   5.096
 9523SOL    HW130010   2.724   4.725   5.004
 9523SOL    HW230011   2.694   4.818   5.136
 9524SOL     OW30012   2.778   4.634   4.015
 9524SOL    HW130013   2.841   4.672   3.947
 9524SOL    HW230014   2.818   4.551   4.054
 9525SOL     OW30015   3.366   5.331   3.768
 9525SOL    HW130016   3.274   5.368   3.775
 9525SOL    HW230017   3.404   5.351   3.678
 9526SOL     OW30018   2.234   5.012   5.214
 9526SOL    HW130019   2.221   5.105   5.180
 9526SOL    HW230020   2.150   4.960   5.201
 9527SOL     OW30021   3.476   5.016   5.013
 9527SOL    HW130022   3.536   5.019   5.093
 9527SOL    HW230023   3.401   5.080   5.026
 9528SOL     OW30024   2.901   4.822   4.420
 9528SOL    HW130025   2.831   4.775   4.474
 9528SOL    HW230026   2.960   4.754   4.377
 9529SOL     OW30027   2.876   3.960   4.695
 9529SOL    HW130028   2.868   3.924   4.602
 9529SOL    HW230029   2.874   3.884   4.760
 9530SOL     OW30030   2.452   5.211   4.215
 9530SOL    HW130031   2.494   5.153   4.145
 9530SOL    HW230032   2.408   5.290   4.171
 9531SOL     OW30033   2.117   5.072   4.014
 9531SOL    HW130034   2.021   5.073   3.987
 9531SOL    HW230035   2.129   5.125   4.098
 9532SOL     OW30036   1.967   4.737   5.450
 9532SOL    HW130037   1.890   4.704   5.504
 9532SOL    HW230038   2.052   4.707   5.492
 9533SOL     OW30039   2.534   3.927   5.213
 9533SOL    HW130040   2.624   3.911   5.173
 9533SOL    HW230041   2.542   3.932   5.312
 9534SOL     OW30042   1.937   4.069   3.757
 9534SOL    HW130043   1.845   4.041   3.728
 9534SOL    HW230044   1.968   4.146   3.701
 9535SOL     OW30045   1.934   3.890   4.042
 9535SOL    HW130046   1.917   3.973   3.988
 9535SOL    HW230047   2.024   3.853   4.020
 9536SOL     OW30048   3.045   5.059   3.843
 9536SOL    HW130049   2.946   5.048   3.845
 9536SOL    HW230050   3.079   5.074   3.936
 9537SOL     OW30051   2.475   4.566   5.155
 9537SOL    HW130052   2.531   4.647   5.138
 9537SOL    HW230053   2.534   4.486   5.158
 9538SOL     OW30054   3.355   5.491   4.683
 9538SOL    HW130055   3.388   5.555   4.614
 9538SOL    HW230056   3.421   5.485   4.758
 9539SOL     OW30057   2.578   4.289   5.432
 9539SOL    HW130058   2.597   4.354   5.506
 9539SOL    HW230059   2.638   4.209   5.441
 9540SOL     OW30060   3.312   4.944   5.357
 9540SOL    HW130061   3.303   4.934   5.456
 9540SOL    HW230062   3.408   4.937   5.331
 9541SOL     OW30063   2.252   5.465   5.284
 9541SOL    HW130064   2.161   5.506   5.282
 9541SOL    HW230065   2.245   5.371   5.316
 9542SOL     OW30066   3.087   4.049   4.173
 9542SOL    HW130067   3.152   3.975   4.162
 9542SOL    HW230068   3.107   4.099   4.257
 9543SOL     OW30069   2.456   4.469   4.376
 9543SOL    HW130070   2.506   4.554   4.357
 9543SOL    HW230071   2.368   4.471   4.328
 9544SOL     OW30072   2.721   5.098   3.740
 9544SOL    HW130073   2.675   5.113   3.828
 9544SOL    HW230074   2.765   5.183   3.710
 9545SOL     OW30075   2.523   5.514   4.677
 9545SOL    HW130076   2.477   5.602   4.664
 9545SOL    HW230077   2.622   5.526   4.670
 9546SOL     OW30078   2.721   4.680   4.585
 9546SOL    HW130079   2.775   4.611   4.633
 9546SOL    HW230080   2.689   4.749   4.651
 9547SOL     OW30081   2.945   4.708   3.811
 9547SOL    HW130082   2.922   4.761   3.729
 9547SOL    HW230083   3.026   4.652   3.792
 9548SOL     OW30084   3.723   5.293   4.575
 9548SOL    HW130085   3.652   5.281   4.505
 9548SOL    HW230086   3.724   5.214   4.635
 9549SOL     OW30087   2.083   5.038   5.568
 9549SOL    HW130088   2.018   4.965   5.547
 9549SOL    HW230089   2.087   5.052   5.666
 9550SOL     OW30090   1.941   4.964   4.377
 9550SOL    HW130091   1.940   4.917   4.465
 9550SOL    HW230092   2.023   4.936   4.326
 9551SOL     OW30093   2.534   5.115   5.348
 9551SOL    HW130094   2.456   5.065   5.386
 9551SOL    HW230095   2.531   5.210   5.379
 9552SOL     OW30096   3.686   3.916   4.951
 9552SOL    HW130097   3.682   3.826   4.995
 9552SOL    HW230098   3.689   3.905   4.852
 9553SOL     OW30099   2.290   4.148   4.244
 9553SOL    HW130100   2.320   4.076   4.182
 9553SOL    HW230101   2.251   4.108   4.327
 9554SOL     OW30102   3.567   5.211   4.828
 9554SOL    HW130103   3.474   5.186   4.801
 9554SOL    HW230104   3.593   5.161   4.910
 9555SOL     OW30105   2.179   4.271   5.004
 9555SOL    HW130106   2.217   4.212   5.076
 9555SOL    HW230107   2.219   4.245   4.916
 9556SOL     OW30108   2.674   5.310   4.411
 9556SOL    HW130109   2.706   5.320   4.317
 9556SOL    HW230110   2.595   5.248   4.413
 9557SOL     OW30111   3.286   3.938   4.836
 9557SOL    HW130112   3.338   3.873   4.891
 9557SOL    HW230113   3.237   4.001   4.897
 9558SOL     OW30114   2.632   5.054   4.025
 9558SOL    HW130115   2.586   4.967   4.042
 9558SOL    HW230116   2.723   5.051   4.066
 9559SOL     OW30117   2.480   5.291   5.008
 9559SOL    HW130118   2.475   5.373   5.065
 9559SOL    HW230119   2.569   5.288   4.963
 9560SOL     OW30120   3.455   3.945   4.606
 9560SOL    HW130121   3.371   3.944   4.660
 9560SOL    HW230122   3.457   4.028   4.550
 9561SOL     OW30123   1.901   4.801   4.024
 9561SOL    HW130124   2.000   4.790   4.015
 9561SOL    HW230125   1.861   4.715   4.056
 9562SOL     OW30126   2.737   5.370   4.061
 9562SOL    HW130127   2.660   5.335   4.007
 9562SOL    HW230128   2.705   5.441   4.123
 9563SOL     OW30129   2.092   4.352   5.699
 9563SOL    HW130130   1.999   4.350   5.736
 9563SOL    HW230131   2.093   4.313   5.607
 9564SOL     OW30132   2.087   3.999   6.582
 9564SOL    HW130133   2.122   3.982   6.674
 9564SOL    HW230134   1.999   3.954   6.570
 9565SOL     OW30135   1.881   4.092   6.233
 9565SOL    HW130136   1.799   4.135   6.272
 9565SOL    HW230137   1.853   4.019   6.170
 9566SOL     OW30138   2.431   4.999   6.751
 9566SOL    HW130139   2.338   4.992   6.714
 9566SOL    HW230140   2.442   5.088   6.795
 9567SOL     OW30141   3.417   5.235   6.289
 9567SOL    HW130142   3.360   5.219   6.370
 9567SOL    HW230143   3.358   5.245   6.209
 9568SOL     OW30144   2.630   4.868   6.609
 9568SOL    HW130145   2.552   4.885   6.669
 9568SOL    HW230146   2.664   4.955   6.573
 9569SOL     OW30147   2.712   4.522   7.409
 9569SOL    HW130148   2.708   4.598   7.474
 9569SOL    HW230149   2.734   4.558   7.318
 9570SOL     OW30150   2.547   4.736   6.251
 9570SOL    HW130151   2.616   4.720   6.321
 9570SOL    HW230152   2.474   4.793   6.289
 9571SOL     OW30153   2.548   4.885   7.389
 9571SOL    HW130154   2.608   4.964   7.403
 9571SOL    HW230155   2.462   4.916   7.348
 9572SOL     OW30156   2.197   5.159   6.647
 9572SOL    HW130157   2.119   5.128   6.594
 9572SOL    HW230158   2.255   5.217   6.590
 9573SOL     OW30159   3.322   5.229   6.925
 9573SOL    HW130160   3.346   5.323   6.951
 9573SOL    HW230161   3.306   5.175   7.007
 9574SOL     OW30162   2.300   4.116   7.085
 9574SOL    HW130163   2.382   4.060   7.094
 9574SOL    HW230164   2.219   4.058   7.089
 9575SOL     OW30165   2.093   5.437   6.069
 9575SOL    HW130166   2.127   5.514   6.123
 9575SOL    HW230167   2.137   5.437   5.979
 9576SOL     OW30168   2.989   5.065   7.276
 9576SOL    HW130169   3.036   5.065   7.364
 9576SOL    HW230170   2.941   4.978   7.265
 9577SOL     OW30171   2.092   5.158   6.124
 9577SOL    HW130172   2.066   5.254   6.124
 9577SOL    HW230173   2.021   5.104   6.169
 9578SOL     OW30174   2.102   4.815   6.472
 9578SOL    HW130175   2.116   4.731   6.524
 9578SOL    HW230176   2.047   4.879   6.527
 9579SOL     OW30177   2.482   5.510   7.025
 9579SOL    HW130178   2.390   5.493   7.060
 9579SOL    HW230179   2.510   5.602   7.051
 9580SOL     OW30180   2.468   4.688   5.709
 9580SOL    HW130181   2.475   4.772   5.655
 9580SOL    HW230182   2.514   4.701   5.797
 9581SOL     OW30183   3.456   3.838   7.066
 9581SOL    HW130184   3.438   3.905   6.994
 9581SOL    HW230185   3.453   3.884   7.155
 9582SOL     OW30186   1.984   4.367   6.149
 9582SOL    HW130187   1.939   4.279   6.166
 9582SOL    HW230188   1.983   4.421   6.233
 9583SOL     OW30189   3.704   5.491   5.945
 9583SOL    HW130190   3.758   5.462   6.025
 9583SOL    HW230191   3.734   5.581   5.916
 9584SOL     OW30192   1.889   5.320   5.703
 9584SOL    HW130193   1.870   5.224   5.724
 9584SOL    HW230194   1.856   5.378   5.778
 9585SOL     OW30195   1.975   4.461   7.183
 9585SOL    HW130196   2.063   4.448   7.228
 9585SOL    HW230197   1.962   4.558   7.161
 9586SOL     OW30198   2.475   5.089   6.312
 9586SOL    HW130199   2.426   5.002   6.321
 9586SOL    HW230200   2.452   5.132   6.225
 9587SOL     OW30201   3.155   4.952   7.009
 9587SOL    HW130202   3.192   4.879   6.951
 9587SOL    HW230203   3.207   4.957   7.094
 9588SOL     OW30204   2.671   3.728   6.088
 9588SOL    HW130205   2.711   3.819   6.079
 9588SOL    HW230206   2.571   3.736   6.094
 9589SOL     OW30207   2.059   4.700   6.850
 9589SOL    HW130208   2.148   4.655   6.836
 9589SOL    HW230209   1.986   4.635   6.831
 9590SOL     OW30210   3.049   5.516   7.202
 9590SOL    HW130211   3.073   5.576   7.126
 9590SOL    HW230212   3.056   5.421   7.172
 9591SOL     OW30213   2.179   3.975   7.387
 9591SOL    HW130214   2.250   4.046   7.393
 9591SOL    HW230215   2.091   4.014   7.415
 9592SOL     OW30216   3.328   5.141   6.539
 9592SOL    HW130217   3.269   5.147   6.619
 9592SOL    HW230218   3.313   5.053   6.493
 9593SOL     OW30219   3.529   5.438   6.158
 9593SOL    HW130220   3.488   5.415   6.070
 9593SOL    HW230221   3.511   5.364   6.223
 9594SOL     OW30222   2.460   4.453   5.856
 9594SOL    HW130223   2.484   4.522   5.788
 9594SOL    HW230224   2.382   4.486   5.910
 9595SOL     OW30225   3.438   5.386   5.893
 9595SOL    HW130226   3.527   5.432   5.896
 9595SOL    HW230227   3.417   5.362   5.798
 9596SOL     OW30228   2.669   4.329   7.051
 9596SOL    HW130229   2.622   4.326   7.140
 9596SOL    HW230230   2.618   4.274   6.985
 9597SOL     OW30231   3.256   4.193   7.260
 9597SOL    HW130232   3.236   4.236   7.348
 9597SOL    HW230233   3.334   4.131   7.269
 9598SOL     OW30234   2.835   4.614   7.158
 9598SOL    HW130235   2.881   4.530   7.129
 9598SOL    HW230236   2.779   4.648   7.083
 9599SOL     OW30237   2.853   4.134   6.828
 9599SOL    HW130238   2.776   4.168   6.882
 9599SOL    HW230239   2.819   4.083   6.749
 9600SOL     OW30240   2.903   4.425   6.015
 9600SOL    HW130241   2.929   4.421   6.111
 9600SOL    HW230242   2.818   4.374   6.001
 9601SOL     OW30243   1.938   4.535   6.375
 9601SOL    HW130244   2.037   4.523   6.384
 9601SOL    HW230245   1.914   4.630   6.396
 9602SOL     OW30246   1.992   5.545   7.157
 9602SOL    HW130247   1.982   5.530   7.256
 9602SOL    HW230248   1.906   5.581   7.121
 9603SOL     OW30249   2.727   4.072   5.781
 9603SOL    HW130250   2.786   4.135   5.732
 9603SOL    HW230251   2.746   3.978   5.752
 9604SOL     OW30252   3.581   4.309   7.417
 9604SOL    HW130253   3.555   4.398   7.381
 9604SOL    HW230254   3.579   4.241   7.344
 9605SOL     OW30255   2.412   3.920   6.471
 9605SOL    HW130256   2.407   3.915   6.571
 9605SOL    HW230257   2.414   4.016   6.442
 9606SOL     OW30258   2.870   5.180   6.063
 9606SOL    HW130259   2.824   5.252   6.011
 9606SOL    HW230260   2.866   5.200   6.161
 9607SOL     OW30261   2.213   5.525   6.439
 9607SOL    HW130262   2.263   5.439   6.445
 9607SOL    HW230263   2.278   5.602   6.436
 9608SOL     OW30264   3.657   4.790   6.459
 9608SOL    HW130265   3.595   4.775   6.383
 9608SOL    HW230266   3.605   4.801   6.544
 9609SOL     OW30267   3.089   5.274   7.092
 9609SOL    HW130268   3.095   5.197   7.156
 9609SOL    HW230269   3.037   5.248   7.012
 9610SOL     OW30270   2.183   4.667   5.828
 9610SOL    HW130271   2.265   4.706   5.786
 9610SOL    HW230272   2.156   4.585   5.779
 9611SOL     OW30273   2.323   4.990   7.313
 9611SOL    HW130274   2.273   4.991   7.227
 9611SOL    HW230275   2.260   4.972   7.389
 9612SOL     OW30276   2.973   5.500   5.823
 9612SOL    HW130277   2.913   5.438   5.873
 9612SOL    HW230278   3.004   5.456   5.738
 9613SOL     OW30279   2.064   4.009   7.084
 9613SOL    HW130280   1.984   4.069   7.071
 9613SOL    HW230281   2.054   3.960   7.170
 9614SOL     OW30282   2.326   5.467   5.909
 9614SOL    HW130283   2.359   5.506   5.995
 9614SOL    HW230284   2.402   5.460   5.844
 9615SOL     OW30285   2.111   5.509   6.827
 9615SOL    HW130286   2.168   5.444   6.877
 9615SOL    HW230287   2.095   5.476   6.734
 9616SOL     OW30288   2.802   5.422   6.490
 9616SOL    HW130289   2.882   5.365   6.511
 9616SOL    HW230290   2.753   5.382   6.413
 9617SOL     OW30291   2.244   4.424   6.066
 9617SOL    HW130292   2.289   4.334   6.063
 9617SOL    HW230293   2.150   4.413   6.099
 9618SOL     OW30294   3.409   3.946   7.315
 9618SOL    HW130295   3.404   3.983   7.407
 9618SOL    HW230296   3.337   3.877   7.303
 9619SOL     OW30297   2.476   3.846   5.703
 9619SOL    HW130298   2.574   3.824   5.710
 9619SOL    HW230299   2.445   3.829   5.610
 9620SOL     OW30300   2.643   3.988   7.335
 9620SOL    HW130301   2.710   3.927   7.378
 9620SOL    HW230302   2.570   4.007   7.400
 9621SOL     OW30303   2.750   5.238   6.781
 9621SOL    HW130304   2.727   5.213   6.687
 9621SOL    HW230305   2.811   5.169   6.820
 9622SOL     OW30306   3.213   4.314   7.019
 9622SOL    HW130307   3.241   4.271   7.104
 9622SOL    HW230308   3.238   4.410   7.020
 9623SOL     OW30309   2.665   5.126   6.510
 9623SOL    HW130310   2.755   5.140   6.468
 9623SOL    HW230311   2.594   5.128   6.439
 9624SOL     OW30312   2.784   4.227   6.485
 9624SOL    HW130313   2.759   4.218   6.389
 9624SOL    HW230314   2.832   4.145   6.516
 9625SOL     OW30315   2.401   3.788   6.098
 9625SOL    HW130316   2.320   3.789   6.156
 9625SOL    HW230317   2.404   3.871   6.043
 9626SOL     OW30318   2.159   3.759   5.757
 9626SOL    HW130319   2.208   3.843   5.736
 9626SOL    HW230320   2.221   3.694   5.802
 9627SOL     OW30321   2.797   3.960   6.066
 9627SOL    HW130322   2.749   4.001   5.988
 9627SOL    HW230323   2.896   3.958   6.047
 9628SOL     OW30324   2.938   4.407   7.050
 9628SOL    HW130325   2.858   4.346   7.053
 9628SOL    HW230326   3.019   4.354   7.026
 9629SOL     OW30327   3.089   5.294   6.379
 9629SOL    HW130328   3.110   5.368   6.314
 9629SOL    HW230329   3.157   5.294   6.452
 9630SOL     OW30330   2.321   4.876   6.327
 9630SOL    HW130331   2.250   4.849   6.392
 9630SOL    HW230332   2.295   4.848   6.234
 9631SOL     OW30333   3.133   5.521   6.177
 9631SOL    HW130334   3.177   5.585   6.113
 9631SOL    HW230335   3.083   5.573   6.247
 9632SOL     OW30336   2.894   4.273   5.602
 9632SOL    HW130337   2.853   4.355   5.563
 9632SOL    HW230338   2.958   4.299   5.675
 9633SOL     OW30339   1.940   4.280   6.972
 9633SOL    HW130340   2.032   4.279   6.931
 9633SOL    HW230341   1.934   4.354   7.039
 9634SOL     OW30342   2.423   3.946   6.733
 9634SOL    HW130343   2.461   3.862   6.770
 9634SOL    HW230344   2.335   3.965   6.777
 9635SOL     OW30345   2.728   4.178   6.228
 9635SOL    HW130346   2.696   4.250   6.166
 9635SOL    HW230347   2.752   4.097   6.175
 9636SOL     OW30348   2.879   3.763   6.339
 9636SOL    HW130349   2.807   3.768   6.270
 9636SOL    HW230350   2.855   3.694   6.408
 9637SOL     OW30351   3.291   4.897   6.453
 9637SOL    HW130352   3.236   4.813   6.446
 9637SOL    HW230353   3.317   4.926   6.361
 9638SOL     OW30354   3.328   4.314   6.578
 9638SOL    HW130355   3.298   4.219   6.585
 9638SOL    HW230356   3.401   4.330   6.644
 9639SOL     OW30357   3.719   4.557   5.963
 9639SOL    HW130358   3.761   4.493   6.027
 9639SOL    HW230359   3.681   4.506   5.885
 9640SOL     OW30360   2.350   5.109   5.760
 9640SOL    HW130361   2.263   5.094   5.807
 9640SOL    HW230362   2.333   5.135   5.665
 9641SOL     OW30363   2.389   3.980   5.914
 9641SOL    HW130364   2.416   3.921   5.839
 9641SOL    HW230365   2.389   4.075   5.883
 9642SOL     OW30366   2.926   5.071   6.926
 9642SOL    HW130367   2.846   5.048   6.981
 9642SOL    HW230368   3.009   5.045   6.975
 9643SOL     OW30369   3.454   5.353   7.211
 9643SOL    HW130370   3.481   5.387   7.121
 9643SOL    HW230371   3.533   5.315   7.257
 9644SOL     OW30372   2.973   4.919   6.686
 9644SOL    HW130373   2.933   4.963   6.767
 9644SOL    HW230374   2.932   4.956   6.603
 9645SOL     OW30375   3.500   4.823   6.665
 9645SOL    HW130376   3.505   4.904   6.724
 9645SOL    HW230377   3.414   4.825   6.614
 9646SOL     OW30378   2.777   3.813   6.988
 9646SOL    HW130379   2.802   3.793   6.893
 9646SOL    HW230380   2.849   3.869   7.030
 9647SOL     OW30381   2.842   4.840   7.305
 9647SOL    HW130382   2.743   4.846   7.315
 9647SOL    HW230383   2.865   4.760   7.249
 9648SOL     OW30384   2.567   4.774   5.954
 9648SOL    HW130385   2.553   4.781   6.053
 9648SOL    HW230386   2.651   4.723   5.936
 9649SOL     OW30387   2.272   4.537   6.837
 9649SOL    HW130388   2.358   4.549   6.887
 9649SOL    HW230389   2.230   4.450   6.864
 9650SOL     OW30390   3.136   4.110   6.848
 9650SOL    HW130391   3.157   4.184   6.912
 9650SOL    HW230392   3.047   4.127   6.805
 9651SOL     OW30393   1.926   5.288   6.917
 9651SOL    HW130394   1.880   5.370   6.883
 9651SOL    HW230395   2.024   5.307   6.926
 9652SOL     OW30396   2.229   4.824   6.087
 9652SOL    HW130397   2.222   4.907   6.031
 9652SOL    HW230398   2.233   4.744   6.027
 9653SOL     OW30399   2.428   4.261   6.451
 9653SOL    HW130400   2.440   4.327   6.377
 9653SOL    HW230401   2.474   4.295   6.534
 9654SOL     OW30402   3.114   5.072   5.974
 9654SOL    HW130403   3.164   5.149   6.014
 9654SOL    HW230404   3.019   5.074   6.006
 9655SOL     OW30405   3.134   5.169   6.728
 9655SOL    HW130406   3.181   5.182   6.815
 9655SOL    HW230407   3.068   5.095   6.737
 9656SOL     OW30408   2.216   5.234   6.915
 9656SOL    HW130409   2.195   5.190   6.828
 9656SOL    HW230410   2.313   5.260   6.918
 9657SOL     OW30411   2.264   4.475   7.184
 9657SOL    HW130412   2.332   4.530   7.137
 9657SOL    HW230413   2.304   4.387   7.211
 9658SOL     OW30414   2.875   3.829   7.356
 9658SOL    HW130415   2.881   3.914   7.304
 9658SOL    HW230416   2.907   3.753   7.299
 9659SOL     OW30417   2.366   3.774   7.326
 9659SOL    HW130418   2.324   3.717   7.256
 9659SOL    HW230419   2.300   3.843   7.358
 9660SOL     OW30420   2.435   4.594   6.615
 9660SOL    HW130421   2.479   4.683   6.606
 9660SOL    HW230422   2.372   4.594   6.692
 9661SOL     OW30423   3.222   4.586   6.631
 9661SOL    HW130424   3.147   4.586   6.565
 9661SOL    HW230425   3.259   4.494   6.640
 9662SOL     OW30426   2.169   3.937   6.817
 9662SOL    HW130427   2.146   3.974   6.907
 9662SOL    HW230428   2.139   3.842   6.811
 9663SOL     OW30429   1.899   5.034   6.868
 9663SOL    HW130430   1.952   4.985   6.936
 9663SOL    HW230431   1.921   5.132   6.873
 9664SOL     OW30432   2.594   4.358   6.650
 9664SOL    HW130433   2.653   4.332   6.574
 9664SOL    HW230434   2.566   4.454   6.639
 9665SOL     OW30435   2.169   3.787   6.204
 9665SOL    HW130436   2.158   3.881   6.237
 9665SOL    HW230437   2.164   3.724   6.281
 9666SOL     OW30438   2.885   4.490   6.552
 9666SOL    HW130439   2.900   4.511   6.648
 9666SOL    HW230440   2.855   4.395   6.543
 9667SOL     OW30441   2.842   5.297   7.286
 9667SOL    HW130442   2.822   5.341   7.198
 9667SOL    HW230443   2.881   5.206   7.270
 9668SOL     OW30444   3.721   5.242   7.191
 9668SOL    HW130445   3.735   5.269   7.096
 9668SOL    HW230446   3.804   5.264   7.244
 9669SOL     OW30447   2.212   4.622   7.390
 9669SOL    HW130448   2.288   4.666   7.438
 9669SOL    HW230449   2.247   4.575   7.308
 9670SOL     OW30450   3.165   4.562   5.628
 9670SOL    HW130451   3.199   4.469   5.643
 9670SOL    HW230452   3.183   4.589   5.533
 9671SOL     OW30453   2.930   5.057   6.435
 9671SOL    HW130454   2.937   4.973   6.380
 9671SOL    HW230455   2.992   5.126   6.399
 9672SOL     OW30456   2.181   4.534   6.535
 9672SOL    HW130457   2.274   4.570   6.540
 9672SOL    HW230458   2.175   4.449   6.587
 9673SOL     OW30459   2.201   4.233   6.592
 9673SOL    HW130460   2.149   4.150   6.575
 9673SOL    HW230461   2.278   4.238   6.528
 9674SOL     OW30462   3.000   4.104   7.264
 9674SOL    HW130463   2.955   4.167   7.328
 9674SOL    HW230464   3.093   4.135   7.247
 9675SOL     OW30465   3.022   3.931   7.063
 9675SOL    HW130466   3.022   3.995   7.140
 9675SOL    HW230467   3.050   3.979   6.980
 9676SOL     OW30468   1.870   5.050   5.786
 9676SOL    HW130469   1.777   5.071   5.755
 9676SOL    HW230470   1.880   4.951   5.799
 9677SOL     OW30471   1.950   5.525   6.513
 9677SOL    HW130472   1.908   5.439   6.486
 9677SOL    HW230473   2.044   5.528   6.479
 9678SOL     OW30474   2.366   5.292   6.496
 9678SOL    HW130475   2.432   5.366   6.505
 9678SOL    HW230476   2.410   5.213   6.454
 9679SOL     OW30477   2.864   4.520   6.824
 9679SOL    HW130478   2.905   4.488   6.910
 9679SOL    HW230479   2.768   4.493   6.821
 9680SOL     OW30480   1.902   4.268   6.700
 9680SOL    HW130481   1.987   4.235   6.659
 9680SOL    HW230482   1.915   4.283   6.798
 9681SOL     OW30483   2.051   4.244   7.308
 9681SOL    HW130484   2.110   4.204   7.238
 9681SOL    HW230485   1.993   4.315   7.267
 9682SOL     OW30486   2.677   4.296   5.911
 9682SOL    HW130487   2.684   4.207   5.865
 9682SOL    HW230488   2.583   4.330   5.903
 9683SOL     OW30489   3.519   4.328   6.792
 9683SOL    HW130490   3.481   4.259   6.854
 9683SOL    HW230491   3.601   4.292   6.748
 9684SOL     OW30492   2.114   5.288   7.330
 9684SOL    HW130493   2.084   5.345   7.406
 9684SOL    HW230494   2.107   5.191   7.356
 9685SOL     OW30495   2.533   4.188   6.855
 9685SOL    HW130496   2.499   4.099   6.825
 9685SOL    HW230497   2.559   4.242   6.775
 9686SOL     OW30498   2.792   5.402   7.051
 9686SOL    HW130499   2.768   5.384   6.956
 9686SOL    HW230500   2.822   5.496   7.061
 9687SOL     OW30501   2.335   4.224   5.777
 9687SOL    HW130502   2.396   4.304   5.781
 9687SOL    HW230503   2.240   4.255   5.784
 9688SOL     OW30504   2.021   4.861   7.052
 9688SOL    HW130505   2.043   4.800   7.128
 9688SOL    HW230506   2.031   4.812   6.966
 9689SOL     OW30507   3.209   4.783   6.820
 9689SOL    HW130508   3.233   4.720   6.746
 9689SOL    HW230509   3.119   4.823   6.802
 9690SOL     OW30510   3.621   5.471   6.740
 9690SOL    HW130511   3.682   5.501   6.667
 9690SOL    HW230512   3.583   5.382   6.718
 9691SOL     OW30513   3.114   5.455   6.714
 9691SOL    HW130514   3.198   5.460   6.660
 9691SOL    HW230515   3.091   5.359   6.732
 9692SOL     OW30516   1.945   4.982   6.608
 9692SOL    HW130517   1.940   4.981   6.708
 9692SOL    HW230518   1.862   4.941   6.570
 9693SOL     OW30519   2.550   5.386   7.302
 9693SOL    HW130520   2.494   5.467   7.311
 9693SOL    HW230521   2.602   5.390   7.216
 9694SOL     OW30522   3.250   5.297   6.063
 9694SOL    HW130523   3.317   5.309   5.989
 9694SOL    HW230524   3.210   5.386   6.086
 9695SOL     OW30525   1.992   5.518   7.437
 9695SOL    HW130526   1.951   5.444   7.490
 9695SOL    HW230527   2.056   5.569   7.495
 9696SOL     OW30528   2.692   4.997   7.008
 9696SOL    HW130529   2.687   5.030   7.103
 9696SOL    HW230530   2.606   5.016   6.962
 9697SOL     OW30531   2.534   5.340   5.740
 9697SOL    HW130532   2.543   5.350   5.641
 9697SOL    HW230533   2.494   5.251   5.761
 9698SOL     OW30534   3.512   5.444   6.980
 9698SOL    HW130535   3.565   5.454   6.896
 9698SOL    HW230536   3.485   5.534   7.014
 9699SOL     OW30537   3.703   3.899   6.549
 9699SOL    HW130538   3.742   3.814   6.513
 9699SOL    HW230539   3.605   3.901   6.530
 9700SOL     OW30540   2.125   4.050   6.306
 9700SOL    HW130541   2.046   4.101   6.272
 9700SOL    HW230542   2.116   4.035   6.404
 9701SOL     OW30543   3.056   5.336   5.617
 9701SOL    HW130544   3.062   5.243   5.654
 9701SOL    HW230545   2.997   5.336   5.537
 9702SOL     OW30546   2.684   4.726   6.958
 9702SOL    HW130547   2.724   4.725   6.866
 9702SOL    HW230548   2.694   4.818   6.998
 9703SOL     OW30549   2.778   4.634   5.877
 9703SOL    HW130550   2.841   4.672   5.809
 9703SOL    HW230551   2.818   4.551   5.916
 9704SOL     OW30552   3.366   5.331   5.630
 9704SOL    HW130553   3.274   5.368   5.637
 9704SOL    HW230554   3.404   5.351   5.540
 9705SOL     OW30555   2.234   5.012   7.076
 9705SOL    HW130556   2.221   5.105   7.042
 9705SOL    HW230557   2.150   4.960   7.063
 9706SOL     OW30558   3.476   5.016   6.875
 9706SOL    HW130559   3.536   5.019   6.955
 9706SOL    HW230560   3.401   5.080   6.888
 9707SOL     OW30561   2.901   4.822   6.282
 9707SOL    HW130562   2.831   4.775   6.336
 9707SOL    HW230563   2.960   4.754   6.239
 9708SOL     OW30564   2.452   5.211   6.077
 9708SOL    HW130565   2.494   5.153   6.007
 9708SOL    HW230566   2.408   5.290   6.033
 9709SOL     OW30567   3.571   4.109   6.967
 9709SOL    HW130568   3.644   4.178   6.971
 9709SOL    HW230569   3.599   4.034   6.908
 9710SOL     OW30570   2.117   5.072   5.876
 9710SOL    HW130571   2.021   5.073   5.849
 9710SOL    HW230572   2.129   5.125   5.960
 9711SOL     OW30573   1.967   4.737   7.312
 9711SOL    HW130574   1.890   4.704   7.366
 9711SOL    HW230575   2.052   4.707   7.354
 9712SOL     OW30576   2.534   3.927   7.075
 9712SOL    HW130577   2.624   3.911   7.035
 9712SOL    HW230578   2.542   3.932   7.174
 9713SOL     OW30579   1.937   4.069   5.619
 9713SOL    HW130580   1.845   4.041   5.590
 9713SOL    HW230581   1.968   4.146   5.563
 9714SOL     OW30582   3.302   4.580   6.984
 9714SOL    HW130583   3.245   4.632   6.921
 9714SOL    HW230584   3.398   4.592   6.960
 9715SOL     OW30585   1.934   3.890   5.904
 9715SOL    HW130586   1.917   3.973   5.850
 9715SOL    HW230587   2.024   3.853   5.882
 9716SOL     OW30588   3.045   5.059   5.705
 9716SOL    HW130589   2.946   5.048   5.707
 9716SOL    HW230590   3.079   5.074   5.798
 9717SOL     OW30591   2.475   4.566   7.017
 9717SOL    HW130592   2.531   4.647   7.000
 9717SOL    HW230593   2.534   4.486   7.020
 9718SOL     OW30594   3.355   5.491   6.545
 9718SOL    HW130595   3.388   5.555   6.476
 9718SOL    HW230596   3.421   5.485   6.620
 9719SOL     OW30597   2.578   4.289   7.294
 9719SOL    HW130598   2.597   4.354   7.368
 9719SOL    HW230599   2.638   4.209   7.303
 9720SOL     OW30600   2.252   5.465   7.146
 9720SOL    HW130601   2.161   5.506   7.144
 9720SOL    HW230602   2.245   5.371   7.178
 9721SOL     OW30603   3.536   4.607   6.840
 9721SOL    HW130604   3.509   4.518   6.803
 9721SOL    HW230605   3.537   4.675   6.767
 9722SOL     OW30606   2.456   4.469   6.238
 9722SOL    HW130607   2.506   4.554   6.219
 9722SOL    HW230608   2.368   4.471   6.190
 9723SOL     OW30609   3.639   4.066   7.228
 9723SOL    HW130610   3.622   4.097   7.134
 9723SOL    HW230611   3.555   4.029   7.266
 9724SOL     OW30612   3.592   4.658   7.103
 9724SOL    HW130613   3.630   4.749   7.118
 9724SOL    HW230614   3.584   4.641   7.004
 9725SOL     OW30615   2.721   5.098   5.602
 9725SOL    HW130616   2.675   5.113   5.690
 9725SOL    HW230617   2.765   5.183   5.572
 9726SOL     OW30618   2.523   5.514   6.539
 9726SOL    HW130619   2.477   5.602   6.526
 9726SOL    HW230620   2.622   5.526   6.532
 9727SOL     OW30621   2.721   4.680   6.447
 9727SOL    HW130622   2.775   4.611   6.495
 9727SOL    HW230623   2.689   4.749   6.513
 9728SOL     OW30624   2.945   4.708   5.673
 9728SOL    HW130625   2.922   4.761   5.591
 9728SOL    HW230626   3.026   4.652   5.654
 9729SOL     OW30627   3.723   5.293   6.437
 9729SOL    HW130628   3.652   5.281   6.367
 9729SOL    HW230629   3.724   5.214   6.497
 9730SOL     OW30630   2.083   5.038   7.430
 9730SOL    HW130631   2.018   4.965   7.409
 9730SOL    HW230632   2.087   5.052   7.528
 9731SOL     OW30633   1.941   4.964   6.239
 9731SOL    HW130634   1.940   4.917   6.327
 9731SOL    HW230635   2.023   4.936   6.188
 9732SOL     OW30636   2.534   5.115   7.210
 9732SOL    HW130637   2.456   5.065   7.248
 9732SOL    HW230638   2.531   5.210   7.241
 9733SOL     OW30639   3.686   3.916   6.813
 9733SOL    HW130640   3.682   3.826   6.857
 9733SOL    HW230641   3.689   3.905   6.714
 9734SOL     OW30642   2.290   4.148   6.106
 9734SOL    HW130643   2.320   4.076   6.044
 9734SOL    HW230644   2.251   4.108   6.189
 9735SOL     OW30645   3.567   5.211   6.690
 9735SOL    HW130646   3.474   5.186   6.663
 9735SOL    HW230647   3.593   5.161   6.772
 9736SOL     OW30648   2.179   4.271   6.866
 9736SOL    HW130649   2.217   4.212   6.938
 9736SOL    HW230650   2.219   4.245   6.778
 9737SOL     OW30651   2.674   5.310   6.273
 9737SOL    HW130652   2.706   5.320   6.179
 9737SOL    HW230653   2.595   5.248   6.275
 9738SOL     OW30654   2.863   3.758   6.740
 9738SOL    HW130655   2.800   3.686   6.709
 9738SOL    HW230656   2.956   3.722   6.740
 9739SOL     OW30657   2.632   5.054   5.887
 9739SOL    HW130658   2.586   4.967   5.904
 9739SOL    HW230659   2.723   5.051   5.928
 9740SOL     OW30660   2.480   5.291   6.870
 9740SOL    HW130661   2.475   5.373   6.927
 9740SOL    HW230662   2.569   5.288   6.825
 9741SOL     OW30663   3.455   3.945   6.468
 9741SOL    HW130664   3.371   3.944   6.522
 9741SOL    HW230665   3.457   4.028   6.412
 9742SOL     OW30666   1.901   4.801   5.886
 9742SOL    HW130667   2.000   4.790   5.877
 9742SOL    HW230668   1.861   4.715   5.918
 9743SOL     OW30669   2.737   5.370   5.923
 9743SOL    HW130670   2.660   5.335   5.869
 9743SOL    HW230671   2.705   5.441   5.985
 9744SOL     OW30672   2.092   4.352   7.561
 9744SOL    HW130673   1.999   4.350   7.598
 9744SOL    HW230674   2.093   4.313   7.469
 9745SOL     OW30675   2.087   3.999   8.444
 9745SOL    HW130676   2.122   3.982   8.536
 9745SOL    HW230677   1.999   3.954   8.432
 9746SOL     OW30678   1.881   4.092   8.095
 9746SOL    HW130679   1.799   4.135   8.134
 9746SOL    HW230680   1.853   4.019   8.032
 9747SOL     OW30681   2.431   4.999   8.613
 9747SOL    HW130682   2.338   4.992   8.576
 9747SOL    HW230683   2.442   5.088   8.657
 9748SOL     OW30684   3.417   5.235   8.151
 9748SOL    HW130685   3.360   5.219   8.232
 9748SOL    HW230686   3.358   5.245   8.071
 9749SOL     OW30687   2.997   4.427   8.165
 9749SOL    HW130688   3.054   4.505   8.140
 9749SOL    HW230689   2.937   4.453   8.241
 9750SOL     OW30690   2.630   4.868   8.471
 9750SOL    HW130691   2.552   4.885   8.531
 9750SOL    HW230692   2.664   4.955   8.435
 9751SOL     OW30693   2.712   4.522   9.271
 9751SOL    HW130694   2.708   4.598   9.336
 9751SOL    HW230695   2.734   4.558   9.180
 9752SOL     OW30696   2.547   4.736   8.113
 9752SOL    HW130697   2.616   4.720   8.183
 9752SOL    HW230698   2.474   4.793   8.151
 9753SOL     OW30699   2.548   4.885   9.251
 9753SOL    HW130700   2.608   4.964   9.265
 9753SOL    HW230701   2.462   4.916   9.210
 9754SOL     OW30702   2.197   5.159   8.509
 9754SOL    HW130703   2.119   5.128   8.456
 9754SOL    HW230704   2.255   5.217   8.452
 9755SOL     OW30705   3.322   5.229   8.787
 9755SOL    HW130706   3.346   5.323   8.813
 9755SOL    HW230707   3.306   5.175   8.869
 9756SOL     OW30708   2.300   4.116   8.947
 9756SOL    HW130709   2.382   4.060   8.956
 9756SOL    HW230710   2.219   4.058   8.951
 9757SOL     OW30711   2.093   5.437   7.931
 9757SOL    HW130712   2.127   5.514   7.985
 9757SOL    HW230713   2.137   5.437   7.841
 9758SOL     OW30714   2.989   5.065   9.138
 9758SOL    HW130715   3.036   5.065   9.226
 9758SOL    HW230716   2.941   4.978   9.127
 9759SOL     OW30717   2.092   5.158   7.986
 9759SOL    HW130718   2.066   5.254   7.986
 9759SOL    HW230719   2.021   5.104   8.031
 9760SOL     OW30720   2.102   4.815   8.334
 9760SOL    HW130721   2.116   4.731   8.386
 9760SOL    HW230722   2.047   4.879   8.389
 9761SOL     OW30723   2.482   5.510   8.887
 9761SOL    HW130724   2.390   5.493   8.922
 9761SOL    HW230725   2.510   5.602   8.913
 9762SOL     OW30726   2.468   4.688   7.571
 9762SOL    HW130727   2.475   4.772   7.517
 9762SOL    HW230728   2.514   4.701   7.659
 9763SOL     OW30729   1.984   4.367   8.011
 9763SOL    HW130730   1.939   4.279   8.028
 9763SOL    HW230731   1.983   4.421   8.095
 9764SOL     OW30732   3.704   5.491   7.807
 9764SOL    HW130733   3.758   5.462   7.887
 9764SOL    HW230734   3.734   5.581   7.778
 9765SOL     OW30735   1.889   5.320   7.565
 9765SOL    HW130736   1.870   5.224   7.586
 9765SOL    HW230737   1.856   5.378   7.640
 9766SOL     OW30738   1.975   4.461   9.045
 9766SOL    HW130739   2.063   4.448   9.090
 9766SOL    HW230740   1.962   4.558   9.023
 9767SOL     OW30741   2.475   5.089   8.174
 9767SOL    HW130742   2.426   5.002   8.183
 9767SOL    HW230743   2.452   5.132   8.087
 9768SOL     OW30744   3.155   4.952   8.871
 9768SOL    HW130745   3.192   4.879   8.813
 9768SOL    HW230746   3.207   4.957   8.956
 9769SOL     OW30747   2.671   3.728   7.950
 9769SOL    HW130748   2.711   3.819   7.941
 9769SOL    HW230749   2.571   3.736   7.956
 9770SOL     OW30750   2.059   4.700   8.712
 9770SOL    HW130751   2.148   4.655   8.698
 9770SOL    HW230752   1.986   4.635   8.693
 9771SOL     OW30753   3.049   5.516   9.064
 9771SOL    HW130754   3.073   5.576   8.988
 9771SOL    HW230755   3.056   5.421   9.034
 9772SOL     OW30756   2.179   3.975   9.249
 9772SOL    HW130757   2.250   4.046   9.255
 9772SOL    HW230758   2.091   4.014   9.277
 9773SOL     OW30759   3.328   5.141   8.401
 9773SOL    HW130760   3.269   5.147   8.481
 9773SOL    HW230761   3.313   5.053   8.355
 9774SOL     OW30762   3.529   5.438   8.020
 9774SOL    HW130763   3.488   5.415   7.932
 9774SOL    HW230764   3.511   5.364   8.085
 9775SOL     OW30765   2.460   4.453   7.718
 9775SOL    HW130766   2.484   4.522   7.650
 9775SOL    HW230767   2.382   4.486   7.772
 9776SOL     OW30768   3.143   4.069   8.392
 9776SOL    HW130769   3.057   4.019   8.379
 9776SOL    HW230770   3.205   4.015   8.448
 9777SOL     OW30771   3.438   5.386   7.755
 9777SOL    HW130772   3.527   5.432   7.758
 9777SOL    HW230773   3.417   5.362   7.660
 9778SOL     OW30774   2.669   4.329   8.913
 9778SOL    HW130775   2.622   4.326   9.002
 9778SOL    HW230776   2.618   4.274   8.847
 9779SOL     OW30777   2.835   4.614   9.020
 9779SOL    HW130778   2.881   4.530   8.991
 9779SOL    HW230779   2.779   4.648   8.945
 9780SOL     OW30780   2.853   4.134   8.690
 9780SOL    HW130781   2.776   4.168   8.744
 9780SOL    HW230782   2.819   4.083   8.611
 9781SOL     OW30783   2.903   4.425   7.877
 9781SOL    HW130784   2.929   4.421   7.973
 9781SOL    HW230785   2.818   4.374   7.863
 9782SOL     OW30786   1.938   4.535   8.237
 9782SOL    HW130787   2.037   4.523   8.246
 9782SOL    HW230788   1.914   4.630   8.258
 9783SOL     OW30789   1.992   5.545   9.019
 9783SOL    HW130790   1.982   5.530   9.118
 9783SOL    HW230791   1.906   5.581   8.983
 9784SOL     OW30792   2.727   4.072   7.643
 9784SOL    HW130793   2.786   4.135   7.594
 9784SOL    HW230794   2.746   3.978   7.614
 9785SOL     OW30795   3.581   4.309   9.279
 9785SOL    HW130796   3.555   4.398   9.243
 9785SOL    HW230797   3.579   4.241   9.206
 9786SOL     OW30798   3.224   4.868   7.993
 9786SOL    HW130799   3.307   4.839   7.945
 9786SOL    HW230800   3.175   4.935   7.937
 9787SOL     OW30801   2.412   3.920   8.333
 9787SOL    HW130802   2.407   3.915   8.433
 9787SOL    HW230803   2.414   4.016   8.304
 9788SOL     OW30804   2.870   5.180   7.925
 9788SOL    HW130805   2.824   5.252   7.873
 9788SOL    HW230806   2.866   5.200   8.023
 9789SOL     OW30807   2.213   5.525   8.301
 9789SOL    HW130808   2.263   5.439   8.307
 9789SOL    HW230809   2.278   5.602   8.298
 9790SOL     OW30810   3.089   5.274   8.954
 9790SOL    HW130811   3.095   5.197   9.018
 9790SOL    HW230812   3.037   5.248   8.874
 9791SOL     OW30813   2.183   4.667   7.690
 9791SOL    HW130814   2.265   4.706   7.648
 9791SOL    HW230815   2.156   4.585   7.641
 9792SOL     OW30816   3.320   4.459   8.176
 9792SOL    HW130817   3.315   4.394   8.251
 9792SOL    HW230818   3.400   4.518   8.189
 9793SOL     OW30819   2.323   4.990   9.175
 9793SOL    HW130820   2.273   4.991   9.089
 9793SOL    HW230821   2.260   4.972   9.251
 9794SOL     OW30822   2.973   5.500   7.685
 9794SOL    HW130823   2.913   5.438   7.735
 9794SOL    HW230824   3.004   5.456   7.600
 9795SOL     OW30825   2.064   4.009   8.946
 9795SOL    HW130826   1.984   4.069   8.933
 9795SOL    HW230827   2.054   3.960   9.032
 9796SOL     OW30828   3.494   5.101   7.529
 9796SOL    HW130829   3.462   5.195   7.519
 9796SOL    HW230830   3.418   5.038   7.517
 9797SOL     OW30831   2.326   5.467   7.771
 9797SOL    HW130832   2.359   5.506   7.857
 9797SOL    HW230833   2.402   5.460   7.706
 9798SOL     OW30834   2.111   5.509   8.689
 9798SOL    HW130835   2.168   5.444   8.739
 9798SOL    HW230836   2.095   5.476   8.596
 9799SOL     OW30837   2.802   5.422   8.352
 9799SOL    HW130838   2.882   5.365   8.373
 9799SOL    HW230839   2.753   5.382   8.275
 9800SOL     OW30840   2.244   4.424   7.928
 9800SOL    HW130841   2.289   4.334   7.925
 9800SOL    HW230842   2.150   4.413   7.961
 9801SOL     OW30843   2.476   3.846   7.565
 9801SOL    HW130844   2.574   3.824   7.572
 9801SOL    HW230845   2.445   3.829   7.472
 9802SOL     OW30846   2.643   3.988   9.197
 9802SOL    HW130847   2.710   3.927   9.240
 9802SOL    HW230848   2.570   4.007   9.262
 9803SOL     OW30849   2.750   5.238   8.643
 9803SOL    HW130850   2.727   5.213   8.549
 9803SOL    HW230851   2.811   5.169   8.682
 9804SOL     OW30852   2.665   5.126   8.372
 9804SOL    HW130853   2.755   5.140   8.330
 9804SOL    HW230854   2.594   5.128   8.301
 9805SOL     OW30855   2.784   4.227   8.347
 9805SOL    HW130856   2.759   4.218   8.251
 9805SOL    HW230857   2.832   4.145   8.378
 9806SOL     OW30858   2.401   3.788   7.960
 9806SOL    HW130859   2.320   3.789   8.018
 9806SOL    HW230860   2.404   3.871   7.905
 9807SOL     OW30861   2.159   3.759   7.619
 9807SOL    HW130862   2.208   3.843   7.598
 9807SOL    HW230863   2.221   3.694   7.664
 9808SOL     OW30864   2.797   3.960   7.928
 9808SOL    HW130865   2.749   4.001   7.850
 9808SOL    HW230866   2.896   3.958   7.909
 9809SOL     OW30867   2.938   4.407   8.912
 9809SOL    HW130868   2.858   4.346   8.915
 9809SOL    HW230869   3.019   4.354   8.888
 9810SOL     OW30870   3.089   5.294   8.241
 9810SOL    HW130871   3.110   5.368   8.176
 9810SOL    HW230872   3.157   5.294   8.314
 9811SOL     OW30873   2.321   4.876   8.189
 9811SOL    HW130874   2.250   4.849   8.254
 9811SOL    HW230875   2.295   4.848   8.096
 9812SOL     OW30876   3.133   5.521   8.039
 9812SOL    HW130877   3.177   5.585   7.975
 9812SOL    HW230878   3.083   5.573   8.109
 9813SOL     OW30879   1.940   4.280   8.834
 9813SOL    HW130880   2.032   4.279   8.793
 9813SOL    HW230881   1.934   4.354   8.901
 9814SOL     OW30882   2.423   3.946   8.595
 9814SOL    HW130883   2.461   3.862   8.632
 9814SOL    HW230884   2.335   3.965   8.639
 9815SOL     OW30885   2.728   4.178   8.090
 9815SOL    HW130886   2.696   4.250   8.028
 9815SOL    HW230887   2.752   4.097   8.037
 9816SOL     OW30888   2.879   3.763   8.201
 9816SOL    HW130889   2.807   3.768   8.132
 9816SOL    HW230890   2.855   3.694   8.270
 9817SOL     OW30891   3.291   4.897   8.315
 9817SOL    HW130892   3.236   4.813   8.308
 9817SOL    HW230893   3.317   4.926   8.223
 9818SOL     OW30894   3.328   4.314   8.440
 9818SOL    HW130895   3.298   4.219   8.447
 9818SOL    HW230896   3.401   4.330   8.506
 9819SOL     OW30897   2.350   5.109   7.622
 9819SOL    HW130898   2.263   5.094   7.669
 9819SOL    HW230899   2.333   5.135   7.527
 9820SOL     OW30900   3.526   5.004   8.105
 9820SOL    HW130901   3.625   5.012   8.119
 9820SOL    HW230902   3.481   5.088   8.136
 9821SOL     OW30903   2.389   3.980   7.776
 9821SOL    HW130904   2.416   3.921   7.701
 9821SOL    HW230905   2.389   4.075   7.745
 9822SOL     OW30906   2.926   5.071   8.788
 9822SOL    HW130907   2.846   5.048   8.843
 9822SOL    HW230908   3.009   5.045   8.837
 9823SOL     OW30909   3.454   5.353   9.073
 9823SOL    HW130910   3.481   5.387   8.983
 9823SOL    HW230911   3.533   5.315   9.119
 9824SOL     OW30912   2.973   4.919   8.548
 9824SOL    HW130913   2.933   4.963   8.629
 9824SOL    HW230914   2.932   4.956   8.465
 9825SOL     OW30915   2.777   3.813   8.850
 9825SOL    HW130916   2.802   3.793   8.755
 9825SOL    HW230917   2.849   3.869   8.892
 9826SOL     OW30918   2.842   4.840   9.167
 9826SOL    HW130919   2.743   4.846   9.177
 9826SOL    HW230920   2.865   4.760   9.111
 9827SOL     OW30921   2.567   4.774   7.816
 9827SOL    HW130922   2.553   4.781   7.915
 9827SOL    HW230923   2.651   4.723   7.798
 9828SOL     OW30924   2.272   4.537   8.699
 9828SOL    HW130925   2.358   4.549   8.749
 9828SOL    HW230926   2.230   4.450   8.726
 9829SOL     OW30927   3.136   4.110   8.710
 9829SOL    HW130928   3.157   4.184   8.774
 9829SOL    HW230929   3.047   4.127   8.667
 9830SOL     OW30930   1.926   5.288   8.779
 9830SOL    HW130931   1.880   5.370   8.745
 9830SOL    HW230932   2.024   5.307   8.788
 9831SOL     OW30933   2.229   4.824   7.949
 9831SOL    HW130934   2.222   4.907   7.893
 9831SOL    HW230935   2.233   4.744   7.889
 9832SOL     OW30936   2.428   4.261   8.313
 9832SOL    HW130937   2.440   4.327   8.239
 9832SOL    HW230938   2.474   4.295   8.396
 9833SOL     OW30939   3.114   5.072   7.836
 9833SOL    HW130940   3.164   5.149   7.876
 9833SOL    HW230941   3.019   5.074   7.868
 9834SOL     OW30942   3.134   5.169   8.590
 9834SOL    HW130943   3.181   5.182   8.677
 9834SOL    HW230944   3.068   5.095   8.599
 9835SOL     OW30945   2.216   5.234   8.777
 9835SOL    HW130946   2.195   5.190   8.690
 9835SOL    HW230947   2.313   5.260   8.780
 9836SOL     OW30948   2.264   4.475   9.046
 9836SOL    HW130949   2.332   4.530   8.999
 9836SOL    HW230950   2.304   4.387   9.073
 9837SOL     OW30951   2.875   3.829   9.218
 9837SOL    HW130952   2.881   3.914   9.166
 9837SOL    HW230953   2.907   3.753   9.161
 9838SOL     OW30954   2.366   3.774   9.188
 9838SOL    HW130955   2.324   3.717   9.118
 9838SOL    HW230956   2.300   3.843   9.220
 9839SOL     OW30957   2.435   4.594   8.477
 9839SOL    HW130958   2.479   4.683   8.468
 9839SOL    HW230959   2.372   4.594   8.554
 9840SOL     OW30960   3.222   4.586   8.493
 9840SOL    HW130961   3.147   4.586   8.427
 9840SOL    HW230962   3.259   4.494   8.502
 9841SOL     OW30963   2.169   3.937   8.679
 9841SOL    HW130964   2.146   3.974   8.769
 9841SOL    HW230965   2.139   3.842   8.673
 9842SOL     OW30966   1.899   5.034   8.730
 9842SOL    HW130967   1.952   4.985   8.798
 9842SOL    HW230968   1.921   5.132   8.735
 9843SOL     OW30969   2.594   4.358   8.512
 9843SOL    HW130970   2.653   4.332   8.436
 9843SOL    HW230971   2.566   4.454   8.501
 9844SOL     OW30972   3.590   4.659   9.302
 9844SOL    HW130973   3.544   4.652   9.213
 9844SOL    HW230974   3.528   4.703   9.368
 9845SOL     OW30975   2.169   3.787   8.066
 9845SOL    HW130976   2.158   3.881   8.099
 9845SOL    HW230977   2.164   3.724   8.143
 9846SOL     OW30978   2.885   4.490   8.414
 9846SOL    HW130979   2.900   4.511   8.510
 9846SOL    HW230980   2.855   4.395   8.405
 9847SOL     OW30981   2.842   5.297   9.148
 9847SOL    HW130982   2.822   5.341   9.060
 9847SOL    HW230983   2.881   5.206   9.132
 9848SOL     OW30984   3.721   5.242   9.053
 9848SOL    HW130985   3.735   5.269   8.958
 9848SOL    HW230986   3.804   5.264   9.106
 9849SOL     OW30987   2.212   4.622   9.252
 9849SOL    HW130988   2.288   4.666   9.300
 9849SOL    HW230989   2.247   4.575   9.170
 9850SOL     OW30990   3.402   3.998   7.573
 9850SOL    HW130991   3.341   3.923   7.596
 9850SOL    HW230992   3.424   4.050   7.656
 9851SOL     OW30993   2.930   5.057   8.297
 9851SOL    HW130994   2.937   4.973   8.242
 9851SOL    HW230995   2.992   5.126   8.261
 9852SOL     OW30996   2.181   4.534   8.397
 9852SOL    HW130997   2.274   4.570   8.402
 9852SOL    HW230998   2.175   4.449   8.449
 9853SOL     OW30999   2.201   4.233   8.454
 9853SOL    HW131000   2.149   4.150   8.437
 9853SOL    HW231001   2.278   4.238   8.390
 9854SOL     OW31002   3.022   3.931   8.925
 9854SOL    HW131003   3.022   3.995   9.002
 9854SOL    HW231004   3.050   3.979   8.842
 9855SOL     OW31005   1.870   5.050   7.648
 9855SOL    HW131006   1.777   5.071   7.617
 9855SOL    HW231007   1.880   4.951   7.661
 9856SOL     OW31008   1.950   5.525   8.375
 9856SOL    HW131009   1.908   5.439   8.348
 9856SOL    HW231010   2.044   5.528   8.341
 9857SOL     OW31011   2.366   5.292   8.358
 9857SOL    HW131012   2.432   5.366   8.367
 9857SOL    HW231013   2.410   5.213   8.316
 9858SOL     OW31014   2.864   4.520   8.686
 9858SOL    HW131015   2.905   4.488   8.772
 9858SOL    HW231016   2.768   4.493   8.683
 9859SOL     OW31017   1.902   4.268   8.562
 9859SOL    HW131018   1.987   4.235   8.521
 9859SOL    HW231019   1.915   4.283   8.660
 9860SOL     OW31020   2.051   4.244   9.170
 9860SOL    HW131021   2.110   4.204   9.100
 9860SOL    HW231022   1.993   4.315   9.129
 9861SOL     OW31023   2.677   4.296   7.773
 9861SOL    HW131024   2.684   4.207   7.727
 9861SOL    HW231025   2.583   4.330   7.765
 9862SOL     OW31026   2.114   5.288   9.192
 9862SOL    HW131027   2.084   5.345   9.268
 9862SOL    HW231028   2.107   5.191   9.218
 9863SOL     OW31029   2.533   4.188   8.717
 9863SOL    HW131030   2.499   4.099   8.687
 9863SOL    HW231031   2.559   4.242   8.637
 9864SOL     OW31032   2.792   5.402   8.913
 9864SOL    HW131033   2.768   5.384   8.818
 9864SOL    HW231034   2.822   5.496   8.923
 9865SOL     OW31035   2.335   4.224   7.639
 9865SOL    HW131036   2.396   4.304   7.643
 9865SOL    HW231037   2.240   4.255   7.646
 9866SOL     OW31038   2.021   4.861   8.914
 9866SOL    HW131039   2.043   4.800   8.990
 9866SOL    HW231040   2.031   4.812   8.828
 9867SOL     OW31041   3.209   4.783   8.682
 9867SOL    HW131042   3.233   4.720   8.608
 9867SOL    HW231043   3.119   4.823   8.664
 9868SOL     OW31044   3.621   5.471   8.602
 9868SOL    HW131045   3.682   5.501   8.529
 9868SOL    HW231046   3.583   5.382   8.580
 9869SOL     OW31047   3.114   5.455   8.576
 9869SOL    HW131048   3.198   5.460   8.522
 9869SOL    HW231049   3.091   5.359   8.594
 9870SOL     OW31050   1.945   4.982   8.470
 9870SOL    HW131051   1.940   4.981   8.570
 9870SOL    HW231052   1.862   4.941   8.432
 9871SOL     OW31053   2.550   5.386   9.164
 9871SOL    HW131054   2.494   5.467   9.173
 9871SOL    HW231055   2.602   5.390   9.078
 9872SOL     OW31056   3.588   3.859   7.971
 9872SOL    HW131057   3.661   3.842   7.904
 9872SOL    HW231058   3.557   3.772   8.009
 9873SOL     OW31059   3.250   5.297   7.925
 9873SOL    HW131060   3.317   5.309   7.851
 9873SOL    HW231061   3.210   5.386   7.948
 9874SOL     OW31062   1.992   5.518   9.299
 9874SOL    HW131063   1.951   5.444   9.352
 9874SOL    HW231064   2.056   5.569   9.357
 9875SOL     OW31065   3.142   4.651   8.120
 9875SOL    HW131066   3.202   4.570   8.122
 9875SOL    HW231067   3.182   4.720   8.060
 9876SOL     OW31068   2.692   4.997   8.870
 9876SOL    HW131069   2.687   5.030   8.965
 9876SOL    HW231070   2.606   5.016   8.824
 9877SOL     OW31071   2.534   5.340   7.602
 9877SOL    HW131072   2.543   5.350   7.503
 9877SOL    HW231073   2.494   5.251   7.623
 9878SOL     OW31074   3.512   5.444   8.842
 9878SOL    HW131075   3.565   5.454   8.758
 9878SOL    HW231076   3.485   5.534   8.876
 9879SOL     OW31077   2.125   4.050   8.168
 9879SOL    HW131078   2.046   4.101   8.134
 9879SOL    HW231079   2.116   4.035   8.266
 9880SOL     OW31080   3.056   5.336   7.479
 9880SOL    HW131081   3.062   5.243   7.516
 9880SOL    HW231082   2.997   5.336   7.399
 9881SOL     OW31083   2.684   4.726   8.820
 9881SOL    HW131084   2.724   4.725   8.728
 9881SOL    HW231085   2.694   4.818   8.860
 9882SOL     OW31086   2.778   4.634   7.739
 9882SOL    HW131087   2.841   4.672   7.671
 9882SOL    HW231088   2.818   4.551   7.778
 9883SOL     OW31089   3.366   5.331   7.492
 9883SOL    HW131090   3.274   5.368   7.499
 9883SOL    HW231091   3.404   5.351   7.402
 9884SOL     OW31092   2.234   5.012   8.938
 9884SOL    HW131093   2.221   5.105   8.904
 9884SOL    HW231094   2.150   4.960   8.925
 9885SOL     OW31095   3.476   5.016   8.737
 9885SOL    HW131096   3.536   5.019   8.817
 9885SOL    HW231097   3.401   5.080   8.750
 9886SOL     OW31098   2.901   4.822   8.144
 9886SOL    HW131099   2.831   4.775   8.198
 9886SOL    HW231100   2.960   4.754   8.101
 9887SOL     OW31101   2.876   3.960   8.419
 9887SOL    HW131102   2.868   3.924   8.326
 9887SOL    HW231103   2.874   3.884   8.484
 9888SOL     OW31104   2.452   5.211   7.939
 9888SOL    HW131105   2.494   5.153   7.869
 9888SOL    HW231106   2.408   5.290   7.895
 9889SOL     OW31107   2.117   5.072   7.738
 9889SOL    HW131108   2.021   5.073   7.711
 9889SOL    HW231109   2.129   5.125   7.822
 9890SOL     OW31110   1.967   4.737   9.174
 9890SOL    HW131111   1.890   4.704   9.228
 9890SOL    HW231112   2.052   4.707   9.216
 9891SOL     OW31113   2.534   3.927   8.937
 9891SOL    HW131114   2.624   3.911   8.897
 9891SOL    HW231115   2.542   3.932   9.036
 9892SOL     OW31116   1.937   4.069   7.481
 9892SOL    HW131117   1.845   4.041   7.452
 9892SOL    HW231118   1.968   4.146   7.425
 9893SOL     OW31119   1.934   3.890   7.766
 9893SOL    HW131120   1.917   3.973   7.712
 9893SOL    HW231121   2.024   3.853   7.744
 9894SOL     OW31122   3.045   5.059   7.567
 9894SOL    HW131123   2.946   5.048   7.569
 9894SOL    HW231124   3.079   5.074   7.660
 9895SOL     OW31125   2.475   4.566   8.879
 9895SOL    HW131126   2.531   4.647   8.862
 9895SOL    HW231127   2.534   4.486   8.882
 9896SOL     OW31128   3.355   5.491   8.407
 9896SOL    HW131129   3.388   5.555   8.338
 9896SOL    HW231130   3.421   5.485   8.482
 9897SOL     OW31131   2.578   4.289   9.156
 9897SOL    HW131132   2.597   4.354   9.230
 9897SOL    HW231133   2.638   4.209   9.165
 9898SOL     OW31134   2.252   5.465   9.008
 9898SOL    HW131135   2.161   5.506   9.006
 9898SOL    HW231136   2.245   5.371   9.040
 9899SOL     OW31137   2.456   4.469   8.100
 9899SOL    HW131138   2.506   4.554   8.081
 9899SOL    HW231139   2.368   4.471   8.052
 9900SOL     OW31140   2.721   5.098   7.464
 9900SOL    HW131141   2.675   5.113   7.552
 9900SOL    HW231142   2.765   5.183   7.434
 9901SOL     OW31143   2.523   5.514   8.401
 9901SOL    HW131144   2.477   5.602   8.388
 9901SOL    HW231145   2.622   5.526   8.394
 9902SOL     OW31146   2.721   4.680   8.309
 9902SOL    HW131147   2.775   4.611   8.357
 9902SOL    HW231148   2.689   4.749   8.375
 9903SOL     OW31149   2.945   4.708   7.535
 9903SOL    HW131150   2.922   4.761   7.453
 9903SOL    HW231151   3.026   4.652   7.516
 9904SOL     OW31152   3.723   5.293   8.299
 9904SOL    HW131153   3.652   5.281   8.229
 9904SOL    HW231154   3.724   5.214   8.359
 9905SOL     OW31155   2.083   5.038   9.292
 9905SOL    HW131156   2.018   4.965   9.271
 9905SOL    HW231157   2.087   5.052   9.390
 9906SOL     OW31158   1.941   4.964   8.101
 9906SOL    HW131159   1.940   4.917   8.189
 9906SOL    HW231160   2.023   4.936   8.050
 9907SOL     OW31161   2.534   5.115   9.072
 9907SOL    HW131162   2.456   5.065   9.110
 9907SOL    HW231163   2.531   5.210   9.103
 9908SOL     OW31164   2.290   4.148   7.968
 9908SOL    HW131165   2.320   4.076   7.906
 9908SOL    HW231166   2.251   4.108   8.051
 9909SOL     OW31167   3.567   5.211   8.552
 9909SOL    HW131168   3.474   5.186   8.525
 9909SOL    HW231169   3.593   5.161   8.634
 9910SOL     OW31170   2.179   4.271   8.728
 9910SOL    HW131171   2.217   4.212   8.800
 9910SOL    HW231172   2.219   4.245   8.640
 9911SOL     OW31173   2.674   5.310   8.135
 9911SOL    HW131174   2.706   5.320   8.041
 9911SOL    HW231175   2.595   5.248   8.137
 9912SOL     OW31176   2.863   3.758   8.602
 9912SOL    HW131177   2.800   3.686   8.571
 9912SOL    HW231178   2.956   3.722   8.602
 9913SOL     OW31179   2.632   5.054   7.749
 9913SOL    HW131180   2.586   4.967   7.766
 9913SOL    HW231181   2.723   5.051   7.790
 9914SOL     OW31182   2.480   5.291   8.732
 9914SOL    HW131183   2.475   5.373   8.789
 9914SOL    HW231184   2.569   5.288   8.687
 9915SOL     OW31185   3.214   3.776   7.616
 9915SOL    HW131186   3.249   3.735   7.532
 9915SOL    HW231187   3.124   3.738   7.636
 9916SOL     OW31188   1.901   4.801   7.748
 9916SOL    HW131189   2.000   4.790   7.739
 9916SOL    HW231190   1.861   4.715   7.780
 9917SOL     OW31191   2.737   5.370   7.785
 9917SOL    HW131192   2.660   5.335   7.731
 9917SOL    HW231193   2.705   5.441   7.847
 9918SOL     OW31194   2.092   4.352   9.423
 9918SOL    HW131195   1.999   4.350   9.460
 9918SOL    HW231196   2.093   4.313   9.331
 9919SOL     OW31197   2.087   3.999  10.306
 9919SOL    HW131198   2.122   3.982  10.398
 9919SOL    HW231199   1.999   3.954  10.294
 9920SOL     OW31200   1.881   4.092   9.957
 9920SOL    HW131201   1.799   4.135   9.996
 9920SOL    HW231202   1.853   4.019   9.894
 9921SOL     OW31203   2.431   4.999  10.475
 9921SOL    HW131204   2.338   4.992  10.438
 9921SOL    HW231205   2.442   5.088  10.519
 9922SOL     OW31206   3.417   5.235  10.013
 9922SOL    HW131207   3.360   5.219  10.094
 9922SOL    HW231208   3.358   5.245   9.933
 9923SOL     OW31209   2.997   4.427  10.027
 9923SOL    HW131210   3.054   4.505  10.002
 9923SOL    HW231211   2.937   4.453  10.103
 9924SOL     OW31212   3.617   4.331   9.541
 9924SOL    HW131213   3.605   4.318   9.442
 9924SOL    HW231214   3.587   4.250   9.590
 9925SOL     OW31215   2.630   4.868  10.333
 9925SOL    HW131216   2.552   4.885  10.393
 9925SOL    HW231217   2.664   4.955  10.297
 9926SOL     OW31218   2.712   4.522  11.133
 9926SOL    HW131219   2.708   4.598  11.198
 9926SOL    HW231220   2.734   4.558  11.042
 9927SOL     OW31221   2.547   4.736   9.975
 9927SOL    HW131222   2.616   4.720  10.045
 9927SOL    HW231223   2.474   4.793  10.013
 9928SOL     OW31224   2.548   4.885  11.113
 9928SOL    HW131225   2.608   4.964  11.127
 9928SOL    HW231226   2.462   4.916  11.072
 9929SOL     OW31227   2.197   5.159  10.371
 9929SOL    HW131228   2.119   5.128  10.318
 9929SOL    HW231229   2.255   5.217  10.314
 9930SOL     OW31230   3.322   5.229  10.649
 9930SOL    HW131231   3.346   5.323  10.675
 9930SOL    HW231232   3.306   5.175  10.731
 9931SOL     OW31233   2.300   4.116  10.809
 9931SOL    HW131234   2.382   4.060  10.818
 9931SOL    HW231235   2.219   4.058  10.813
 9932SOL     OW31236   3.465   4.171  10.047
 9932SOL    HW131237   3.391   4.217   9.997
 9932SOL    HW231238   3.516   4.239  10.100
 9933SOL     OW31239   2.093   5.437   9.793
 9933SOL    HW131240   2.127   5.514   9.847
 9933SOL    HW231241   2.137   5.437   9.703
 9934SOL     OW31242   2.989   5.065  11.000
 9934SOL    HW131243   3.036   5.065  11.088
 9934SOL    HW231244   2.941   4.978  10.989
 9935SOL     OW31245   2.092   5.158   9.848
 9935SOL    HW131246   2.066   5.254   9.848
 9935SOL    HW231247   2.021   5.104   9.893
 9936SOL     OW31248   2.102   4.815  10.196
 9936SOL    HW131249   2.116   4.731  10.248
 9936SOL    HW231250   2.047   4.879  10.251
 9937SOL     OW31251   2.482   5.510  10.749
 9937SOL    HW131252   2.390   5.493  10.784
 9937SOL    HW231253   2.510   5.602  10.775
 9938SOL     OW31254   2.468   4.688   9.433
 9938SOL    HW131255   2.475   4.772   9.379
 9938SOL    HW231256   2.514   4.701   9.521
 9939SOL     OW31257   3.456   3.838  10.790
 9939SOL    HW131258   3.438   3.905  10.718
 9939SOL    HW231259   3.453   3.884  10.879
 9940SOL     OW31260   1.984   4.367   9.873
 9940SOL    HW131261   1.939   4.279   9.890
 9940SOL    HW231262   1.983   4.421   9.957
 9941SOL     OW31263   3.704   5.491   9.669
 9941SOL    HW131264   3.758   5.462   9.749
 9941SOL    HW231265   3.734   5.581   9.640
 9942SOL     OW31266   1.889   5.320   9.427
 9942SOL    HW131267   1.870   5.224   9.448
 9942SOL    HW231268   1.856   5.378   9.502
 9943SOL     OW31269   3.551   4.646   9.922
 9943SOL    HW131270   3.646   4.617   9.930
 9943SOL    HW231271   3.543   4.711   9.847
 9944SOL     OW31272   3.503   4.832   9.742
 9944SOL    HW131273   3.589   4.834   9.690
 9944SOL    HW231274   3.517   4.879   9.830
 9945SOL     OW31275   1.975   4.461  10.907
 9945SOL    HW131276   2.063   4.448  10.952
 9945SOL    HW231277   1.962   4.558  10.885
 9946SOL     OW31278   2.475   5.089  10.036
 9946SOL    HW131279   2.426   5.002  10.045
 9946SOL    HW231280   2.452   5.132   9.949
 9947SOL     OW31281   3.155   4.952  10.733
 9947SOL    HW131282   3.192   4.879  10.675
 9947SOL    HW231283   3.207   4.957  10.818
 9948SOL     OW31284   2.671   3.728   9.812
 9948SOL    HW131285   2.711   3.819   9.803
 9948SOL    HW231286   2.571   3.736   9.818
 9949SOL     OW31287   2.059   4.700  10.574
 9949SOL    HW131288   2.148   4.655  10.560
 9949SOL    HW231289   1.986   4.635  10.555
 9950SOL     OW31290   3.387   4.723   9.500
 9950SOL    HW131291   3.324   4.647   9.513
 9950SOL    HW231292   3.435   4.741   9.586
 9951SOL     OW31293   3.049   5.516  10.926
 9951SOL    HW131294   3.073   5.576  10.850
 9951SOL    HW231295   3.056   5.421  10.896
 9952SOL     OW31296   2.179   3.975  11.111
 9952SOL    HW131297   2.250   4.046  11.117
 9952SOL    HW231298   2.091   4.014  11.139
 9953SOL     OW31299   3.328   5.141  10.263
 9953SOL    HW131300   3.269   5.147  10.343
 9953SOL    HW231301   3.313   5.053  10.217
 9954SOL     OW31302   3.529   5.438   9.882
 9954SOL    HW131303   3.488   5.415   9.794
 9954SOL    HW231304   3.511   5.364   9.947
 9955SOL     OW31305   2.460   4.453   9.580
 9955SOL    HW131306   2.484   4.522   9.512
 9955SOL    HW231307   2.382   4.486   9.634
 9956SOL     OW31308   3.143   4.069  10.254
 9956SOL    HW131309   3.057   4.019  10.241
 9956SOL    HW231310   3.205   4.015  10.310
 9957SOL     OW31311   3.438   5.386   9.617
 9957SOL    HW131312   3.527   5.432   9.620
 9957SOL    HW231313   3.417   5.362   9.522
 9958SOL     OW31314   2.669   4.329  10.775
 9958SOL    HW131315   2.622   4.326  10.864
 9958SOL    HW231316   2.618   4.274  10.709
 9959SOL     OW31317   3.256   4.193  10.984
 9959SOL    HW131318   3.236   4.236  11.072
 9959SOL    HW231319   3.334   4.131  10.993
 9960SOL     OW31320   2.835   4.614  10.882
 9960SOL    HW131321   2.881   4.530  10.853
 9960SOL    HW231322   2.779   4.648  10.807
 9961SOL     OW31323   2.853   4.134  10.552
 9961SOL    HW131324   2.776   4.168  10.606
 9961SOL    HW231325   2.819   4.083  10.473
 9962SOL     OW31326   2.903   4.425   9.739
 9962SOL    HW131327   2.929   4.421   9.835
 9962SOL    HW231328   2.818   4.374   9.725
 9963SOL     OW31329   1.938   4.535  10.099
 9963SOL    HW131330   2.037   4.523  10.108
 9963SOL    HW231331   1.914   4.630  10.120
 9964SOL     OW31332   1.992   5.545  10.881
 9964SOL    HW131333   1.982   5.530  10.980
 9964SOL    HW231334   1.906   5.581  10.845
 9965SOL     OW31335   2.727   4.072   9.505
 9965SOL    HW131336   2.786   4.135   9.456
 9965SOL    HW231337   2.746   3.978   9.476
 9966SOL     OW31338   3.581   4.309  11.141
 9966SOL    HW131339   3.555   4.398  11.105
 9966SOL    HW231340   3.579   4.241  11.068
 9967SOL     OW31341   3.224   4.868   9.855
 9967SOL    HW131342   3.307   4.839   9.807
 9967SOL    HW231343   3.175   4.935   9.799
 9968SOL     OW31344   2.412   3.920  10.195
 9968SOL    HW131345   2.407   3.915  10.295
 9968SOL    HW231346   2.414   4.016  10.166
 9969SOL     OW31347   2.870   5.180   9.787
 9969SOL    HW131348   2.824   5.252   9.735
 9969SOL    HW231349   2.866   5.200   9.885
 9970SOL     OW31350   2.213   5.525  10.163
 9970SOL    HW131351   2.263   5.439  10.169
 9970SOL    HW231352   2.278   5.602  10.160
 9971SOL     OW31353   3.657   4.790  10.183
 9971SOL    HW131354   3.595   4.775  10.107
 9971SOL    HW231355   3.605   4.801  10.268
 9972SOL     OW31356   3.089   5.274  10.816
 9972SOL    HW131357   3.095   5.197  10.880
 9972SOL    HW231358   3.037   5.248  10.736
 9973SOL     OW31359   2.183   4.667   9.552
 9973SOL    HW131360   2.265   4.706   9.510
 9973SOL    HW231361   2.156   4.585   9.503
 9974SOL     OW31362   3.320   4.459  10.038
 9974SOL    HW131363   3.315   4.394  10.113
 9974SOL    HW231364   3.400   4.518  10.051
 9975SOL     OW31365   2.323   4.990  11.037
 9975SOL    HW131366   2.273   4.991  10.951
 9975SOL    HW231367   2.260   4.972  11.113
 9976SOL     OW31368   2.973   5.500   9.547
 9976SOL    HW131369   2.913   5.438   9.597
 9976SOL    HW231370   3.004   5.456   9.462
 9977SOL     OW31371   2.064   4.009  10.808
 9977SOL    HW131372   1.984   4.069  10.795
 9977SOL    HW231373   2.054   3.960  10.894
 9978SOL     OW31374   3.494   5.101   9.391
 9978SOL    HW131375   3.462   5.195   9.381
 9978SOL    HW231376   3.418   5.038   9.379
 9979SOL     OW31377   2.326   5.467   9.633
 9979SOL    HW131378   2.359   5.506   9.719
 9979SOL    HW231379   2.402   5.460   9.568
 9980SOL     OW31380   2.111   5.509  10.551
 9980SOL    HW131381   2.168   5.444  10.601
 9980SOL    HW231382   2.095   5.476  10.458
 9981SOL     OW31383   2.802   5.422  10.214
 9981SOL    HW131384   2.882   5.365  10.235
 9981SOL    HW231385   2.753   5.382  10.137
 9982SOL     OW31386   2.244   4.424   9.790
 9982SOL    HW131387   2.289   4.334   9.787
 9982SOL    HW231388   2.150   4.413   9.823
 9983SOL     OW31389   3.409   3.946  11.039
 9983SOL    HW131390   3.404   3.983  11.131
 9983SOL    HW231391   3.337   3.877  11.027
 9984SOL     OW31392   2.476   3.846   9.427
 9984SOL    HW131393   2.574   3.824   9.434
 9984SOL    HW231394   2.445   3.829   9.334
 9985SOL     OW31395   2.643   3.988  11.059
 9985SOL    HW131396   2.710   3.927  11.102
 9985SOL    HW231397   2.570   4.007  11.124
 9986SOL     OW31398   2.750   5.238  10.505
 9986SOL    HW131399   2.727   5.213  10.411
 9986SOL    HW231400   2.811   5.169  10.544
 9987SOL     OW31401   3.213   4.314  10.743
 9987SOL    HW131402   3.241   4.271  10.828
 9987SOL    HW231403   3.238   4.410  10.744
 9988SOL     OW31404   2.665   5.126  10.234
 9988SOL    HW131405   2.755   5.140  10.192
 9988SOL    HW231406   2.594   5.128  10.163
 9989SOL     OW31407   2.784   4.227  10.209
 9989SOL    HW131408   2.759   4.218  10.113
 9989SOL    HW231409   2.832   4.145  10.240
 9990SOL     OW31410   2.401   3.788   9.822
 9990SOL    HW131411   2.320   3.789   9.880
 9990SOL    HW231412   2.404   3.871   9.767
 9991SOL     OW31413   3.296   4.912   9.351
 9991SOL    HW131414   3.328   4.836   9.408
 9991SOL    HW231415   3.204   4.939   9.381
 9992SOL     OW31416   2.159   3.759   9.481
 9992SOL    HW131417   2.208   3.843   9.460
 9992SOL    HW231418   2.221   3.694   9.526
 9993SOL     OW31419   2.797   3.960   9.790
 9993SOL    HW131420   2.749   4.001   9.712
 9993SOL    HW231421   2.896   3.958   9.771
 9994SOL     OW31422   2.938   4.407  10.774
 9994SOL    HW131423   2.858   4.346  10.777
 9994SOL    HW231424   3.019   4.354  10.750
 9995SOL     OW31425   3.089   5.294  10.103
 9995SOL    HW131426   3.110   5.368  10.038
 9995SOL    HW231427   3.157   5.294  10.176
 9996SOL     OW31428   2.321   4.876  10.051
 9996SOL    HW131429   2.250   4.849  10.116
 9996SOL    HW231430   2.295   4.848   9.958
 9997SOL     OW31431   3.133   5.521   9.901
 9997SOL    HW131432   3.177   5.585   9.837
 9997SOL    HW231433   3.083   5.573   9.971
 9998SOL     OW31434   2.894   4.273   9.326
 9998SOL    HW131435   2.853   4.355   9.287
 9998SOL    HW231436   2.958   4.299   9.399
 9999SOL     OW31437   1.940   4.280  10.696
 9999SOL    HW131438   2.032   4.279  10.655
 9999SOL    HW231439   1.934   4.354  10.763
10000SOL     OW31440   2.423   3.946  10.457
10000SOL    HW131441   2.461   3.862  10.494
10000SOL    HW231442   2.335   3.965  10.501
10001SOL     OW31443   2.728   4.178   9.952
10001SOL    HW131444   2.696   4.250   9.890
10001SOL    HW231445   2.752   4.097   9.899
10002SOL     OW31446   2.879   3.763  10.063
10002SOL    HW131447   2.807   3.768   9.994
10002SOL    HW231448   2.855   3.694  10.132
10003SOL     OW31449   3.291   4.897  10.177
10003SOL    HW131450   3.236   4.813  10.170
10003SOL    HW231451   3.317   4.926  10.085
10004SOL     OW31452   3.328   4.314  10.302
10004SOL    HW131453   3.298   4.219  10.309
10004SOL    HW231454   3.401   4.330  10.368
10005SOL     OW31455   3.719   4.557   9.687
10005SOL    HW131456   3.761   4.493   9.751
10005SOL    HW231457   3.681   4.506   9.609
10006SOL     OW31458   2.350   5.109   9.484
10006SOL    HW131459   2.263   5.094   9.531
10006SOL    HW231460   2.333   5.135   9.389
10007SOL     OW31461   3.526   5.004   9.967
10007SOL    HW131462   3.625   5.012   9.981
10007SOL    HW231463   3.481   5.088   9.998
10008SOL     OW31464   2.389   3.980   9.638
10008SOL    HW131465   2.416   3.921   9.563
10008SOL    HW231466   2.389   4.075   9.607
10009SOL     OW31467   3.616   4.947  10.898
10009SOL    HW131468   3.707   4.908  10.885
10009SOL    HW231469   3.624   5.043  10.922
10010SOL     OW31470   2.926   5.071  10.650
10010SOL    HW131471   2.846   5.048  10.705
10010SOL    HW231472   3.009   5.045  10.699
10011SOL     OW31473   3.454   5.353  10.935
10011SOL    HW131474   3.481   5.387  10.845
10011SOL    HW231475   3.533   5.315  10.981
10012SOL     OW31476   2.973   4.919  10.410
10012SOL    HW131477   2.933   4.963  10.491
10012SOL    HW231478   2.932   4.956  10.327
10013SOL     OW31479   3.500   4.823  10.389
10013SOL    HW131480   3.505   4.904  10.448
10013SOL    HW231481   3.414   4.825  10.338
10014SOL     OW31482   2.777   3.813  10.712
10014SOL    HW131483   2.802   3.793  10.617
10014SOL    HW231484   2.849   3.869  10.754
10015SOL     OW31485   2.842   4.840  11.029
10015SOL    HW131486   2.743   4.846  11.039
10015SOL    HW231487   2.865   4.760  10.973
10016SOL     OW31488   2.567   4.774   9.678
10016SOL    HW131489   2.553   4.781   9.777
10016SOL    HW231490   2.651   4.723   9.660
10017SOL     OW31491   2.272   4.537  10.561
10017SOL    HW131492   2.358   4.549  10.611
10017SOL    HW231493   2.230   4.450  10.588
10018SOL     OW31494   3.136   4.110  10.572
10018SOL    HW131495   3.157   4.184  10.636
10018SOL    HW231496   3.047   4.127  10.529
10019SOL     OW31497   1.926   5.288  10.641
10019SOL    HW131498   1.880   5.370  10.607
10019SOL    HW231499   2.024   5.307  10.650
10020SOL     OW31500   2.229   4.824   9.811
10020SOL    HW131501   2.222   4.907   9.755
10020SOL    HW231502   2.233   4.744   9.751
10021SOL     OW31503   2.428   4.261  10.175
10021SOL    HW131504   2.440   4.327  10.101
10021SOL    HW231505   2.474   4.295  10.258
10022SOL     OW31506   3.114   5.072   9.698
10022SOL    HW131507   3.164   5.149   9.738
10022SOL    HW231508   3.019   5.074   9.730
10023SOL     OW31509   3.134   5.169  10.452
10023SOL    HW131510   3.181   5.182  10.539
10023SOL    HW231511   3.068   5.095  10.461
10024SOL     OW31512   3.444   4.363   9.782
10024SOL    HW131513   3.413   4.424   9.855
10024SOL    HW231514   3.494   4.415   9.713
10025SOL     OW31515   2.216   5.234  10.639
10025SOL    HW131516   2.195   5.190  10.552
10025SOL    HW231517   2.313   5.260  10.642
10026SOL     OW31518   2.264   4.475  10.908
10026SOL    HW131519   2.332   4.530  10.861
10026SOL    HW231520   2.304   4.387  10.935
10027SOL     OW31521   3.449   4.503  10.980
10027SOL    HW131522   3.357   4.541  10.975
10027SOL    HW231523   3.509   4.550  10.915
10028SOL     OW31524   2.875   3.829  11.080
10028SOL    HW131525   2.881   3.914  11.028
10028SOL    HW231526   2.907   3.753  11.023
10029SOL     OW31527   2.366   3.774  11.050
10029SOL    HW131528   2.324   3.717  10.980
10029SOL    HW231529   2.300   3.843  11.082
10030SOL     OW31530   2.435   4.594  10.339
10030SOL    HW131531   2.479   4.683  10.330
10030SOL    HW231532   2.372   4.594  10.416
10031SOL     OW31533   3.222   4.586  10.355
10031SOL    HW131534   3.147   4.586  10.289
10031SOL    HW231535   3.259   4.494  10.364
10032SOL     OW31536   3.071   4.249   9.585
10032SOL    HW131537   3.084   4.165   9.639
10032SOL    HW231538   3.042   4.323   9.645
10033SOL     OW31539   2.169   3.937  10.541
10033SOL    HW131540   2.146   3.974  10.631
10033SOL    HW231541   2.139   3.842  10.535
10034SOL     OW31542   1.899   5.034  10.592
10034SOL    HW131543   1.952   4.985  10.660
10034SOL    HW231544   1.921   5.132  10.597
10035SOL     OW31545   2.594   4.358  10.374
10035SOL    HW131546   2.653   4.332  10.298
10035SOL    HW231547   2.566   4.454  10.363
10036SOL     OW31548   3.590   4.659  11.164
10036SOL    HW131549   3.544   4.652  11.075
10036SOL    HW231550   3.528   4.703  11.230
10037SOL     OW31551   2.169   3.787   9.928
10037SOL    HW131552   2.158   3.881   9.961
10037SOL    HW231553   2.164   3.724  10.005
10038SOL     OW31554   3.484   4.091   9.684
10038SOL    HW131555   3.486   4.015   9.748
10038SOL    HW231556   3.436   4.168   9.724
10039SOL     OW31557   2.885   4.490  10.276
10039SOL    HW131558   2.900   4.511  10.372
10039SOL    HW231559   2.855   4.395  10.267
10040SOL     OW31560   2.842   5.297  11.010
10040SOL    HW131561   2.822   5.341  10.922
10040SOL    HW231562   2.881   5.206  10.994
10041SOL     OW31563   3.721   5.242  10.915
10041SOL    HW131564   3.735   5.269  10.820
10041SOL    HW231565   3.804   5.264  10.968
10042SOL     OW31566   2.212   4.622  11.114
10042SOL    HW131567   2.288   4.666  11.162
10042SOL    HW231568   2.247   4.575  11.032
10043SOL     OW31569   2.930   5.057  10.159
10043SOL    HW131570   2.937   4.973  10.104
10043SOL    HW231571   2.992   5.126  10.123
10044SOL     OW31572   2.181   4.534  10.259
10044SOL    HW131573   2.274   4.570  10.264
10044SOL    HW231574   2.175   4.449  10.311
10045SOL     OW31575   2.201   4.233  10.316
10045SOL    HW131576   2.149   4.150  10.299
10045SOL    HW231577   2.278   4.238  10.252
10046SOL     OW31578   3.000   4.104  10.988
10046SOL    HW131579   2.955   4.167  11.052
10046SOL    HW231580   3.093   4.135  10.971
10047SOL     OW31581   3.022   3.931  10.787
10047SOL    HW131582   3.022   3.995  10.864
10047SOL    HW231583   3.050   3.979  10.704
10048SOL     OW31584   1.870   5.050   9.510
10048SOL    HW131585   1.777   5.071   9.479
10048SOL    HW231586   1.880   4.951   9.523
10049SOL     OW31587   1.950   5.525  10.237
10049SOL    HW131588   1.908   5.439  10.210
10049SOL    HW231589   2.044   5.528  10.203
10050SOL     OW31590   2.366   5.292  10.220
10050SOL    HW131591   2.432   5.366  10.229
10050SOL    HW231592   2.410   5.213  10.178
10051SOL     OW31593   2.864   4.520  10.548
10051SOL    HW131594   2.905   4.488  10.634
10051SOL    HW231595   2.768   4.493  10.545
10052SOL     OW31596   1.902   4.268  10.424
10052SOL    HW131597   1.987   4.235  10.383
10052SOL    HW231598   1.915   4.283  10.522
10053SOL     OW31599   2.051   4.244  11.032
10053SOL    HW131600   2.110   4.204  10.962
10053SOL    HW231601   1.993   4.315  10.991
10054SOL     OW31602   3.231   4.674  10.970
10054SOL    HW131603   3.270   4.763  10.990
10054SOL    HW231604   3.241   4.654  10.873
10055SOL     OW31605   2.677   4.296   9.635
10055SOL    HW131606   2.684   4.207   9.589
10055SOL    HW231607   2.583   4.330   9.627
10056SOL     OW31608   3.519   4.328  10.516
10056SOL    HW131609   3.481   4.259  10.578
10056SOL    HW231610   3.601   4.292  10.472
10057SOL     OW31611   2.114   5.288  11.054
10057SOL    HW131612   2.084   5.345  11.130
10057SOL    HW231613   2.107   5.191  11.080
10058SOL     OW31614   2.533   4.188  10.579
10058SOL    HW131615   2.499   4.099  10.549
10058SOL    HW231616   2.559   4.242  10.499
10059SOL     OW31617   2.792   5.402  10.775
10059SOL    HW131618   2.768   5.384  10.680
10059SOL    HW231619   2.822   5.496  10.785
10060SOL     OW31620   2.335   4.224   9.501
10060SOL    HW131621   2.396   4.304   9.505
10060SOL    HW231622   2.240   4.255   9.508
10061SOL     OW31623   2.021   4.861  10.776
10061SOL    HW131624   2.043   4.800  10.852
10061SOL    HW231625   2.031   4.812  10.690
10062SOL     OW31626   3.209   4.783  10.544
10062SOL    HW131627   3.233   4.720  10.470
10062SOL    HW231628   3.119   4.823  10.526
10063SOL     OW31629   3.164   4.579   9.619
10063SOL    HW131630   3.078   4.548   9.661
10063SOL    HW231631   3.160   4.565   9.520
10064SOL     OW31632   3.621   5.471  10.464
10064SOL    HW131633   3.682   5.501  10.391
10064SOL    HW231634   3.583   5.382  10.442
10065SOL     OW31635   3.114   5.455  10.438
10065SOL    HW131636   3.198   5.460  10.384
10065SOL    HW231637   3.091   5.359  10.456
10066SOL     OW31638   1.945   4.982  10.332
10066SOL    HW131639   1.940   4.981  10.432
10066SOL    HW231640   1.862   4.941  10.294
10067SOL     OW31641   2.550   5.386  11.026
10067SOL    HW131642   2.494   5.467  11.035
10067SOL    HW231643   2.602   5.390  10.940
10068SOL     OW31644   3.588   3.859   9.833
10068SOL    HW131645   3.661   3.842   9.766
10068SOL    HW231646   3.557   3.772   9.871
10069SOL     OW31647   3.250   5.297   9.787
10069SOL    HW131648   3.317   5.309   9.713
10069SOL    HW231649   3.210   5.386   9.810
10070SOL     OW31650   1.992   5.518  11.161
10070SOL    HW131651   1.951   5.444  11.214
10070SOL    HW231652   2.056   5.569  11.219
10071SOL     OW31653   3.142   4.651   9.982
10071SOL    HW131654   3.202   4.570   9.984
10071SOL    HW231655   3.182   4.720   9.922
10072SOL     OW31656   2.692   4.997  10.732
10072SOL    HW131657   2.687   5.030  10.827
10072SOL    HW231658   2.606   5.016  10.686
10073SOL     OW31659   2.534   5.340   9.464
10073SOL    HW131660   2.543   5.350   9.365
10073SOL    HW231661   2.494   5.251   9.485
10074SOL     OW31662   3.512   5.444  10.704
10074SOL    HW131663   3.565   5.454  10.620
10074SOL    HW231664   3.485   5.534  10.738
10075SOL     OW31665   3.703   3.899  10.273
10075SOL    HW131666   3.742   3.814  10.237
10075SOL    HW231667   3.605   3.901  10.254
10076SOL     OW31668   2.125   4.050  10.030
10076SOL    HW131669   2.046   4.101   9.996
10076SOL    HW231670   2.116   4.035  10.128
10077SOL     OW31671   3.056   5.336   9.341
10077SOL    HW131672   3.062   5.243   9.378
10077SOL    HW231673   2.997   5.336   9.261
10078SOL     OW31674   2.684   4.726  10.682
10078SOL    HW131675   2.724   4.725  10.590
10078SOL    HW231676   2.694   4.818  10.722
10079SOL     OW31677   2.778   4.634   9.601
10079SOL    HW131678   2.841   4.672   9.533
10079SOL    HW231679   2.818   4.551   9.640
10080SOL     OW31680   3.366   5.331   9.354
10080SOL    HW131681   3.274   5.368   9.361
10080SOL    HW231682   3.404   5.351   9.264
10081SOL     OW31683   2.234   5.012  10.800
10081SOL    HW131684   2.221   5.105  10.766
10081SOL    HW231685   2.150   4.960  10.787
10082SOL     OW31686   3.476   5.016  10.599
10082SOL    HW131687   3.536   5.019  10.679
10082SOL    HW231688   3.401   5.080  10.612
10083SOL     OW31689   2.901   4.822  10.006
10083SOL    HW131690   2.831   4.775  10.060
10083SOL    HW231691   2.960   4.754   9.963
10084SOL     OW31692   2.876   3.960  10.281
10084SOL    HW131693   2.868   3.924  10.188
10084SOL    HW231694   2.874   3.884  10.346
10085SOL     OW31695   2.452   5.211   9.801
10085SOL    HW131696   2.494   5.153   9.731
10085SOL    HW231697   2.408   5.290   9.757
10086SOL     OW31698   3.571   4.109  10.691
10086SOL    HW131699   3.644   4.178  10.695
10086SOL    HW231700   3.599   4.034  10.632
10087SOL     OW31701   2.117   5.072   9.600
10087SOL    HW131702   2.021   5.073   9.573
10087SOL    HW231703   2.129   5.125   9.684
10088SOL     OW31704   1.967   4.737  11.036
10088SOL    HW131705   1.890   4.704  11.090
10088SOL    HW231706   2.052   4.707  11.078
10089SOL     OW31707   2.534   3.927  10.799
10089SOL    HW131708   2.624   3.911  10.759
10089SOL    HW231709   2.542   3.932  10.898
10090SOL     OW31710   1.937   4.069   9.343
10090SOL    HW131711   1.845   4.041   9.314
10090SOL    HW231712   1.968   4.146   9.287
10091SOL     OW31713   3.302   4.580  10.708
10091SOL    HW131714   3.245   4.632  10.645
10091SOL    HW231715   3.398   4.592  10.684
10092SOL     OW31716   1.934   3.890   9.628
10092SOL    HW131717   1.917   3.973   9.574
10092SOL    HW231718   2.024   3.853   9.606
10093SOL     OW31719   3.045   5.059   9.429
10093SOL    HW131720   2.946   5.048   9.431
10093SOL    HW231721   3.079   5.074   9.522
10094SOL     OW31722   2.475   4.566  10.741
10094SOL    HW131723   2.531   4.647  10.724
10094SOL    HW231724   2.534   4.486  10.744
10095SOL     OW31725   3.355   5.491  10.269
10095SOL    HW131726   3.388   5.555  10.200
10095SOL    HW231727   3.421   5.485  10.344
10096SOL     OW31728   2.578   4.289  11.018
10096SOL    HW131729   2.597   4.354  11.092
10096SOL    HW231730   2.638   4.209  11.027
10097SOL     OW31731   3.312   4.944  10.943
10097SOL    HW131732   3.303   4.934  11.042
10097SOL    HW231733   3.408   4.937  10.917
10098SOL     OW31734   2.252   5.465  10.870
10098SOL    HW131735   2.161   5.506  10.868
10098SOL    HW231736   2.245   5.371  10.902
10099SOL     OW31737   3.536   4.607  10.564
10099SOL    HW131738   3.509   4.518  10.527
10099SOL    HW231739   3.537   4.675  10.491
10100SOL     OW31740   3.087   4.049   9.759
10100SOL    HW131741   3.152   3.975   9.748
10100SOL    HW231742   3.107   4.099   9.843
10101SOL     OW31743   2.456   4.469   9.962
10101SOL    HW131744   2.506   4.554   9.943
10101SOL    HW231745   2.368   4.471   9.914
10102SOL     OW31746   3.639   4.066  10.952
10102SOL    HW131747   3.622   4.097  10.858
10102SOL    HW231748   3.555   4.029  10.990
10103SOL     OW31749   3.592   4.658  10.827
10103SOL    HW131750   3.630   4.749  10.842
10103SOL    HW231751   3.584   4.641  10.728
10104SOL     OW31752   2.721   5.098   9.326
10104SOL    HW131753   2.675   5.113   9.414
10104SOL    HW231754   2.765   5.183   9.296
10105SOL     OW31755   2.523   5.514  10.263
10105SOL    HW131756   2.477   5.602  10.250
10105SOL    HW231757   2.622   5.526  10.256
10106SOL     OW31758   2.721   4.680  10.171
10106SOL    HW131759   2.775   4.611  10.219
10106SOL    HW231760   2.689   4.749  10.237
10107SOL     OW31761   2.945   4.708   9.397
10107SOL    HW131762   2.922   4.761   9.315
10107SOL    HW231763   3.026   4.652   9.378
10108SOL     OW31764   3.723   5.293  10.161
10108SOL    HW131765   3.652   5.281  10.091
10108SOL    HW231766   3.724   5.214  10.221
10109SOL     OW31767   2.083   5.038  11.154
10109SOL    HW131768   2.018   4.965  11.133
10109SOL    HW231769   2.087   5.052  11.252
10110SOL     OW31770   1.941   4.964   9.963
10110SOL    HW131771   1.940   4.917  10.051
10110SOL    HW231772   2.023   4.936   9.912
10111SOL     OW31773   2.534   5.115  10.934
10111SOL    HW131774   2.456   5.065  10.972
10111SOL    HW231775   2.531   5.210  10.965
10112SOL     OW31776   3.686   3.916  10.537
10112SOL    HW131777   3.682   3.826  10.581
10112SOL    HW231778   3.689   3.905  10.438
10113SOL     OW31779   2.290   4.148   9.830
10113SOL    HW131780   2.320   4.076   9.768
10113SOL    HW231781   2.251   4.108   9.913
10114SOL     OW31782   3.567   5.211  10.414
10114SOL    HW131783   3.474   5.186  10.387
10114SOL    HW231784   3.593   5.161  10.496
10115SOL     OW31785   2.179   4.271  10.590
10115SOL    HW131786   2.217   4.212  10.662
10115SOL    HW231787   2.219   4.245  10.502
10116SOL     OW31788   2.674   5.310   9.997
10116SOL    HW131789   2.706   5.320   9.903
10116SOL    HW231790   2.595   5.248   9.999
10117SOL     OW31791   3.286   3.938  10.422
10117SOL    HW131792   3.338   3.873  10.477
10117SOL    HW231793   3.237   4.001  10.483
10118SOL     OW31794   2.863   3.758  10.464
10118SOL    HW131795   2.800   3.686  10.433
10118SOL    HW231796   2.956   3.722  10.464
10119SOL     OW31797   2.632   5.054   9.611
10119SOL    HW131798   2.586   4.967   9.628
10119SOL    HW231799   2.723   5.051   9.652
10120SOL     OW31800   2.480   5.291  10.594
10120SOL    HW131801   2.475   5.373  10.651
10120SOL    HW231802   2.569   5.288  10.549
10121SOL     OW31803   3.162   4.177  10.001
10121SOL    HW131804   3.103   4.257  10.005
10121SOL    HW231805   3.177   4.142  10.094
10122SOL     OW31806   3.455   3.945  10.192
10122SOL    HW131807   3.371   3.944  10.246
10122SOL    HW231808   3.457   4.028  10.136
10123SOL     OW31809   1.901   4.801   9.610
10123SOL    HW131810   2.000   4.790   9.601
10123SOL    HW231811   1.861   4.715   9.642
10124SOL     OW31812   2.737   5.370   9.647
10124SOL    HW131813   2.660   5.335   9.593
10124SOL    HW231814   2.705   5.441   9.709
10125SOL     OW31815   2.092   4.352  11.285
10125SOL    HW131816   1.999   4.350  11.322
10125SOL    HW231817   2.093   4.313  11.193
10126SOL     OW31818   2.087   3.999  12.168
10126SOL    HW131819   2.122   3.982  12.260
10126SOL    HW231820   1.999   3.954  12.156
10127SOL     OW31821   1.881   4.092  11.819
10127SOL    HW131822   1.799   4.135  11.858
10127SOL    HW231823   1.853   4.019  11.756
10128SOL     OW31824   2.431   4.999  12.337
10128SOL    HW131825   2.338   4.992  12.300
10128SOL    HW231826   2.442   5.088  12.381
10129SOL     OW31827   3.417   5.235  11.875
10129SOL    HW131828   3.360   5.219  11.956
10129SOL    HW231829   3.358   5.245  11.795
10130SOL     OW31830   2.997   4.427  11.889
10130SOL    HW131831   3.054   4.505  11.864
10130SOL    HW231832   2.937   4.453  11.965
10131SOL     OW31833   3.617   4.331  11.403
10131SOL    HW131834   3.605   4.318  11.304
10131SOL    HW231835   3.587   4.250  11.452
10132SOL     OW31836   2.630   4.868  12.195
10132SOL    HW131837   2.552   4.885  12.255
10132SOL    HW231838   2.664   4.955  12.159
10133SOL     OW31839   2.547   4.736  11.837
10133SOL    HW131840   2.616   4.720  11.907
10133SOL    HW231841   2.474   4.793  11.875
10134SOL     OW31842   2.197   5.159  12.233
10134SOL    HW131843   2.119   5.128  12.180
10134SOL    HW231844   2.255   5.217  12.176
10135SOL     OW31845   3.465   4.171  11.909
10135SOL    HW131846   3.391   4.217  11.859
10135SOL    HW231847   3.516   4.239  11.962
10136SOL     OW31848   2.093   5.437  11.655
10136SOL    HW131849   2.127   5.514  11.709
10136SOL    HW231850   2.137   5.437  11.565
10137SOL     OW31851   2.092   5.158  11.710
10137SOL    HW131852   2.066   5.254  11.710
10137SOL    HW231853   2.021   5.104  11.755
10138SOL     OW31854   2.102   4.815  12.058
10138SOL    HW131855   2.116   4.731  12.110
10138SOL    HW231856   2.047   4.879  12.113
10139SOL     OW31857   2.468   4.688  11.295
10139SOL    HW131858   2.475   4.772  11.241
10139SOL    HW231859   2.514   4.701  11.383
10140SOL     OW31860   1.984   4.367  11.735
10140SOL    HW131861   1.939   4.279  11.752
10140SOL    HW231862   1.983   4.421  11.819
10141SOL     OW31863   3.704   5.491  11.531
10141SOL    HW131864   3.758   5.462  11.611
10141SOL    HW231865   3.734   5.581  11.502
10142SOL     OW31866   1.889   5.320  11.289
10142SOL    HW131867   1.870   5.224  11.310
10142SOL    HW231868   1.856   5.378  11.364
10143SOL     OW31869   3.551   4.646  11.784
10143SOL    HW131870   3.646   4.617  11.792
10143SOL    HW231871   3.543   4.711  11.709
10144SOL     OW31872   3.503   4.832  11.604
10144SOL    HW131873   3.589   4.834  11.552
10144SOL    HW231874   3.517   4.879  11.692
10145SOL     OW31875   1.975   4.461  12.769
10145SOL    HW131876   2.063   4.448  12.814
10145SOL    HW231877   1.962   4.558  12.747
10146SOL     OW31878   2.475   5.089  11.898
10146SOL    HW131879   2.426   5.002  11.907
10146SOL    HW231880   2.452   5.132  11.811
10147SOL     OW31881   2.671   3.728  11.674
10147SOL    HW131882   2.711   3.819  11.665
10147SOL    HW231883   2.571   3.736  11.680
10148SOL     OW31884   2.059   4.700  12.436
10148SOL    HW131885   2.148   4.655  12.422
10148SOL    HW231886   1.986   4.635  12.417
10149SOL     OW31887   3.387   4.723  11.362
10149SOL    HW131888   3.324   4.647  11.375
10149SOL    HW231889   3.435   4.741  11.448
10150SOL     OW31890   3.328   5.141  12.125
10150SOL    HW131891   3.269   5.147  12.205
10150SOL    HW231892   3.313   5.053  12.079
10151SOL     OW31893   3.529   5.438  11.744
10151SOL    HW131894   3.488   5.415  11.656
10151SOL    HW231895   3.511   5.364  11.809
10152SOL     OW31896   2.460   4.453  11.442
10152SOL    HW131897   2.484   4.522  11.374
10152SOL    HW231898   2.382   4.486  11.496
10153SOL     OW31899   3.143   4.069  12.116
10153SOL    HW131900   3.057   4.019  12.103
10153SOL    HW231901   3.205   4.015  12.172
10154SOL     OW31902   3.438   5.386  11.479
10154SOL    HW131903   3.527   5.432  11.482
10154SOL    HW231904   3.417   5.362  11.384
10155SOL     OW31905   2.853   4.134  12.414
10155SOL    HW131906   2.776   4.168  12.468
10155SOL    HW231907   2.819   4.083  12.335
10156SOL     OW31908   2.903   4.425  11.601
10156SOL    HW131909   2.929   4.421  11.697
10156SOL    HW231910   2.818   4.374  11.587
10157SOL     OW31911   1.938   4.535  11.961
10157SOL    HW131912   2.037   4.523  11.970
10157SOL    HW231913   1.914   4.630  11.982
10158SOL     OW31914   2.727   4.072  11.367
10158SOL    HW131915   2.786   4.135  11.318
10158SOL    HW231916   2.746   3.978  11.338
10159SOL     OW31917   3.224   4.868  11.717
10159SOL    HW131918   3.307   4.839  11.669
10159SOL    HW231919   3.175   4.935  11.661
10160SOL     OW31920   2.412   3.920  12.057
10160SOL    HW131921   2.407   3.915  12.157
10160SOL    HW231922   2.414   4.016  12.028
10161SOL     OW31923   2.870   5.180  11.649
10161SOL    HW131924   2.824   5.252  11.597
10161SOL    HW231925   2.866   5.200  11.747
10162SOL     OW31926   2.213   5.525  12.025
10162SOL    HW131927   2.263   5.439  12.031
10162SOL    HW231928   2.278   5.602  12.022
10163SOL     OW31929   3.657   4.790  12.045
10163SOL    HW131930   3.595   4.775  11.969
10163SOL    HW231931   3.605   4.801  12.130
10164SOL     OW31932   2.183   4.667  11.414
10164SOL    HW131933   2.265   4.706  11.372
10164SOL    HW231934   2.156   4.585  11.365
10165SOL     OW31935   3.320   4.459  11.900
10165SOL    HW131936   3.315   4.394  11.975
10165SOL    HW231937   3.400   4.518  11.913
10166SOL     OW31938   2.973   5.500  11.409
10166SOL    HW131939   2.913   5.438  11.459
10166SOL    HW231940   3.004   5.456  11.324
10167SOL     OW31941   3.494   5.101  11.253
10167SOL    HW131942   3.462   5.195  11.243
10167SOL    HW231943   3.418   5.038  11.241
10168SOL     OW31944   2.326   5.467  11.495
10168SOL    HW131945   2.359   5.506  11.581
10168SOL    HW231946   2.402   5.460  11.430
10169SOL     OW31947   3.262   3.831  11.598
10169SOL    HW131948   3.238   3.794  11.508
10169SOL    HW231949   3.361   3.847  11.602
10170SOL     OW31950   2.111   5.509  12.413
10170SOL    HW131951   2.168   5.444  12.463
10170SOL    HW231952   2.095   5.476  12.320
10171SOL     OW31953   2.802   5.422  12.076
10171SOL    HW131954   2.882   5.365  12.097
10171SOL    HW231955   2.753   5.382  11.999
10172SOL     OW31956   2.244   4.424  11.652
10172SOL    HW131957   2.289   4.334  11.649
10172SOL    HW231958   2.150   4.413  11.685
10173SOL     OW31959   2.476   3.846  11.289
10173SOL    HW131960   2.574   3.824  11.296
10173SOL    HW231961   2.445   3.829  11.196
10174SOL     OW31962   2.665   5.126  12.096
10174SOL    HW131963   2.755   5.140  12.054
10174SOL    HW231964   2.594   5.128  12.025
10175SOL     OW31965   2.784   4.227  12.071
10175SOL    HW131966   2.759   4.218  11.975
10175SOL    HW231967   2.832   4.145  12.102
10176SOL     OW31968   2.401   3.788  11.684
10176SOL    HW131969   2.320   3.789  11.742
10176SOL    HW231970   2.404   3.871  11.629
10177SOL     OW31971   3.296   4.912  11.213
10177SOL    HW131972   3.328   4.836  11.270
10177SOL    HW231973   3.204   4.939  11.243
10178SOL     OW31974   2.159   3.759  11.343
10178SOL    HW131975   2.208   3.843  11.322
10178SOL    HW231976   2.221   3.694  11.388
10179SOL     OW31977   2.797   3.960  11.652
10179SOL    HW131978   2.749   4.001  11.574
10179SOL    HW231979   2.896   3.958  11.633
10180SOL     OW31980   3.089   5.294  11.965
10180SOL    HW131981   3.110   5.368  11.900
10180SOL    HW231982   3.157   5.294  12.038
10181SOL     OW31983   3.133   5.521  11.763
10181SOL    HW131984   3.177   5.585  11.699
10181SOL    HW231985   3.083   5.573  11.833
10182SOL     OW31986   2.894   4.273  11.188
10182SOL    HW131987   2.853   4.355  11.149
10182SOL    HW231988   2.958   4.299  11.261
10183SOL     OW31989   2.423   3.946  12.319
10183SOL    HW131990   2.461   3.862  12.356
10183SOL    HW231991   2.335   3.965  12.363
10184SOL     OW31992   2.728   4.178  11.814
10184SOL    HW131993   2.696   4.250  11.752
10184SOL    HW231994   2.752   4.097  11.761
10185SOL     OW31995   2.879   3.763  11.925
10185SOL    HW131996   2.807   3.768  11.856
10185SOL    HW231997   2.855   3.694  11.994
10186SOL     OW31998   3.291   4.897  12.039
10186SOL    HW131999   3.236   4.813  12.032
10186SOL    HW232000   3.317   4.926  11.947
10187SOL     OW32001   3.328   4.314  12.164
10187SOL    HW132002   3.298   4.219  12.171
10187SOL    HW232003   3.401   4.330  12.230
10188SOL     OW32004   3.719   4.557  11.549
10188SOL    HW132005   3.761   4.493  11.613
10188SOL    HW232006   3.681   4.506  11.471
10189SOL     OW32007   2.350   5.109  11.346
10189SOL    HW132008   2.263   5.094  11.393
10189SOL    HW232009   2.333   5.135  11.251
10190SOL     OW32010   3.526   5.004  11.829
10190SOL    HW132011   3.625   5.012  11.843
10190SOL    HW232012   3.481   5.088  11.860
10191SOL     OW32013   3.252   4.299  11.250
10191SOL    HW132014   3.198   4.278  11.331
10191SOL    HW232015   3.343   4.258  11.259
10192SOL     OW32016   2.389   3.980  11.500
10192SOL    HW132017   2.416   3.921  11.425
10192SOL    HW232018   2.389   4.075  11.469
10193SOL     OW32019   2.973   4.919  12.272
10193SOL    HW132020   2.933   4.963  12.353
10193SOL    HW232021   2.932   4.956  12.189
10194SOL     OW32022   3.500   4.823  12.251
10194SOL    HW132023   3.505   4.904  12.310
10194SOL    HW232024   3.414   4.825  12.200
10195SOL     OW32025   2.567   4.774  11.540
10195SOL    HW132026   2.553   4.781  11.639
10195SOL    HW232027   2.651   4.723  11.522
10196SOL     OW32028   2.272   4.537  12.423
10196SOL    HW132029   2.358   4.549  12.473
10196SOL    HW232030   2.230   4.450  12.450
10197SOL     OW32031   3.136   4.110  12.434
10197SOL    HW132032   3.157   4.184  12.498
10197SOL    HW232033   3.047   4.127  12.391
10198SOL     OW32034   2.229   4.824  11.673
10198SOL    HW132035   2.222   4.907  11.617
10198SOL    HW232036   2.233   4.744  11.613
10199SOL     OW32037   2.428   4.261  12.037
10199SOL    HW132038   2.440   4.327  11.963
10199SOL    HW232039   2.474   4.295  12.120
10200SOL     OW32040   3.114   5.072  11.560
10200SOL    HW132041   3.164   5.149  11.600
10200SOL    HW232042   3.019   5.074  11.592
10201SOL     OW32043   3.134   5.169  12.314
10201SOL    HW132044   3.181   5.182  12.401
10201SOL    HW232045   3.068   5.095  12.323
10202SOL     OW32046   3.444   4.363  11.644
10202SOL    HW132047   3.413   4.424  11.717
10202SOL    HW232048   3.494   4.415  11.575
10203SOL     OW32049   2.216   5.234  12.501
10203SOL    HW132050   2.195   5.190  12.414
10203SOL    HW232051   2.313   5.260  12.504
10204SOL     OW32052   2.435   4.594  12.201
10204SOL    HW132053   2.479   4.683  12.192
10204SOL    HW232054   2.372   4.594  12.278
10205SOL     OW32055   3.222   4.586  12.217
10205SOL    HW132056   3.147   4.586  12.151
10205SOL    HW232057   3.259   4.494  12.226
10206SOL     OW32058   3.071   4.249  11.447
10206SOL    HW132059   3.084   4.165  11.501
10206SOL    HW232060   3.042   4.323  11.507
10207SOL     OW32061   2.169   3.937  12.403
10207SOL    HW132062   2.146   3.974  12.493
10207SOL    HW232063   2.139   3.842  12.397
10208SOL     OW32064   1.899   5.034  12.454
10208SOL    HW132065   1.952   4.985  12.522
10208SOL    HW232066   1.921   5.132  12.459
10209SOL     OW32067   2.594   4.358  12.236
10209SOL    HW132068   2.653   4.332  12.160
10209SOL    HW232069   2.566   4.454  12.225
10210SOL     OW32070   2.169   3.787  11.790
10210SOL    HW132071   2.158   3.881  11.823
10210SOL    HW232072   2.164   3.724  11.867
10211SOL     OW32073   3.484   4.091  11.546
10211SOL    HW132074   3.486   4.015  11.610
10211SOL    HW232075   3.436   4.168  11.586
10212SOL     OW32076   2.885   4.490  12.138
10212SOL    HW132077   2.900   4.511  12.234
10212SOL    HW232078   2.855   4.395  12.129
10213SOL     OW32079   3.402   3.998  11.297
10213SOL    HW132080   3.341   3.923  11.320
10213SOL    HW232081   3.424   4.050  11.380
10214SOL     OW32082   3.165   4.562  11.214
10214SOL    HW132083   3.199   4.469  11.229
10214SOL    HW232084   3.183   4.589  11.119
10215SOL     OW32085   2.930   5.057  12.021
10215SOL    HW132086   2.937   4.973  11.966
10215SOL    HW232087   2.992   5.126  11.985
10216SOL     OW32088   2.181   4.534  12.121
10216SOL    HW132089   2.274   4.570  12.126
10216SOL    HW232090   2.175   4.449  12.173
10217SOL     OW32091   2.201   4.233  12.178
10217SOL    HW132092   2.149   4.150  12.161
10217SOL    HW232093   2.278   4.238  12.114
10218SOL     OW32094   3.022   3.931  12.649
10218SOL    HW132095   3.022   3.995  12.726
10218SOL    HW232096   3.050   3.979  12.566
10219SOL     OW32097   1.870   5.050  11.372
10219SOL    HW132098   1.777   5.071  11.341
10219SOL    HW232099   1.880   4.951  11.385
10220SOL     OW32100   1.950   5.525  12.099
10220SOL    HW132101   1.908   5.439  12.072
10220SOL    HW232102   2.044   5.528  12.065
10221SOL     OW32103   2.366   5.292  12.082
10221SOL    HW132104   2.432   5.366  12.091
10221SOL    HW232105   2.410   5.213  12.040
10222SOL     OW32106   2.864   4.520  12.410
10222SOL    HW132107   2.905   4.488  12.496
10222SOL    HW232108   2.768   4.493  12.407
10223SOL     OW32109   1.902   4.268  12.286
10223SOL    HW132110   1.987   4.235  12.245
10223SOL    HW232111   1.915   4.283  12.384
10224SOL     OW32112   2.677   4.296  11.497
10224SOL    HW132113   2.684   4.207  11.451
10224SOL    HW232114   2.583   4.330  11.489
10225SOL     OW32115   3.519   4.328  12.378
10225SOL    HW132116   3.481   4.259  12.440
10225SOL    HW232117   3.601   4.292  12.334
10226SOL     OW32118   2.533   4.188  12.441
10226SOL    HW132119   2.499   4.099  12.411
10226SOL    HW232120   2.559   4.242  12.361
10227SOL     OW32121   2.792   5.402  12.637
10227SOL    HW132122   2.768   5.384  12.542
10227SOL    HW232123   2.822   5.496  12.647
10228SOL     OW32124   2.335   4.224  11.363
10228SOL    HW132125   2.396   4.304  11.367
10228SOL    HW232126   2.240   4.255  11.370
10229SOL     OW32127   3.209   4.783  12.406
10229SOL    HW132128   3.233   4.720  12.332
10229SOL    HW232129   3.119   4.823  12.388
10230SOL     OW32130   3.164   4.579  11.481
10230SOL    HW132131   3.078   4.548  11.523
10230SOL    HW232132   3.160   4.565  11.382
10231SOL     OW32133   3.621   5.471  12.326
10231SOL    HW132134   3.682   5.501  12.253
10231SOL    HW232135   3.583   5.382  12.304
10232SOL     OW32136   3.114   5.455  12.300
10232SOL    HW132137   3.198   5.460  12.246
10232SOL    HW232138   3.091   5.359  12.318
10233SOL     OW32139   1.945   4.982  12.194
10233SOL    HW132140   1.940   4.981  12.294
10233SOL    HW232141   1.862   4.941  12.156
10234SOL     OW32142   3.588   3.859  11.695
10234SOL    HW132143   3.661   3.842  11.628
10234SOL    HW232144   3.557   3.772  11.733
10235SOL     OW32145   3.250   5.297  11.649
10235SOL    HW132146   3.317   5.309  11.575
10235SOL    HW232147   3.210   5.386  11.672
10236SOL     OW32148   3.142   4.651  11.844
10236SOL    HW132149   3.202   4.570  11.846
10236SOL    HW232150   3.182   4.720  11.784
10237SOL     OW32151   2.534   5.340  11.326
10237SOL    HW132152   2.543   5.350  11.227
10237SOL    HW232153   2.494   5.251  11.347
10238SOL     OW32154   3.512   5.444  12.566
10238SOL    HW132155   3.565   5.454  12.482
10238SOL    HW232156   3.485   5.534  12.600
10239SOL     OW32157   3.703   3.899  12.135
10239SOL    HW132158   3.742   3.814  12.099
10239SOL    HW232159   3.605   3.901  12.116
10240SOL     OW32160   2.125   4.050  11.892
10240SOL    HW132161   2.046   4.101  11.858
10240SOL    HW232162   2.116   4.035  11.990
10241SOL     OW32163   3.056   5.336  11.203
10241SOL    HW132164   3.062   5.243  11.240
10241SOL    HW232165   2.997   5.336  11.123
10242SOL     OW32166   2.684   4.726  12.544
10242SOL    HW132167   2.724   4.725  12.452
10242SOL    HW232168   2.694   4.818  12.584
10243SOL     OW32169   2.778   4.634  11.463
10243SOL    HW132170   2.841   4.672  11.395
10243SOL    HW232171   2.818   4.551  11.502
10244SOL     OW32172   3.366   5.331  11.216
10244SOL    HW132173   3.274   5.368  11.223
10244SOL    HW232174   3.404   5.351  11.126
10245SOL     OW32175   2.901   4.822  11.868
10245SOL    HW132176   2.831   4.775  11.922
10245SOL    HW232177   2.960   4.754  11.825
10246SOL     OW32178   2.876   3.960  12.143
10246SOL    HW132179   2.868   3.924  12.050
10246SOL    HW232180   2.874   3.884  12.208
10247SOL     OW32181   2.452   5.211  11.663
10247SOL    HW132182   2.494   5.153  11.593
10247SOL    HW232183   2.408   5.290  11.619
10248SOL     OW32184   3.571   4.109  12.553
10248SOL    HW132185   3.644   4.178  12.557
10248SOL    HW232186   3.599   4.034  12.494
10249SOL     OW32187   2.117   5.072  11.462
10249SOL    HW132188   2.021   5.073  11.435
10249SOL    HW232189   2.129   5.125  11.546
10250SOL     OW32190   1.937   4.069  11.205
10250SOL    HW132191   1.845   4.041  11.176
10250SOL    HW232192   1.968   4.146  11.149
10251SOL     OW32193   1.934   3.890  11.490
10251SOL    HW132194   1.917   3.973  11.436
10251SOL    HW232195   2.024   3.853  11.468
10252SOL     OW32196   3.045   5.059  11.291
10252SOL    HW132197   2.946   5.048  11.293
10252SOL    HW232198   3.079   5.074  11.384
10253SOL     OW32199   3.355   5.491  12.131
10253SOL    HW132200   3.388   5.555  12.062
10253SOL    HW232201   3.421   5.485  12.206
10254SOL     OW32202   3.536   4.607  12.426
10254SOL    HW132203   3.509   4.518  12.389
10254SOL    HW232204   3.537   4.675  12.353
10255SOL     OW32205   3.087   4.049  11.621
10255SOL    HW132206   3.152   3.975  11.610
10255SOL    HW232207   3.107   4.099  11.705
10256SOL     OW32208   2.456   4.469  11.824
10256SOL    HW132209   2.506   4.554  11.805
10256SOL    HW232210   2.368   4.471  11.776
10257SOL     OW32211   3.592   4.658  12.689
10257SOL    HW132212   3.630   4.749  12.704
10257SOL    HW232213   3.584   4.641  12.590
10258SOL     OW32214   2.721   5.098  11.188
10258SOL    HW132215   2.675   5.113  11.276
10258SOL    HW232216   2.765   5.183  11.158
10259SOL     OW32217   2.523   5.514  12.125
10259SOL    HW132218   2.477   5.602  12.112
10259SOL    HW232219   2.622   5.526  12.118
10260SOL     OW32220   2.721   4.680  12.033
10260SOL    HW132221   2.775   4.611  12.081
10260SOL    HW232222   2.689   4.749  12.099
10261SOL     OW32223   2.945   4.708  11.259
10261SOL    HW132224   2.922   4.761  11.177
10261SOL    HW232225   3.026   4.652  11.240
10262SOL     OW32226   3.723   5.293  12.023
10262SOL    HW132227   3.652   5.281  11.953
10262SOL    HW232228   3.724   5.214  12.083
10263SOL     OW32229   1.941   4.964  11.825
10263SOL    HW132230   1.940   4.917  11.913
10263SOL    HW232231   2.023   4.936  11.774
10264SOL     OW32232   3.686   3.916  12.399
10264SOL    HW132233   3.682   3.826  12.443
10264SOL    HW232234   3.689   3.905  12.300
10265SOL     OW32235   2.290   4.148  11.692
10265SOL    HW132236   2.320   4.076  11.630
10265SOL    HW232237   2.251   4.108  11.775
10266SOL     OW32238   3.567   5.211  12.276
10266SOL    HW132239   3.474   5.186  12.249
10266SOL    HW232240   3.593   5.161  12.358
10267SOL     OW32241   2.674   5.310  11.859
10267SOL    HW132242   2.706   5.320  11.765
10267SOL    HW232243   2.595   5.248  11.861
10268SOL     OW32244   3.286   3.938  12.284
10268SOL    HW132245   3.338   3.873  12.339
10268SOL    HW232246   3.237   4.001  12.345
10269SOL     OW32247   2.863   3.758  12.326
10269SOL    HW132248   2.800   3.686  12.295
10269SOL    HW232249   2.956   3.722  12.326
10270SOL     OW32250   2.632   5.054  11.473
10270SOL    HW132251   2.586   4.967  11.490
10270SOL    HW232252   2.723   5.051  11.514
10271SOL     OW32253   3.214   3.776  11.340
10271SOL    HW132254   3.249   3.735  11.256
10271SOL    HW232255   3.124   3.738  11.360
10272SOL     OW32256   3.162   4.177  11.863
10272SOL    HW132257   3.103   4.257  11.867
10272SOL    HW232258   3.177   4.142  11.956
10273SOL     OW32259   3.455   3.945  12.054
10273SOL    HW132260   3.371   3.944  12.108
10273SOL    HW232261   3.457   4.028  11.998
10274SOL     OW32262   1.901   4.801  11.472
10274SOL    HW132263   2.000   4.790  11.463
10274SOL    HW232264   1.861   4.715  11.504
10275SOL     OW32265   2.737   5.370  11.509
10275SOL    HW132266   2.660   5.335  11.455
10275SOL    HW232267   2.705   5.441  11.571
10276SOL     OW32268   2.092   6.214   0.113
10276SOL    HW132269   1.999   6.212   0.150
10276SOL    HW232270   2.093   6.175   0.021
10277SOL     OW32271   2.087   5.861   0.996
10277SOL    HW132272   2.122   5.844   1.088
10277SOL    HW232273   1.999   5.816   0.984
10278SOL     OW32274   1.881   5.954   0.647
10278SOL    HW132275   1.799   5.997   0.686
10278SOL    HW232276   1.853   5.881   0.584
10279SOL     OW32277   2.431   6.861   1.165
10279SOL    HW132278   2.338   6.854   1.128
10279SOL    HW232279   2.442   6.950   1.209
10280SOL     OW32280   3.417   7.097   0.703
10280SOL    HW132281   3.360   7.081   0.784
10280SOL    HW232282   3.358   7.107   0.623
10281SOL     OW32283   2.997   6.289   0.717
10281SOL    HW132284   3.054   6.367   0.692
10281SOL    HW232285   2.937   6.315   0.793
10282SOL     OW32286   3.617   6.193   0.231
10282SOL    HW132287   3.605   6.180   0.132
10282SOL    HW232288   3.587   6.112   0.280
10283SOL     OW32289   2.630   6.730   1.023
10283SOL    HW132290   2.552   6.747   1.083
10283SOL    HW232291   2.664   6.817   0.987
10284SOL     OW32292   2.712   6.384   1.823
10284SOL    HW132293   2.708   6.460   1.888
10284SOL    HW232294   2.734   6.420   1.732
10285SOL     OW32295   2.547   6.598   0.665
10285SOL    HW132296   2.616   6.582   0.735
10285SOL    HW232297   2.474   6.655   0.703
10286SOL     OW32298   2.548   6.747   1.803
10286SOL    HW132299   2.608   6.826   1.817
10286SOL    HW232300   2.462   6.778   1.762
10287SOL     OW32301   2.197   7.021   1.061
10287SOL    HW132302   2.119   6.990   1.008
10287SOL    HW232303   2.255   7.079   1.004
10288SOL     OW32304   3.322   7.091   1.339
10288SOL    HW132305   3.346   7.185   1.365
10288SOL    HW232306   3.306   7.037   1.421
10289SOL     OW32307   2.300   5.978   1.499
10289SOL    HW132308   2.382   5.922   1.508
10289SOL    HW232309   2.219   5.920   1.503
10290SOL     OW32310   3.465   6.033   0.737
10290SOL    HW132311   3.391   6.079   0.687
10290SOL    HW232312   3.516   6.101   0.790
10291SOL     OW32313   2.093   7.299   0.483
10291SOL    HW132314   2.127   7.376   0.537
10291SOL    HW232315   2.137   7.299   0.393
10292SOL     OW32316   2.989   6.927   1.690
10292SOL    HW132317   3.036   6.927   1.778
10292SOL    HW232318   2.941   6.840   1.679
10293SOL     OW32319   2.092   7.020   0.538
10293SOL    HW132320   2.066   7.116   0.538
10293SOL    HW232321   2.021   6.966   0.583
10294SOL     OW32322   2.102   6.677   0.886
10294SOL    HW132323   2.116   6.593   0.938
10294SOL    HW232324   2.047   6.741   0.941
10295SOL     OW32325   2.482   7.372   1.439
10295SOL    HW132326   2.390   7.355   1.474
10295SOL    HW232327   2.510   7.464   1.465
10296SOL     OW32328   2.468   6.550   0.123
10296SOL    HW132329   2.475   6.634   0.069
10296SOL    HW232330   2.514   6.563   0.211
10297SOL     OW32331   3.456   5.700   1.480
10297SOL    HW132332   3.438   5.767   1.408
10297SOL    HW232333   3.453   5.746   1.569
10298SOL     OW32334   1.984   6.229   0.563
10298SOL    HW132335   1.939   6.141   0.580
10298SOL    HW232336   1.983   6.283   0.647
10299SOL     OW32337   3.704   7.353   0.359
10299SOL    HW132338   3.758   7.324   0.439
10299SOL    HW232339   3.734   7.443   0.330
10300SOL     OW32340   1.889   7.182   0.117
10300SOL    HW132341   1.870   7.086   0.138
10300SOL    HW232342   1.856   7.240   0.192
10301SOL     OW32343   3.551   6.508   0.612
10301SOL    HW132344   3.646   6.479   0.620
10301SOL    HW232345   3.543   6.573   0.537
10302SOL     OW32346   3.503   6.694   0.432
10302SOL    HW132347   3.589   6.696   0.380
10302SOL    HW232348   3.517   6.741   0.520
10303SOL     OW32349   1.975   6.323   1.597
10303SOL    HW132350   2.063   6.310   1.642
10303SOL    HW232351   1.962   6.420   1.575
10304SOL     OW32352   2.475   6.951   0.726
10304SOL    HW132353   2.426   6.864   0.735
10304SOL    HW232354   2.452   6.994   0.639
10305SOL     OW32355   3.155   6.814   1.423
10305SOL    HW132356   3.192   6.741   1.365
10305SOL    HW232357   3.207   6.819   1.508
10306SOL     OW32358   2.671   5.590   0.502
10306SOL    HW132359   2.711   5.681   0.493
10306SOL    HW232360   2.571   5.598   0.508
10307SOL     OW32361   2.059   6.562   1.264
10307SOL    HW132362   2.148   6.517   1.250
10307SOL    HW232363   1.986   6.497   1.245
10308SOL     OW32364   3.387   6.585   0.190
10308SOL    HW132365   3.324   6.509   0.203
10308SOL    HW232366   3.435   6.603   0.276
10309SOL     OW32367   3.049   7.378   1.616
10309SOL    HW132368   3.073   7.438   1.540
10309SOL    HW232369   3.056   7.283   1.586
10310SOL     OW32370   2.179   5.837   1.801
10310SOL    HW132371   2.250   5.908   1.807
10310SOL    HW232372   2.091   5.876   1.829
10311SOL     OW32373   3.328   7.003   0.953
10311SOL    HW132374   3.269   7.009   1.033
10311SOL    HW232375   3.313   6.915   0.907
10312SOL     OW32376   3.529   7.300   0.572
10312SOL    HW132377   3.488   7.277   0.484
10312SOL    HW232378   3.511   7.226   0.637
10313SOL     OW32379   2.460   6.315   0.270
10313SOL    HW132380   2.484   6.384   0.202
10313SOL    HW232381   2.382   6.348   0.324
10314SOL     OW32382   3.143   5.931   0.944
10314SOL    HW132383   3.057   5.881   0.931
10314SOL    HW232384   3.205   5.877   1.000
10315SOL     OW32385   3.438   7.248   0.307
10315SOL    HW132386   3.527   7.294   0.310
10315SOL    HW232387   3.417   7.224   0.212
10316SOL     OW32388   2.669   6.191   1.465
10316SOL    HW132389   2.622   6.188   1.554
10316SOL    HW232390   2.618   6.136   1.399
10317SOL     OW32391   3.256   6.055   1.674
10317SOL    HW132392   3.236   6.098   1.762
10317SOL    HW232393   3.334   5.993   1.683
10318SOL     OW32394   2.835   6.476   1.572
10318SOL    HW132395   2.881   6.392   1.543
10318SOL    HW232396   2.779   6.510   1.497
10319SOL     OW32397   2.853   5.996   1.242
10319SOL    HW132398   2.776   6.030   1.296
10319SOL    HW232399   2.819   5.945   1.163
10320SOL     OW32400   2.903   6.287   0.429
10320SOL    HW132401   2.929   6.283   0.525
10320SOL    HW232402   2.818   6.236   0.415
10321SOL     OW32403   1.938   6.397   0.789
10321SOL    HW132404   2.037   6.385   0.798
10321SOL    HW232405   1.914   6.492   0.810
10322SOL     OW32406   1.992   7.407   1.571
10322SOL    HW132407   1.982   7.392   1.670
10322SOL    HW232408   1.906   7.443   1.535
10323SOL     OW32409   2.727   5.934   0.195
10323SOL    HW132410   2.786   5.997   0.146
10323SOL    HW232411   2.746   5.840   0.166
10324SOL     OW32412   3.581   6.171   1.831
10324SOL    HW132413   3.555   6.260   1.795
10324SOL    HW232414   3.579   6.103   1.758
10325SOL     OW32415   3.224   6.730   0.545
10325SOL    HW132416   3.307   6.701   0.497
10325SOL    HW232417   3.175   6.797   0.489
10326SOL     OW32418   2.412   5.782   0.885
10326SOL    HW132419   2.407   5.777   0.985
10326SOL    HW232420   2.414   5.878   0.856
10327SOL     OW32421   2.870   7.042   0.477
10327SOL    HW132422   2.824   7.114   0.425
10327SOL    HW232423   2.866   7.062   0.575
10328SOL     OW32424   2.213   7.387   0.853
10328SOL    HW132425   2.263   7.301   0.859
10328SOL    HW232426   2.278   7.464   0.850
10329SOL     OW32427   3.657   6.652   0.873
10329SOL    HW132428   3.595   6.637   0.797
10329SOL    HW232429   3.605   6.663   0.958
10330SOL     OW32430   3.089   7.136   1.506
10330SOL    HW132431   3.095   7.059   1.570
10330SOL    HW232432   3.037   7.110   1.426
10331SOL     OW32433   2.183   6.529   0.242
10331SOL    HW132434   2.265   6.568   0.200
10331SOL    HW232435   2.156   6.447   0.193
10332SOL     OW32436   3.320   6.321   0.728
10332SOL    HW132437   3.315   6.256   0.803
10332SOL    HW232438   3.400   6.380   0.741
10333SOL     OW32439   2.323   6.852   1.727
10333SOL    HW132440   2.273   6.853   1.641
10333SOL    HW232441   2.260   6.834   1.803
10334SOL     OW32442   2.973   7.362   0.237
10334SOL    HW132443   2.913   7.300   0.287
10334SOL    HW232444   3.004   7.318   0.152
10335SOL     OW32445   2.064   5.871   1.498
10335SOL    HW132446   1.984   5.931   1.485
10335SOL    HW232447   2.054   5.822   1.584
10336SOL     OW32448   3.494   6.963   0.081
10336SOL    HW132449   3.462   7.057   0.071
10336SOL    HW232450   3.418   6.900   0.069
10337SOL     OW32451   2.326   7.329   0.323
10337SOL    HW132452   2.359   7.368   0.409
10337SOL    HW232453   2.402   7.322   0.258
10338SOL     OW32454   3.262   5.693   0.426
10338SOL    HW132455   3.238   5.656   0.336
10338SOL    HW232456   3.361   5.709   0.430
10339SOL     OW32457   2.111   7.371   1.241
10339SOL    HW132458   2.168   7.306   1.291
10339SOL    HW232459   2.095   7.338   1.148
10340SOL     OW32460   2.802   7.284   0.904
10340SOL    HW132461   2.882   7.227   0.925
10340SOL    HW232462   2.753   7.244   0.827
10341SOL     OW32463   2.244   6.286   0.480
10341SOL    HW132464   2.289   6.196   0.477
10341SOL    HW232465   2.150   6.275   0.513
10342SOL     OW32466   3.409   5.808   1.729
10342SOL    HW132467   3.404   5.845   1.821
10342SOL    HW232468   3.337   5.739   1.717
10343SOL     OW32469   2.476   5.708   0.117
10343SOL    HW132470   2.574   5.686   0.124
10343SOL    HW232471   2.445   5.691   0.024
10344SOL     OW32472   2.643   5.850   1.749
10344SOL    HW132473   2.710   5.789   1.792
10344SOL    HW232474   2.570   5.869   1.814
10345SOL     OW32475   2.750   7.100   1.195
10345SOL    HW132476   2.727   7.075   1.101
10345SOL    HW232477   2.811   7.031   1.234
10346SOL     OW32478   3.213   6.176   1.433
10346SOL    HW132479   3.241   6.133   1.518
10346SOL    HW232480   3.238   6.272   1.434
10347SOL     OW32481   2.665   6.988   0.924
10347SOL    HW132482   2.755   7.002   0.882
10347SOL    HW232483   2.594   6.990   0.853
10348SOL     OW32484   2.784   6.089   0.899
10348SOL    HW132485   2.759   6.080   0.803
10348SOL    HW232486   2.832   6.007   0.930
10349SOL     OW32487   2.401   5.650   0.512
10349SOL    HW132488   2.320   5.651   0.570
10349SOL    HW232489   2.404   5.733   0.457
10350SOL     OW32490   3.296   6.774   0.041
10350SOL    HW132491   3.328   6.698   0.098
10350SOL    HW232492   3.204   6.801   0.071
10351SOL     OW32493   2.159   5.621   0.171
10351SOL    HW132494   2.208   5.705   0.150
10351SOL    HW232495   2.221   5.556   0.216
10352SOL     OW32496   2.797   5.822   0.480
10352SOL    HW132497   2.749   5.863   0.402
10352SOL    HW232498   2.896   5.820   0.461
10353SOL     OW32499   2.938   6.269   1.464
10353SOL    HW132500   2.858   6.208   1.467
10353SOL    HW232501   3.019   6.216   1.440
10354SOL     OW32502   3.089   7.156   0.793
10354SOL    HW132503   3.110   7.230   0.728
10354SOL    HW232504   3.157   7.156   0.866
10355SOL     OW32505   2.321   6.738   0.741
10355SOL    HW132506   2.250   6.711   0.806
10355SOL    HW232507   2.295   6.710   0.648
10356SOL     OW32508   3.133   7.383   0.591
10356SOL    HW132509   3.177   7.447   0.527
10356SOL    HW232510   3.083   7.435   0.661
10357SOL     OW32511   2.894   6.135   0.016
10357SOL    HW132512   2.853   6.217  -0.023
10357SOL    HW232513   2.958   6.161   0.089
10358SOL     OW32514   1.940   6.142   1.386
10358SOL    HW132515   2.032   6.141   1.345
10358SOL    HW232516   1.934   6.216   1.453
10359SOL     OW32517   2.423   5.808   1.147
10359SOL    HW132518   2.461   5.724   1.184
10359SOL    HW232519   2.335   5.827   1.191
10360SOL     OW32520   2.728   6.040   0.642
10360SOL    HW132521   2.696   6.112   0.580
10360SOL    HW232522   2.752   5.959   0.589
10361SOL     OW32523   2.879   5.625   0.753
10361SOL    HW132524   2.807   5.630   0.684
10361SOL    HW232525   2.855   5.556   0.822
10362SOL     OW32526   3.291   6.759   0.867
10362SOL    HW132527   3.236   6.675   0.860
10362SOL    HW232528   3.317   6.788   0.775
10363SOL     OW32529   3.328   6.176   0.992
10363SOL    HW132530   3.298   6.081   0.999
10363SOL    HW232531   3.401   6.192   1.058
10364SOL     OW32532   3.719   6.419   0.377
10364SOL    HW132533   3.761   6.355   0.441
10364SOL    HW232534   3.681   6.368   0.299
10365SOL     OW32535   2.350   6.971   0.174
10365SOL    HW132536   2.263   6.956   0.221
10365SOL    HW232537   2.333   6.997   0.079
10366SOL     OW32538   3.526   6.866   0.657
10366SOL    HW132539   3.625   6.874   0.671
10366SOL    HW232540   3.481   6.950   0.688
10367SOL     OW32541   3.252   6.161   0.078
10367SOL    HW132542   3.198   6.140   0.159
10367SOL    HW232543   3.343   6.120   0.087
10368SOL     OW32544   2.389   5.842   0.328
10368SOL    HW132545   2.416   5.783   0.253
10368SOL    HW232546   2.389   5.937   0.297
10369SOL     OW32547   3.616   6.809   1.588
10369SOL    HW132548   3.707   6.770   1.575
10369SOL    HW232549   3.624   6.905   1.612
10370SOL     OW32550   2.926   6.933   1.340
10370SOL    HW132551   2.846   6.910   1.395
10370SOL    HW232552   3.009   6.907   1.389
10371SOL     OW32553   3.454   7.215   1.625
10371SOL    HW132554   3.481   7.249   1.535
10371SOL    HW232555   3.533   7.177   1.671
10372SOL     OW32556   2.973   6.781   1.100
10372SOL    HW132557   2.933   6.825   1.181
10372SOL    HW232558   2.932   6.818   1.017
10373SOL     OW32559   3.500   6.685   1.079
10373SOL    HW132560   3.505   6.766   1.138
10373SOL    HW232561   3.414   6.687   1.028
10374SOL     OW32562   2.777   5.675   1.402
10374SOL    HW132563   2.802   5.655   1.307
10374SOL    HW232564   2.849   5.731   1.444
10375SOL     OW32565   2.842   6.702   1.719
10375SOL    HW132566   2.743   6.708   1.729
10375SOL    HW232567   2.865   6.622   1.663
10376SOL     OW32568   2.567   6.636   0.368
10376SOL    HW132569   2.553   6.643   0.467
10376SOL    HW232570   2.651   6.585   0.350
10377SOL     OW32571   2.272   6.399   1.251
10377SOL    HW132572   2.358   6.411   1.301
10377SOL    HW232573   2.230   6.312   1.278
10378SOL     OW32574   3.136   5.972   1.262
10378SOL    HW132575   3.157   6.046   1.326
10378SOL    HW232576   3.047   5.989   1.219
10379SOL     OW32577   1.926   7.150   1.331
10379SOL    HW132578   1.880   7.232   1.297
10379SOL    HW232579   2.024   7.169   1.340
10380SOL     OW32580   2.229   6.686   0.501
10380SOL    HW132581   2.222   6.769   0.445
10380SOL    HW232582   2.233   6.606   0.441
10381SOL     OW32583   2.428   6.123   0.865
10381SOL    HW132584   2.440   6.189   0.791
10381SOL    HW232585   2.474   6.157   0.948
10382SOL     OW32586   3.114   6.934   0.388
10382SOL    HW132587   3.164   7.011   0.428
10382SOL    HW232588   3.019   6.936   0.420
10383SOL     OW32589   3.134   7.031   1.142
10383SOL    HW132590   3.181   7.044   1.229
10383SOL    HW232591   3.068   6.957   1.151
10384SOL     OW32592   3.444   6.225   0.472
10384SOL    HW132593   3.413   6.286   0.545
10384SOL    HW232594   3.494   6.277   0.403
10385SOL     OW32595   2.216   7.096   1.329
10385SOL    HW132596   2.195   7.052   1.242
10385SOL    HW232597   2.313   7.122   1.332
10386SOL     OW32598   2.264   6.337   1.598
10386SOL    HW132599   2.332   6.392   1.551
10386SOL    HW232600   2.304   6.249   1.625
10387SOL     OW32601   3.449   6.365   1.670
10387SOL    HW132602   3.357   6.403   1.665
10387SOL    HW232603   3.509   6.412   1.605
10388SOL     OW32604   2.875   5.691   1.770
10388SOL    HW132605   2.881   5.776   1.718
10388SOL    HW232606   2.907   5.615   1.713
10389SOL     OW32607   2.366   5.636   1.740
10389SOL    HW132608   2.324   5.579   1.670
10389SOL    HW232609   2.300   5.705   1.772
10390SOL     OW32610   2.435   6.456   1.029
10390SOL    HW132611   2.479   6.545   1.020
10390SOL    HW232612   2.372   6.456   1.106
10391SOL     OW32613   3.222   6.448   1.045
10391SOL    HW132614   3.147   6.448   0.979
10391SOL    HW232615   3.259   6.356   1.054
10392SOL     OW32616   3.071   6.111   0.275
10392SOL    HW132617   3.084   6.027   0.329
10392SOL    HW232618   3.042   6.185   0.335
10393SOL     OW32619   2.169   5.799   1.231
10393SOL    HW132620   2.146   5.836   1.321
10393SOL    HW232621   2.139   5.704   1.225
10394SOL     OW32622   1.899   6.896   1.282
10394SOL    HW132623   1.952   6.847   1.350
10394SOL    HW232624   1.921   6.994   1.287
10395SOL     OW32625   2.594   6.220   1.064
10395SOL    HW132626   2.653   6.194   0.988
10395SOL    HW232627   2.566   6.316   1.053
10396SOL     OW32628   3.590   6.521   1.854
10396SOL    HW132629   3.544   6.514   1.765
10396SOL    HW232630   3.528   6.565   1.920
10397SOL     OW32631   2.169   5.649   0.618
10397SOL    HW132632   2.158   5.743   0.651
10397SOL    HW232633   2.164   5.586   0.695
10398SOL     OW32634   3.484   5.953   0.374
10398SOL    HW132635   3.486   5.877   0.438
10398SOL    HW232636   3.436   6.030   0.414
10399SOL     OW32637   2.885   6.352   0.966
10399SOL    HW132638   2.900   6.373   1.062
10399SOL    HW232639   2.855   6.257   0.957
10400SOL     OW32640   2.842   7.159   1.700
10400SOL    HW132641   2.822   7.203   1.612
10400SOL    HW232642   2.881   7.068   1.684
10401SOL     OW32643   3.721   7.104   1.605
10401SOL    HW132644   3.735   7.131   1.510
10401SOL    HW232645   3.804   7.126   1.658
10402SOL     OW32646   2.212   6.484   1.804
10402SOL    HW132647   2.288   6.528   1.852
10402SOL    HW232648   2.247   6.437   1.722
10403SOL     OW32649   3.402   5.860   0.125
10403SOL    HW132650   3.341   5.785   0.148
10403SOL    HW232651   3.424   5.912   0.208
10404SOL     OW32652   3.165   6.424   0.042
10404SOL    HW132653   3.199   6.331   0.057
10404SOL    HW232654   3.183   6.451  -0.053
10405SOL     OW32655   2.930   6.919   0.849
10405SOL    HW132656   2.937   6.835   0.794
10405SOL    HW232657   2.992   6.988   0.813
10406SOL     OW32658   2.181   6.396   0.949
10406SOL    HW132659   2.274   6.432   0.954
10406SOL    HW232660   2.175   6.311   1.001
10407SOL     OW32661   2.201   6.095   1.006
10407SOL    HW132662   2.149   6.012   0.989
10407SOL    HW232663   2.278   6.100   0.942
10408SOL     OW32664   3.000   5.966   1.678
10408SOL    HW132665   2.955   6.029   1.742
10408SOL    HW232666   3.093   5.997   1.661
10409SOL     OW32667   3.022   5.793   1.477
10409SOL    HW132668   3.022   5.857   1.554
10409SOL    HW232669   3.050   5.841   1.394
10410SOL     OW32670   1.950   7.387   0.927
10410SOL    HW132671   1.908   7.301   0.900
10410SOL    HW232672   2.044   7.390   0.893
10411SOL     OW32673   2.366   7.154   0.910
10411SOL    HW132674   2.432   7.228   0.919
10411SOL    HW232675   2.410   7.075   0.868
10412SOL     OW32676   2.864   6.382   1.238
10412SOL    HW132677   2.905   6.350   1.324
10412SOL    HW232678   2.768   6.355   1.235
10413SOL     OW32679   1.902   6.130   1.114
10413SOL    HW132680   1.987   6.097   1.073
10413SOL    HW232681   1.915   6.145   1.212
10414SOL     OW32682   2.051   6.106   1.722
10414SOL    HW132683   2.110   6.066   1.652
10414SOL    HW232684   1.993   6.177   1.681
10415SOL     OW32685   3.231   6.536   1.660
10415SOL    HW132686   3.270   6.625   1.680
10415SOL    HW232687   3.241   6.516   1.563
10416SOL     OW32688   2.677   6.158   0.325
10416SOL    HW132689   2.684   6.069   0.279
10416SOL    HW232690   2.583   6.192   0.317
10417SOL     OW32691   3.519   6.190   1.206
10417SOL    HW132692   3.481   6.121   1.268
10417SOL    HW232693   3.601   6.154   1.162
10418SOL     OW32694   2.114   7.150   1.744
10418SOL    HW132695   2.084   7.207   1.820
10418SOL    HW232696   2.107   7.053   1.770
10419SOL     OW32697   2.533   6.050   1.269
10419SOL    HW132698   2.499   5.961   1.239
10419SOL    HW232699   2.559   6.104   1.189
10420SOL     OW32700   2.792   7.264   1.465
10420SOL    HW132701   2.768   7.246   1.370
10420SOL    HW232702   2.822   7.358   1.475
10421SOL     OW32703   2.335   6.086   0.191
10421SOL    HW132704   2.396   6.166   0.195
10421SOL    HW232705   2.240   6.117   0.198
10422SOL     OW32706   2.021   6.723   1.466
10422SOL    HW132707   2.043   6.662   1.542
10422SOL    HW232708   2.031   6.674   1.380
10423SOL     OW32709   3.209   6.645   1.234
10423SOL    HW132710   3.233   6.582   1.160
10423SOL    HW232711   3.119   6.685   1.216
10424SOL     OW32712   3.164   6.441   0.309
10424SOL    HW132713   3.078   6.410   0.351
10424SOL    HW232714   3.160   6.427   0.210
10425SOL     OW32715   3.621   7.333   1.154
10425SOL    HW132716   3.682   7.363   1.081
10425SOL    HW232717   3.583   7.244   1.132
10426SOL     OW32718   3.114   7.317   1.128
10426SOL    HW132719   3.198   7.322   1.074
10426SOL    HW232720   3.091   7.221   1.146
10427SOL     OW32721   1.945   6.844   1.022
10427SOL    HW132722   1.940   6.843   1.122
10427SOL    HW232723   1.862   6.803   0.984
10428SOL     OW32724   2.550   7.248   1.716
10428SOL    HW132725   2.494   7.329   1.725
10428SOL    HW232726   2.602   7.252   1.630
10429SOL     OW32727   2.765   5.672   0.133
10429SOL    HW132728   2.816   5.673   0.047
10429SOL    HW232729   2.821   5.630   0.204
10430SOL     OW32730   3.588   5.721   0.523
10430SOL    HW132731   3.661   5.704   0.456
10430SOL    HW232732   3.557   5.634   0.561
10431SOL     OW32733   3.250   7.159   0.477
10431SOL    HW132734   3.317   7.171   0.403
10431SOL    HW232735   3.210   7.248   0.500
10432SOL     OW32736   1.992   7.380   1.851
10432SOL    HW132737   1.951   7.306   1.904
10432SOL    HW232738   2.056   7.431   1.909
10433SOL     OW32739   3.142   6.513   0.672
10433SOL    HW132740   3.202   6.432   0.674
10433SOL    HW232741   3.182   6.582   0.612
10434SOL     OW32742   2.692   6.859   1.422
10434SOL    HW132743   2.687   6.892   1.517
10434SOL    HW232744   2.606   6.878   1.376
10435SOL     OW32745   2.534   7.202   0.154
10435SOL    HW132746   2.543   7.212   0.055
10435SOL    HW232747   2.494   7.113   0.175
10436SOL     OW32748   3.512   7.306   1.394
10436SOL    HW132749   3.565   7.316   1.310
10436SOL    HW232750   3.485   7.396   1.428
10437SOL     OW32751   3.703   5.761   0.963
10437SOL    HW132752   3.742   5.676   0.927
10437SOL    HW232753   3.605   5.763   0.944
10438SOL     OW32754   2.125   5.912   0.720
10438SOL    HW132755   2.046   5.963   0.686
10438SOL    HW232756   2.116   5.897   0.818
10439SOL     OW32757   3.056   7.198   0.031
10439SOL    HW132758   3.062   7.105   0.068
10439SOL    HW232759   2.997   7.198  -0.049
10440SOL     OW32760   2.684   6.588   1.372
10440SOL    HW132761   2.724   6.587   1.280
10440SOL    HW232762   2.694   6.680   1.412
10441SOL     OW32763   2.778   6.496   0.291
10441SOL    HW132764   2.841   6.534   0.223
10441SOL    HW232765   2.818   6.413   0.330
10442SOL     OW32766   3.366   7.193   0.044
10442SOL    HW132767   3.274   7.230   0.051
10442SOL    HW232768   3.404   7.213  -0.046
10443SOL     OW32769   2.234   6.874   1.490
10443SOL    HW132770   2.221   6.967   1.456
10443SOL    HW232771   2.150   6.822   1.477
10444SOL     OW32772   3.476   6.878   1.289
10444SOL    HW132773   3.536   6.881   1.369
10444SOL    HW232774   3.401   6.942   1.302
10445SOL     OW32775   2.901   6.684   0.696
10445SOL    HW132776   2.831   6.637   0.750
10445SOL    HW232777   2.960   6.616   0.653
10446SOL     OW32778   2.876   5.822   0.971
10446SOL    HW132779   2.868   5.786   0.878
10446SOL    HW232780   2.874   5.746   1.036
10447SOL     OW32781   2.452   7.073   0.491
10447SOL    HW132782   2.494   7.015   0.421
10447SOL    HW232783   2.408   7.152   0.447
10448SOL     OW32784   3.571   5.971   1.381
10448SOL    HW132785   3.644   6.040   1.385
10448SOL    HW232786   3.599   5.896   1.322
10449SOL     OW32787   2.117   6.934   0.290
10449SOL    HW132788   2.021   6.935   0.263
10449SOL    HW232789   2.129   6.987   0.374
10450SOL     OW32790   1.967   6.599   1.726
10450SOL    HW132791   1.890   6.566   1.780
10450SOL    HW232792   2.052   6.569   1.768
10451SOL     OW32793   2.534   5.789   1.489
10451SOL    HW132794   2.624   5.773   1.449
10451SOL    HW232795   2.542   5.794   1.588
10452SOL     OW32796   3.302   6.442   1.398
10452SOL    HW132797   3.245   6.494   1.335
10452SOL    HW232798   3.398   6.454   1.374
10453SOL     OW32799   1.934   5.752   0.318
10453SOL    HW132800   1.917   5.835   0.264
10453SOL    HW232801   2.024   5.715   0.296
10454SOL     OW32802   3.045   6.921   0.119
10454SOL    HW132803   2.946   6.910   0.121
10454SOL    HW232804   3.079   6.936   0.212
10455SOL     OW32805   2.475   6.428   1.431
10455SOL    HW132806   2.531   6.509   1.414
10455SOL    HW232807   2.534   6.348   1.434
10456SOL     OW32808   3.355   7.353   0.959
10456SOL    HW132809   3.388   7.417   0.890
10456SOL    HW232810   3.421   7.347   1.034
10457SOL     OW32811   2.578   6.151   1.708
10457SOL    HW132812   2.597   6.216   1.782
10457SOL    HW232813   2.638   6.071   1.717
10458SOL     OW32814   3.312   6.806   1.633
10458SOL    HW132815   3.303   6.796   1.732
10458SOL    HW232816   3.408   6.799   1.607
10459SOL     OW32817   2.252   7.327   1.560
10459SOL    HW132818   2.161   7.368   1.558
10459SOL    HW232819   2.245   7.233   1.592
10460SOL     OW32820   3.536   6.469   1.254
10460SOL    HW132821   3.509   6.380   1.217
10460SOL    HW232822   3.537   6.537   1.181
10461SOL     OW32823   3.087   5.911   0.449
10461SOL    HW132824   3.152   5.837   0.438
10461SOL    HW232825   3.107   5.961   0.533
10462SOL     OW32826   2.456   6.331   0.652
10462SOL    HW132827   2.506   6.416   0.633
10462SOL    HW232828   2.368   6.333   0.604
10463SOL     OW32829   3.639   5.928   1.642
10463SOL    HW132830   3.622   5.959   1.548
10463SOL    HW232831   3.555   5.891   1.680
10464SOL     OW32832   3.592   6.520   1.517
10464SOL    HW132833   3.630   6.611   1.532
10464SOL    HW232834   3.584   6.503   1.418
10465SOL     OW32835   2.721   6.960   0.016
10465SOL    HW132836   2.675   6.975   0.104
10465SOL    HW232837   2.765   7.045  -0.014
10466SOL     OW32838   2.523   7.376   0.953
10466SOL    HW132839   2.477   7.464   0.940
10466SOL    HW232840   2.622   7.388   0.946
10467SOL     OW32841   2.721   6.542   0.861
10467SOL    HW132842   2.775   6.473   0.909
10467SOL    HW232843   2.689   6.611   0.927
10468SOL     OW32844   2.945   6.570   0.087
10468SOL    HW132845   2.922   6.623   0.005
10468SOL    HW232846   3.026   6.514   0.068
10469SOL     OW32847   3.723   7.155   0.851
10469SOL    HW132848   3.652   7.143   0.781
10469SOL    HW232849   3.724   7.076   0.911
10470SOL     OW32850   2.083   6.900   1.844
10470SOL    HW132851   2.018   6.827   1.823
10470SOL    HW232852   2.087   6.914   1.942
10471SOL     OW32853   1.941   6.826   0.653
10471SOL    HW132854   1.940   6.779   0.741
10471SOL    HW232855   2.023   6.798   0.602
10472SOL     OW32856   2.534   6.977   1.624
10472SOL    HW132857   2.456   6.927   1.662
10472SOL    HW232858   2.531   7.072   1.655
10473SOL     OW32859   3.686   5.778   1.227
10473SOL    HW132860   3.682   5.688   1.271
10473SOL    HW232861   3.689   5.767   1.128
10474SOL     OW32862   2.290   6.010   0.520
10474SOL    HW132863   2.320   5.938   0.458
10474SOL    HW232864   2.251   5.970   0.603
10475SOL     OW32865   3.567   7.073   1.104
10475SOL    HW132866   3.474   7.048   1.077
10475SOL    HW232867   3.593   7.023   1.186
10476SOL     OW32868   2.179   6.133   1.280
10476SOL    HW132869   2.217   6.074   1.352
10476SOL    HW232870   2.219   6.107   1.192
10477SOL     OW32871   2.674   7.172   0.687
10477SOL    HW132872   2.706   7.182   0.593
10477SOL    HW232873   2.595   7.110   0.689
10478SOL     OW32874   3.286   5.800   1.112
10478SOL    HW132875   3.338   5.735   1.167
10478SOL    HW232876   3.237   5.863   1.173
10479SOL     OW32877   2.863   5.620   1.154
10479SOL    HW132878   2.800   5.548   1.123
10479SOL    HW232879   2.956   5.584   1.154
10480SOL     OW32880   2.632   6.916   0.301
10480SOL    HW132881   2.586   6.829   0.318
10480SOL    HW232882   2.723   6.913   0.342
10481SOL     OW32883   2.480   7.153   1.284
10481SOL    HW132884   2.475   7.235   1.341
10481SOL    HW232885   2.569   7.150   1.239
10482SOL     OW32886   3.214   5.638   0.168
10482SOL    HW132887   3.249   5.597   0.084
10482SOL    HW232888   3.124   5.600   0.188
10483SOL     OW32889   3.162   6.039   0.691
10483SOL    HW132890   3.103   6.119   0.695
10483SOL    HW232891   3.177   6.004   0.784
10484SOL     OW32892   3.455   5.807   0.882
10484SOL    HW132893   3.371   5.806   0.936
10484SOL    HW232894   3.457   5.890   0.826
10485SOL     OW32895   1.901   6.663   0.300
10485SOL    HW132896   2.000   6.652   0.291
10485SOL    HW232897   1.861   6.577   0.332
10486SOL     OW32898   2.737   7.232   0.337
10486SOL    HW132899   2.660   7.197   0.283
10486SOL    HW232900   2.705   7.303   0.399
10487SOL     OW32901   2.092   6.214   1.975
10487SOL    HW132902   1.999   6.212   2.012
10487SOL    HW232903   2.093   6.175   1.883
10488SOL     OW32904   2.087   5.861   2.858
10488SOL    HW132905   2.122   5.844   2.950
10488SOL    HW232906   1.999   5.816   2.846
10489SOL     OW32907   1.881   5.954   2.509
10489SOL    HW132908   1.799   5.997   2.548
10489SOL    HW232909   1.853   5.881   2.446
10490SOL     OW32910   2.431   6.861   3.027
10490SOL    HW132911   2.338   6.854   2.990
10490SOL    HW232912   2.442   6.950   3.071
10491SOL     OW32913   3.417   7.097   2.565
10491SOL    HW132914   3.360   7.081   2.646
10491SOL    HW232915   3.358   7.107   2.485
10492SOL     OW32916   2.997   6.289   2.579
10492SOL    HW132917   3.054   6.367   2.554
10492SOL    HW232918   2.937   6.315   2.655
10493SOL     OW32919   3.617   6.193   2.093
10493SOL    HW132920   3.605   6.180   1.994
10493SOL    HW232921   3.587   6.112   2.142
10494SOL     OW32922   2.630   6.730   2.885
10494SOL    HW132923   2.552   6.747   2.945
10494SOL    HW232924   2.664   6.817   2.849
10495SOL     OW32925   2.712   6.384   3.685
10495SOL    HW132926   2.708   6.460   3.750
10495SOL    HW232927   2.734   6.420   3.594
10496SOL     OW32928   2.547   6.598   2.527
10496SOL    HW132929   2.616   6.582   2.597
10496SOL    HW232930   2.474   6.655   2.565
10497SOL     OW32931   2.548   6.747   3.665
10497SOL    HW132932   2.608   6.826   3.679
10497SOL    HW232933   2.462   6.778   3.624
10498SOL     OW32934   2.197   7.021   2.923
10498SOL    HW132935   2.119   6.990   2.870
10498SOL    HW232936   2.255   7.079   2.866
10499SOL     OW32937   3.322   7.091   3.201
10499SOL    HW132938   3.346   7.185   3.227
10499SOL    HW232939   3.306   7.037   3.283
10500SOL     OW32940   2.300   5.978   3.361
10500SOL    HW132941   2.382   5.922   3.370
10500SOL    HW232942   2.219   5.920   3.365
10501SOL     OW32943   3.465   6.033   2.599
10501SOL    HW132944   3.391   6.079   2.549
10501SOL    HW232945   3.516   6.101   2.652
10502SOL     OW32946   2.093   7.299   2.345
10502SOL    HW132947   2.127   7.376   2.399
10502SOL    HW232948   2.137   7.299   2.255
10503SOL     OW32949   2.989   6.927   3.552
10503SOL    HW132950   3.036   6.927   3.640
10503SOL    HW232951   2.941   6.840   3.541
10504SOL     OW32952   2.092   7.020   2.400
10504SOL    HW132953   2.066   7.116   2.400
10504SOL    HW232954   2.021   6.966   2.445
10505SOL     OW32955   2.102   6.677   2.748
10505SOL    HW132956   2.116   6.593   2.800
10505SOL    HW232957   2.047   6.741   2.803
10506SOL     OW32958   2.482   7.372   3.301
10506SOL    HW132959   2.390   7.355   3.336
10506SOL    HW232960   2.510   7.464   3.327
10507SOL     OW32961   2.468   6.550   1.985
10507SOL    HW132962   2.475   6.634   1.931
10507SOL    HW232963   2.514   6.563   2.073
10508SOL     OW32964   3.456   5.700   3.342
10508SOL    HW132965   3.438   5.767   3.270
10508SOL    HW232966   3.453   5.746   3.431
10509SOL     OW32967   1.984   6.229   2.425
10509SOL    HW132968   1.939   6.141   2.442
10509SOL    HW232969   1.983   6.283   2.509
10510SOL     OW32970   3.704   7.353   2.221
10510SOL    HW132971   3.758   7.324   2.301
10510SOL    HW232972   3.734   7.443   2.192
10511SOL     OW32973   1.889   7.182   1.979
10511SOL    HW132974   1.870   7.086   2.000
10511SOL    HW232975   1.856   7.240   2.054
10512SOL     OW32976   3.551   6.508   2.474
10512SOL    HW132977   3.646   6.479   2.482
10512SOL    HW232978   3.543   6.573   2.399
10513SOL     OW32979   3.503   6.694   2.294
10513SOL    HW132980   3.589   6.696   2.242
10513SOL    HW232981   3.517   6.741   2.382
10514SOL     OW32982   1.975   6.323   3.459
10514SOL    HW132983   2.063   6.310   3.504
10514SOL    HW232984   1.962   6.420   3.437
10515SOL     OW32985   2.475   6.951   2.588
10515SOL    HW132986   2.426   6.864   2.597
10515SOL    HW232987   2.452   6.994   2.501
10516SOL     OW32988   3.155   6.814   3.285
10516SOL    HW132989   3.192   6.741   3.227
10516SOL    HW232990   3.207   6.819   3.370
10517SOL     OW32991   2.671   5.590   2.364
10517SOL    HW132992   2.711   5.681   2.355
10517SOL    HW232993   2.571   5.598   2.370
10518SOL     OW32994   2.059   6.562   3.126
10518SOL    HW132995   2.148   6.517   3.112
10518SOL    HW232996   1.986   6.497   3.107
10519SOL     OW32997   3.387   6.585   2.052
10519SOL    HW132998   3.324   6.509   2.065
10519SOL    HW232999   3.435   6.603   2.138
10520SOL     OW33000   3.049   7.378   3.478
10520SOL    HW133001   3.073   7.438   3.402
10520SOL    HW233002   3.056   7.283   3.448
10521SOL     OW33003   2.179   5.837   3.663
10521SOL    HW133004   2.250   5.908   3.669
10521SOL    HW233005   2.091   5.876   3.691
10522SOL     OW33006   3.328   7.003   2.815
10522SOL    HW133007   3.269   7.009   2.895
10522SOL    HW233008   3.313   6.915   2.769
10523SOL     OW33009   3.529   7.300   2.434
10523SOL    HW133010   3.488   7.277   2.346
10523SOL    HW233011   3.511   7.226   2.499
10524SOL     OW33012   2.460   6.315   2.132
10524SOL    HW133013   2.484   6.384   2.064
10524SOL    HW233014   2.382   6.348   2.186
10525SOL     OW33015   3.143   5.931   2.806
10525SOL    HW133016   3.057   5.881   2.793
10525SOL    HW233017   3.205   5.877   2.862
10526SOL     OW33018   3.438   7.248   2.169
10526SOL    HW133019   3.527   7.294   2.172
10526SOL    HW233020   3.417   7.224   2.074
10527SOL     OW33021   2.669   6.191   3.327
10527SOL    HW133022   2.622   6.188   3.416
10527SOL    HW233023   2.618   6.136   3.261
10528SOL     OW33024   3.256   6.055   3.536
10528SOL    HW133025   3.236   6.098   3.624
10528SOL    HW233026   3.334   5.993   3.545
10529SOL     OW33027   2.835   6.476   3.434
10529SOL    HW133028   2.881   6.392   3.405
10529SOL    HW233029   2.779   6.510   3.359
10530SOL     OW33030   2.853   5.996   3.104
10530SOL    HW133031   2.776   6.030   3.158
10530SOL    HW233032   2.819   5.945   3.025
10531SOL     OW33033   2.903   6.287   2.291
10531SOL    HW133034   2.929   6.283   2.387
10531SOL    HW233035   2.818   6.236   2.277
10532SOL     OW33036   1.938   6.397   2.651
10532SOL    HW133037   2.037   6.385   2.660
10532SOL    HW233038   1.914   6.492   2.672
10533SOL     OW33039   1.992   7.407   3.433
10533SOL    HW133040   1.982   7.392   3.532
10533SOL    HW233041   1.906   7.443   3.397
10534SOL     OW33042   2.727   5.934   2.057
10534SOL    HW133043   2.786   5.997   2.008
10534SOL    HW233044   2.746   5.840   2.028
10535SOL     OW33045   3.581   6.171   3.693
10535SOL    HW133046   3.555   6.260   3.657
10535SOL    HW233047   3.579   6.103   3.620
10536SOL     OW33048   3.224   6.730   2.407
10536SOL    HW133049   3.307   6.701   2.359
10536SOL    HW233050   3.175   6.797   2.351
10537SOL     OW33051   2.412   5.782   2.747
10537SOL    HW133052   2.407   5.777   2.847
10537SOL    HW233053   2.414   5.878   2.718
10538SOL     OW33054   2.870   7.042   2.339
10538SOL    HW133055   2.824   7.114   2.287
10538SOL    HW233056   2.866   7.062   2.437
10539SOL     OW33057   2.213   7.387   2.715
10539SOL    HW133058   2.263   7.301   2.721
10539SOL    HW233059   2.278   7.464   2.712
10540SOL     OW33060   3.657   6.652   2.735
10540SOL    HW133061   3.595   6.637   2.659
10540SOL    HW233062   3.605   6.663   2.820
10541SOL     OW33063   3.089   7.136   3.368
10541SOL    HW133064   3.095   7.059   3.432
10541SOL    HW233065   3.037   7.110   3.288
10542SOL     OW33066   2.183   6.529   2.104
10542SOL    HW133067   2.265   6.568   2.062
10542SOL    HW233068   2.156   6.447   2.055
10543SOL     OW33069   3.320   6.321   2.590
10543SOL    HW133070   3.315   6.256   2.665
10543SOL    HW233071   3.400   6.380   2.603
10544SOL     OW33072   2.323   6.852   3.589
10544SOL    HW133073   2.273   6.853   3.503
10544SOL    HW233074   2.260   6.834   3.665
10545SOL     OW33075   2.973   7.362   2.099
10545SOL    HW133076   2.913   7.300   2.149
10545SOL    HW233077   3.004   7.318   2.014
10546SOL     OW33078   2.064   5.871   3.360
10546SOL    HW133079   1.984   5.931   3.347
10546SOL    HW233080   2.054   5.822   3.446
10547SOL     OW33081   3.494   6.963   1.943
10547SOL    HW133082   3.462   7.057   1.933
10547SOL    HW233083   3.418   6.900   1.931
10548SOL     OW33084   2.326   7.329   2.185
10548SOL    HW133085   2.359   7.368   2.271
10548SOL    HW233086   2.402   7.322   2.120
10549SOL     OW33087   3.262   5.693   2.288
10549SOL    HW133088   3.238   5.656   2.198
10549SOL    HW233089   3.361   5.709   2.292
10550SOL     OW33090   2.111   7.371   3.103
10550SOL    HW133091   2.168   7.306   3.153
10550SOL    HW233092   2.095   7.338   3.010
10551SOL     OW33093   2.802   7.284   2.766
10551SOL    HW133094   2.882   7.227   2.787
10551SOL    HW233095   2.753   7.244   2.689
10552SOL     OW33096   2.244   6.286   2.342
10552SOL    HW133097   2.289   6.196   2.339
10552SOL    HW233098   2.150   6.275   2.375
10553SOL     OW33099   3.409   5.808   3.591
10553SOL    HW133100   3.404   5.845   3.683
10553SOL    HW233101   3.337   5.739   3.579
10554SOL     OW33102   2.476   5.708   1.979
10554SOL    HW133103   2.574   5.686   1.986
10554SOL    HW233104   2.445   5.691   1.886
10555SOL     OW33105   2.643   5.850   3.611
10555SOL    HW133106   2.710   5.789   3.654
10555SOL    HW233107   2.570   5.869   3.676
10556SOL     OW33108   2.750   7.100   3.057
10556SOL    HW133109   2.727   7.075   2.963
10556SOL    HW233110   2.811   7.031   3.096
10557SOL     OW33111   3.213   6.176   3.295
10557SOL    HW133112   3.241   6.133   3.380
10557SOL    HW233113   3.238   6.272   3.296
10558SOL     OW33114   2.665   6.988   2.786
10558SOL    HW133115   2.755   7.002   2.744
10558SOL    HW233116   2.594   6.990   2.715
10559SOL     OW33117   2.784   6.089   2.761
10559SOL    HW133118   2.759   6.080   2.665
10559SOL    HW233119   2.832   6.007   2.792
10560SOL     OW33120   2.401   5.650   2.374
10560SOL    HW133121   2.320   5.651   2.432
10560SOL    HW233122   2.404   5.733   2.319
10561SOL     OW33123   3.296   6.774   1.903
10561SOL    HW133124   3.328   6.698   1.960
10561SOL    HW233125   3.204   6.801   1.933
10562SOL     OW33126   2.159   5.621   2.033
10562SOL    HW133127   2.208   5.705   2.012
10562SOL    HW233128   2.221   5.556   2.078
10563SOL     OW33129   2.797   5.822   2.342
10563SOL    HW133130   2.749   5.863   2.264
10563SOL    HW233131   2.896   5.820   2.323
10564SOL     OW33132   2.938   6.269   3.326
10564SOL    HW133133   2.858   6.208   3.329
10564SOL    HW233134   3.019   6.216   3.302
10565SOL     OW33135   3.089   7.156   2.655
10565SOL    HW133136   3.110   7.230   2.590
10565SOL    HW233137   3.157   7.156   2.728
10566SOL     OW33138   2.321   6.738   2.603
10566SOL    HW133139   2.250   6.711   2.668
10566SOL    HW233140   2.295   6.710   2.510
10567SOL     OW33141   3.133   7.383   2.453
10567SOL    HW133142   3.177   7.447   2.389
10567SOL    HW233143   3.083   7.435   2.523
10568SOL     OW33144   2.894   6.135   1.878
10568SOL    HW133145   2.853   6.217   1.839
10568SOL    HW233146   2.958   6.161   1.951
10569SOL     OW33147   1.940   6.142   3.248
10569SOL    HW133148   2.032   6.141   3.207
10569SOL    HW233149   1.934   6.216   3.315
10570SOL     OW33150   2.423   5.808   3.009
10570SOL    HW133151   2.461   5.724   3.046
10570SOL    HW233152   2.335   5.827   3.053
10571SOL     OW33153   2.728   6.040   2.504
10571SOL    HW133154   2.696   6.112   2.442
10571SOL    HW233155   2.752   5.959   2.451
10572SOL     OW33156   2.879   5.625   2.615
10572SOL    HW133157   2.807   5.630   2.546
10572SOL    HW233158   2.855   5.556   2.684
10573SOL     OW33159   3.291   6.759   2.729
10573SOL    HW133160   3.236   6.675   2.722
10573SOL    HW233161   3.317   6.788   2.637
10574SOL     OW33162   3.328   6.176   2.854
10574SOL    HW133163   3.298   6.081   2.861
10574SOL    HW233164   3.401   6.192   2.920
10575SOL     OW33165   3.719   6.419   2.239
10575SOL    HW133166   3.761   6.355   2.303
10575SOL    HW233167   3.681   6.368   2.161
10576SOL     OW33168   2.350   6.971   2.036
10576SOL    HW133169   2.263   6.956   2.083
10576SOL    HW233170   2.333   6.997   1.941
10577SOL     OW33171   3.526   6.866   2.519
10577SOL    HW133172   3.625   6.874   2.533
10577SOL    HW233173   3.481   6.950   2.550
10578SOL     OW33174   3.252   6.161   1.940
10578SOL    HW133175   3.198   6.140   2.021
10578SOL    HW233176   3.343   6.120   1.949
10579SOL     OW33177   2.389   5.842   2.190
10579SOL    HW133178   2.416   5.783   2.115
10579SOL    HW233179   2.389   5.937   2.159
10580SOL     OW33180   3.616   6.809   3.450
10580SOL    HW133181   3.707   6.770   3.437
10580SOL    HW233182   3.624   6.905   3.474
10581SOL     OW33183   2.926   6.933   3.202
10581SOL    HW133184   2.846   6.910   3.257
10581SOL    HW233185   3.009   6.907   3.251
10582SOL     OW33186   3.454   7.215   3.487
10582SOL    HW133187   3.481   7.249   3.397
10582SOL    HW233188   3.533   7.177   3.533
10583SOL     OW33189   2.973   6.781   2.962
10583SOL    HW133190   2.933   6.825   3.043
10583SOL    HW233191   2.932   6.818   2.879
10584SOL     OW33192   3.500   6.685   2.941
10584SOL    HW133193   3.505   6.766   3.000
10584SOL    HW233194   3.414   6.687   2.890
10585SOL     OW33195   2.777   5.675   3.264
10585SOL    HW133196   2.802   5.655   3.169
10585SOL    HW233197   2.849   5.731   3.306
10586SOL     OW33198   2.842   6.702   3.581
10586SOL    HW133199   2.743   6.708   3.591
10586SOL    HW233200   2.865   6.622   3.525
10587SOL     OW33201   2.567   6.636   2.230
10587SOL    HW133202   2.553   6.643   2.329
10587SOL    HW233203   2.651   6.585   2.212
10588SOL     OW33204   2.272   6.399   3.113
10588SOL    HW133205   2.358   6.411   3.163
10588SOL    HW233206   2.230   6.312   3.140
10589SOL     OW33207   3.136   5.972   3.124
10589SOL    HW133208   3.157   6.046   3.188
10589SOL    HW233209   3.047   5.989   3.081
10590SOL     OW33210   1.926   7.150   3.193
10590SOL    HW133211   1.880   7.232   3.159
10590SOL    HW233212   2.024   7.169   3.202
10591SOL     OW33213   2.229   6.686   2.363
10591SOL    HW133214   2.222   6.769   2.307
10591SOL    HW233215   2.233   6.606   2.303
10592SOL     OW33216   2.428   6.123   2.727
10592SOL    HW133217   2.440   6.189   2.653
10592SOL    HW233218   2.474   6.157   2.810
10593SOL     OW33219   3.114   6.934   2.250
10593SOL    HW133220   3.164   7.011   2.290
10593SOL    HW233221   3.019   6.936   2.282
10594SOL     OW33222   3.134   7.031   3.004
10594SOL    HW133223   3.181   7.044   3.091
10594SOL    HW233224   3.068   6.957   3.013
10595SOL     OW33225   3.444   6.225   2.334
10595SOL    HW133226   3.413   6.286   2.407
10595SOL    HW233227   3.494   6.277   2.265
10596SOL     OW33228   2.216   7.096   3.191
10596SOL    HW133229   2.195   7.052   3.104
10596SOL    HW233230   2.313   7.122   3.194
10597SOL     OW33231   2.264   6.337   3.460
10597SOL    HW133232   2.332   6.392   3.413
10597SOL    HW233233   2.304   6.249   3.487
10598SOL     OW33234   3.449   6.365   3.532
10598SOL    HW133235   3.357   6.403   3.527
10598SOL    HW233236   3.509   6.412   3.467
10599SOL     OW33237   2.875   5.691   3.632
10599SOL    HW133238   2.881   5.776   3.580
10599SOL    HW233239   2.907   5.615   3.575
10600SOL     OW33240   2.366   5.636   3.602
10600SOL    HW133241   2.324   5.579   3.532
10600SOL    HW233242   2.300   5.705   3.634
10601SOL     OW33243   2.435   6.456   2.891
10601SOL    HW133244   2.479   6.545   2.882
10601SOL    HW233245   2.372   6.456   2.968
10602SOL     OW33246   3.222   6.448   2.907
10602SOL    HW133247   3.147   6.448   2.841
10602SOL    HW233248   3.259   6.356   2.916
10603SOL     OW33249   3.071   6.111   2.137
10603SOL    HW133250   3.084   6.027   2.191
10603SOL    HW233251   3.042   6.185   2.197
10604SOL     OW33252   2.169   5.799   3.093
10604SOL    HW133253   2.146   5.836   3.183
10604SOL    HW233254   2.139   5.704   3.087
10605SOL     OW33255   1.899   6.896   3.144
10605SOL    HW133256   1.952   6.847   3.212
10605SOL    HW233257   1.921   6.994   3.149
10606SOL     OW33258   2.594   6.220   2.926
10606SOL    HW133259   2.653   6.194   2.850
10606SOL    HW233260   2.566   6.316   2.915
10607SOL     OW33261   3.590   6.521   3.716
10607SOL    HW133262   3.544   6.514   3.627
10607SOL    HW233263   3.528   6.565   3.782
10608SOL     OW33264   2.169   5.649   2.480
10608SOL    HW133265   2.158   5.743   2.513
10608SOL    HW233266   2.164   5.586   2.557
10609SOL     OW33267   3.484   5.953   2.236
10609SOL    HW133268   3.486   5.877   2.300
10609SOL    HW233269   3.436   6.030   2.276
10610SOL     OW33270   2.885   6.352   2.828
10610SOL    HW133271   2.900   6.373   2.924
10610SOL    HW233272   2.855   6.257   2.819
10611SOL     OW33273   2.842   7.159   3.562
10611SOL    HW133274   2.822   7.203   3.474
10611SOL    HW233275   2.881   7.068   3.546
10612SOL     OW33276   3.721   7.104   3.467
10612SOL    HW133277   3.735   7.131   3.372
10612SOL    HW233278   3.804   7.126   3.520
10613SOL     OW33279   2.212   6.484   3.666
10613SOL    HW133280   2.288   6.528   3.714
10613SOL    HW233281   2.247   6.437   3.584
10614SOL     OW33282   3.402   5.860   1.987
10614SOL    HW133283   3.341   5.785   2.010
10614SOL    HW233284   3.424   5.912   2.070
10615SOL     OW33285   3.165   6.424   1.904
10615SOL    HW133286   3.199   6.331   1.919
10615SOL    HW233287   3.183   6.451   1.809
10616SOL     OW33288   2.930   6.919   2.711
10616SOL    HW133289   2.937   6.835   2.656
10616SOL    HW233290   2.992   6.988   2.675
10617SOL     OW33291   2.181   6.396   2.811
10617SOL    HW133292   2.274   6.432   2.816
10617SOL    HW233293   2.175   6.311   2.863
10618SOL     OW33294   2.201   6.095   2.868
10618SOL    HW133295   2.149   6.012   2.851
10618SOL    HW233296   2.278   6.100   2.804
10619SOL     OW33297   3.000   5.966   3.540
10619SOL    HW133298   2.955   6.029   3.604
10619SOL    HW233299   3.093   5.997   3.523
10620SOL     OW33300   3.022   5.793   3.339
10620SOL    HW133301   3.022   5.857   3.416
10620SOL    HW233302   3.050   5.841   3.256
10621SOL     OW33303   1.870   6.912   2.062
10621SOL    HW133304   1.777   6.933   2.031
10621SOL    HW233305   1.880   6.813   2.075
10622SOL     OW33306   1.950   7.387   2.789
10622SOL    HW133307   1.908   7.301   2.762
10622SOL    HW233308   2.044   7.390   2.755
10623SOL     OW33309   2.366   7.154   2.772
10623SOL    HW133310   2.432   7.228   2.781
10623SOL    HW233311   2.410   7.075   2.730
10624SOL     OW33312   2.864   6.382   3.100
10624SOL    HW133313   2.905   6.350   3.186
10624SOL    HW233314   2.768   6.355   3.097
10625SOL     OW33315   1.902   6.130   2.976
10625SOL    HW133316   1.987   6.097   2.935
10625SOL    HW233317   1.915   6.145   3.074
10626SOL     OW33318   2.051   6.106   3.584
10626SOL    HW133319   2.110   6.066   3.514
10626SOL    HW233320   1.993   6.177   3.543
10627SOL     OW33321   3.231   6.536   3.522
10627SOL    HW133322   3.270   6.625   3.542
10627SOL    HW233323   3.241   6.516   3.425
10628SOL     OW33324   2.677   6.158   2.187
10628SOL    HW133325   2.684   6.069   2.141
10628SOL    HW233326   2.583   6.192   2.179
10629SOL     OW33327   3.519   6.190   3.068
10629SOL    HW133328   3.481   6.121   3.130
10629SOL    HW233329   3.601   6.154   3.024
10630SOL     OW33330   2.114   7.150   3.606
10630SOL    HW133331   2.084   7.207   3.682
10630SOL    HW233332   2.107   7.053   3.632
10631SOL     OW33333   2.533   6.050   3.131
10631SOL    HW133334   2.499   5.961   3.101
10631SOL    HW233335   2.559   6.104   3.051
10632SOL     OW33336   2.792   7.264   3.327
10632SOL    HW133337   2.768   7.246   3.232
10632SOL    HW233338   2.822   7.358   3.337
10633SOL     OW33339   2.335   6.086   2.053
10633SOL    HW133340   2.396   6.166   2.057
10633SOL    HW233341   2.240   6.117   2.060
10634SOL     OW33342   2.021   6.723   3.328
10634SOL    HW133343   2.043   6.662   3.404
10634SOL    HW233344   2.031   6.674   3.242
10635SOL     OW33345   3.209   6.645   3.096
10635SOL    HW133346   3.233   6.582   3.022
10635SOL    HW233347   3.119   6.685   3.078
10636SOL     OW33348   3.164   6.441   2.171
10636SOL    HW133349   3.078   6.410   2.213
10636SOL    HW233350   3.160   6.427   2.072
10637SOL     OW33351   3.621   7.333   3.016
10637SOL    HW133352   3.682   7.363   2.943
10637SOL    HW233353   3.583   7.244   2.994
10638SOL     OW33354   3.114   7.317   2.990
10638SOL    HW133355   3.198   7.322   2.936
10638SOL    HW233356   3.091   7.221   3.008
10639SOL     OW33357   1.945   6.844   2.884
10639SOL    HW133358   1.940   6.843   2.984
10639SOL    HW233359   1.862   6.803   2.846
10640SOL     OW33360   2.550   7.248   3.578
10640SOL    HW133361   2.494   7.329   3.587
10640SOL    HW233362   2.602   7.252   3.492
10641SOL     OW33363   3.588   5.721   2.385
10641SOL    HW133364   3.661   5.704   2.318
10641SOL    HW233365   3.557   5.634   2.423
10642SOL     OW33366   3.250   7.159   2.339
10642SOL    HW133367   3.317   7.171   2.265
10642SOL    HW233368   3.210   7.248   2.362
10643SOL     OW33369   1.992   7.380   3.713
10643SOL    HW133370   1.951   7.306   3.766
10643SOL    HW233371   2.056   7.431   3.771
10644SOL     OW33372   3.142   6.513   2.534
10644SOL    HW133373   3.202   6.432   2.536
10644SOL    HW233374   3.182   6.582   2.474
10645SOL     OW33375   2.692   6.859   3.284
10645SOL    HW133376   2.687   6.892   3.379
10645SOL    HW233377   2.606   6.878   3.238
10646SOL     OW33378   2.534   7.202   2.016
10646SOL    HW133379   2.543   7.212   1.917
10646SOL    HW233380   2.494   7.113   2.037
10647SOL     OW33381   3.512   7.306   3.256
10647SOL    HW133382   3.565   7.316   3.172
10647SOL    HW233383   3.485   7.396   3.290
10648SOL     OW33384   3.703   5.761   2.825
10648SOL    HW133385   3.742   5.676   2.789
10648SOL    HW233386   3.605   5.763   2.806
10649SOL     OW33387   2.125   5.912   2.582
10649SOL    HW133388   2.046   5.963   2.548
10649SOL    HW233389   2.116   5.897   2.680
10650SOL     OW33390   3.056   7.198   1.893
10650SOL    HW133391   3.062   7.105   1.930
10650SOL    HW233392   2.997   7.198   1.813
10651SOL     OW33393   2.684   6.588   3.234
10651SOL    HW133394   2.724   6.587   3.142
10651SOL    HW233395   2.694   6.680   3.274
10652SOL     OW33396   2.778   6.496   2.153
10652SOL    HW133397   2.841   6.534   2.085
10652SOL    HW233398   2.818   6.413   2.192
10653SOL     OW33399   3.366   7.193   1.906
10653SOL    HW133400   3.274   7.230   1.913
10653SOL    HW233401   3.404   7.213   1.816
10654SOL     OW33402   2.234   6.874   3.352
10654SOL    HW133403   2.221   6.967   3.318
10654SOL    HW233404   2.150   6.822   3.339
10655SOL     OW33405   3.476   6.878   3.151
10655SOL    HW133406   3.536   6.881   3.231
10655SOL    HW233407   3.401   6.942   3.164
10656SOL     OW33408   2.901   6.684   2.558
10656SOL    HW133409   2.831   6.637   2.612
10656SOL    HW233410   2.960   6.616   2.515
10657SOL     OW33411   2.876   5.822   2.833
10657SOL    HW133412   2.868   5.786   2.740
10657SOL    HW233413   2.874   5.746   2.898
10658SOL     OW33414   2.452   7.073   2.353
10658SOL    HW133415   2.494   7.015   2.283
10658SOL    HW233416   2.408   7.152   2.309
10659SOL     OW33417   3.571   5.971   3.243
10659SOL    HW133418   3.644   6.040   3.247
10659SOL    HW233419   3.599   5.896   3.184
10660SOL     OW33420   2.117   6.934   2.152
10660SOL    HW133421   2.021   6.935   2.125
10660SOL    HW233422   2.129   6.987   2.236
10661SOL     OW33423   1.967   6.599   3.588
10661SOL    HW133424   1.890   6.566   3.642
10661SOL    HW233425   2.052   6.569   3.630
10662SOL     OW33426   2.534   5.789   3.351
10662SOL    HW133427   2.624   5.773   3.311
10662SOL    HW233428   2.542   5.794   3.450
10663SOL     OW33429   1.937   5.931   1.895
10663SOL    HW133430   1.845   5.903   1.866
10663SOL    HW233431   1.968   6.008   1.839
10664SOL     OW33432   3.302   6.442   3.260
10664SOL    HW133433   3.245   6.494   3.197
10664SOL    HW233434   3.398   6.454   3.236
10665SOL     OW33435   1.934   5.752   2.180
10665SOL    HW133436   1.917   5.835   2.126
10665SOL    HW233437   2.024   5.715   2.158
10666SOL     OW33438   3.045   6.921   1.981
10666SOL    HW133439   2.946   6.910   1.983
10666SOL    HW233440   3.079   6.936   2.074
10667SOL     OW33441   2.475   6.428   3.293
10667SOL    HW133442   2.531   6.509   3.276
10667SOL    HW233443   2.534   6.348   3.296
10668SOL     OW33444   3.355   7.353   2.821
10668SOL    HW133445   3.388   7.417   2.752
10668SOL    HW233446   3.421   7.347   2.896
10669SOL     OW33447   2.578   6.151   3.570
10669SOL    HW133448   2.597   6.216   3.644
10669SOL    HW233449   2.638   6.071   3.579
10670SOL     OW33450   3.312   6.806   3.495
10670SOL    HW133451   3.303   6.796   3.594
10670SOL    HW233452   3.408   6.799   3.469
10671SOL     OW33453   2.252   7.327   3.422
10671SOL    HW133454   2.161   7.368   3.420
10671SOL    HW233455   2.245   7.233   3.454
10672SOL     OW33456   3.536   6.469   3.116
10672SOL    HW133457   3.509   6.380   3.079
10672SOL    HW233458   3.537   6.537   3.043
10673SOL     OW33459   3.087   5.911   2.311
10673SOL    HW133460   3.152   5.837   2.300
10673SOL    HW233461   3.107   5.961   2.395
10674SOL     OW33462   2.456   6.331   2.514
10674SOL    HW133463   2.506   6.416   2.495
10674SOL    HW233464   2.368   6.333   2.466
10675SOL     OW33465   3.639   5.928   3.504
10675SOL    HW133466   3.622   5.959   3.410
10675SOL    HW233467   3.555   5.891   3.542
10676SOL     OW33468   3.592   6.520   3.379
10676SOL    HW133469   3.630   6.611   3.394
10676SOL    HW233470   3.584   6.503   3.280
10677SOL     OW33471   2.721   6.960   1.878
10677SOL    HW133472   2.675   6.975   1.966
10677SOL    HW233473   2.765   7.045   1.848
10678SOL     OW33474   2.523   7.376   2.815
10678SOL    HW133475   2.477   7.464   2.802
10678SOL    HW233476   2.622   7.388   2.808
10679SOL     OW33477   2.721   6.542   2.723
10679SOL    HW133478   2.775   6.473   2.771
10679SOL    HW233479   2.689   6.611   2.789
10680SOL     OW33480   2.945   6.570   1.949
10680SOL    HW133481   2.922   6.623   1.867
10680SOL    HW233482   3.026   6.514   1.930
10681SOL     OW33483   3.723   7.155   2.713
10681SOL    HW133484   3.652   7.143   2.643
10681SOL    HW233485   3.724   7.076   2.773
10682SOL     OW33486   2.083   6.900   3.706
10682SOL    HW133487   2.018   6.827   3.685
10682SOL    HW233488   2.087   6.914   3.804
10683SOL     OW33489   1.941   6.826   2.515
10683SOL    HW133490   1.940   6.779   2.603
10683SOL    HW233491   2.023   6.798   2.464
10684SOL     OW33492   2.534   6.977   3.486
10684SOL    HW133493   2.456   6.927   3.524
10684SOL    HW233494   2.531   7.072   3.517
10685SOL     OW33495   3.686   5.778   3.089
10685SOL    HW133496   3.682   5.688   3.133
10685SOL    HW233497   3.689   5.767   2.990
10686SOL     OW33498   2.290   6.010   2.382
10686SOL    HW133499   2.320   5.938   2.320
10686SOL    HW233500   2.251   5.970   2.465
10687SOL     OW33501   3.567   7.073   2.966
10687SOL    HW133502   3.474   7.048   2.939
10687SOL    HW233503   3.593   7.023   3.048
10688SOL     OW33504   2.179   6.133   3.142
10688SOL    HW133505   2.217   6.074   3.214
10688SOL    HW233506   2.219   6.107   3.054
10689SOL     OW33507   2.674   7.172   2.549
10689SOL    HW133508   2.706   7.182   2.455
10689SOL    HW233509   2.595   7.110   2.551
10690SOL     OW33510   3.286   5.800   2.974
10690SOL    HW133511   3.338   5.735   3.029
10690SOL    HW233512   3.237   5.863   3.035
10691SOL     OW33513   2.863   5.620   3.016
10691SOL    HW133514   2.800   5.548   2.985
10691SOL    HW233515   2.956   5.584   3.016
10692SOL     OW33516   2.632   6.916   2.163
10692SOL    HW133517   2.586   6.829   2.180
10692SOL    HW233518   2.723   6.913   2.204
10693SOL     OW33519   2.480   7.153   3.146
10693SOL    HW133520   2.475   7.235   3.203
10693SOL    HW233521   2.569   7.150   3.101
10694SOL     OW33522   3.214   5.638   2.030
10694SOL    HW133523   3.249   5.597   1.946
10694SOL    HW233524   3.124   5.600   2.050
10695SOL     OW33525   3.162   6.039   2.553
10695SOL    HW133526   3.103   6.119   2.557
10695SOL    HW233527   3.177   6.004   2.646
10696SOL     OW33528   3.455   5.807   2.744
10696SOL    HW133529   3.371   5.806   2.798
10696SOL    HW233530   3.457   5.890   2.688
10697SOL     OW33531   1.901   6.663   2.162
10697SOL    HW133532   2.000   6.652   2.153
10697SOL    HW233533   1.861   6.577   2.194
10698SOL     OW33534   2.737   7.232   2.199
10698SOL    HW133535   2.660   7.197   2.145
10698SOL    HW233536   2.705   7.303   2.261
10699SOL     OW33537   2.092   6.214   3.837
10699SOL    HW133538   1.999   6.212   3.874
10699SOL    HW233539   2.093   6.175   3.745
10700SOL     OW33540   2.087   5.861   4.720
10700SOL    HW133541   2.122   5.844   4.812
10700SOL    HW233542   1.999   5.816   4.708
10701SOL     OW33543   1.881   5.954   4.371
10701SOL    HW133544   1.799   5.997   4.410
10701SOL    HW233545   1.853   5.881   4.308
10702SOL     OW33546   2.431   6.861   4.889
10702SOL    HW133547   2.338   6.854   4.852
10702SOL    HW233548   2.442   6.950   4.933
10703SOL     OW33549   3.417   7.097   4.427
10703SOL    HW133550   3.360   7.081   4.508
10703SOL    HW233551   3.358   7.107   4.347
10704SOL     OW33552   2.997   6.289   4.441
10704SOL    HW133553   3.054   6.367   4.416
10704SOL    HW233554   2.937   6.315   4.517
10705SOL     OW33555   3.617   6.193   3.955
10705SOL    HW133556   3.605   6.180   3.856
10705SOL    HW233557   3.587   6.112   4.004
10706SOL     OW33558   2.630   6.730   4.747
10706SOL    HW133559   2.552   6.747   4.807
10706SOL    HW233560   2.664   6.817   4.711
10707SOL     OW33561   2.712   6.384   5.547
10707SOL    HW133562   2.708   6.460   5.612
10707SOL    HW233563   2.734   6.420   5.456
10708SOL     OW33564   2.547   6.598   4.389
10708SOL    HW133565   2.616   6.582   4.459
10708SOL    HW233566   2.474   6.655   4.427
10709SOL     OW33567   2.548   6.747   5.527
10709SOL    HW133568   2.608   6.826   5.541
10709SOL    HW233569   2.462   6.778   5.486
10710SOL     OW33570   2.197   7.021   4.785
10710SOL    HW133571   2.119   6.990   4.732
10710SOL    HW233572   2.255   7.079   4.728
10711SOL     OW33573   3.322   7.091   5.063
10711SOL    HW133574   3.346   7.185   5.089
10711SOL    HW233575   3.306   7.037   5.145
10712SOL     OW33576   2.300   5.978   5.223
10712SOL    HW133577   2.382   5.922   5.232
10712SOL    HW233578   2.219   5.920   5.227
10713SOL     OW33579   3.465   6.033   4.461
10713SOL    HW133580   3.391   6.079   4.411
10713SOL    HW233581   3.516   6.101   4.514
10714SOL     OW33582   2.093   7.299   4.207
10714SOL    HW133583   2.127   7.376   4.261
10714SOL    HW233584   2.137   7.299   4.117
10715SOL     OW33585   2.989   6.927   5.414
10715SOL    HW133586   3.036   6.927   5.502
10715SOL    HW233587   2.941   6.840   5.403
10716SOL     OW33588   2.092   7.020   4.262
10716SOL    HW133589   2.066   7.116   4.262
10716SOL    HW233590   2.021   6.966   4.307
10717SOL     OW33591   2.102   6.677   4.610
10717SOL    HW133592   2.116   6.593   4.662
10717SOL    HW233593   2.047   6.741   4.665
10718SOL     OW33594   2.482   7.372   5.163
10718SOL    HW133595   2.390   7.355   5.198
10718SOL    HW233596   2.510   7.464   5.189
10719SOL     OW33597   2.468   6.550   3.847
10719SOL    HW133598   2.475   6.634   3.793
10719SOL    HW233599   2.514   6.563   3.935
10720SOL     OW33600   3.456   5.700   5.204
10720SOL    HW133601   3.438   5.767   5.132
10720SOL    HW233602   3.453   5.746   5.293
10721SOL     OW33603   1.984   6.229   4.287
10721SOL    HW133604   1.939   6.141   4.304
10721SOL    HW233605   1.983   6.283   4.371
10722SOL     OW33606   3.704   7.353   4.083
10722SOL    HW133607   3.758   7.324   4.163
10722SOL    HW233608   3.734   7.443   4.054
10723SOL     OW33609   1.889   7.182   3.841
10723SOL    HW133610   1.870   7.086   3.862
10723SOL    HW233611   1.856   7.240   3.916
10724SOL     OW33612   3.551   6.508   4.336
10724SOL    HW133613   3.646   6.479   4.344
10724SOL    HW233614   3.543   6.573   4.261
10725SOL     OW33615   3.503   6.694   4.156
10725SOL    HW133616   3.589   6.696   4.104
10725SOL    HW233617   3.517   6.741   4.244
10726SOL     OW33618   1.975   6.323   5.321
10726SOL    HW133619   2.063   6.310   5.366
10726SOL    HW233620   1.962   6.420   5.299
10727SOL     OW33621   2.475   6.951   4.450
10727SOL    HW133622   2.426   6.864   4.459
10727SOL    HW233623   2.452   6.994   4.363
10728SOL     OW33624   3.155   6.814   5.147
10728SOL    HW133625   3.192   6.741   5.089
10728SOL    HW233626   3.207   6.819   5.232
10729SOL     OW33627   2.671   5.590   4.226
10729SOL    HW133628   2.711   5.681   4.217
10729SOL    HW233629   2.571   5.598   4.232
10730SOL     OW33630   2.059   6.562   4.988
10730SOL    HW133631   2.148   6.517   4.974
10730SOL    HW233632   1.986   6.497   4.969
10731SOL     OW33633   3.387   6.585   3.914
10731SOL    HW133634   3.324   6.509   3.927
10731SOL    HW233635   3.435   6.603   4.000
10732SOL     OW33636   3.049   7.378   5.340
10732SOL    HW133637   3.073   7.438   5.264
10732SOL    HW233638   3.056   7.283   5.310
10733SOL     OW33639   2.179   5.837   5.525
10733SOL    HW133640   2.250   5.908   5.531
10733SOL    HW233641   2.091   5.876   5.553
10734SOL     OW33642   3.328   7.003   4.677
10734SOL    HW133643   3.269   7.009   4.757
10734SOL    HW233644   3.313   6.915   4.631
10735SOL     OW33645   3.529   7.300   4.296
10735SOL    HW133646   3.488   7.277   4.208
10735SOL    HW233647   3.511   7.226   4.361
10736SOL     OW33648   2.460   6.315   3.994
10736SOL    HW133649   2.484   6.384   3.926
10736SOL    HW233650   2.382   6.348   4.048
10737SOL     OW33651   3.143   5.931   4.668
10737SOL    HW133652   3.057   5.881   4.655
10737SOL    HW233653   3.205   5.877   4.724
10738SOL     OW33654   3.438   7.248   4.031
10738SOL    HW133655   3.527   7.294   4.034
10738SOL    HW233656   3.417   7.224   3.936
10739SOL     OW33657   2.669   6.191   5.189
10739SOL    HW133658   2.622   6.188   5.278
10739SOL    HW233659   2.618   6.136   5.123
10740SOL     OW33660   3.256   6.055   5.398
10740SOL    HW133661   3.236   6.098   5.486
10740SOL    HW233662   3.334   5.993   5.407
10741SOL     OW33663   2.835   6.476   5.296
10741SOL    HW133664   2.881   6.392   5.267
10741SOL    HW233665   2.779   6.510   5.221
10742SOL     OW33666   2.853   5.996   4.966
10742SOL    HW133667   2.776   6.030   5.020
10742SOL    HW233668   2.819   5.945   4.887
10743SOL     OW33669   2.903   6.287   4.153
10743SOL    HW133670   2.929   6.283   4.249
10743SOL    HW233671   2.818   6.236   4.139
10744SOL     OW33672   1.938   6.397   4.513
10744SOL    HW133673   2.037   6.385   4.522
10744SOL    HW233674   1.914   6.492   4.534
10745SOL     OW33675   1.992   7.407   5.295
10745SOL    HW133676   1.982   7.392   5.394
10745SOL    HW233677   1.906   7.443   5.259
10746SOL     OW33678   2.727   5.934   3.919
10746SOL    HW133679   2.786   5.997   3.870
10746SOL    HW233680   2.746   5.840   3.890
10747SOL     OW33681   3.581   6.171   5.555
10747SOL    HW133682   3.555   6.260   5.519
10747SOL    HW233683   3.579   6.103   5.482
10748SOL     OW33684   3.224   6.730   4.269
10748SOL    HW133685   3.307   6.701   4.221
10748SOL    HW233686   3.175   6.797   4.213
10749SOL     OW33687   2.412   5.782   4.609
10749SOL    HW133688   2.407   5.777   4.709
10749SOL    HW233689   2.414   5.878   4.580
10750SOL     OW33690   2.870   7.042   4.201
10750SOL    HW133691   2.824   7.114   4.149
10750SOL    HW233692   2.866   7.062   4.299
10751SOL     OW33693   2.213   7.387   4.577
10751SOL    HW133694   2.263   7.301   4.583
10751SOL    HW233695   2.278   7.464   4.574
10752SOL     OW33696   3.657   6.652   4.597
10752SOL    HW133697   3.595   6.637   4.521
10752SOL    HW233698   3.605   6.663   4.682
10753SOL     OW33699   3.089   7.136   5.230
10753SOL    HW133700   3.095   7.059   5.294
10753SOL    HW233701   3.037   7.110   5.150
10754SOL     OW33702   2.183   6.529   3.966
10754SOL    HW133703   2.265   6.568   3.924
10754SOL    HW233704   2.156   6.447   3.917
10755SOL     OW33705   3.320   6.321   4.452
10755SOL    HW133706   3.315   6.256   4.527
10755SOL    HW233707   3.400   6.380   4.465
10756SOL     OW33708   2.323   6.852   5.451
10756SOL    HW133709   2.273   6.853   5.365
10756SOL    HW233710   2.260   6.834   5.527
10757SOL     OW33711   2.973   7.362   3.961
10757SOL    HW133712   2.913   7.300   4.011
10757SOL    HW233713   3.004   7.318   3.876
10758SOL     OW33714   2.064   5.871   5.222
10758SOL    HW133715   1.984   5.931   5.209
10758SOL    HW233716   2.054   5.822   5.308
10759SOL     OW33717   3.494   6.963   3.805
10759SOL    HW133718   3.462   7.057   3.795
10759SOL    HW233719   3.418   6.900   3.793
10760SOL     OW33720   2.326   7.329   4.047
10760SOL    HW133721   2.359   7.368   4.133
10760SOL    HW233722   2.402   7.322   3.982
10761SOL     OW33723   3.262   5.693   4.150
10761SOL    HW133724   3.238   5.656   4.060
10761SOL    HW233725   3.361   5.709   4.154
10762SOL     OW33726   2.111   7.371   4.965
10762SOL    HW133727   2.168   7.306   5.015
10762SOL    HW233728   2.095   7.338   4.872
10763SOL     OW33729   2.802   7.284   4.628
10763SOL    HW133730   2.882   7.227   4.649
10763SOL    HW233731   2.753   7.244   4.551
10764SOL     OW33732   2.244   6.286   4.204
10764SOL    HW133733   2.289   6.196   4.201
10764SOL    HW233734   2.150   6.275   4.237
10765SOL     OW33735   3.409   5.808   5.453
10765SOL    HW133736   3.404   5.845   5.545
10765SOL    HW233737   3.337   5.739   5.441
10766SOL     OW33738   2.476   5.708   3.841
10766SOL    HW133739   2.574   5.686   3.848
10766SOL    HW233740   2.445   5.691   3.748
10767SOL     OW33741   2.643   5.850   5.473
10767SOL    HW133742   2.710   5.789   5.516
10767SOL    HW233743   2.570   5.869   5.538
10768SOL     OW33744   2.750   7.100   4.919
10768SOL    HW133745   2.727   7.075   4.825
10768SOL    HW233746   2.811   7.031   4.958
10769SOL     OW33747   3.213   6.176   5.157
10769SOL    HW133748   3.241   6.133   5.242
10769SOL    HW233749   3.238   6.272   5.158
10770SOL     OW33750   2.665   6.988   4.648
10770SOL    HW133751   2.755   7.002   4.606
10770SOL    HW233752   2.594   6.990   4.577
10771SOL     OW33753   2.784   6.089   4.623
10771SOL    HW133754   2.759   6.080   4.527
10771SOL    HW233755   2.832   6.007   4.654
10772SOL     OW33756   2.401   5.650   4.236
10772SOL    HW133757   2.320   5.651   4.294
10772SOL    HW233758   2.404   5.733   4.181
10773SOL     OW33759   3.296   6.774   3.765
10773SOL    HW133760   3.328   6.698   3.822
10773SOL    HW233761   3.204   6.801   3.795
10774SOL     OW33762   2.159   5.621   3.895
10774SOL    HW133763   2.208   5.705   3.874
10774SOL    HW233764   2.221   5.556   3.940
10775SOL     OW33765   2.797   5.822   4.204
10775SOL    HW133766   2.749   5.863   4.126
10775SOL    HW233767   2.896   5.820   4.185
10776SOL     OW33768   2.938   6.269   5.188
10776SOL    HW133769   2.858   6.208   5.191
10776SOL    HW233770   3.019   6.216   5.164
10777SOL     OW33771   3.089   7.156   4.517
10777SOL    HW133772   3.110   7.230   4.452
10777SOL    HW233773   3.157   7.156   4.590
10778SOL     OW33774   2.321   6.738   4.465
10778SOL    HW133775   2.250   6.711   4.530
10778SOL    HW233776   2.295   6.710   4.372
10779SOL     OW33777   3.133   7.383   4.315
10779SOL    HW133778   3.177   7.447   4.251
10779SOL    HW233779   3.083   7.435   4.385
10780SOL     OW33780   2.894   6.135   3.740
10780SOL    HW133781   2.853   6.217   3.701
10780SOL    HW233782   2.958   6.161   3.813
10781SOL     OW33783   1.940   6.142   5.110
10781SOL    HW133784   2.032   6.141   5.069
10781SOL    HW233785   1.934   6.216   5.177
10782SOL     OW33786   2.423   5.808   4.871
10782SOL    HW133787   2.461   5.724   4.908
10782SOL    HW233788   2.335   5.827   4.915
10783SOL     OW33789   2.728   6.040   4.366
10783SOL    HW133790   2.696   6.112   4.304
10783SOL    HW233791   2.752   5.959   4.313
10784SOL     OW33792   2.879   5.625   4.477
10784SOL    HW133793   2.807   5.630   4.408
10784SOL    HW233794   2.855   5.556   4.546
10785SOL     OW33795   3.291   6.759   4.591
10785SOL    HW133796   3.236   6.675   4.584
10785SOL    HW233797   3.317   6.788   4.499
10786SOL     OW33798   3.328   6.176   4.716
10786SOL    HW133799   3.298   6.081   4.723
10786SOL    HW233800   3.401   6.192   4.782
10787SOL     OW33801   3.719   6.419   4.101
10787SOL    HW133802   3.761   6.355   4.165
10787SOL    HW233803   3.681   6.368   4.023
10788SOL     OW33804   2.350   6.971   3.898
10788SOL    HW133805   2.263   6.956   3.945
10788SOL    HW233806   2.333   6.997   3.803
10789SOL     OW33807   3.526   6.866   4.381
10789SOL    HW133808   3.625   6.874   4.395
10789SOL    HW233809   3.481   6.950   4.412
10790SOL     OW33810   3.252   6.161   3.802
10790SOL    HW133811   3.198   6.140   3.883
10790SOL    HW233812   3.343   6.120   3.811
10791SOL     OW33813   2.389   5.842   4.052
10791SOL    HW133814   2.416   5.783   3.977
10791SOL    HW233815   2.389   5.937   4.021
10792SOL     OW33816   3.616   6.809   5.312
10792SOL    HW133817   3.707   6.770   5.299
10792SOL    HW233818   3.624   6.905   5.336
10793SOL     OW33819   2.926   6.933   5.064
10793SOL    HW133820   2.846   6.910   5.119
10793SOL    HW233821   3.009   6.907   5.113
10794SOL     OW33822   3.454   7.215   5.349
10794SOL    HW133823   3.481   7.249   5.259
10794SOL    HW233824   3.533   7.177   5.395
10795SOL     OW33825   2.973   6.781   4.824
10795SOL    HW133826   2.933   6.825   4.905
10795SOL    HW233827   2.932   6.818   4.741
10796SOL     OW33828   3.500   6.685   4.803
10796SOL    HW133829   3.505   6.766   4.862
10796SOL    HW233830   3.414   6.687   4.752
10797SOL     OW33831   2.777   5.675   5.126
10797SOL    HW133832   2.802   5.655   5.031
10797SOL    HW233833   2.849   5.731   5.168
10798SOL     OW33834   2.842   6.702   5.443
10798SOL    HW133835   2.743   6.708   5.453
10798SOL    HW233836   2.865   6.622   5.387
10799SOL     OW33837   2.567   6.636   4.092
10799SOL    HW133838   2.553   6.643   4.191
10799SOL    HW233839   2.651   6.585   4.074
10800SOL     OW33840   2.272   6.399   4.975
10800SOL    HW133841   2.358   6.411   5.025
10800SOL    HW233842   2.230   6.312   5.002
10801SOL     OW33843   3.136   5.972   4.986
10801SOL    HW133844   3.157   6.046   5.050
10801SOL    HW233845   3.047   5.989   4.943
10802SOL     OW33846   1.926   7.150   5.055
10802SOL    HW133847   1.880   7.232   5.021
10802SOL    HW233848   2.024   7.169   5.064
10803SOL     OW33849   2.229   6.686   4.225
10803SOL    HW133850   2.222   6.769   4.169
10803SOL    HW233851   2.233   6.606   4.165
10804SOL     OW33852   2.428   6.123   4.589
10804SOL    HW133853   2.440   6.189   4.515
10804SOL    HW233854   2.474   6.157   4.672
10805SOL     OW33855   3.114   6.934   4.112
10805SOL    HW133856   3.164   7.011   4.152
10805SOL    HW233857   3.019   6.936   4.144
10806SOL     OW33858   3.134   7.031   4.866
10806SOL    HW133859   3.181   7.044   4.953
10806SOL    HW233860   3.068   6.957   4.875
10807SOL     OW33861   3.444   6.225   4.196
10807SOL    HW133862   3.413   6.286   4.269
10807SOL    HW233863   3.494   6.277   4.127
10808SOL     OW33864   2.216   7.096   5.053
10808SOL    HW133865   2.195   7.052   4.966
10808SOL    HW233866   2.313   7.122   5.056
10809SOL     OW33867   2.264   6.337   5.322
10809SOL    HW133868   2.332   6.392   5.275
10809SOL    HW233869   2.304   6.249   5.349
10810SOL     OW33870   3.449   6.365   5.394
10810SOL    HW133871   3.357   6.403   5.389
10810SOL    HW233872   3.509   6.412   5.329
10811SOL     OW33873   2.875   5.691   5.494
10811SOL    HW133874   2.881   5.776   5.442
10811SOL    HW233875   2.907   5.615   5.437
10812SOL     OW33876   2.366   5.636   5.464
10812SOL    HW133877   2.324   5.579   5.394
10812SOL    HW233878   2.300   5.705   5.496
10813SOL     OW33879   2.435   6.456   4.753
10813SOL    HW133880   2.479   6.545   4.744
10813SOL    HW233881   2.372   6.456   4.830
10814SOL     OW33882   3.222   6.448   4.769
10814SOL    HW133883   3.147   6.448   4.703
10814SOL    HW233884   3.259   6.356   4.778
10815SOL     OW33885   3.071   6.111   3.999
10815SOL    HW133886   3.084   6.027   4.053
10815SOL    HW233887   3.042   6.185   4.059
10816SOL     OW33888   2.169   5.799   4.955
10816SOL    HW133889   2.146   5.836   5.045
10816SOL    HW233890   2.139   5.704   4.949
10817SOL     OW33891   1.899   6.896   5.006
10817SOL    HW133892   1.952   6.847   5.074
10817SOL    HW233893   1.921   6.994   5.011
10818SOL     OW33894   2.594   6.220   4.788
10818SOL    HW133895   2.653   6.194   4.712
10818SOL    HW233896   2.566   6.316   4.777
10819SOL     OW33897   3.590   6.521   5.578
10819SOL    HW133898   3.544   6.514   5.489
10819SOL    HW233899   3.528   6.565   5.644
10820SOL     OW33900   2.169   5.649   4.342
10820SOL    HW133901   2.158   5.743   4.375
10820SOL    HW233902   2.164   5.586   4.419
10821SOL     OW33903   3.484   5.953   4.098
10821SOL    HW133904   3.486   5.877   4.162
10821SOL    HW233905   3.436   6.030   4.138
10822SOL     OW33906   2.885   6.352   4.690
10822SOL    HW133907   2.900   6.373   4.786
10822SOL    HW233908   2.855   6.257   4.681
10823SOL     OW33909   2.842   7.159   5.424
10823SOL    HW133910   2.822   7.203   5.336
10823SOL    HW233911   2.881   7.068   5.408
10824SOL     OW33912   3.721   7.104   5.329
10824SOL    HW133913   3.735   7.131   5.234
10824SOL    HW233914   3.804   7.126   5.382
10825SOL     OW33915   2.212   6.484   5.528
10825SOL    HW133916   2.288   6.528   5.576
10825SOL    HW233917   2.247   6.437   5.446
10826SOL     OW33918   3.402   5.860   3.849
10826SOL    HW133919   3.341   5.785   3.872
10826SOL    HW233920   3.424   5.912   3.932
10827SOL     OW33921   3.165   6.424   3.766
10827SOL    HW133922   3.199   6.331   3.781
10827SOL    HW233923   3.183   6.451   3.671
10828SOL     OW33924   2.930   6.919   4.573
10828SOL    HW133925   2.937   6.835   4.518
10828SOL    HW233926   2.992   6.988   4.537
10829SOL     OW33927   2.181   6.396   4.673
10829SOL    HW133928   2.274   6.432   4.678
10829SOL    HW233929   2.175   6.311   4.725
10830SOL     OW33930   2.201   6.095   4.730
10830SOL    HW133931   2.149   6.012   4.713
10830SOL    HW233932   2.278   6.100   4.666
10831SOL     OW33933   3.000   5.966   5.402
10831SOL    HW133934   2.955   6.029   5.466
10831SOL    HW233935   3.093   5.997   5.385
10832SOL     OW33936   3.022   5.793   5.201
10832SOL    HW133937   3.022   5.857   5.278
10832SOL    HW233938   3.050   5.841   5.118
10833SOL     OW33939   1.870   6.912   3.924
10833SOL    HW133940   1.777   6.933   3.893
10833SOL    HW233941   1.880   6.813   3.937
10834SOL     OW33942   1.950   7.387   4.651
10834SOL    HW133943   1.908   7.301   4.624
10834SOL    HW233944   2.044   7.390   4.617
10835SOL     OW33945   2.366   7.154   4.634
10835SOL    HW133946   2.432   7.228   4.643
10835SOL    HW233947   2.410   7.075   4.592
10836SOL     OW33948   2.864   6.382   4.962
10836SOL    HW133949   2.905   6.350   5.048
10836SOL    HW233950   2.768   6.355   4.959
10837SOL     OW33951   1.902   6.130   4.838
10837SOL    HW133952   1.987   6.097   4.797
10837SOL    HW233953   1.915   6.145   4.936
10838SOL     OW33954   2.051   6.106   5.446
10838SOL    HW133955   2.110   6.066   5.376
10838SOL    HW233956   1.993   6.177   5.405
10839SOL     OW33957   3.231   6.536   5.384
10839SOL    HW133958   3.270   6.625   5.404
10839SOL    HW233959   3.241   6.516   5.287
10840SOL     OW33960   2.677   6.158   4.049
10840SOL    HW133961   2.684   6.069   4.003
10840SOL    HW233962   2.583   6.192   4.041
10841SOL     OW33963   3.519   6.190   4.930
10841SOL    HW133964   3.481   6.121   4.992
10841SOL    HW233965   3.601   6.154   4.886
10842SOL     OW33966   2.114   7.150   5.468
10842SOL    HW133967   2.084   7.207   5.544
10842SOL    HW233968   2.107   7.053   5.494
10843SOL     OW33969   2.533   6.050   4.993
10843SOL    HW133970   2.499   5.961   4.963
10843SOL    HW233971   2.559   6.104   4.913
10844SOL     OW33972   2.792   7.264   5.189
10844SOL    HW133973   2.768   7.246   5.094
10844SOL    HW233974   2.822   7.358   5.199
10845SOL     OW33975   2.335   6.086   3.915
10845SOL    HW133976   2.396   6.166   3.919
10845SOL    HW233977   2.240   6.117   3.922
10846SOL     OW33978   2.021   6.723   5.190
10846SOL    HW133979   2.043   6.662   5.266
10846SOL    HW233980   2.031   6.674   5.104
10847SOL     OW33981   3.209   6.645   4.958
10847SOL    HW133982   3.233   6.582   4.884
10847SOL    HW233983   3.119   6.685   4.940
10848SOL     OW33984   3.164   6.441   4.033
10848SOL    HW133985   3.078   6.410   4.075
10848SOL    HW233986   3.160   6.427   3.934
10849SOL     OW33987   3.621   7.333   4.878
10849SOL    HW133988   3.682   7.363   4.805
10849SOL    HW233989   3.583   7.244   4.856
10850SOL     OW33990   3.114   7.317   4.852
10850SOL    HW133991   3.198   7.322   4.798
10850SOL    HW233992   3.091   7.221   4.870
10851SOL     OW33993   1.945   6.844   4.746
10851SOL    HW133994   1.940   6.843   4.846
10851SOL    HW233995   1.862   6.803   4.708
10852SOL     OW33996   2.550   7.248   5.440
10852SOL    HW133997   2.494   7.329   5.449
10852SOL    HW233998   2.602   7.252   5.354
10853SOL     OW33999   3.588   5.721   4.247
10853SOL    HW134000   3.661   5.704   4.180
10853SOL    HW234001   3.557   5.634   4.285
10854SOL     OW34002   3.250   7.159   4.201
10854SOL    HW134003   3.317   7.171   4.127
10854SOL    HW234004   3.210   7.248   4.224
10855SOL     OW34005   1.992   7.380   5.575
10855SOL    HW134006   1.951   7.306   5.628
10855SOL    HW234007   2.056   7.431   5.633
10856SOL     OW34008   3.142   6.513   4.396
10856SOL    HW134009   3.202   6.432   4.398
10856SOL    HW234010   3.182   6.582   4.336
10857SOL     OW34011   2.692   6.859   5.146
10857SOL    HW134012   2.687   6.892   5.241
10857SOL    HW234013   2.606   6.878   5.100
10858SOL     OW34014   2.534   7.202   3.878
10858SOL    HW134015   2.543   7.212   3.779
10858SOL    HW234016   2.494   7.113   3.899
10859SOL     OW34017   3.512   7.306   5.118
10859SOL    HW134018   3.565   7.316   5.034
10859SOL    HW234019   3.485   7.396   5.152
10860SOL     OW34020   3.703   5.761   4.687
10860SOL    HW134021   3.742   5.676   4.651
10860SOL    HW234022   3.605   5.763   4.668
10861SOL     OW34023   2.125   5.912   4.444
10861SOL    HW134024   2.046   5.963   4.410
10861SOL    HW234025   2.116   5.897   4.542
10862SOL     OW34026   3.056   7.198   3.755
10862SOL    HW134027   3.062   7.105   3.792
10862SOL    HW234028   2.997   7.198   3.675
10863SOL     OW34029   2.684   6.588   5.096
10863SOL    HW134030   2.724   6.587   5.004
10863SOL    HW234031   2.694   6.680   5.136
10864SOL     OW34032   2.778   6.496   4.015
10864SOL    HW134033   2.841   6.534   3.947
10864SOL    HW234034   2.818   6.413   4.054
10865SOL     OW34035   3.366   7.193   3.768
10865SOL    HW134036   3.274   7.230   3.775
10865SOL    HW234037   3.404   7.213   3.678
10866SOL     OW34038   2.234   6.874   5.214
10866SOL    HW134039   2.221   6.967   5.180
10866SOL    HW234040   2.150   6.822   5.201
10867SOL     OW34041   3.476   6.878   5.013
10867SOL    HW134042   3.536   6.881   5.093
10867SOL    HW234043   3.401   6.942   5.026
10868SOL     OW34044   2.901   6.684   4.420
10868SOL    HW134045   2.831   6.637   4.474
10868SOL    HW234046   2.960   6.616   4.377
10869SOL     OW34047   2.876   5.822   4.695
10869SOL    HW134048   2.868   5.786   4.602
10869SOL    HW234049   2.874   5.746   4.760
10870SOL     OW34050   2.452   7.073   4.215
10870SOL    HW134051   2.494   7.015   4.145
10870SOL    HW234052   2.408   7.152   4.171
10871SOL     OW34053   3.571   5.971   5.105
10871SOL    HW134054   3.644   6.040   5.109
10871SOL    HW234055   3.599   5.896   5.046
10872SOL     OW34056   2.117   6.934   4.014
10872SOL    HW134057   2.021   6.935   3.987
10872SOL    HW234058   2.129   6.987   4.098
10873SOL     OW34059   1.967   6.599   5.450
10873SOL    HW134060   1.890   6.566   5.504
10873SOL    HW234061   2.052   6.569   5.492
10874SOL     OW34062   2.534   5.789   5.213
10874SOL    HW134063   2.624   5.773   5.173
10874SOL    HW234064   2.542   5.794   5.312
10875SOL     OW34065   1.937   5.931   3.757
10875SOL    HW134066   1.845   5.903   3.728
10875SOL    HW234067   1.968   6.008   3.701
10876SOL     OW34068   3.302   6.442   5.122
10876SOL    HW134069   3.245   6.494   5.059
10876SOL    HW234070   3.398   6.454   5.098
10877SOL     OW34071   1.934   5.752   4.042
10877SOL    HW134072   1.917   5.835   3.988
10877SOL    HW234073   2.024   5.715   4.020
10878SOL     OW34074   3.045   6.921   3.843
10878SOL    HW134075   2.946   6.910   3.845
10878SOL    HW234076   3.079   6.936   3.936
10879SOL     OW34077   2.475   6.428   5.155
10879SOL    HW134078   2.531   6.509   5.138
10879SOL    HW234079   2.534   6.348   5.158
10880SOL     OW34080   3.355   7.353   4.683
10880SOL    HW134081   3.388   7.417   4.614
10880SOL    HW234082   3.421   7.347   4.758
10881SOL     OW34083   2.578   6.151   5.432
10881SOL    HW134084   2.597   6.216   5.506
10881SOL    HW234085   2.638   6.071   5.441
10882SOL     OW34086   3.312   6.806   5.357
10882SOL    HW134087   3.303   6.796   5.456
10882SOL    HW234088   3.408   6.799   5.331
10883SOL     OW34089   2.252   7.327   5.284
10883SOL    HW134090   2.161   7.368   5.282
10883SOL    HW234091   2.245   7.233   5.316
10884SOL     OW34092   3.536   6.469   4.978
10884SOL    HW134093   3.509   6.380   4.941
10884SOL    HW234094   3.537   6.537   4.905
10885SOL     OW34095   3.087   5.911   4.173
10885SOL    HW134096   3.152   5.837   4.162
10885SOL    HW234097   3.107   5.961   4.257
10886SOL     OW34098   2.456   6.331   4.376
10886SOL    HW134099   2.506   6.416   4.357
10886SOL    HW234100   2.368   6.333   4.328
10887SOL     OW34101   3.639   5.928   5.366
10887SOL    HW134102   3.622   5.959   5.272
10887SOL    HW234103   3.555   5.891   5.404
10888SOL     OW34104   3.592   6.520   5.241
10888SOL    HW134105   3.630   6.611   5.256
10888SOL    HW234106   3.584   6.503   5.142
10889SOL     OW34107   2.721   6.960   3.740
10889SOL    HW134108   2.675   6.975   3.828
10889SOL    HW234109   2.765   7.045   3.710
10890SOL     OW34110   2.523   7.376   4.677
10890SOL    HW134111   2.477   7.464   4.664
10890SOL    HW234112   2.622   7.388   4.670
10891SOL     OW34113   2.721   6.542   4.585
10891SOL    HW134114   2.775   6.473   4.633
10891SOL    HW234115   2.689   6.611   4.651
10892SOL     OW34116   2.945   6.570   3.811
10892SOL    HW134117   2.922   6.623   3.729
10892SOL    HW234118   3.026   6.514   3.792
10893SOL     OW34119   3.723   7.155   4.575
10893SOL    HW134120   3.652   7.143   4.505
10893SOL    HW234121   3.724   7.076   4.635
10894SOL     OW34122   2.083   6.900   5.568
10894SOL    HW134123   2.018   6.827   5.547
10894SOL    HW234124   2.087   6.914   5.666
10895SOL     OW34125   1.941   6.826   4.377
10895SOL    HW134126   1.940   6.779   4.465
10895SOL    HW234127   2.023   6.798   4.326
10896SOL     OW34128   2.534   6.977   5.348
10896SOL    HW134129   2.456   6.927   5.386
10896SOL    HW234130   2.531   7.072   5.379
10897SOL     OW34131   3.686   5.778   4.951
10897SOL    HW134132   3.682   5.688   4.995
10897SOL    HW234133   3.689   5.767   4.852
10898SOL     OW34134   2.290   6.010   4.244
10898SOL    HW134135   2.320   5.938   4.182
10898SOL    HW234136   2.251   5.970   4.327
10899SOL     OW34137   3.567   7.073   4.828
10899SOL    HW134138   3.474   7.048   4.801
10899SOL    HW234139   3.593   7.023   4.910
10900SOL     OW34140   2.179   6.133   5.004
10900SOL    HW134141   2.217   6.074   5.076
10900SOL    HW234142   2.219   6.107   4.916
10901SOL     OW34143   2.674   7.172   4.411
10901SOL    HW134144   2.706   7.182   4.317
10901SOL    HW234145   2.595   7.110   4.413
10902SOL     OW34146   3.286   5.800   4.836
10902SOL    HW134147   3.338   5.735   4.891
10902SOL    HW234148   3.237   5.863   4.897
10903SOL     OW34149   2.863   5.620   4.878
10903SOL    HW134150   2.800   5.548   4.847
10903SOL    HW234151   2.956   5.584   4.878
10904SOL     OW34152   2.632   6.916   4.025
10904SOL    HW134153   2.586   6.829   4.042
10904SOL    HW234154   2.723   6.913   4.066
10905SOL     OW34155   2.480   7.153   5.008
10905SOL    HW134156   2.475   7.235   5.065
10905SOL    HW234157   2.569   7.150   4.963
10906SOL     OW34158   3.214   5.638   3.892
10906SOL    HW134159   3.249   5.597   3.808
10906SOL    HW234160   3.124   5.600   3.912
10907SOL     OW34161   3.162   6.039   4.415
10907SOL    HW134162   3.103   6.119   4.419
10907SOL    HW234163   3.177   6.004   4.508
10908SOL     OW34164   3.455   5.807   4.606
10908SOL    HW134165   3.371   5.806   4.660
10908SOL    HW234166   3.457   5.890   4.550
10909SOL     OW34167   1.901   6.663   4.024
10909SOL    HW134168   2.000   6.652   4.015
10909SOL    HW234169   1.861   6.577   4.056
10910SOL     OW34170   2.737   7.232   4.061
10910SOL    HW134171   2.660   7.197   4.007
10910SOL    HW234172   2.705   7.303   4.123
10911SOL     OW34173   2.092   6.214   5.699
10911SOL    HW134174   1.999   6.212   5.736
10911SOL    HW234175   2.093   6.175   5.607
10912SOL     OW34176   2.087   5.861   6.582
10912SOL    HW134177   2.122   5.844   6.674
10912SOL    HW234178   1.999   5.816   6.570
10913SOL     OW34179   1.881   5.954   6.233
10913SOL    HW134180   1.799   5.997   6.272
10913SOL    HW234181   1.853   5.881   6.170
10914SOL     OW34182   2.431   6.861   6.751
10914SOL    HW134183   2.338   6.854   6.714
10914SOL    HW234184   2.442   6.950   6.795
10915SOL     OW34185   3.417   7.097   6.289
10915SOL    HW134186   3.360   7.081   6.370
10915SOL    HW234187   3.358   7.107   6.209
10916SOL     OW34188   2.997   6.289   6.303
10916SOL    HW134189   3.054   6.367   6.278
10916SOL    HW234190   2.937   6.315   6.379
10917SOL     OW34191   3.617   6.193   5.817
10917SOL    HW134192   3.605   6.180   5.718
10917SOL    HW234193   3.587   6.112   5.866
10918SOL     OW34194   2.630   6.730   6.609
10918SOL    HW134195   2.552   6.747   6.669
10918SOL    HW234196   2.664   6.817   6.573
10919SOL     OW34197   2.712   6.384   7.409
10919SOL    HW134198   2.708   6.460   7.474
10919SOL    HW234199   2.734   6.420   7.318
10920SOL     OW34200   2.547   6.598   6.251
10920SOL    HW134201   2.616   6.582   6.321
10920SOL    HW234202   2.474   6.655   6.289
10921SOL     OW34203   2.548   6.747   7.389
10921SOL    HW134204   2.608   6.826   7.403
10921SOL    HW234205   2.462   6.778   7.348
10922SOL     OW34206   2.197   7.021   6.647
10922SOL    HW134207   2.119   6.990   6.594
10922SOL    HW234208   2.255   7.079   6.590
10923SOL     OW34209   3.322   7.091   6.925
10923SOL    HW134210   3.346   7.185   6.951
10923SOL    HW234211   3.306   7.037   7.007
10924SOL     OW34212   2.300   5.978   7.085
10924SOL    HW134213   2.382   5.922   7.094
10924SOL    HW234214   2.219   5.920   7.089
10925SOL     OW34215   3.465   6.033   6.323
10925SOL    HW134216   3.391   6.079   6.273
10925SOL    HW234217   3.516   6.101   6.376
10926SOL     OW34218   2.093   7.299   6.069
10926SOL    HW134219   2.127   7.376   6.123
10926SOL    HW234220   2.137   7.299   5.979
10927SOL     OW34221   2.989   6.927   7.276
10927SOL    HW134222   3.036   6.927   7.364
10927SOL    HW234223   2.941   6.840   7.265
10928SOL     OW34224   2.092   7.020   6.124
10928SOL    HW134225   2.066   7.116   6.124
10928SOL    HW234226   2.021   6.966   6.169
10929SOL     OW34227   2.102   6.677   6.472
10929SOL    HW134228   2.116   6.593   6.524
10929SOL    HW234229   2.047   6.741   6.527
10930SOL     OW34230   2.482   7.372   7.025
10930SOL    HW134231   2.390   7.355   7.060
10930SOL    HW234232   2.510   7.464   7.051
10931SOL     OW34233   2.468   6.550   5.709
10931SOL    HW134234   2.475   6.634   5.655
10931SOL    HW234235   2.514   6.563   5.797
10932SOL     OW34236   3.456   5.700   7.066
10932SOL    HW134237   3.438   5.767   6.994
10932SOL    HW234238   3.453   5.746   7.155
10933SOL     OW34239   1.984   6.229   6.149
10933SOL    HW134240   1.939   6.141   6.166
10933SOL    HW234241   1.983   6.283   6.233
10934SOL     OW34242   3.704   7.353   5.945
10934SOL    HW134243   3.758   7.324   6.025
10934SOL    HW234244   3.734   7.443   5.916
10935SOL     OW34245   1.889   7.182   5.703
10935SOL    HW134246   1.870   7.086   5.724
10935SOL    HW234247   1.856   7.240   5.778
10936SOL     OW34248   3.551   6.508   6.198
10936SOL    HW134249   3.646   6.479   6.206
10936SOL    HW234250   3.543   6.573   6.123
10937SOL     OW34251   3.503   6.694   6.018
10937SOL    HW134252   3.589   6.696   5.966
10937SOL    HW234253   3.517   6.741   6.106
10938SOL     OW34254   1.975   6.323   7.183
10938SOL    HW134255   2.063   6.310   7.228
10938SOL    HW234256   1.962   6.420   7.161
10939SOL     OW34257   2.475   6.951   6.312
10939SOL    HW134258   2.426   6.864   6.321
10939SOL    HW234259   2.452   6.994   6.225
10940SOL     OW34260   3.155   6.814   7.009
10940SOL    HW134261   3.192   6.741   6.951
10940SOL    HW234262   3.207   6.819   7.094
10941SOL     OW34263   2.671   5.590   6.088
10941SOL    HW134264   2.711   5.681   6.079
10941SOL    HW234265   2.571   5.598   6.094
10942SOL     OW34266   2.059   6.562   6.850
10942SOL    HW134267   2.148   6.517   6.836
10942SOL    HW234268   1.986   6.497   6.831
10943SOL     OW34269   3.387   6.585   5.776
10943SOL    HW134270   3.324   6.509   5.789
10943SOL    HW234271   3.435   6.603   5.862
10944SOL     OW34272   3.049   7.378   7.202
10944SOL    HW134273   3.073   7.438   7.126
10944SOL    HW234274   3.056   7.283   7.172
10945SOL     OW34275   2.179   5.837   7.387
10945SOL    HW134276   2.250   5.908   7.393
10945SOL    HW234277   2.091   5.876   7.415
10946SOL     OW34278   3.328   7.003   6.539
10946SOL    HW134279   3.269   7.009   6.619
10946SOL    HW234280   3.313   6.915   6.493
10947SOL     OW34281   3.529   7.300   6.158
10947SOL    HW134282   3.488   7.277   6.070
10947SOL    HW234283   3.511   7.226   6.223
10948SOL     OW34284   2.460   6.315   5.856
10948SOL    HW134285   2.484   6.384   5.788
10948SOL    HW234286   2.382   6.348   5.910
10949SOL     OW34287   3.143   5.931   6.530
10949SOL    HW134288   3.057   5.881   6.517
10949SOL    HW234289   3.205   5.877   6.586
10950SOL     OW34290   3.438   7.248   5.893
10950SOL    HW134291   3.527   7.294   5.896
10950SOL    HW234292   3.417   7.224   5.798
10951SOL     OW34293   2.669   6.191   7.051
10951SOL    HW134294   2.622   6.188   7.140
10951SOL    HW234295   2.618   6.136   6.985
10952SOL     OW34296   3.256   6.055   7.260
10952SOL    HW134297   3.236   6.098   7.348
10952SOL    HW234298   3.334   5.993   7.269
10953SOL     OW34299   2.835   6.476   7.158
10953SOL    HW134300   2.881   6.392   7.129
10953SOL    HW234301   2.779   6.510   7.083
10954SOL     OW34302   2.853   5.996   6.828
10954SOL    HW134303   2.776   6.030   6.882
10954SOL    HW234304   2.819   5.945   6.749
10955SOL     OW34305   2.903   6.287   6.015
10955SOL    HW134306   2.929   6.283   6.111
10955SOL    HW234307   2.818   6.236   6.001
10956SOL     OW34308   1.938   6.397   6.375
10956SOL    HW134309   2.037   6.385   6.384
10956SOL    HW234310   1.914   6.492   6.396
10957SOL     OW34311   1.992   7.407   7.157
10957SOL    HW134312   1.982   7.392   7.256
10957SOL    HW234313   1.906   7.443   7.121
10958SOL     OW34314   2.727   5.934   5.781
10958SOL    HW134315   2.786   5.997   5.732
10958SOL    HW234316   2.746   5.840   5.752
10959SOL     OW34317   3.581   6.171   7.417
10959SOL    HW134318   3.555   6.260   7.381
10959SOL    HW234319   3.579   6.103   7.344
10960SOL     OW34320   3.224   6.730   6.131
10960SOL    HW134321   3.307   6.701   6.083
10960SOL    HW234322   3.175   6.797   6.075
10961SOL     OW34323   2.412   5.782   6.471
10961SOL    HW134324   2.407   5.777   6.571
10961SOL    HW234325   2.414   5.878   6.442
10962SOL     OW34326   2.870   7.042   6.063
10962SOL    HW134327   2.824   7.114   6.011
10962SOL    HW234328   2.866   7.062   6.161
10963SOL     OW34329   2.213   7.387   6.439
10963SOL    HW134330   2.263   7.301   6.445
10963SOL    HW234331   2.278   7.464   6.436
10964SOL     OW34332   3.657   6.652   6.459
10964SOL    HW134333   3.595   6.637   6.383
10964SOL    HW234334   3.605   6.663   6.544
10965SOL     OW34335   3.089   7.136   7.092
10965SOL    HW134336   3.095   7.059   7.156
10965SOL    HW234337   3.037   7.110   7.012
10966SOL     OW34338   2.183   6.529   5.828
10966SOL    HW134339   2.265   6.568   5.786
10966SOL    HW234340   2.156   6.447   5.779
10967SOL     OW34341   3.320   6.321   6.314
10967SOL    HW134342   3.315   6.256   6.389
10967SOL    HW234343   3.400   6.380   6.327
10968SOL     OW34344   2.323   6.852   7.313
10968SOL    HW134345   2.273   6.853   7.227
10968SOL    HW234346   2.260   6.834   7.389
10969SOL     OW34347   2.973   7.362   5.823
10969SOL    HW134348   2.913   7.300   5.873
10969SOL    HW234349   3.004   7.318   5.738
10970SOL     OW34350   2.064   5.871   7.084
10970SOL    HW134351   1.984   5.931   7.071
10970SOL    HW234352   2.054   5.822   7.170
10971SOL     OW34353   3.494   6.963   5.667
10971SOL    HW134354   3.462   7.057   5.657
10971SOL    HW234355   3.418   6.900   5.655
10972SOL     OW34356   2.326   7.329   5.909
10972SOL    HW134357   2.359   7.368   5.995
10972SOL    HW234358   2.402   7.322   5.844
10973SOL     OW34359   3.262   5.693   6.012
10973SOL    HW134360   3.238   5.656   5.922
10973SOL    HW234361   3.361   5.709   6.016
10974SOL     OW34362   2.111   7.371   6.827
10974SOL    HW134363   2.168   7.306   6.877
10974SOL    HW234364   2.095   7.338   6.734
10975SOL     OW34365   2.802   7.284   6.490
10975SOL    HW134366   2.882   7.227   6.511
10975SOL    HW234367   2.753   7.244   6.413
10976SOL     OW34368   2.244   6.286   6.066
10976SOL    HW134369   2.289   6.196   6.063
10976SOL    HW234370   2.150   6.275   6.099
10977SOL     OW34371   3.409   5.808   7.315
10977SOL    HW134372   3.404   5.845   7.407
10977SOL    HW234373   3.337   5.739   7.303
10978SOL     OW34374   2.476   5.708   5.703
10978SOL    HW134375   2.574   5.686   5.710
10978SOL    HW234376   2.445   5.691   5.610
10979SOL     OW34377   2.643   5.850   7.335
10979SOL    HW134378   2.710   5.789   7.378
10979SOL    HW234379   2.570   5.869   7.400
10980SOL     OW34380   2.750   7.100   6.781
10980SOL    HW134381   2.727   7.075   6.687
10980SOL    HW234382   2.811   7.031   6.820
10981SOL     OW34383   3.213   6.176   7.019
10981SOL    HW134384   3.241   6.133   7.104
10981SOL    HW234385   3.238   6.272   7.020
10982SOL     OW34386   2.665   6.988   6.510
10982SOL    HW134387   2.755   7.002   6.468
10982SOL    HW234388   2.594   6.990   6.439
10983SOL     OW34389   2.784   6.089   6.485
10983SOL    HW134390   2.759   6.080   6.389
10983SOL    HW234391   2.832   6.007   6.516
10984SOL     OW34392   2.401   5.650   6.098
10984SOL    HW134393   2.320   5.651   6.156
10984SOL    HW234394   2.404   5.733   6.043
10985SOL     OW34395   3.296   6.774   5.627
10985SOL    HW134396   3.328   6.698   5.684
10985SOL    HW234397   3.204   6.801   5.657
10986SOL     OW34398   2.159   5.621   5.757
10986SOL    HW134399   2.208   5.705   5.736
10986SOL    HW234400   2.221   5.556   5.802
10987SOL     OW34401   2.797   5.822   6.066
10987SOL    HW134402   2.749   5.863   5.988
10987SOL    HW234403   2.896   5.820   6.047
10988SOL     OW34404   2.938   6.269   7.050
10988SOL    HW134405   2.858   6.208   7.053
10988SOL    HW234406   3.019   6.216   7.026
10989SOL     OW34407   3.089   7.156   6.379
10989SOL    HW134408   3.110   7.230   6.314
10989SOL    HW234409   3.157   7.156   6.452
10990SOL     OW34410   2.321   6.738   6.327
10990SOL    HW134411   2.250   6.711   6.392
10990SOL    HW234412   2.295   6.710   6.234
10991SOL     OW34413   3.133   7.383   6.177
10991SOL    HW134414   3.177   7.447   6.113
10991SOL    HW234415   3.083   7.435   6.247
10992SOL     OW34416   2.894   6.135   5.602
10992SOL    HW134417   2.853   6.217   5.563
10992SOL    HW234418   2.958   6.161   5.675
10993SOL     OW34419   1.940   6.142   6.972
10993SOL    HW134420   2.032   6.141   6.931
10993SOL    HW234421   1.934   6.216   7.039
10994SOL     OW34422   2.423   5.808   6.733
10994SOL    HW134423   2.461   5.724   6.770
10994SOL    HW234424   2.335   5.827   6.777
10995SOL     OW34425   2.728   6.040   6.228
10995SOL    HW134426   2.696   6.112   6.166
10995SOL    HW234427   2.752   5.959   6.175
10996SOL     OW34428   2.879   5.625   6.339
10996SOL    HW134429   2.807   5.630   6.270
10996SOL    HW234430   2.855   5.556   6.408
10997SOL     OW34431   3.291   6.759   6.453
10997SOL    HW134432   3.236   6.675   6.446
10997SOL    HW234433   3.317   6.788   6.361
10998SOL     OW34434   3.328   6.176   6.578
10998SOL    HW134435   3.298   6.081   6.585
10998SOL    HW234436   3.401   6.192   6.644
10999SOL     OW34437   3.719   6.419   5.963
10999SOL    HW134438   3.761   6.355   6.027
10999SOL    HW234439   3.681   6.368   5.885
11000SOL     OW34440   2.350   6.971   5.760
11000SOL    HW134441   2.263   6.956   5.807
11000SOL    HW234442   2.333   6.997   5.665
11001SOL     OW34443   3.526   6.866   6.243
11001SOL    HW134444   3.625   6.874   6.257
11001SOL    HW234445   3.481   6.950   6.274
11002SOL     OW34446   3.252   6.161   5.664
11002SOL    HW134447   3.198   6.140   5.745
11002SOL    HW234448   3.343   6.120   5.673
11003SOL     OW34449   2.389   5.842   5.914
11003SOL    HW134450   2.416   5.783   5.839
11003SOL    HW234451   2.389   5.937   5.883
11004SOL     OW34452   3.616   6.809   7.174
11004SOL    HW134453   3.707   6.770   7.161
11004SOL    HW234454   3.624   6.905   7.198
11005SOL     OW34455   2.926   6.933   6.926
11005SOL    HW134456   2.846   6.910   6.981
11005SOL    HW234457   3.009   6.907   6.975
11006SOL     OW34458   3.454   7.215   7.211
11006SOL    HW134459   3.481   7.249   7.121
11006SOL    HW234460   3.533   7.177   7.257
11007SOL     OW34461   2.973   6.781   6.686
11007SOL    HW134462   2.933   6.825   6.767
11007SOL    HW234463   2.932   6.818   6.603
11008SOL     OW34464   3.500   6.685   6.665
11008SOL    HW134465   3.505   6.766   6.724
11008SOL    HW234466   3.414   6.687   6.614
11009SOL     OW34467   2.777   5.675   6.988
11009SOL    HW134468   2.802   5.655   6.893
11009SOL    HW234469   2.849   5.731   7.030
11010SOL     OW34470   2.842   6.702   7.305
11010SOL    HW134471   2.743   6.708   7.315
11010SOL    HW234472   2.865   6.622   7.249
11011SOL     OW34473   2.567   6.636   5.954
11011SOL    HW134474   2.553   6.643   6.053
11011SOL    HW234475   2.651   6.585   5.936
11012SOL     OW34476   2.272   6.399   6.837
11012SOL    HW134477   2.358   6.411   6.887
11012SOL    HW234478   2.230   6.312   6.864
11013SOL     OW34479   3.136   5.972   6.848
11013SOL    HW134480   3.157   6.046   6.912
11013SOL    HW234481   3.047   5.989   6.805
11014SOL     OW34482   1.926   7.150   6.917
11014SOL    HW134483   1.880   7.232   6.883
11014SOL    HW234484   2.024   7.169   6.926
11015SOL     OW34485   2.229   6.686   6.087
11015SOL    HW134486   2.222   6.769   6.031
11015SOL    HW234487   2.233   6.606   6.027
11016SOL     OW34488   2.428   6.123   6.451
11016SOL    HW134489   2.440   6.189   6.377
11016SOL    HW234490   2.474   6.157   6.534
11017SOL     OW34491   3.114   6.934   5.974
11017SOL    HW134492   3.164   7.011   6.014
11017SOL    HW234493   3.019   6.936   6.006
11018SOL     OW34494   3.134   7.031   6.728
11018SOL    HW134495   3.181   7.044   6.815
11018SOL    HW234496   3.068   6.957   6.737
11019SOL     OW34497   3.444   6.225   6.058
11019SOL    HW134498   3.413   6.286   6.131
11019SOL    HW234499   3.494   6.277   5.989
11020SOL     OW34500   2.216   7.096   6.915
11020SOL    HW134501   2.195   7.052   6.828
11020SOL    HW234502   2.313   7.122   6.918
11021SOL     OW34503   2.264   6.337   7.184
11021SOL    HW134504   2.332   6.392   7.137
11021SOL    HW234505   2.304   6.249   7.211
11022SOL     OW34506   3.449   6.365   7.256
11022SOL    HW134507   3.357   6.403   7.251
11022SOL    HW234508   3.509   6.412   7.191
11023SOL     OW34509   2.875   5.691   7.356
11023SOL    HW134510   2.881   5.776   7.304
11023SOL    HW234511   2.907   5.615   7.299
11024SOL     OW34512   2.366   5.636   7.326
11024SOL    HW134513   2.324   5.579   7.256
11024SOL    HW234514   2.300   5.705   7.358
11025SOL     OW34515   2.435   6.456   6.615
11025SOL    HW134516   2.479   6.545   6.606
11025SOL    HW234517   2.372   6.456   6.692
11026SOL     OW34518   3.222   6.448   6.631
11026SOL    HW134519   3.147   6.448   6.565
11026SOL    HW234520   3.259   6.356   6.640
11027SOL     OW34521   3.071   6.111   5.861
11027SOL    HW134522   3.084   6.027   5.915
11027SOL    HW234523   3.042   6.185   5.921
11028SOL     OW34524   2.169   5.799   6.817
11028SOL    HW134525   2.146   5.836   6.907
11028SOL    HW234526   2.139   5.704   6.811
11029SOL     OW34527   1.899   6.896   6.868
11029SOL    HW134528   1.952   6.847   6.936
11029SOL    HW234529   1.921   6.994   6.873
11030SOL     OW34530   2.594   6.220   6.650
11030SOL    HW134531   2.653   6.194   6.574
11030SOL    HW234532   2.566   6.316   6.639
11031SOL     OW34533   3.590   6.521   7.440
11031SOL    HW134534   3.544   6.514   7.351
11031SOL    HW234535   3.528   6.565   7.506
11032SOL     OW34536   2.169   5.649   6.204
11032SOL    HW134537   2.158   5.743   6.237
11032SOL    HW234538   2.164   5.586   6.281
11033SOL     OW34539   3.484   5.953   5.960
11033SOL    HW134540   3.486   5.877   6.024
11033SOL    HW234541   3.436   6.030   6.000
11034SOL     OW34542   2.885   6.352   6.552
11034SOL    HW134543   2.900   6.373   6.648
11034SOL    HW234544   2.855   6.257   6.543
11035SOL     OW34545   2.842   7.159   7.286
11035SOL    HW134546   2.822   7.203   7.198
11035SOL    HW234547   2.881   7.068   7.270
11036SOL     OW34548   3.721   7.104   7.191
11036SOL    HW134549   3.735   7.131   7.096
11036SOL    HW234550   3.804   7.126   7.244
11037SOL     OW34551   2.212   6.484   7.390
11037SOL    HW134552   2.288   6.528   7.438
11037SOL    HW234553   2.247   6.437   7.308
11038SOL     OW34554   3.402   5.860   5.711
11038SOL    HW134555   3.341   5.785   5.734
11038SOL    HW234556   3.424   5.912   5.794
11039SOL     OW34557   3.165   6.424   5.628
11039SOL    HW134558   3.199   6.331   5.643
11039SOL    HW234559   3.183   6.451   5.533
11040SOL     OW34560   2.930   6.919   6.435
11040SOL    HW134561   2.937   6.835   6.380
11040SOL    HW234562   2.992   6.988   6.399
11041SOL     OW34563   2.181   6.396   6.535
11041SOL    HW134564   2.274   6.432   6.540
11041SOL    HW234565   2.175   6.311   6.587
11042SOL     OW34566   2.201   6.095   6.592
11042SOL    HW134567   2.149   6.012   6.575
11042SOL    HW234568   2.278   6.100   6.528
11043SOL     OW34569   3.000   5.966   7.264
11043SOL    HW134570   2.955   6.029   7.328
11043SOL    HW234571   3.093   5.997   7.247
11044SOL     OW34572   3.022   5.793   7.063
11044SOL    HW134573   3.022   5.857   7.140
11044SOL    HW234574   3.050   5.841   6.980
11045SOL     OW34575   1.870   6.912   5.786
11045SOL    HW134576   1.777   6.933   5.755
11045SOL    HW234577   1.880   6.813   5.799
11046SOL     OW34578   1.950   7.387   6.513
11046SOL    HW134579   1.908   7.301   6.486
11046SOL    HW234580   2.044   7.390   6.479
11047SOL     OW34581   2.366   7.154   6.496
11047SOL    HW134582   2.432   7.228   6.505
11047SOL    HW234583   2.410   7.075   6.454
11048SOL     OW34584   2.864   6.382   6.824
11048SOL    HW134585   2.905   6.350   6.910
11048SOL    HW234586   2.768   6.355   6.821
11049SOL     OW34587   1.902   6.130   6.700
11049SOL    HW134588   1.987   6.097   6.659
11049SOL    HW234589   1.915   6.145   6.798
11050SOL     OW34590   2.051   6.106   7.308
11050SOL    HW134591   2.110   6.066   7.238
11050SOL    HW234592   1.993   6.177   7.267
11051SOL     OW34593   3.231   6.536   7.246
11051SOL    HW134594   3.270   6.625   7.266
11051SOL    HW234595   3.241   6.516   7.149
11052SOL     OW34596   2.677   6.158   5.911
11052SOL    HW134597   2.684   6.069   5.865
11052SOL    HW234598   2.583   6.192   5.903
11053SOL     OW34599   3.519   6.190   6.792
11053SOL    HW134600   3.481   6.121   6.854
11053SOL    HW234601   3.601   6.154   6.748
11054SOL     OW34602   2.114   7.150   7.330
11054SOL    HW134603   2.084   7.207   7.406
11054SOL    HW234604   2.107   7.053   7.356
11055SOL     OW34605   2.533   6.050   6.855
11055SOL    HW134606   2.499   5.961   6.825
11055SOL    HW234607   2.559   6.104   6.775
11056SOL     OW34608   2.792   7.264   7.051
11056SOL    HW134609   2.768   7.246   6.956
11056SOL    HW234610   2.822   7.358   7.061
11057SOL     OW34611   2.335   6.086   5.777
11057SOL    HW134612   2.396   6.166   5.781
11057SOL    HW234613   2.240   6.117   5.784
11058SOL     OW34614   2.021   6.723   7.052
11058SOL    HW134615   2.043   6.662   7.128
11058SOL    HW234616   2.031   6.674   6.966
11059SOL     OW34617   3.209   6.645   6.820
11059SOL    HW134618   3.233   6.582   6.746
11059SOL    HW234619   3.119   6.685   6.802
11060SOL     OW34620   3.164   6.441   5.895
11060SOL    HW134621   3.078   6.410   5.937
11060SOL    HW234622   3.160   6.427   5.796
11061SOL     OW34623   3.621   7.333   6.740
11061SOL    HW134624   3.682   7.363   6.667
11061SOL    HW234625   3.583   7.244   6.718
11062SOL     OW34626   3.114   7.317   6.714
11062SOL    HW134627   3.198   7.322   6.660
11062SOL    HW234628   3.091   7.221   6.732
11063SOL     OW34629   1.945   6.844   6.608
11063SOL    HW134630   1.940   6.843   6.708
11063SOL    HW234631   1.862   6.803   6.570
11064SOL     OW34632   2.550   7.248   7.302
11064SOL    HW134633   2.494   7.329   7.311
11064SOL    HW234634   2.602   7.252   7.216
11065SOL     OW34635   3.588   5.721   6.109
11065SOL    HW134636   3.661   5.704   6.042
11065SOL    HW234637   3.557   5.634   6.147
11066SOL     OW34638   3.250   7.159   6.063
11066SOL    HW134639   3.317   7.171   5.989
11066SOL    HW234640   3.210   7.248   6.086
11067SOL     OW34641   1.992   7.380   7.437
11067SOL    HW134642   1.951   7.306   7.490
11067SOL    HW234643   2.056   7.431   7.495
11068SOL     OW34644   3.142   6.513   6.258
11068SOL    HW134645   3.202   6.432   6.260
11068SOL    HW234646   3.182   6.582   6.198
11069SOL     OW34647   2.692   6.859   7.008
11069SOL    HW134648   2.687   6.892   7.103
11069SOL    HW234649   2.606   6.878   6.962
11070SOL     OW34650   2.534   7.202   5.740
11070SOL    HW134651   2.543   7.212   5.641
11070SOL    HW234652   2.494   7.113   5.761
11071SOL     OW34653   3.512   7.306   6.980
11071SOL    HW134654   3.565   7.316   6.896
11071SOL    HW234655   3.485   7.396   7.014
11072SOL     OW34656   3.703   5.761   6.549
11072SOL    HW134657   3.742   5.676   6.513
11072SOL    HW234658   3.605   5.763   6.530
11073SOL     OW34659   2.125   5.912   6.306
11073SOL    HW134660   2.046   5.963   6.272
11073SOL    HW234661   2.116   5.897   6.404
11074SOL     OW34662   3.056   7.198   5.617
11074SOL    HW134663   3.062   7.105   5.654
11074SOL    HW234664   2.997   7.198   5.537
11075SOL     OW34665   2.684   6.588   6.958
11075SOL    HW134666   2.724   6.587   6.866
11075SOL    HW234667   2.694   6.680   6.998
11076SOL     OW34668   2.778   6.496   5.877
11076SOL    HW134669   2.841   6.534   5.809
11076SOL    HW234670   2.818   6.413   5.916
11077SOL     OW34671   3.366   7.193   5.630
11077SOL    HW134672   3.274   7.230   5.637
11077SOL    HW234673   3.404   7.213   5.540
11078SOL     OW34674   2.234   6.874   7.076
11078SOL    HW134675   2.221   6.967   7.042
11078SOL    HW234676   2.150   6.822   7.063
11079SOL     OW34677   3.476   6.878   6.875
11079SOL    HW134678   3.536   6.881   6.955
11079SOL    HW234679   3.401   6.942   6.888
11080SOL     OW34680   2.901   6.684   6.282
11080SOL    HW134681   2.831   6.637   6.336
11080SOL    HW234682   2.960   6.616   6.239
11081SOL     OW34683   2.876   5.822   6.557
11081SOL    HW134684   2.868   5.786   6.464
11081SOL    HW234685   2.874   5.746   6.622
11082SOL     OW34686   2.452   7.073   6.077
11082SOL    HW134687   2.494   7.015   6.007
11082SOL    HW234688   2.408   7.152   6.033
11083SOL     OW34689   3.571   5.971   6.967
11083SOL    HW134690   3.644   6.040   6.971
11083SOL    HW234691   3.599   5.896   6.908
11084SOL     OW34692   2.117   6.934   5.876
11084SOL    HW134693   2.021   6.935   5.849
11084SOL    HW234694   2.129   6.987   5.960
11085SOL     OW34695   1.967   6.599   7.312
11085SOL    HW134696   1.890   6.566   7.366
11085SOL    HW234697   2.052   6.569   7.354
11086SOL     OW34698   2.534   5.789   7.075
11086SOL    HW134699   2.624   5.773   7.035
11086SOL    HW234700   2.542   5.794   7.174
11087SOL     OW34701   1.937   5.931   5.619
11087SOL    HW134702   1.845   5.903   5.590
11087SOL    HW234703   1.968   6.008   5.563
11088SOL     OW34704   3.302   6.442   6.984
11088SOL    HW134705   3.245   6.494   6.921
11088SOL    HW234706   3.398   6.454   6.960
11089SOL     OW34707   1.934   5.752   5.904
11089SOL    HW134708   1.917   5.835   5.850
11089SOL    HW234709   2.024   5.715   5.882
11090SOL     OW34710   3.045   6.921   5.705
11090SOL    HW134711   2.946   6.910   5.707
11090SOL    HW234712   3.079   6.936   5.798
11091SOL     OW34713   2.475   6.428   7.017
11091SOL    HW134714   2.531   6.509   7.000
11091SOL    HW234715   2.534   6.348   7.020
11092SOL     OW34716   3.355   7.353   6.545
11092SOL    HW134717   3.388   7.417   6.476
11092SOL    HW234718   3.421   7.347   6.620
11093SOL     OW34719   2.578   6.151   7.294
11093SOL    HW134720   2.597   6.216   7.368
11093SOL    HW234721   2.638   6.071   7.303
11094SOL     OW34722   3.312   6.806   7.219
11094SOL    HW134723   3.303   6.796   7.318
11094SOL    HW234724   3.408   6.799   7.193
11095SOL     OW34725   2.252   7.327   7.146
11095SOL    HW134726   2.161   7.368   7.144
11095SOL    HW234727   2.245   7.233   7.178
11096SOL     OW34728   3.536   6.469   6.840
11096SOL    HW134729   3.509   6.380   6.803
11096SOL    HW234730   3.537   6.537   6.767
11097SOL     OW34731   3.087   5.911   6.035
11097SOL    HW134732   3.152   5.837   6.024
11097SOL    HW234733   3.107   5.961   6.119
11098SOL     OW34734   2.456   6.331   6.238
11098SOL    HW134735   2.506   6.416   6.219
11098SOL    HW234736   2.368   6.333   6.190
11099SOL     OW34737   3.639   5.928   7.228
11099SOL    HW134738   3.622   5.959   7.134
11099SOL    HW234739   3.555   5.891   7.266
11100SOL     OW34740   3.592   6.520   7.103
11100SOL    HW134741   3.630   6.611   7.118
11100SOL    HW234742   3.584   6.503   7.004
11101SOL     OW34743   2.721   6.960   5.602
11101SOL    HW134744   2.675   6.975   5.690
11101SOL    HW234745   2.765   7.045   5.572
11102SOL     OW34746   2.523   7.376   6.539
11102SOL    HW134747   2.477   7.464   6.526
11102SOL    HW234748   2.622   7.388   6.532
11103SOL     OW34749   2.721   6.542   6.447
11103SOL    HW134750   2.775   6.473   6.495
11103SOL    HW234751   2.689   6.611   6.513
11104SOL     OW34752   2.945   6.570   5.673
11104SOL    HW134753   2.922   6.623   5.591
11104SOL    HW234754   3.026   6.514   5.654
11105SOL     OW34755   3.723   7.155   6.437
11105SOL    HW134756   3.652   7.143   6.367
11105SOL    HW234757   3.724   7.076   6.497
11106SOL     OW34758   2.083   6.900   7.430
11106SOL    HW134759   2.018   6.827   7.409
11106SOL    HW234760   2.087   6.914   7.528
11107SOL     OW34761   1.941   6.826   6.239
11107SOL    HW134762   1.940   6.779   6.327
11107SOL    HW234763   2.023   6.798   6.188
11108SOL     OW34764   2.534   6.977   7.210
11108SOL    HW134765   2.456   6.927   7.248
11108SOL    HW234766   2.531   7.072   7.241
11109SOL     OW34767   3.686   5.778   6.813
11109SOL    HW134768   3.682   5.688   6.857
11109SOL    HW234769   3.689   5.767   6.714
11110SOL     OW34770   2.290   6.010   6.106
11110SOL    HW134771   2.320   5.938   6.044
11110SOL    HW234772   2.251   5.970   6.189
11111SOL     OW34773   3.567   7.073   6.690
11111SOL    HW134774   3.474   7.048   6.663
11111SOL    HW234775   3.593   7.023   6.772
11112SOL     OW34776   2.179   6.133   6.866
11112SOL    HW134777   2.217   6.074   6.938
11112SOL    HW234778   2.219   6.107   6.778
11113SOL     OW34779   2.674   7.172   6.273
11113SOL    HW134780   2.706   7.182   6.179
11113SOL    HW234781   2.595   7.110   6.275
11114SOL     OW34782   3.286   5.800   6.698
11114SOL    HW134783   3.338   5.735   6.753
11114SOL    HW234784   3.237   5.863   6.759
11115SOL     OW34785   2.863   5.620   6.740
11115SOL    HW134786   2.800   5.548   6.709
11115SOL    HW234787   2.956   5.584   6.740
11116SOL     OW34788   2.632   6.916   5.887
11116SOL    HW134789   2.586   6.829   5.904
11116SOL    HW234790   2.723   6.913   5.928
11117SOL     OW34791   2.480   7.153   6.870
11117SOL    HW134792   2.475   7.235   6.927
11117SOL    HW234793   2.569   7.150   6.825
11118SOL     OW34794   3.214   5.638   5.754
11118SOL    HW134795   3.249   5.597   5.670
11118SOL    HW234796   3.124   5.600   5.774
11119SOL     OW34797   3.162   6.039   6.277
11119SOL    HW134798   3.103   6.119   6.281
11119SOL    HW234799   3.177   6.004   6.370
11120SOL     OW34800   3.455   5.807   6.468
11120SOL    HW134801   3.371   5.806   6.522
11120SOL    HW234802   3.457   5.890   6.412
11121SOL     OW34803   1.901   6.663   5.886
11121SOL    HW134804   2.000   6.652   5.877
11121SOL    HW234805   1.861   6.577   5.918
11122SOL     OW34806   2.737   7.232   5.923
11122SOL    HW134807   2.660   7.197   5.869
11122SOL    HW234808   2.705   7.303   5.985
11123SOL     OW34809   2.092   6.214   7.561
11123SOL    HW134810   1.999   6.212   7.598
11123SOL    HW234811   2.093   6.175   7.469
11124SOL     OW34812   2.087   5.861   8.444
11124SOL    HW134813   2.122   5.844   8.536
11124SOL    HW234814   1.999   5.816   8.432
11125SOL     OW34815   1.881   5.954   8.095
11125SOL    HW134816   1.799   5.997   8.134
11125SOL    HW234817   1.853   5.881   8.032
11126SOL     OW34818   2.431   6.861   8.613
11126SOL    HW134819   2.338   6.854   8.576
11126SOL    HW234820   2.442   6.950   8.657
11127SOL     OW34821   3.417   7.097   8.151
11127SOL    HW134822   3.360   7.081   8.232
11127SOL    HW234823   3.358   7.107   8.071
11128SOL     OW34824   2.997   6.289   8.165
11128SOL    HW134825   3.054   6.367   8.140
11128SOL    HW234826   2.937   6.315   8.241
11129SOL     OW34827   3.617   6.193   7.679
11129SOL    HW134828   3.605   6.180   7.580
11129SOL    HW234829   3.587   6.112   7.728
11130SOL     OW34830   2.630   6.730   8.471
11130SOL    HW134831   2.552   6.747   8.531
11130SOL    HW234832   2.664   6.817   8.435
11131SOL     OW34833   2.712   6.384   9.271
11131SOL    HW134834   2.708   6.460   9.336
11131SOL    HW234835   2.734   6.420   9.180
11132SOL     OW34836   2.547   6.598   8.113
11132SOL    HW134837   2.616   6.582   8.183
11132SOL    HW234838   2.474   6.655   8.151
11133SOL     OW34839   2.548   6.747   9.251
11133SOL    HW134840   2.608   6.826   9.265
11133SOL    HW234841   2.462   6.778   9.210
11134SOL     OW34842   2.197   7.021   8.509
11134SOL    HW134843   2.119   6.990   8.456
11134SOL    HW234844   2.255   7.079   8.452
11135SOL     OW34845   3.322   7.091   8.787
11135SOL    HW134846   3.346   7.185   8.813
11135SOL    HW234847   3.306   7.037   8.869
11136SOL     OW34848   2.300   5.978   8.947
11136SOL    HW134849   2.382   5.922   8.956
11136SOL    HW234850   2.219   5.920   8.951
11137SOL     OW34851   3.465   6.033   8.185
11137SOL    HW134852   3.391   6.079   8.135
11137SOL    HW234853   3.516   6.101   8.238
11138SOL     OW34854   2.093   7.299   7.931
11138SOL    HW134855   2.127   7.376   7.985
11138SOL    HW234856   2.137   7.299   7.841
11139SOL     OW34857   2.989   6.927   9.138
11139SOL    HW134858   3.036   6.927   9.226
11139SOL    HW234859   2.941   6.840   9.127
11140SOL     OW34860   2.092   7.020   7.986
11140SOL    HW134861   2.066   7.116   7.986
11140SOL    HW234862   2.021   6.966   8.031
11141SOL     OW34863   2.102   6.677   8.334
11141SOL    HW134864   2.116   6.593   8.386
11141SOL    HW234865   2.047   6.741   8.389
11142SOL     OW34866   2.482   7.372   8.887
11142SOL    HW134867   2.390   7.355   8.922
11142SOL    HW234868   2.510   7.464   8.913
11143SOL     OW34869   2.468   6.550   7.571
11143SOL    HW134870   2.475   6.634   7.517
11143SOL    HW234871   2.514   6.563   7.659
11144SOL     OW34872   3.456   5.700   8.928
11144SOL    HW134873   3.438   5.767   8.856
11144SOL    HW234874   3.453   5.746   9.017
11145SOL     OW34875   1.984   6.229   8.011
11145SOL    HW134876   1.939   6.141   8.028
11145SOL    HW234877   1.983   6.283   8.095
11146SOL     OW34878   3.704   7.353   7.807
11146SOL    HW134879   3.758   7.324   7.887
11146SOL    HW234880   3.734   7.443   7.778
11147SOL     OW34881   1.889   7.182   7.565
11147SOL    HW134882   1.870   7.086   7.586
11147SOL    HW234883   1.856   7.240   7.640
11148SOL     OW34884   3.551   6.508   8.060
11148SOL    HW134885   3.646   6.479   8.068
11148SOL    HW234886   3.543   6.573   7.985
11149SOL     OW34887   3.503   6.694   7.880
11149SOL    HW134888   3.589   6.696   7.828
11149SOL    HW234889   3.517   6.741   7.968
11150SOL     OW34890   1.975   6.323   9.045
11150SOL    HW134891   2.063   6.310   9.090
11150SOL    HW234892   1.962   6.420   9.023
11151SOL     OW34893   2.475   6.951   8.174
11151SOL    HW134894   2.426   6.864   8.183
11151SOL    HW234895   2.452   6.994   8.087
11152SOL     OW34896   3.155   6.814   8.871
11152SOL    HW134897   3.192   6.741   8.813
11152SOL    HW234898   3.207   6.819   8.956
11153SOL     OW34899   2.671   5.590   7.950
11153SOL    HW134900   2.711   5.681   7.941
11153SOL    HW234901   2.571   5.598   7.956
11154SOL     OW34902   2.059   6.562   8.712
11154SOL    HW134903   2.148   6.517   8.698
11154SOL    HW234904   1.986   6.497   8.693
11155SOL     OW34905   3.387   6.585   7.638
11155SOL    HW134906   3.324   6.509   7.651
11155SOL    HW234907   3.435   6.603   7.724
11156SOL     OW34908   3.049   7.378   9.064
11156SOL    HW134909   3.073   7.438   8.988
11156SOL    HW234910   3.056   7.283   9.034
11157SOL     OW34911   2.179   5.837   9.249
11157SOL    HW134912   2.250   5.908   9.255
11157SOL    HW234913   2.091   5.876   9.277
11158SOL     OW34914   3.328   7.003   8.401
11158SOL    HW134915   3.269   7.009   8.481
11158SOL    HW234916   3.313   6.915   8.355
11159SOL     OW34917   3.529   7.300   8.020
11159SOL    HW134918   3.488   7.277   7.932
11159SOL    HW234919   3.511   7.226   8.085
11160SOL     OW34920   2.460   6.315   7.718
11160SOL    HW134921   2.484   6.384   7.650
11160SOL    HW234922   2.382   6.348   7.772
11161SOL     OW34923   3.143   5.931   8.392
11161SOL    HW134924   3.057   5.881   8.379
11161SOL    HW234925   3.205   5.877   8.448
11162SOL     OW34926   3.438   7.248   7.755
11162SOL    HW134927   3.527   7.294   7.758
11162SOL    HW234928   3.417   7.224   7.660
11163SOL     OW34929   2.669   6.191   8.913
11163SOL    HW134930   2.622   6.188   9.002
11163SOL    HW234931   2.618   6.136   8.847
11164SOL     OW34932   3.256   6.055   9.122
11164SOL    HW134933   3.236   6.098   9.210
11164SOL    HW234934   3.334   5.993   9.131
11165SOL     OW34935   2.835   6.476   9.020
11165SOL    HW134936   2.881   6.392   8.991
11165SOL    HW234937   2.779   6.510   8.945
11166SOL     OW34938   2.853   5.996   8.690
11166SOL    HW134939   2.776   6.030   8.744
11166SOL    HW234940   2.819   5.945   8.611
11167SOL     OW34941   2.903   6.287   7.877
11167SOL    HW134942   2.929   6.283   7.973
11167SOL    HW234943   2.818   6.236   7.863
11168SOL     OW34944   1.938   6.397   8.237
11168SOL    HW134945   2.037   6.385   8.246
11168SOL    HW234946   1.914   6.492   8.258
11169SOL     OW34947   1.992   7.407   9.019
11169SOL    HW134948   1.982   7.392   9.118
11169SOL    HW234949   1.906   7.443   8.983
11170SOL     OW34950   2.727   5.934   7.643
11170SOL    HW134951   2.786   5.997   7.594
11170SOL    HW234952   2.746   5.840   7.614
11171SOL     OW34953   3.581   6.171   9.279
11171SOL    HW134954   3.555   6.260   9.243
11171SOL    HW234955   3.579   6.103   9.206
11172SOL     OW34956   3.224   6.730   7.993
11172SOL    HW134957   3.307   6.701   7.945
11172SOL    HW234958   3.175   6.797   7.937
11173SOL     OW34959   2.412   5.782   8.333
11173SOL    HW134960   2.407   5.777   8.433
11173SOL    HW234961   2.414   5.878   8.304
11174SOL     OW34962   2.870   7.042   7.925
11174SOL    HW134963   2.824   7.114   7.873
11174SOL    HW234964   2.866   7.062   8.023
11175SOL     OW34965   2.213   7.387   8.301
11175SOL    HW134966   2.263   7.301   8.307
11175SOL    HW234967   2.278   7.464   8.298
11176SOL     OW34968   3.657   6.652   8.321
11176SOL    HW134969   3.595   6.637   8.245
11176SOL    HW234970   3.605   6.663   8.406
11177SOL     OW34971   3.089   7.136   8.954
11177SOL    HW134972   3.095   7.059   9.018
11177SOL    HW234973   3.037   7.110   8.874
11178SOL     OW34974   2.183   6.529   7.690
11178SOL    HW134975   2.265   6.568   7.648
11178SOL    HW234976   2.156   6.447   7.641
11179SOL     OW34977   3.320   6.321   8.176
11179SOL    HW134978   3.315   6.256   8.251
11179SOL    HW234979   3.400   6.380   8.189
11180SOL     OW34980   2.323   6.852   9.175
11180SOL    HW134981   2.273   6.853   9.089
11180SOL    HW234982   2.260   6.834   9.251
11181SOL     OW34983   2.973   7.362   7.685
11181SOL    HW134984   2.913   7.300   7.735
11181SOL    HW234985   3.004   7.318   7.600
11182SOL     OW34986   2.064   5.871   8.946
11182SOL    HW134987   1.984   5.931   8.933
11182SOL    HW234988   2.054   5.822   9.032
11183SOL     OW34989   3.494   6.963   7.529
11183SOL    HW134990   3.462   7.057   7.519
11183SOL    HW234991   3.418   6.900   7.517
11184SOL     OW34992   2.326   7.329   7.771
11184SOL    HW134993   2.359   7.368   7.857
11184SOL    HW234994   2.402   7.322   7.706
11185SOL     OW34995   3.262   5.693   7.874
11185SOL    HW134996   3.238   5.656   7.784
11185SOL    HW234997   3.361   5.709   7.878
11186SOL     OW34998   2.111   7.371   8.689
11186SOL    HW134999   2.168   7.306   8.739
11186SOL    HW235000   2.095   7.338   8.596
11187SOL     OW35001   2.802   7.284   8.352
11187SOL    HW135002   2.882   7.227   8.373
11187SOL    HW235003   2.753   7.244   8.275
11188SOL     OW35004   2.244   6.286   7.928
11188SOL    HW135005   2.289   6.196   7.925
11188SOL    HW235006   2.150   6.275   7.961
11189SOL     OW35007   3.409   5.808   9.177
11189SOL    HW135008   3.404   5.845   9.269
11189SOL    HW235009   3.337   5.739   9.165
11190SOL     OW35010   2.476   5.708   7.565
11190SOL    HW135011   2.574   5.686   7.572
11190SOL    HW235012   2.445   5.691   7.472
11191SOL     OW35013   2.643   5.850   9.197
11191SOL    HW135014   2.710   5.789   9.240
11191SOL    HW235015   2.570   5.869   9.262
11192SOL     OW35016   2.750   7.100   8.643
11192SOL    HW135017   2.727   7.075   8.549
11192SOL    HW235018   2.811   7.031   8.682
11193SOL     OW35019   3.213   6.176   8.881
11193SOL    HW135020   3.241   6.133   8.966
11193SOL    HW235021   3.238   6.272   8.882
11194SOL     OW35022   2.665   6.988   8.372
11194SOL    HW135023   2.755   7.002   8.330
11194SOL    HW235024   2.594   6.990   8.301
11195SOL     OW35025   2.784   6.089   8.347
11195SOL    HW135026   2.759   6.080   8.251
11195SOL    HW235027   2.832   6.007   8.378
11196SOL     OW35028   2.401   5.650   7.960
11196SOL    HW135029   2.320   5.651   8.018
11196SOL    HW235030   2.404   5.733   7.905
11197SOL     OW35031   3.296   6.774   7.489
11197SOL    HW135032   3.328   6.698   7.546
11197SOL    HW235033   3.204   6.801   7.519
11198SOL     OW35034   2.159   5.621   7.619
11198SOL    HW135035   2.208   5.705   7.598
11198SOL    HW235036   2.221   5.556   7.664
11199SOL     OW35037   2.797   5.822   7.928
11199SOL    HW135038   2.749   5.863   7.850
11199SOL    HW235039   2.896   5.820   7.909
11200SOL     OW35040   2.938   6.269   8.912
11200SOL    HW135041   2.858   6.208   8.915
11200SOL    HW235042   3.019   6.216   8.888
11201SOL     OW35043   3.089   7.156   8.241
11201SOL    HW135044   3.110   7.230   8.176
11201SOL    HW235045   3.157   7.156   8.314
11202SOL     OW35046   2.321   6.738   8.189
11202SOL    HW135047   2.250   6.711   8.254
11202SOL    HW235048   2.295   6.710   8.096
11203SOL     OW35049   3.133   7.383   8.039
11203SOL    HW135050   3.177   7.447   7.975
11203SOL    HW235051   3.083   7.435   8.109
11204SOL     OW35052   2.894   6.135   7.464
11204SOL    HW135053   2.853   6.217   7.425
11204SOL    HW235054   2.958   6.161   7.537
11205SOL     OW35055   1.940   6.142   8.834
11205SOL    HW135056   2.032   6.141   8.793
11205SOL    HW235057   1.934   6.216   8.901
11206SOL     OW35058   2.423   5.808   8.595
11206SOL    HW135059   2.461   5.724   8.632
11206SOL    HW235060   2.335   5.827   8.639
11207SOL     OW35061   2.728   6.040   8.090
11207SOL    HW135062   2.696   6.112   8.028
11207SOL    HW235063   2.752   5.959   8.037
11208SOL     OW35064   2.879   5.625   8.201
11208SOL    HW135065   2.807   5.630   8.132
11208SOL    HW235066   2.855   5.556   8.270
11209SOL     OW35067   3.291   6.759   8.315
11209SOL    HW135068   3.236   6.675   8.308
11209SOL    HW235069   3.317   6.788   8.223
11210SOL     OW35070   3.328   6.176   8.440
11210SOL    HW135071   3.298   6.081   8.447
11210SOL    HW235072   3.401   6.192   8.506
11211SOL     OW35073   3.719   6.419   7.825
11211SOL    HW135074   3.761   6.355   7.889
11211SOL    HW235075   3.681   6.368   7.747
11212SOL     OW35076   2.350   6.971   7.622
11212SOL    HW135077   2.263   6.956   7.669
11212SOL    HW235078   2.333   6.997   7.527
11213SOL     OW35079   3.526   6.866   8.105
11213SOL    HW135080   3.625   6.874   8.119
11213SOL    HW235081   3.481   6.950   8.136
11214SOL     OW35082   3.252   6.161   7.526
11214SOL    HW135083   3.198   6.140   7.607
11214SOL    HW235084   3.343   6.120   7.535
11215SOL     OW35085   2.389   5.842   7.776
11215SOL    HW135086   2.416   5.783   7.701
11215SOL    HW235087   2.389   5.937   7.745
11216SOL     OW35088   3.616   6.809   9.036
11216SOL    HW135089   3.707   6.770   9.023
11216SOL    HW235090   3.624   6.905   9.060
11217SOL     OW35091   2.926   6.933   8.788
11217SOL    HW135092   2.846   6.910   8.843
11217SOL    HW235093   3.009   6.907   8.837
11218SOL     OW35094   3.454   7.215   9.073
11218SOL    HW135095   3.481   7.249   8.983
11218SOL    HW235096   3.533   7.177   9.119
11219SOL     OW35097   2.973   6.781   8.548
11219SOL    HW135098   2.933   6.825   8.629
11219SOL    HW235099   2.932   6.818   8.465
11220SOL     OW35100   3.500   6.685   8.527
11220SOL    HW135101   3.505   6.766   8.586
11220SOL    HW235102   3.414   6.687   8.476
11221SOL     OW35103   2.777   5.675   8.850
11221SOL    HW135104   2.802   5.655   8.755
11221SOL    HW235105   2.849   5.731   8.892
11222SOL     OW35106   2.842   6.702   9.167
11222SOL    HW135107   2.743   6.708   9.177
11222SOL    HW235108   2.865   6.622   9.111
11223SOL     OW35109   2.567   6.636   7.816
11223SOL    HW135110   2.553   6.643   7.915
11223SOL    HW235111   2.651   6.585   7.798
11224SOL     OW35112   2.272   6.399   8.699
11224SOL    HW135113   2.358   6.411   8.749
11224SOL    HW235114   2.230   6.312   8.726
11225SOL     OW35115   3.136   5.972   8.710
11225SOL    HW135116   3.157   6.046   8.774
11225SOL    HW235117   3.047   5.989   8.667
11226SOL     OW35118   1.926   7.150   8.779
11226SOL    HW135119   1.880   7.232   8.745
11226SOL    HW235120   2.024   7.169   8.788
11227SOL     OW35121   2.229   6.686   7.949
11227SOL    HW135122   2.222   6.769   7.893
11227SOL    HW235123   2.233   6.606   7.889
11228SOL     OW35124   2.428   6.123   8.313
11228SOL    HW135125   2.440   6.189   8.239
11228SOL    HW235126   2.474   6.157   8.396
11229SOL     OW35127   3.114   6.934   7.836
11229SOL    HW135128   3.164   7.011   7.876
11229SOL    HW235129   3.019   6.936   7.868
11230SOL     OW35130   3.134   7.031   8.590
11230SOL    HW135131   3.181   7.044   8.677
11230SOL    HW235132   3.068   6.957   8.599
11231SOL     OW35133   3.444   6.225   7.920
11231SOL    HW135134   3.413   6.286   7.993
11231SOL    HW235135   3.494   6.277   7.851
11232SOL     OW35136   2.216   7.096   8.777
11232SOL    HW135137   2.195   7.052   8.690
11232SOL    HW235138   2.313   7.122   8.780
11233SOL     OW35139   2.264   6.337   9.046
11233SOL    HW135140   2.332   6.392   8.999
11233SOL    HW235141   2.304   6.249   9.073
11234SOL     OW35142   3.449   6.365   9.118
11234SOL    HW135143   3.357   6.403   9.113
11234SOL    HW235144   3.509   6.412   9.053
11235SOL     OW35145   2.875   5.691   9.218
11235SOL    HW135146   2.881   5.776   9.166
11235SOL    HW235147   2.907   5.615   9.161
11236SOL     OW35148   2.366   5.636   9.188
11236SOL    HW135149   2.324   5.579   9.118
11236SOL    HW235150   2.300   5.705   9.220
11237SOL     OW35151   2.435   6.456   8.477
11237SOL    HW135152   2.479   6.545   8.468
11237SOL    HW235153   2.372   6.456   8.554
11238SOL     OW35154   3.222   6.448   8.493
11238SOL    HW135155   3.147   6.448   8.427
11238SOL    HW235156   3.259   6.356   8.502
11239SOL     OW35157   3.071   6.111   7.723
11239SOL    HW135158   3.084   6.027   7.777
11239SOL    HW235159   3.042   6.185   7.783
11240SOL     OW35160   2.169   5.799   8.679
11240SOL    HW135161   2.146   5.836   8.769
11240SOL    HW235162   2.139   5.704   8.673
11241SOL     OW35163   1.899   6.896   8.730
11241SOL    HW135164   1.952   6.847   8.798
11241SOL    HW235165   1.921   6.994   8.735
11242SOL     OW35166   2.594   6.220   8.512
11242SOL    HW135167   2.653   6.194   8.436
11242SOL    HW235168   2.566   6.316   8.501
11243SOL     OW35169   3.590   6.521   9.302
11243SOL    HW135170   3.544   6.514   9.213
11243SOL    HW235171   3.528   6.565   9.368
11244SOL     OW35172   2.169   5.649   8.066
11244SOL    HW135173   2.158   5.743   8.099
11244SOL    HW235174   2.164   5.586   8.143
11245SOL     OW35175   3.484   5.953   7.822
11245SOL    HW135176   3.486   5.877   7.886
11245SOL    HW235177   3.436   6.030   7.862
11246SOL     OW35178   2.885   6.352   8.414
11246SOL    HW135179   2.900   6.373   8.510
11246SOL    HW235180   2.855   6.257   8.405
11247SOL     OW35181   2.842   7.159   9.148
11247SOL    HW135182   2.822   7.203   9.060
11247SOL    HW235183   2.881   7.068   9.132
11248SOL     OW35184   3.721   7.104   9.053
11248SOL    HW135185   3.735   7.131   8.958
11248SOL    HW235186   3.804   7.126   9.106
11249SOL     OW35187   2.212   6.484   9.252
11249SOL    HW135188   2.288   6.528   9.300
11249SOL    HW235189   2.247   6.437   9.170
11250SOL     OW35190   3.402   5.860   7.573
11250SOL    HW135191   3.341   5.785   7.596
11250SOL    HW235192   3.424   5.912   7.656
11251SOL     OW35193   3.165   6.424   7.490
11251SOL    HW135194   3.199   6.331   7.505
11251SOL    HW235195   3.183   6.451   7.395
11252SOL     OW35196   2.930   6.919   8.297
11252SOL    HW135197   2.937   6.835   8.242
11252SOL    HW235198   2.992   6.988   8.261
11253SOL     OW35199   2.181   6.396   8.397
11253SOL    HW135200   2.274   6.432   8.402
11253SOL    HW235201   2.175   6.311   8.449
11254SOL     OW35202   2.201   6.095   8.454
11254SOL    HW135203   2.149   6.012   8.437
11254SOL    HW235204   2.278   6.100   8.390
11255SOL     OW35205   3.000   5.966   9.126
11255SOL    HW135206   2.955   6.029   9.190
11255SOL    HW235207   3.093   5.997   9.109
11256SOL     OW35208   3.022   5.793   8.925
11256SOL    HW135209   3.022   5.857   9.002
11256SOL    HW235210   3.050   5.841   8.842
11257SOL     OW35211   1.870   6.912   7.648
11257SOL    HW135212   1.777   6.933   7.617
11257SOL    HW235213   1.880   6.813   7.661
11258SOL     OW35214   1.950   7.387   8.375
11258SOL    HW135215   1.908   7.301   8.348
11258SOL    HW235216   2.044   7.390   8.341
11259SOL     OW35217   2.366   7.154   8.358
11259SOL    HW135218   2.432   7.228   8.367
11259SOL    HW235219   2.410   7.075   8.316
11260SOL     OW35220   2.864   6.382   8.686
11260SOL    HW135221   2.905   6.350   8.772
11260SOL    HW235222   2.768   6.355   8.683
11261SOL     OW35223   1.902   6.130   8.562
11261SOL    HW135224   1.987   6.097   8.521
11261SOL    HW235225   1.915   6.145   8.660
11262SOL     OW35226   2.051   6.106   9.170
11262SOL    HW135227   2.110   6.066   9.100
11262SOL    HW235228   1.993   6.177   9.129
11263SOL     OW35229   3.231   6.536   9.108
11263SOL    HW135230   3.270   6.625   9.128
11263SOL    HW235231   3.241   6.516   9.011
11264SOL     OW35232   2.677   6.158   7.773
11264SOL    HW135233   2.684   6.069   7.727
11264SOL    HW235234   2.583   6.192   7.765
11265SOL     OW35235   3.519   6.190   8.654
11265SOL    HW135236   3.481   6.121   8.716
11265SOL    HW235237   3.601   6.154   8.610
11266SOL     OW35238   2.114   7.150   9.192
11266SOL    HW135239   2.084   7.207   9.268
11266SOL    HW235240   2.107   7.053   9.218
11267SOL     OW35241   2.533   6.050   8.717
11267SOL    HW135242   2.499   5.961   8.687
11267SOL    HW235243   2.559   6.104   8.637
11268SOL     OW35244   2.792   7.264   8.913
11268SOL    HW135245   2.768   7.246   8.818
11268SOL    HW235246   2.822   7.358   8.923
11269SOL     OW35247   2.335   6.086   7.639
11269SOL    HW135248   2.396   6.166   7.643
11269SOL    HW235249   2.240   6.117   7.646
11270SOL     OW35250   2.021   6.723   8.914
11270SOL    HW135251   2.043   6.662   8.990
11270SOL    HW235252   2.031   6.674   8.828
11271SOL     OW35253   3.209   6.645   8.682
11271SOL    HW135254   3.233   6.582   8.608
11271SOL    HW235255   3.119   6.685   8.664
11272SOL     OW35256   3.164   6.441   7.757
11272SOL    HW135257   3.078   6.410   7.799
11272SOL    HW235258   3.160   6.427   7.658
11273SOL     OW35259   3.621   7.333   8.602
11273SOL    HW135260   3.682   7.363   8.529
11273SOL    HW235261   3.583   7.244   8.580
11274SOL     OW35262   3.114   7.317   8.576
11274SOL    HW135263   3.198   7.322   8.522
11274SOL    HW235264   3.091   7.221   8.594
11275SOL     OW35265   1.945   6.844   8.470
11275SOL    HW135266   1.940   6.843   8.570
11275SOL    HW235267   1.862   6.803   8.432
11276SOL     OW35268   2.550   7.248   9.164
11276SOL    HW135269   2.494   7.329   9.173
11276SOL    HW235270   2.602   7.252   9.078
11277SOL     OW35271   3.588   5.721   7.971
11277SOL    HW135272   3.661   5.704   7.904
11277SOL    HW235273   3.557   5.634   8.009
11278SOL     OW35274   3.250   7.159   7.925
11278SOL    HW135275   3.317   7.171   7.851
11278SOL    HW235276   3.210   7.248   7.948
11279SOL     OW35277   1.992   7.380   9.299
11279SOL    HW135278   1.951   7.306   9.352
11279SOL    HW235279   2.056   7.431   9.357
11280SOL     OW35280   3.142   6.513   8.120
11280SOL    HW135281   3.202   6.432   8.122
11280SOL    HW235282   3.182   6.582   8.060
11281SOL     OW35283   2.692   6.859   8.870
11281SOL    HW135284   2.687   6.892   8.965
11281SOL    HW235285   2.606   6.878   8.824
11282SOL     OW35286   2.534   7.202   7.602
11282SOL    HW135287   2.543   7.212   7.503
11282SOL    HW235288   2.494   7.113   7.623
11283SOL     OW35289   3.512   7.306   8.842
11283SOL    HW135290   3.565   7.316   8.758
11283SOL    HW235291   3.485   7.396   8.876
11284SOL     OW35292   3.703   5.761   8.411
11284SOL    HW135293   3.742   5.676   8.375
11284SOL    HW235294   3.605   5.763   8.392
11285SOL     OW35295   2.125   5.912   8.168
11285SOL    HW135296   2.046   5.963   8.134
11285SOL    HW235297   2.116   5.897   8.266
11286SOL     OW35298   3.056   7.198   7.479
11286SOL    HW135299   3.062   7.105   7.516
11286SOL    HW235300   2.997   7.198   7.399
11287SOL     OW35301   2.684   6.588   8.820
11287SOL    HW135302   2.724   6.587   8.728
11287SOL    HW235303   2.694   6.680   8.860
11288SOL     OW35304   2.778   6.496   7.739
11288SOL    HW135305   2.841   6.534   7.671
11288SOL    HW235306   2.818   6.413   7.778
11289SOL     OW35307   3.366   7.193   7.492
11289SOL    HW135308   3.274   7.230   7.499
11289SOL    HW235309   3.404   7.213   7.402
11290SOL     OW35310   2.234   6.874   8.938
11290SOL    HW135311   2.221   6.967   8.904
11290SOL    HW235312   2.150   6.822   8.925
11291SOL     OW35313   3.476   6.878   8.737
11291SOL    HW135314   3.536   6.881   8.817
11291SOL    HW235315   3.401   6.942   8.750
11292SOL     OW35316   2.901   6.684   8.144
11292SOL    HW135317   2.831   6.637   8.198
11292SOL    HW235318   2.960   6.616   8.101
11293SOL     OW35319   2.876   5.822   8.419
11293SOL    HW135320   2.868   5.786   8.326
11293SOL    HW235321   2.874   5.746   8.484
11294SOL     OW35322   2.452   7.073   7.939
11294SOL    HW135323   2.494   7.015   7.869
11294SOL    HW235324   2.408   7.152   7.895
11295SOL     OW35325   3.571   5.971   8.829
11295SOL    HW135326   3.644   6.040   8.833
11295SOL    HW235327   3.599   5.896   8.770
11296SOL     OW35328   2.117   6.934   7.738
11296SOL    HW135329   2.021   6.935   7.711
11296SOL    HW235330   2.129   6.987   7.822
11297SOL     OW35331   1.967   6.599   9.174
11297SOL    HW135332   1.890   6.566   9.228
11297SOL    HW235333   2.052   6.569   9.216
11298SOL     OW35334   2.534   5.789   8.937
11298SOL    HW135335   2.624   5.773   8.897
11298SOL    HW235336   2.542   5.794   9.036
11299SOL     OW35337   1.937   5.931   7.481
11299SOL    HW135338   1.845   5.903   7.452
11299SOL    HW235339   1.968   6.008   7.425
11300SOL     OW35340   3.302   6.442   8.846
11300SOL    HW135341   3.245   6.494   8.783
11300SOL    HW235342   3.398   6.454   8.822
11301SOL     OW35343   1.934   5.752   7.766
11301SOL    HW135344   1.917   5.835   7.712
11301SOL    HW235345   2.024   5.715   7.744
11302SOL     OW35346   3.045   6.921   7.567
11302SOL    HW135347   2.946   6.910   7.569
11302SOL    HW235348   3.079   6.936   7.660
11303SOL     OW35349   2.475   6.428   8.879
11303SOL    HW135350   2.531   6.509   8.862
11303SOL    HW235351   2.534   6.348   8.882
11304SOL     OW35352   3.355   7.353   8.407
11304SOL    HW135353   3.388   7.417   8.338
11304SOL    HW235354   3.421   7.347   8.482
11305SOL     OW35355   2.578   6.151   9.156
11305SOL    HW135356   2.597   6.216   9.230
11305SOL    HW235357   2.638   6.071   9.165
11306SOL     OW35358   3.312   6.806   9.081
11306SOL    HW135359   3.303   6.796   9.180
11306SOL    HW235360   3.408   6.799   9.055
11307SOL     OW35361   2.252   7.327   9.008
11307SOL    HW135362   2.161   7.368   9.006
11307SOL    HW235363   2.245   7.233   9.040
11308SOL     OW35364   3.536   6.469   8.702
11308SOL    HW135365   3.509   6.380   8.665
11308SOL    HW235366   3.537   6.537   8.629
11309SOL     OW35367   3.087   5.911   7.897
11309SOL    HW135368   3.152   5.837   7.886
11309SOL    HW235369   3.107   5.961   7.981
11310SOL     OW35370   2.456   6.331   8.100
11310SOL    HW135371   2.506   6.416   8.081
11310SOL    HW235372   2.368   6.333   8.052
11311SOL     OW35373   3.639   5.928   9.090
11311SOL    HW135374   3.622   5.959   8.996
11311SOL    HW235375   3.555   5.891   9.128
11312SOL     OW35376   3.592   6.520   8.965
11312SOL    HW135377   3.630   6.611   8.980
11312SOL    HW235378   3.584   6.503   8.866
11313SOL     OW35379   2.721   6.960   7.464
11313SOL    HW135380   2.675   6.975   7.552
11313SOL    HW235381   2.765   7.045   7.434
11314SOL     OW35382   2.523   7.376   8.401
11314SOL    HW135383   2.477   7.464   8.388
11314SOL    HW235384   2.622   7.388   8.394
11315SOL     OW35385   2.721   6.542   8.309
11315SOL    HW135386   2.775   6.473   8.357
11315SOL    HW235387   2.689   6.611   8.375
11316SOL     OW35388   2.945   6.570   7.535
11316SOL    HW135389   2.922   6.623   7.453
11316SOL    HW235390   3.026   6.514   7.516
11317SOL     OW35391   3.723   7.155   8.299
11317SOL    HW135392   3.652   7.143   8.229
11317SOL    HW235393   3.724   7.076   8.359
11318SOL     OW35394   2.083   6.900   9.292
11318SOL    HW135395   2.018   6.827   9.271
11318SOL    HW235396   2.087   6.914   9.390
11319SOL     OW35397   1.941   6.826   8.101
11319SOL    HW135398   1.940   6.779   8.189
11319SOL    HW235399   2.023   6.798   8.050
11320SOL     OW35400   2.534   6.977   9.072
11320SOL    HW135401   2.456   6.927   9.110
11320SOL    HW235402   2.531   7.072   9.103
11321SOL     OW35403   3.686   5.778   8.675
11321SOL    HW135404   3.682   5.688   8.719
11321SOL    HW235405   3.689   5.767   8.576
11322SOL     OW35406   2.290   6.010   7.968
11322SOL    HW135407   2.320   5.938   7.906
11322SOL    HW235408   2.251   5.970   8.051
11323SOL     OW35409   3.567   7.073   8.552
11323SOL    HW135410   3.474   7.048   8.525
11323SOL    HW235411   3.593   7.023   8.634
11324SOL     OW35412   2.179   6.133   8.728
11324SOL    HW135413   2.217   6.074   8.800
11324SOL    HW235414   2.219   6.107   8.640
11325SOL     OW35415   2.674   7.172   8.135
11325SOL    HW135416   2.706   7.182   8.041
11325SOL    HW235417   2.595   7.110   8.137
11326SOL     OW35418   3.286   5.800   8.560
11326SOL    HW135419   3.338   5.735   8.615
11326SOL    HW235420   3.237   5.863   8.621
11327SOL     OW35421   2.863   5.620   8.602
11327SOL    HW135422   2.800   5.548   8.571
11327SOL    HW235423   2.956   5.584   8.602
11328SOL     OW35424   2.632   6.916   7.749
11328SOL    HW135425   2.586   6.829   7.766
11328SOL    HW235426   2.723   6.913   7.790
11329SOL     OW35427   2.480   7.153   8.732
11329SOL    HW135428   2.475   7.235   8.789
11329SOL    HW235429   2.569   7.150   8.687
11330SOL     OW35430   3.214   5.638   7.616
11330SOL    HW135431   3.249   5.597   7.532
11330SOL    HW235432   3.124   5.600   7.636
11331SOL     OW35433   3.162   6.039   8.139
11331SOL    HW135434   3.103   6.119   8.143
11331SOL    HW235435   3.177   6.004   8.232
11332SOL     OW35436   3.455   5.807   8.330
11332SOL    HW135437   3.371   5.806   8.384
11332SOL    HW235438   3.457   5.890   8.274
11333SOL     OW35439   1.901   6.663   7.748
11333SOL    HW135440   2.000   6.652   7.739
11333SOL    HW235441   1.861   6.577   7.780
11334SOL     OW35442   2.737   7.232   7.785
11334SOL    HW135443   2.660   7.197   7.731
11334SOL    HW235444   2.705   7.303   7.847
11335SOL     OW35445   2.092   6.214   9.423
11335SOL    HW135446   1.999   6.212   9.460
11335SOL    HW235447   2.093   6.175   9.331
11336SOL     OW35448   2.087   5.861  10.306
11336SOL    HW135449   2.122   5.844  10.398
11336SOL    HW235450   1.999   5.816  10.294
11337SOL     OW35451   1.881   5.954   9.957
11337SOL    HW135452   1.799   5.997   9.996
11337SOL    HW235453   1.853   5.881   9.894
11338SOL     OW35454   2.431   6.861  10.475
11338SOL    HW135455   2.338   6.854  10.438
11338SOL    HW235456   2.442   6.950  10.519
11339SOL     OW35457   3.417   7.097  10.013
11339SOL    HW135458   3.360   7.081  10.094
11339SOL    HW235459   3.358   7.107   9.933
11340SOL     OW35460   2.997   6.289  10.027
11340SOL    HW135461   3.054   6.367  10.002
11340SOL    HW235462   2.937   6.315  10.103
11341SOL     OW35463   3.617   6.193   9.541
11341SOL    HW135464   3.605   6.180   9.442
11341SOL    HW235465   3.587   6.112   9.590
11342SOL     OW35466   2.630   6.730  10.333
11342SOL    HW135467   2.552   6.747  10.393
11342SOL    HW235468   2.664   6.817  10.297
11343SOL     OW35469   2.712   6.384  11.133
11343SOL    HW135470   2.708   6.460  11.198
11343SOL    HW235471   2.734   6.420  11.042
11344SOL     OW35472   2.547   6.598   9.975
11344SOL    HW135473   2.616   6.582  10.045
11344SOL    HW235474   2.474   6.655  10.013
11345SOL     OW35475   2.548   6.747  11.113
11345SOL    HW135476   2.608   6.826  11.127
11345SOL    HW235477   2.462   6.778  11.072
11346SOL     OW35478   2.197   7.021  10.371
11346SOL    HW135479   2.119   6.990  10.318
11346SOL    HW235480   2.255   7.079  10.314
11347SOL     OW35481   3.322   7.091  10.649
11347SOL    HW135482   3.346   7.185  10.675
11347SOL    HW235483   3.306   7.037  10.731
11348SOL     OW35484   2.300   5.978  10.809
11348SOL    HW135485   2.382   5.922  10.818
11348SOL    HW235486   2.219   5.920  10.813
11349SOL     OW35487   3.465   6.033  10.047
11349SOL    HW135488   3.391   6.079   9.997
11349SOL    HW235489   3.516   6.101  10.100
11350SOL     OW35490   2.093   7.299   9.793
11350SOL    HW135491   2.127   7.376   9.847
11350SOL    HW235492   2.137   7.299   9.703
11351SOL     OW35493   2.989   6.927  11.000
11351SOL    HW135494   3.036   6.927  11.088
11351SOL    HW235495   2.941   6.840  10.989
11352SOL     OW35496   2.092   7.020   9.848
11352SOL    HW135497   2.066   7.116   9.848
11352SOL    HW235498   2.021   6.966   9.893
11353SOL     OW35499   2.102   6.677  10.196
11353SOL    HW135500   2.116   6.593  10.248
11353SOL    HW235501   2.047   6.741  10.251
11354SOL     OW35502   2.482   7.372  10.749
11354SOL    HW135503   2.390   7.355  10.784
11354SOL    HW235504   2.510   7.464  10.775
11355SOL     OW35505   2.468   6.550   9.433
11355SOL    HW135506   2.475   6.634   9.379
11355SOL    HW235507   2.514   6.563   9.521
11356SOL     OW35508   3.456   5.700  10.790
11356SOL    HW135509   3.438   5.767  10.718
11356SOL    HW235510   3.453   5.746  10.879
11357SOL     OW35511   1.984   6.229   9.873
11357SOL    HW135512   1.939   6.141   9.890
11357SOL    HW235513   1.983   6.283   9.957
11358SOL     OW35514   3.704   7.353   9.669
11358SOL    HW135515   3.758   7.324   9.749
11358SOL    HW235516   3.734   7.443   9.640
11359SOL     OW35517   1.889   7.182   9.427
11359SOL    HW135518   1.870   7.086   9.448
11359SOL    HW235519   1.856   7.240   9.502
11360SOL     OW35520   3.551   6.508   9.922
11360SOL    HW135521   3.646   6.479   9.930
11360SOL    HW235522   3.543   6.573   9.847
11361SOL     OW35523   3.503   6.694   9.742
11361SOL    HW135524   3.589   6.696   9.690
11361SOL    HW235525   3.517   6.741   9.830
11362SOL     OW35526   1.975   6.323  10.907
11362SOL    HW135527   2.063   6.310  10.952
11362SOL    HW235528   1.962   6.420  10.885
11363SOL     OW35529   2.475   6.951  10.036
11363SOL    HW135530   2.426   6.864  10.045
11363SOL    HW235531   2.452   6.994   9.949
11364SOL     OW35532   3.155   6.814  10.733
11364SOL    HW135533   3.192   6.741  10.675
11364SOL    HW235534   3.207   6.819  10.818
11365SOL     OW35535   2.671   5.590   9.812
11365SOL    HW135536   2.711   5.681   9.803
11365SOL    HW235537   2.571   5.598   9.818
11366SOL     OW35538   2.059   6.562  10.574
11366SOL    HW135539   2.148   6.517  10.560
11366SOL    HW235540   1.986   6.497  10.555
11367SOL     OW35541   3.387   6.585   9.500
11367SOL    HW135542   3.324   6.509   9.513
11367SOL    HW235543   3.435   6.603   9.586
11368SOL     OW35544   3.049   7.378  10.926
11368SOL    HW135545   3.073   7.438  10.850
11368SOL    HW235546   3.056   7.283  10.896
11369SOL     OW35547   2.179   5.837  11.111
11369SOL    HW135548   2.250   5.908  11.117
11369SOL    HW235549   2.091   5.876  11.139
11370SOL     OW35550   3.328   7.003  10.263
11370SOL    HW135551   3.269   7.009  10.343
11370SOL    HW235552   3.313   6.915  10.217
11371SOL     OW35553   3.529   7.300   9.882
11371SOL    HW135554   3.488   7.277   9.794
11371SOL    HW235555   3.511   7.226   9.947
11372SOL     OW35556   2.460   6.315   9.580
11372SOL    HW135557   2.484   6.384   9.512
11372SOL    HW235558   2.382   6.348   9.634
11373SOL     OW35559   3.143   5.931  10.254
11373SOL    HW135560   3.057   5.881  10.241
11373SOL    HW235561   3.205   5.877  10.310
11374SOL     OW35562   3.438   7.248   9.617
11374SOL    HW135563   3.527   7.294   9.620
11374SOL    HW235564   3.417   7.224   9.522
11375SOL     OW35565   2.669   6.191  10.775
11375SOL    HW135566   2.622   6.188  10.864
11375SOL    HW235567   2.618   6.136  10.709
11376SOL     OW35568   3.256   6.055  10.984
11376SOL    HW135569   3.236   6.098  11.072
11376SOL    HW235570   3.334   5.993  10.993
11377SOL     OW35571   2.835   6.476  10.882
11377SOL    HW135572   2.881   6.392  10.853
11377SOL    HW235573   2.779   6.510  10.807
11378SOL     OW35574   2.853   5.996  10.552
11378SOL    HW135575   2.776   6.030  10.606
11378SOL    HW235576   2.819   5.945  10.473
11379SOL     OW35577   2.903   6.287   9.739
11379SOL    HW135578   2.929   6.283   9.835
11379SOL    HW235579   2.818   6.236   9.725
11380SOL     OW35580   1.938   6.397  10.099
11380SOL    HW135581   2.037   6.385  10.108
11380SOL    HW235582   1.914   6.492  10.120
11381SOL     OW35583   1.992   7.407  10.881
11381SOL    HW135584   1.982   7.392  10.980
11381SOL    HW235585   1.906   7.443  10.845
11382SOL     OW35586   2.727   5.934   9.505
11382SOL    HW135587   2.786   5.997   9.456
11382SOL    HW235588   2.746   5.840   9.476
11383SOL     OW35589   3.581   6.171  11.141
11383SOL    HW135590   3.555   6.260  11.105
11383SOL    HW235591   3.579   6.103  11.068
11384SOL     OW35592   3.224   6.730   9.855
11384SOL    HW135593   3.307   6.701   9.807
11384SOL    HW235594   3.175   6.797   9.799
11385SOL     OW35595   2.412   5.782  10.195
11385SOL    HW135596   2.407   5.777  10.295
11385SOL    HW235597   2.414   5.878  10.166
11386SOL     OW35598   2.870   7.042   9.787
11386SOL    HW135599   2.824   7.114   9.735
11386SOL    HW235600   2.866   7.062   9.885
11387SOL     OW35601   2.213   7.387  10.163
11387SOL    HW135602   2.263   7.301  10.169
11387SOL    HW235603   2.278   7.464  10.160
11388SOL     OW35604   3.657   6.652  10.183
11388SOL    HW135605   3.595   6.637  10.107
11388SOL    HW235606   3.605   6.663  10.268
11389SOL     OW35607   3.089   7.136  10.816
11389SOL    HW135608   3.095   7.059  10.880
11389SOL    HW235609   3.037   7.110  10.736
11390SOL     OW35610   2.183   6.529   9.552
11390SOL    HW135611   2.265   6.568   9.510
11390SOL    HW235612   2.156   6.447   9.503
11391SOL     OW35613   3.320   6.321  10.038
11391SOL    HW135614   3.315   6.256  10.113
11391SOL    HW235615   3.400   6.380  10.051
11392SOL     OW35616   2.323   6.852  11.037
11392SOL    HW135617   2.273   6.853  10.951
11392SOL    HW235618   2.260   6.834  11.113
11393SOL     OW35619   2.973   7.362   9.547
11393SOL    HW135620   2.913   7.300   9.597
11393SOL    HW235621   3.004   7.318   9.462
11394SOL     OW35622   2.064   5.871  10.808
11394SOL    HW135623   1.984   5.931  10.795
11394SOL    HW235624   2.054   5.822  10.894
11395SOL     OW35625   3.494   6.963   9.391
11395SOL    HW135626   3.462   7.057   9.381
11395SOL    HW235627   3.418   6.900   9.379
11396SOL     OW35628   2.326   7.329   9.633
11396SOL    HW135629   2.359   7.368   9.719
11396SOL    HW235630   2.402   7.322   9.568
11397SOL     OW35631   3.262   5.693   9.736
11397SOL    HW135632   3.238   5.656   9.646
11397SOL    HW235633   3.361   5.709   9.740
11398SOL     OW35634   2.111   7.371  10.551
11398SOL    HW135635   2.168   7.306  10.601
11398SOL    HW235636   2.095   7.338  10.458
11399SOL     OW35637   2.802   7.284  10.214
11399SOL    HW135638   2.882   7.227  10.235
11399SOL    HW235639   2.753   7.244  10.137
11400SOL     OW35640   2.244   6.286   9.790
11400SOL    HW135641   2.289   6.196   9.787
11400SOL    HW235642   2.150   6.275   9.823
11401SOL     OW35643   3.409   5.808  11.039
11401SOL    HW135644   3.404   5.845  11.131
11401SOL    HW235645   3.337   5.739  11.027
11402SOL     OW35646   2.476   5.708   9.427
11402SOL    HW135647   2.574   5.686   9.434
11402SOL    HW235648   2.445   5.691   9.334
11403SOL     OW35649   2.643   5.850  11.059
11403SOL    HW135650   2.710   5.789  11.102
11403SOL    HW235651   2.570   5.869  11.124
11404SOL     OW35652   2.750   7.100  10.505
11404SOL    HW135653   2.727   7.075  10.411
11404SOL    HW235654   2.811   7.031  10.544
11405SOL     OW35655   3.213   6.176  10.743
11405SOL    HW135656   3.241   6.133  10.828
11405SOL    HW235657   3.238   6.272  10.744
11406SOL     OW35658   2.665   6.988  10.234
11406SOL    HW135659   2.755   7.002  10.192
11406SOL    HW235660   2.594   6.990  10.163
11407SOL     OW35661   2.784   6.089  10.209
11407SOL    HW135662   2.759   6.080  10.113
11407SOL    HW235663   2.832   6.007  10.240
11408SOL     OW35664   2.401   5.650   9.822
11408SOL    HW135665   2.320   5.651   9.880
11408SOL    HW235666   2.404   5.733   9.767
11409SOL     OW35667   3.296   6.774   9.351
11409SOL    HW135668   3.328   6.698   9.408
11409SOL    HW235669   3.204   6.801   9.381
11410SOL     OW35670   2.159   5.621   9.481
11410SOL    HW135671   2.208   5.705   9.460
11410SOL    HW235672   2.221   5.556   9.526
11411SOL     OW35673   2.797   5.822   9.790
11411SOL    HW135674   2.749   5.863   9.712
11411SOL    HW235675   2.896   5.820   9.771
11412SOL     OW35676   2.938   6.269  10.774
11412SOL    HW135677   2.858   6.208  10.777
11412SOL    HW235678   3.019   6.216  10.750
11413SOL     OW35679   3.089   7.156  10.103
11413SOL    HW135680   3.110   7.230  10.038
11413SOL    HW235681   3.157   7.156  10.176
11414SOL     OW35682   2.321   6.738  10.051
11414SOL    HW135683   2.250   6.711  10.116
11414SOL    HW235684   2.295   6.710   9.958
11415SOL     OW35685   3.133   7.383   9.901
11415SOL    HW135686   3.177   7.447   9.837
11415SOL    HW235687   3.083   7.435   9.971
11416SOL     OW35688   2.894   6.135   9.326
11416SOL    HW135689   2.853   6.217   9.287
11416SOL    HW235690   2.958   6.161   9.399
11417SOL     OW35691   1.940   6.142  10.696
11417SOL    HW135692   2.032   6.141  10.655
11417SOL    HW235693   1.934   6.216  10.763
11418SOL     OW35694   2.423   5.808  10.457
11418SOL    HW135695   2.461   5.724  10.494
11418SOL    HW235696   2.335   5.827  10.501
11419SOL     OW35697   2.728   6.040   9.952
11419SOL    HW135698   2.696   6.112   9.890
11419SOL    HW235699   2.752   5.959   9.899
11420SOL     OW35700   2.879   5.625  10.063
11420SOL    HW135701   2.807   5.630   9.994
11420SOL    HW235702   2.855   5.556  10.132
11421SOL     OW35703   3.291   6.759  10.177
11421SOL    HW135704   3.236   6.675  10.170
11421SOL    HW235705   3.317   6.788  10.085
11422SOL     OW35706   3.328   6.176  10.302
11422SOL    HW135707   3.298   6.081  10.309
11422SOL    HW235708   3.401   6.192  10.368
11423SOL     OW35709   3.719   6.419   9.687
11423SOL    HW135710   3.761   6.355   9.751
11423SOL    HW235711   3.681   6.368   9.609
11424SOL     OW35712   2.350   6.971   9.484
11424SOL    HW135713   2.263   6.956   9.531
11424SOL    HW235714   2.333   6.997   9.389
11425SOL     OW35715   3.526   6.866   9.967
11425SOL    HW135716   3.625   6.874   9.981
11425SOL    HW235717   3.481   6.950   9.998
11426SOL     OW35718   3.252   6.161   9.388
11426SOL    HW135719   3.198   6.140   9.469
11426SOL    HW235720   3.343   6.120   9.397
11427SOL     OW35721   2.389   5.842   9.638
11427SOL    HW135722   2.416   5.783   9.563
11427SOL    HW235723   2.389   5.937   9.607
11428SOL     OW35724   3.616   6.809  10.898
11428SOL    HW135725   3.707   6.770  10.885
11428SOL    HW235726   3.624   6.905  10.922
11429SOL     OW35727   2.926   6.933  10.650
11429SOL    HW135728   2.846   6.910  10.705
11429SOL    HW235729   3.009   6.907  10.699
11430SOL     OW35730   3.454   7.215  10.935
11430SOL    HW135731   3.481   7.249  10.845
11430SOL    HW235732   3.533   7.177  10.981
11431SOL     OW35733   2.973   6.781  10.410
11431SOL    HW135734   2.933   6.825  10.491
11431SOL    HW235735   2.932   6.818  10.327
11432SOL     OW35736   3.500   6.685  10.389
11432SOL    HW135737   3.505   6.766  10.448
11432SOL    HW235738   3.414   6.687  10.338
11433SOL     OW35739   2.777   5.675  10.712
11433SOL    HW135740   2.802   5.655  10.617
11433SOL    HW235741   2.849   5.731  10.754
11434SOL     OW35742   2.842   6.702  11.029
11434SOL    HW135743   2.743   6.708  11.039
11434SOL    HW235744   2.865   6.622  10.973
11435SOL     OW35745   2.567   6.636   9.678
11435SOL    HW135746   2.553   6.643   9.777
11435SOL    HW235747   2.651   6.585   9.660
11436SOL     OW35748   2.272   6.399  10.561
11436SOL    HW135749   2.358   6.411  10.611
11436SOL    HW235750   2.230   6.312  10.588
11437SOL     OW35751   3.136   5.972  10.572
11437SOL    HW135752   3.157   6.046  10.636
11437SOL    HW235753   3.047   5.989  10.529
11438SOL     OW35754   1.926   7.150  10.641
11438SOL    HW135755   1.880   7.232  10.607
11438SOL    HW235756   2.024   7.169  10.650
11439SOL     OW35757   2.229   6.686   9.811
11439SOL    HW135758   2.222   6.769   9.755
11439SOL    HW235759   2.233   6.606   9.751
11440SOL     OW35760   2.428   6.123  10.175
11440SOL    HW135761   2.440   6.189  10.101
11440SOL    HW235762   2.474   6.157  10.258
11441SOL     OW35763   3.114   6.934   9.698
11441SOL    HW135764   3.164   7.011   9.738
11441SOL    HW235765   3.019   6.936   9.730
11442SOL     OW35766   3.134   7.031  10.452
11442SOL    HW135767   3.181   7.044  10.539
11442SOL    HW235768   3.068   6.957  10.461
11443SOL     OW35769   3.444   6.225   9.782
11443SOL    HW135770   3.413   6.286   9.855
11443SOL    HW235771   3.494   6.277   9.713
11444SOL     OW35772   2.216   7.096  10.639
11444SOL    HW135773   2.195   7.052  10.552
11444SOL    HW235774   2.313   7.122  10.642
11445SOL     OW35775   2.264   6.337  10.908
11445SOL    HW135776   2.332   6.392  10.861
11445SOL    HW235777   2.304   6.249  10.935
11446SOL     OW35778   3.449   6.365  10.980
11446SOL    HW135779   3.357   6.403  10.975
11446SOL    HW235780   3.509   6.412  10.915
11447SOL     OW35781   2.875   5.691  11.080
11447SOL    HW135782   2.881   5.776  11.028
11447SOL    HW235783   2.907   5.615  11.023
11448SOL     OW35784   2.366   5.636  11.050
11448SOL    HW135785   2.324   5.579  10.980
11448SOL    HW235786   2.300   5.705  11.082
11449SOL     OW35787   2.435   6.456  10.339
11449SOL    HW135788   2.479   6.545  10.330
11449SOL    HW235789   2.372   6.456  10.416
11450SOL     OW35790   3.222   6.448  10.355
11450SOL    HW135791   3.147   6.448  10.289
11450SOL    HW235792   3.259   6.356  10.364
11451SOL     OW35793   3.071   6.111   9.585
11451SOL    HW135794   3.084   6.027   9.639
11451SOL    HW235795   3.042   6.185   9.645
11452SOL     OW35796   2.169   5.799  10.541
11452SOL    HW135797   2.146   5.836  10.631
11452SOL    HW235798   2.139   5.704  10.535
11453SOL     OW35799   1.899   6.896  10.592
11453SOL    HW135800   1.952   6.847  10.660
11453SOL    HW235801   1.921   6.994  10.597
11454SOL     OW35802   2.594   6.220  10.374
11454SOL    HW135803   2.653   6.194  10.298
11454SOL    HW235804   2.566   6.316  10.363
11455SOL     OW35805   3.590   6.521  11.164
11455SOL    HW135806   3.544   6.514  11.075
11455SOL    HW235807   3.528   6.565  11.230
11456SOL     OW35808   2.169   5.649   9.928
11456SOL    HW135809   2.158   5.743   9.961
11456SOL    HW235810   2.164   5.586  10.005
11457SOL     OW35811   3.484   5.953   9.684
11457SOL    HW135812   3.486   5.877   9.748
11457SOL    HW235813   3.436   6.030   9.724
11458SOL     OW35814   2.885   6.352  10.276
11458SOL    HW135815   2.900   6.373  10.372
11458SOL    HW235816   2.855   6.257  10.267
11459SOL     OW35817   2.842   7.159  11.010
11459SOL    HW135818   2.822   7.203  10.922
11459SOL    HW235819   2.881   7.068  10.994
11460SOL     OW35820   3.721   7.104  10.915
11460SOL    HW135821   3.735   7.131  10.820
11460SOL    HW235822   3.804   7.126  10.968
11461SOL     OW35823   2.212   6.484  11.114
11461SOL    HW135824   2.288   6.528  11.162
11461SOL    HW235825   2.247   6.437  11.032
11462SOL     OW35826   3.402   5.860   9.435
11462SOL    HW135827   3.341   5.785   9.458
11462SOL    HW235828   3.424   5.912   9.518
11463SOL     OW35829   3.165   6.424   9.352
11463SOL    HW135830   3.199   6.331   9.367
11463SOL    HW235831   3.183   6.451   9.257
11464SOL     OW35832   2.930   6.919  10.159
11464SOL    HW135833   2.937   6.835  10.104
11464SOL    HW235834   2.992   6.988  10.123
11465SOL     OW35835   2.181   6.396  10.259
11465SOL    HW135836   2.274   6.432  10.264
11465SOL    HW235837   2.175   6.311  10.311
11466SOL     OW35838   2.201   6.095  10.316
11466SOL    HW135839   2.149   6.012  10.299
11466SOL    HW235840   2.278   6.100  10.252
11467SOL     OW35841   3.000   5.966  10.988
11467SOL    HW135842   2.955   6.029  11.052
11467SOL    HW235843   3.093   5.997  10.971
11468SOL     OW35844   3.022   5.793  10.787
11468SOL    HW135845   3.022   5.857  10.864
11468SOL    HW235846   3.050   5.841  10.704
11469SOL     OW35847   1.870   6.912   9.510
11469SOL    HW135848   1.777   6.933   9.479
11469SOL    HW235849   1.880   6.813   9.523
11470SOL     OW35850   1.950   7.387  10.237
11470SOL    HW135851   1.908   7.301  10.210
11470SOL    HW235852   2.044   7.390  10.203
11471SOL     OW35853   2.366   7.154  10.220
11471SOL    HW135854   2.432   7.228  10.229
11471SOL    HW235855   2.410   7.075  10.178
11472SOL     OW35856   2.864   6.382  10.548
11472SOL    HW135857   2.905   6.350  10.634
11472SOL    HW235858   2.768   6.355  10.545
11473SOL     OW35859   1.902   6.130  10.424
11473SOL    HW135860   1.987   6.097  10.383
11473SOL    HW235861   1.915   6.145  10.522
11474SOL     OW35862   2.051   6.106  11.032
11474SOL    HW135863   2.110   6.066  10.962
11474SOL    HW235864   1.993   6.177  10.991
11475SOL     OW35865   3.231   6.536  10.970
11475SOL    HW135866   3.270   6.625  10.990
11475SOL    HW235867   3.241   6.516  10.873
11476SOL     OW35868   2.677   6.158   9.635
11476SOL    HW135869   2.684   6.069   9.589
11476SOL    HW235870   2.583   6.192   9.627
11477SOL     OW35871   3.519   6.190  10.516
11477SOL    HW135872   3.481   6.121  10.578
11477SOL    HW235873   3.601   6.154  10.472
11478SOL     OW35874   2.114   7.150  11.054
11478SOL    HW135875   2.084   7.207  11.130
11478SOL    HW235876   2.107   7.053  11.080
11479SOL     OW35877   2.533   6.050  10.579
11479SOL    HW135878   2.499   5.961  10.549
11479SOL    HW235879   2.559   6.104  10.499
11480SOL     OW35880   2.792   7.264  10.775
11480SOL    HW135881   2.768   7.246  10.680
11480SOL    HW235882   2.822   7.358  10.785
11481SOL     OW35883   2.335   6.086   9.501
11481SOL    HW135884   2.396   6.166   9.505
11481SOL    HW235885   2.240   6.117   9.508
11482SOL     OW35886   2.021   6.723  10.776
11482SOL    HW135887   2.043   6.662  10.852
11482SOL    HW235888   2.031   6.674  10.690
11483SOL     OW35889   3.209   6.645  10.544
11483SOL    HW135890   3.233   6.582  10.470
11483SOL    HW235891   3.119   6.685  10.526
11484SOL     OW35892   3.164   6.441   9.619
11484SOL    HW135893   3.078   6.410   9.661
11484SOL    HW235894   3.160   6.427   9.520
11485SOL     OW35895   3.621   7.333  10.464
11485SOL    HW135896   3.682   7.363  10.391
11485SOL    HW235897   3.583   7.244  10.442
11486SOL     OW35898   3.114   7.317  10.438
11486SOL    HW135899   3.198   7.322  10.384
11486SOL    HW235900   3.091   7.221  10.456
11487SOL     OW35901   1.945   6.844  10.332
11487SOL    HW135902   1.940   6.843  10.432
11487SOL    HW235903   1.862   6.803  10.294
11488SOL     OW35904   2.550   7.248  11.026
11488SOL    HW135905   2.494   7.329  11.035
11488SOL    HW235906   2.602   7.252  10.940
11489SOL     OW35907   3.588   5.721   9.833
11489SOL    HW135908   3.661   5.704   9.766
11489SOL    HW235909   3.557   5.634   9.871
11490SOL     OW35910   3.250   7.159   9.787
11490SOL    HW135911   3.317   7.171   9.713
11490SOL    HW235912   3.210   7.248   9.810
11491SOL     OW35913   1.992   7.380  11.161
11491SOL    HW135914   1.951   7.306  11.214
11491SOL    HW235915   2.056   7.431  11.219
11492SOL     OW35916   3.142   6.513   9.982
11492SOL    HW135917   3.202   6.432   9.984
11492SOL    HW235918   3.182   6.582   9.922
11493SOL     OW35919   2.692   6.859  10.732
11493SOL    HW135920   2.687   6.892  10.827
11493SOL    HW235921   2.606   6.878  10.686
11494SOL     OW35922   2.534   7.202   9.464
11494SOL    HW135923   2.543   7.212   9.365
11494SOL    HW235924   2.494   7.113   9.485
11495SOL     OW35925   3.512   7.306  10.704
11495SOL    HW135926   3.565   7.316  10.620
11495SOL    HW235927   3.485   7.396  10.738
11496SOL     OW35928   3.703   5.761  10.273
11496SOL    HW135929   3.742   5.676  10.237
11496SOL    HW235930   3.605   5.763  10.254
11497SOL     OW35931   2.125   5.912  10.030
11497SOL    HW135932   2.046   5.963   9.996
11497SOL    HW235933   2.116   5.897  10.128
11498SOL     OW35934   3.056   7.198   9.341
11498SOL    HW135935   3.062   7.105   9.378
11498SOL    HW235936   2.997   7.198   9.261
11499SOL     OW35937   2.684   6.588  10.682
11499SOL    HW135938   2.724   6.587  10.590
11499SOL    HW235939   2.694   6.680  10.722
11500SOL     OW35940   2.778   6.496   9.601
11500SOL    HW135941   2.841   6.534   9.533
11500SOL    HW235942   2.818   6.413   9.640
11501SOL     OW35943   3.366   7.193   9.354
11501SOL    HW135944   3.274   7.230   9.361
11501SOL    HW235945   3.404   7.213   9.264
11502SOL     OW35946   2.234   6.874  10.800
11502SOL    HW135947   2.221   6.967  10.766
11502SOL    HW235948   2.150   6.822  10.787
11503SOL     OW35949   3.476   6.878  10.599
11503SOL    HW135950   3.536   6.881  10.679
11503SOL    HW235951   3.401   6.942  10.612
11504SOL     OW35952   2.901   6.684  10.006
11504SOL    HW135953   2.831   6.637  10.060
11504SOL    HW235954   2.960   6.616   9.963
11505SOL     OW35955   2.876   5.822  10.281
11505SOL    HW135956   2.868   5.786  10.188
11505SOL    HW235957   2.874   5.746  10.346
11506SOL     OW35958   2.452   7.073   9.801
11506SOL    HW135959   2.494   7.015   9.731
11506SOL    HW235960   2.408   7.152   9.757
11507SOL     OW35961   3.571   5.971  10.691
11507SOL    HW135962   3.644   6.040  10.695
11507SOL    HW235963   3.599   5.896  10.632
11508SOL     OW35964   2.117   6.934   9.600
11508SOL    HW135965   2.021   6.935   9.573
11508SOL    HW235966   2.129   6.987   9.684
11509SOL     OW35967   1.967   6.599  11.036
11509SOL    HW135968   1.890   6.566  11.090
11509SOL    HW235969   2.052   6.569  11.078
11510SOL     OW35970   2.534   5.789  10.799
11510SOL    HW135971   2.624   5.773  10.759
11510SOL    HW235972   2.542   5.794  10.898
11511SOL     OW35973   1.937   5.931   9.343
11511SOL    HW135974   1.845   5.903   9.314
11511SOL    HW235975   1.968   6.008   9.287
11512SOL     OW35976   3.302   6.442  10.708
11512SOL    HW135977   3.245   6.494  10.645
11512SOL    HW235978   3.398   6.454  10.684
11513SOL     OW35979   1.934   5.752   9.628
11513SOL    HW135980   1.917   5.835   9.574
11513SOL    HW235981   2.024   5.715   9.606
11514SOL     OW35982   3.045   6.921   9.429
11514SOL    HW135983   2.946   6.910   9.431
11514SOL    HW235984   3.079   6.936   9.522
11515SOL     OW35985   2.475   6.428  10.741
11515SOL    HW135986   2.531   6.509  10.724
11515SOL    HW235987   2.534   6.348  10.744
11516SOL     OW35988   3.355   7.353  10.269
11516SOL    HW135989   3.388   7.417  10.200
11516SOL    HW235990   3.421   7.347  10.344
11517SOL     OW35991   2.578   6.151  11.018
11517SOL    HW135992   2.597   6.216  11.092
11517SOL    HW235993   2.638   6.071  11.027
11518SOL     OW35994   3.312   6.806  10.943
11518SOL    HW135995   3.303   6.796  11.042
11518SOL    HW235996   3.408   6.799  10.917
11519SOL     OW35997   2.252   7.327  10.870
11519SOL    HW135998   2.161   7.368  10.868
11519SOL    HW235999   2.245   7.233  10.902
11520SOL     OW36000   3.536   6.469  10.564
11520SOL    HW136001   3.509   6.380  10.527
11520SOL    HW236002   3.537   6.537  10.491
11521SOL     OW36003   3.087   5.911   9.759
11521SOL    HW136004   3.152   5.837   9.748
11521SOL    HW236005   3.107   5.961   9.843
11522SOL     OW36006   2.456   6.331   9.962
11522SOL    HW136007   2.506   6.416   9.943
11522SOL    HW236008   2.368   6.333   9.914
11523SOL     OW36009   3.639   5.928  10.952
11523SOL    HW136010   3.622   5.959  10.858
11523SOL    HW236011   3.555   5.891  10.990
11524SOL     OW36012   3.592   6.520  10.827
11524SOL    HW136013   3.630   6.611  10.842
11524SOL    HW236014   3.584   6.503  10.728
11525SOL     OW36015   2.721   6.960   9.326
11525SOL    HW136016   2.675   6.975   9.414
11525SOL    HW236017   2.765   7.045   9.296
11526SOL     OW36018   2.523   7.376  10.263
11526SOL    HW136019   2.477   7.464  10.250
11526SOL    HW236020   2.622   7.388  10.256
11527SOL     OW36021   2.721   6.542  10.171
11527SOL    HW136022   2.775   6.473  10.219
11527SOL    HW236023   2.689   6.611  10.237
11528SOL     OW36024   2.945   6.570   9.397
11528SOL    HW136025   2.922   6.623   9.315
11528SOL    HW236026   3.026   6.514   9.378
11529SOL     OW36027   3.723   7.155  10.161
11529SOL    HW136028   3.652   7.143  10.091
11529SOL    HW236029   3.724   7.076  10.221
11530SOL     OW36030   2.083   6.900  11.154
11530SOL    HW136031   2.018   6.827  11.133
11530SOL    HW236032   2.087   6.914  11.252
11531SOL     OW36033   1.941   6.826   9.963
11531SOL    HW136034   1.940   6.779  10.051
11531SOL    HW236035   2.023   6.798   9.912
11532SOL     OW36036   2.534   6.977  10.934
11532SOL    HW136037   2.456   6.927  10.972
11532SOL    HW236038   2.531   7.072  10.965
11533SOL     OW36039   3.686   5.778  10.537
11533SOL    HW136040   3.682   5.688  10.581
11533SOL    HW236041   3.689   5.767  10.438
11534SOL     OW36042   2.290   6.010   9.830
11534SOL    HW136043   2.320   5.938   9.768
11534SOL    HW236044   2.251   5.970   9.913
11535SOL     OW36045   3.567   7.073  10.414
11535SOL    HW136046   3.474   7.048  10.387
11535SOL    HW236047   3.593   7.023  10.496
11536SOL     OW36048   2.179   6.133  10.590
11536SOL    HW136049   2.217   6.074  10.662
11536SOL    HW236050   2.219   6.107  10.502
11537SOL     OW36051   2.674   7.172   9.997
11537SOL    HW136052   2.706   7.182   9.903
11537SOL    HW236053   2.595   7.110   9.999
11538SOL     OW36054   3.286   5.800  10.422
11538SOL    HW136055   3.338   5.735  10.477
11538SOL    HW236056   3.237   5.863  10.483
11539SOL     OW36057   2.863   5.620  10.464
11539SOL    HW136058   2.800   5.548  10.433
11539SOL    HW236059   2.956   5.584  10.464
11540SOL     OW36060   2.632   6.916   9.611
11540SOL    HW136061   2.586   6.829   9.628
11540SOL    HW236062   2.723   6.913   9.652
11541SOL     OW36063   2.480   7.153  10.594
11541SOL    HW136064   2.475   7.235  10.651
11541SOL    HW236065   2.569   7.150  10.549
11542SOL     OW36066   3.214   5.638   9.478
11542SOL    HW136067   3.249   5.597   9.394
11542SOL    HW236068   3.124   5.600   9.498
11543SOL     OW36069   3.162   6.039  10.001
11543SOL    HW136070   3.103   6.119  10.005
11543SOL    HW236071   3.177   6.004  10.094
11544SOL     OW36072   3.455   5.807  10.192
11544SOL    HW136073   3.371   5.806  10.246
11544SOL    HW236074   3.457   5.890  10.136
11545SOL     OW36075   1.901   6.663   9.610
11545SOL    HW136076   2.000   6.652   9.601
11545SOL    HW236077   1.861   6.577   9.642
11546SOL     OW36078   2.737   7.232   9.647
11546SOL    HW136079   2.660   7.197   9.593
11546SOL    HW236080   2.705   7.303   9.709
11547SOL     OW36081   2.092   6.214  11.285
11547SOL    HW136082   1.999   6.212  11.322
11547SOL    HW236083   2.093   6.175  11.193
11548SOL     OW36084   2.087   5.861  12.168
11548SOL    HW136085   2.122   5.844  12.260
11548SOL    HW236086   1.999   5.816  12.156
11549SOL     OW36087   1.881   5.954  11.819
11549SOL    HW136088   1.799   5.997  11.858
11549SOL    HW236089   1.853   5.881  11.756
11550SOL     OW36090   2.431   6.861  12.337
11550SOL    HW136091   2.338   6.854  12.300
11550SOL    HW236092   2.442   6.950  12.381
11551SOL     OW36093   3.417   7.097  11.875
11551SOL    HW136094   3.360   7.081  11.956
11551SOL    HW236095   3.358   7.107  11.795
11552SOL     OW36096   2.997   6.289  11.889
11552SOL    HW136097   3.054   6.367  11.864
11552SOL    HW236098   2.937   6.315  11.965
11553SOL     OW36099   3.617   6.193  11.403
11553SOL    HW136100   3.605   6.180  11.304
11553SOL    HW236101   3.587   6.112  11.452
11554SOL     OW36102   2.630   6.730  12.195
11554SOL    HW136103   2.552   6.747  12.255
11554SOL    HW236104   2.664   6.817  12.159
11555SOL     OW36105   2.547   6.598  11.837
11555SOL    HW136106   2.616   6.582  11.907
11555SOL    HW236107   2.474   6.655  11.875
11556SOL     OW36108   2.197   7.021  12.233
11556SOL    HW136109   2.119   6.990  12.180
11556SOL    HW236110   2.255   7.079  12.176
11557SOL     OW36111   3.465   6.033  11.909
11557SOL    HW136112   3.391   6.079  11.859
11557SOL    HW236113   3.516   6.101  11.962
11558SOL     OW36114   2.093   7.299  11.655
11558SOL    HW136115   2.127   7.376  11.709
11558SOL    HW236116   2.137   7.299  11.565
11559SOL     OW36117   2.092   7.020  11.710
11559SOL    HW136118   2.066   7.116  11.710
11559SOL    HW236119   2.021   6.966  11.755
11560SOL     OW36120   2.102   6.677  12.058
11560SOL    HW136121   2.116   6.593  12.110
11560SOL    HW236122   2.047   6.741  12.113
11561SOL     OW36123   2.468   6.550  11.295
11561SOL    HW136124   2.475   6.634  11.241
11561SOL    HW236125   2.514   6.563  11.383
11562SOL     OW36126   1.984   6.229  11.735
11562SOL    HW136127   1.939   6.141  11.752
11562SOL    HW236128   1.983   6.283  11.819
11563SOL     OW36129   3.704   7.353  11.531
11563SOL    HW136130   3.758   7.324  11.611
11563SOL    HW236131   3.734   7.443  11.502
11564SOL     OW36132   1.889   7.182  11.289
11564SOL    HW136133   1.870   7.086  11.310
11564SOL    HW236134   1.856   7.240  11.364
11565SOL     OW36135   3.551   6.508  11.784
11565SOL    HW136136   3.646   6.479  11.792
11565SOL    HW236137   3.543   6.573  11.709
11566SOL     OW36138   3.503   6.694  11.604
11566SOL    HW136139   3.589   6.696  11.552
11566SOL    HW236140   3.517   6.741  11.692
11567SOL     OW36141   1.975   6.323  12.769
11567SOL    HW136142   2.063   6.310  12.814
11567SOL    HW236143   1.962   6.420  12.747
11568SOL     OW36144   2.475   6.951  11.898
11568SOL    HW136145   2.426   6.864  11.907
11568SOL    HW236146   2.452   6.994  11.811
11569SOL     OW36147   2.671   5.590  11.674
11569SOL    HW136148   2.711   5.681  11.665
11569SOL    HW236149   2.571   5.598  11.680
11570SOL     OW36150   2.059   6.562  12.436
11570SOL    HW136151   2.148   6.517  12.422
11570SOL    HW236152   1.986   6.497  12.417
11571SOL     OW36153   3.387   6.585  11.362
11571SOL    HW136154   3.324   6.509  11.375
11571SOL    HW236155   3.435   6.603  11.448
11572SOL     OW36156   3.328   7.003  12.125
11572SOL    HW136157   3.269   7.009  12.205
11572SOL    HW236158   3.313   6.915  12.079
11573SOL     OW36159   3.529   7.300  11.744
11573SOL    HW136160   3.488   7.277  11.656
11573SOL    HW236161   3.511   7.226  11.809
11574SOL     OW36162   2.460   6.315  11.442
11574SOL    HW136163   2.484   6.384  11.374
11574SOL    HW236164   2.382   6.348  11.496
11575SOL     OW36165   3.143   5.931  12.116
11575SOL    HW136166   3.057   5.881  12.103
11575SOL    HW236167   3.205   5.877  12.172
11576SOL     OW36168   3.438   7.248  11.479
11576SOL    HW136169   3.527   7.294  11.482
11576SOL    HW236170   3.417   7.224  11.384
11577SOL     OW36171   2.853   5.996  12.414
11577SOL    HW136172   2.776   6.030  12.468
11577SOL    HW236173   2.819   5.945  12.335
11578SOL     OW36174   2.903   6.287  11.601
11578SOL    HW136175   2.929   6.283  11.697
11578SOL    HW236176   2.818   6.236  11.587
11579SOL     OW36177   1.938   6.397  11.961
11579SOL    HW136178   2.037   6.385  11.970
11579SOL    HW236179   1.914   6.492  11.982
11580SOL     OW36180   2.727   5.934  11.367
11580SOL    HW136181   2.786   5.997  11.318
11580SOL    HW236182   2.746   5.840  11.338
11581SOL     OW36183   3.224   6.730  11.717
11581SOL    HW136184   3.307   6.701  11.669
11581SOL    HW236185   3.175   6.797  11.661
11582SOL     OW36186   2.412   5.782  12.057
11582SOL    HW136187   2.407   5.777  12.157
11582SOL    HW236188   2.414   5.878  12.028
11583SOL     OW36189   2.870   7.042  11.649
11583SOL    HW136190   2.824   7.114  11.597
11583SOL    HW236191   2.866   7.062  11.747
11584SOL     OW36192   2.213   7.387  12.025
11584SOL    HW136193   2.263   7.301  12.031
11584SOL    HW236194   2.278   7.464  12.022
11585SOL     OW36195   3.657   6.652  12.045
11585SOL    HW136196   3.595   6.637  11.969
11585SOL    HW236197   3.605   6.663  12.130
11586SOL     OW36198   2.183   6.529  11.414
11586SOL    HW136199   2.265   6.568  11.372
11586SOL    HW236200   2.156   6.447  11.365
11587SOL     OW36201   3.320   6.321  11.900
11587SOL    HW136202   3.315   6.256  11.975
11587SOL    HW236203   3.400   6.380  11.913
11588SOL     OW36204   2.973   7.362  11.409
11588SOL    HW136205   2.913   7.300  11.459
11588SOL    HW236206   3.004   7.318  11.324
11589SOL     OW36207   3.494   6.963  11.253
11589SOL    HW136208   3.462   7.057  11.243
11589SOL    HW236209   3.418   6.900  11.241
11590SOL     OW36210   2.326   7.329  11.495
11590SOL    HW136211   2.359   7.368  11.581
11590SOL    HW236212   2.402   7.322  11.430
11591SOL     OW36213   3.262   5.693  11.598
11591SOL    HW136214   3.238   5.656  11.508
11591SOL    HW236215   3.361   5.709  11.602
11592SOL     OW36216   2.111   7.371  12.413
11592SOL    HW136217   2.168   7.306  12.463
11592SOL    HW236218   2.095   7.338  12.320
11593SOL     OW36219   2.802   7.284  12.076
11593SOL    HW136220   2.882   7.227  12.097
11593SOL    HW236221   2.753   7.244  11.999
11594SOL     OW36222   2.244   6.286  11.652
11594SOL    HW136223   2.289   6.196  11.649
11594SOL    HW236224   2.150   6.275  11.685
11595SOL     OW36225   2.476   5.708  11.289
11595SOL    HW136226   2.574   5.686  11.296
11595SOL    HW236227   2.445   5.691  11.196
11596SOL     OW36228   2.665   6.988  12.096
11596SOL    HW136229   2.755   7.002  12.054
11596SOL    HW236230   2.594   6.990  12.025
11597SOL     OW36231   2.784   6.089  12.071
11597SOL    HW136232   2.759   6.080  11.975
11597SOL    HW236233   2.832   6.007  12.102
11598SOL     OW36234   2.401   5.650  11.684
11598SOL    HW136235   2.320   5.651  11.742
11598SOL    HW236236   2.404   5.733  11.629
11599SOL     OW36237   3.296   6.774  11.213
11599SOL    HW136238   3.328   6.698  11.270
11599SOL    HW236239   3.204   6.801  11.243
11600SOL     OW36240   2.159   5.621  11.343
11600SOL    HW136241   2.208   5.705  11.322
11600SOL    HW236242   2.221   5.556  11.388
11601SOL     OW36243   2.797   5.822  11.652
11601SOL    HW136244   2.749   5.863  11.574
11601SOL    HW236245   2.896   5.820  11.633
11602SOL     OW36246   3.089   7.156  11.965
11602SOL    HW136247   3.110   7.230  11.900
11602SOL    HW236248   3.157   7.156  12.038
11603SOL     OW36249   2.321   6.738  11.913
11603SOL    HW136250   2.250   6.711  11.978
11603SOL    HW236251   2.295   6.710  11.820
11604SOL     OW36252   3.133   7.383  11.763
11604SOL    HW136253   3.177   7.447  11.699
11604SOL    HW236254   3.083   7.435  11.833
11605SOL     OW36255   2.894   6.135  11.188
11605SOL    HW136256   2.853   6.217  11.149
11605SOL    HW236257   2.958   6.161  11.261
11606SOL     OW36258   2.423   5.808  12.319
11606SOL    HW136259   2.461   5.724  12.356
11606SOL    HW236260   2.335   5.827  12.363
11607SOL     OW36261   2.728   6.040  11.814
11607SOL    HW136262   2.696   6.112  11.752
11607SOL    HW236263   2.752   5.959  11.761
11608SOL     OW36264   2.879   5.625  11.925
11608SOL    HW136265   2.807   5.630  11.856
11608SOL    HW236266   2.855   5.556  11.994
11609SOL     OW36267   3.291   6.759  12.039
11609SOL    HW136268   3.236   6.675  12.032
11609SOL    HW236269   3.317   6.788  11.947
11610SOL     OW36270   3.328   6.176  12.164
11610SOL    HW136271   3.298   6.081  12.171
11610SOL    HW236272   3.401   6.192  12.230
11611SOL     OW36273   3.719   6.419  11.549
11611SOL    HW136274   3.761   6.355  11.613
11611SOL    HW236275   3.681   6.368  11.471
11612SOL     OW36276   2.350   6.971  11.346
11612SOL    HW136277   2.263   6.956  11.393
11612SOL    HW236278   2.333   6.997  11.251
11613SOL     OW36279   3.526   6.866  11.829
11613SOL    HW136280   3.625   6.874  11.843
11613SOL    HW236281   3.481   6.950  11.860
11614SOL     OW36282   3.252   6.161  11.250
11614SOL    HW136283   3.198   6.140  11.331
11614SOL    HW236284   3.343   6.120  11.259
11615SOL     OW36285   2.389   5.842  11.500
11615SOL    HW136286   2.416   5.783  11.425
11615SOL    HW236287   2.389   5.937  11.469
11616SOL     OW36288   2.973   6.781  12.272
11616SOL    HW136289   2.933   6.825  12.353
11616SOL    HW236290   2.932   6.818  12.189
11617SOL     OW36291   3.500   6.685  12.251
11617SOL    HW136292   3.505   6.766  12.310
11617SOL    HW236293   3.414   6.687  12.200
11618SOL     OW36294   2.567   6.636  11.540
11618SOL    HW136295   2.553   6.643  11.639
11618SOL    HW236296   2.651   6.585  11.522
11619SOL     OW36297   2.272   6.399  12.423
11619SOL    HW136298   2.358   6.411  12.473
11619SOL    HW236299   2.230   6.312  12.450
11620SOL     OW36300   3.136   5.972  12.434
11620SOL    HW136301   3.157   6.046  12.498
11620SOL    HW236302   3.047   5.989  12.391
11621SOL     OW36303   2.229   6.686  11.673
11621SOL    HW136304   2.222   6.769  11.617
11621SOL    HW236305   2.233   6.606  11.613
11622SOL     OW36306   2.428   6.123  12.037
11622SOL    HW136307   2.440   6.189  11.963
11622SOL    HW236308   2.474   6.157  12.120
11623SOL     OW36309   3.114   6.934  11.560
11623SOL    HW136310   3.164   7.011  11.600
11623SOL    HW236311   3.019   6.936  11.592
11624SOL     OW36312   3.134   7.031  12.314
11624SOL    HW136313   3.181   7.044  12.401
11624SOL    HW236314   3.068   6.957  12.323
11625SOL     OW36315   3.444   6.225  11.644
11625SOL    HW136316   3.413   6.286  11.717
11625SOL    HW236317   3.494   6.277  11.575
11626SOL     OW36318   2.216   7.096  12.501
11626SOL    HW136319   2.195   7.052  12.414
11626SOL    HW236320   2.313   7.122  12.504
11627SOL     OW36321   2.435   6.456  12.201
11627SOL    HW136322   2.479   6.545  12.192
11627SOL    HW236323   2.372   6.456  12.278
11628SOL     OW36324   3.222   6.448  12.217
11628SOL    HW136325   3.147   6.448  12.151
11628SOL    HW236326   3.259   6.356  12.226
11629SOL     OW36327   3.071   6.111  11.447
11629SOL    HW136328   3.084   6.027  11.501
11629SOL    HW236329   3.042   6.185  11.507
11630SOL     OW36330   2.169   5.799  12.403
11630SOL    HW136331   2.146   5.836  12.493
11630SOL    HW236332   2.139   5.704  12.397
11631SOL     OW36333   1.899   6.896  12.454
11631SOL    HW136334   1.952   6.847  12.522
11631SOL    HW236335   1.921   6.994  12.459
11632SOL     OW36336   2.594   6.220  12.236
11632SOL    HW136337   2.653   6.194  12.160
11632SOL    HW236338   2.566   6.316  12.225
11633SOL     OW36339   2.169   5.649  11.790
11633SOL    HW136340   2.158   5.743  11.823
11633SOL    HW236341   2.164   5.586  11.867
11634SOL     OW36342   3.484   5.953  11.546
11634SOL    HW136343   3.486   5.877  11.610
11634SOL    HW236344   3.436   6.030  11.586
11635SOL     OW36345   2.885   6.352  12.138
11635SOL    HW136346   2.900   6.373  12.234
11635SOL    HW236347   2.855   6.257  12.129
11636SOL     OW36348   3.402   5.860  11.297
11636SOL    HW136349   3.341   5.785  11.320
11636SOL    HW236350   3.424   5.912  11.380
11637SOL     OW36351   3.165   6.424  11.214
11637SOL    HW136352   3.199   6.331  11.229
11637SOL    HW236353   3.183   6.451  11.119
11638SOL     OW36354   2.930   6.919  12.021
11638SOL    HW136355   2.937   6.835  11.966
11638SOL    HW236356   2.992   6.988  11.985
11639SOL     OW36357   2.181   6.396  12.121
11639SOL    HW136358   2.274   6.432  12.126
11639SOL    HW236359   2.175   6.311  12.173
11640SOL     OW36360   2.201   6.095  12.178
11640SOL    HW136361   2.149   6.012  12.161
11640SOL    HW236362   2.278   6.100  12.114
11641SOL     OW36363   3.022   5.793  12.649
11641SOL    HW136364   3.022   5.857  12.726
11641SOL    HW236365   3.050   5.841  12.566
11642SOL     OW36366   1.870   6.912  11.372
11642SOL    HW136367   1.777   6.933  11.341
11642SOL    HW236368   1.880   6.813  11.385
11643SOL     OW36369   1.950   7.387  12.099
11643SOL    HW136370   1.908   7.301  12.072
11643SOL    HW236371   2.044   7.390  12.065
11644SOL     OW36372   2.366   7.154  12.082
11644SOL    HW136373   2.432   7.228  12.091
11644SOL    HW236374   2.410   7.075  12.040
11645SOL     OW36375   2.864   6.382  12.410
11645SOL    HW136376   2.905   6.350  12.496
11645SOL    HW236377   2.768   6.355  12.407
11646SOL     OW36378   1.902   6.130  12.286
11646SOL    HW136379   1.987   6.097  12.245
11646SOL    HW236380   1.915   6.145  12.384
11647SOL     OW36381   2.677   6.158  11.497
11647SOL    HW136382   2.684   6.069  11.451
11647SOL    HW236383   2.583   6.192  11.489
11648SOL     OW36384   3.519   6.190  12.378
11648SOL    HW136385   3.481   6.121  12.440
11648SOL    HW236386   3.601   6.154  12.334
11649SOL     OW36387   2.533   6.050  12.441
11649SOL    HW136388   2.499   5.961  12.411
11649SOL    HW236389   2.559   6.104  12.361
11650SOL     OW36390   2.792   7.264  12.637
11650SOL    HW136391   2.768   7.246  12.542
11650SOL    HW236392   2.822   7.358  12.647
11651SOL     OW36393   2.335   6.086  11.363
11651SOL    HW136394   2.396   6.166  11.367
11651SOL    HW236395   2.240   6.117  11.370
11652SOL     OW36396   3.209   6.645  12.406
11652SOL    HW136397   3.233   6.582  12.332
11652SOL    HW236398   3.119   6.685  12.388
11653SOL     OW36399   3.164   6.441  11.481
11653SOL    HW136400   3.078   6.410  11.523
11653SOL    HW236401   3.160   6.427  11.382
11654SOL     OW36402   3.621   7.333  12.326
11654SOL    HW136403   3.682   7.363  12.253
11654SOL    HW236404   3.583   7.244  12.304
11655SOL     OW36405   3.114   7.317  12.300
11655SOL    HW136406   3.198   7.322  12.246
11655SOL    HW236407   3.091   7.221  12.318
11656SOL     OW36408   1.945   6.844  12.194
11656SOL    HW136409   1.940   6.843  12.294
11656SOL    HW236410   1.862   6.803  12.156
11657SOL     OW36411   3.588   5.721  11.695
11657SOL    HW136412   3.661   5.704  11.628
11657SOL    HW236413   3.557   5.634  11.733
11658SOL     OW36414   3.250   7.159  11.649
11658SOL    HW136415   3.317   7.171  11.575
11658SOL    HW236416   3.210   7.248  11.672
11659SOL     OW36417   3.142   6.513  11.844
11659SOL    HW136418   3.202   6.432  11.846
11659SOL    HW236419   3.182   6.582  11.784
11660SOL     OW36420   2.534   7.202  11.326
11660SOL    HW136421   2.543   7.212  11.227
11660SOL    HW236422   2.494   7.113  11.347
11661SOL     OW36423   3.512   7.306  12.566
11661SOL    HW136424   3.565   7.316  12.482
11661SOL    HW236425   3.485   7.396  12.600
11662SOL     OW36426   3.703   5.761  12.135
11662SOL    HW136427   3.742   5.676  12.099
11662SOL    HW236428   3.605   5.763  12.116
11663SOL     OW36429   2.125   5.912  11.892
11663SOL    HW136430   2.046   5.963  11.858
11663SOL    HW236431   2.116   5.897  11.990
11664SOL     OW36432   3.056   7.198  11.203
11664SOL    HW136433   3.062   7.105  11.240
11664SOL    HW236434   2.997   7.198  11.123
11665SOL     OW36435   2.684   6.588  12.544
11665SOL    HW136436   2.724   6.587  12.452
11665SOL    HW236437   2.694   6.680  12.584
11666SOL     OW36438   2.778   6.496  11.463
11666SOL    HW136439   2.841   6.534  11.395
11666SOL    HW236440   2.818   6.413  11.502
11667SOL     OW36441   3.366   7.193  11.216
11667SOL    HW136442   3.274   7.230  11.223
11667SOL    HW236443   3.404   7.213  11.126
11668SOL     OW36444   2.901   6.684  11.868
11668SOL    HW136445   2.831   6.637  11.922
11668SOL    HW236446   2.960   6.616  11.825
11669SOL     OW36447   2.876   5.822  12.143
11669SOL    HW136448   2.868   5.786  12.050
11669SOL    HW236449   2.874   5.746  12.208
11670SOL     OW36450   2.452   7.073  11.663
11670SOL    HW136451   2.494   7.015  11.593
11670SOL    HW236452   2.408   7.152  11.619
11671SOL     OW36453   3.571   5.971  12.553
11671SOL    HW136454   3.644   6.040  12.557
11671SOL    HW236455   3.599   5.896  12.494
11672SOL     OW36456   2.117   6.934  11.462
11672SOL    HW136457   2.021   6.935  11.435
11672SOL    HW236458   2.129   6.987  11.546
11673SOL     OW36459   1.937   5.931  11.205
11673SOL    HW136460   1.845   5.903  11.176
11673SOL    HW236461   1.968   6.008  11.149
11674SOL     OW36462   1.934   5.752  11.490
11674SOL    HW136463   1.917   5.835  11.436
11674SOL    HW236464   2.024   5.715  11.468
11675SOL     OW36465   3.045   6.921  11.291
11675SOL    HW136466   2.946   6.910  11.293
11675SOL    HW236467   3.079   6.936  11.384
11676SOL     OW36468   3.355   7.353  12.131
11676SOL    HW136469   3.388   7.417  12.062
11676SOL    HW236470   3.421   7.347  12.206
11677SOL     OW36471   3.536   6.469  12.426
11677SOL    HW136472   3.509   6.380  12.389
11677SOL    HW236473   3.537   6.537  12.353
11678SOL     OW36474   3.087   5.911  11.621
11678SOL    HW136475   3.152   5.837  11.610
11678SOL    HW236476   3.107   5.961  11.705
11679SOL     OW36477   2.456   6.331  11.824
11679SOL    HW136478   2.506   6.416  11.805
11679SOL    HW236479   2.368   6.333  11.776
11680SOL     OW36480   3.592   6.520  12.689
11680SOL    HW136481   3.630   6.611  12.704
11680SOL    HW236482   3.584   6.503  12.590
11681SOL     OW36483   2.721   6.960  11.188
11681SOL    HW136484   2.675   6.975  11.276
11681SOL    HW236485   2.765   7.045  11.158
11682SOL     OW36486   2.523   7.376  12.125
11682SOL    HW136487   2.477   7.464  12.112
11682SOL    HW236488   2.622   7.388  12.118
11683SOL     OW36489   2.721   6.542  12.033
11683SOL    HW136490   2.775   6.473  12.081
11683SOL    HW236491   2.689   6.611  12.099
11684SOL     OW36492   2.945   6.570  11.259
11684SOL    HW136493   2.922   6.623  11.177
11684SOL    HW236494   3.026   6.514  11.240
11685SOL     OW36495   3.723   7.155  12.023
11685SOL    HW136496   3.652   7.143  11.953
11685SOL    HW236497   3.724   7.076  12.083
11686SOL     OW36498   1.941   6.826  11.825
11686SOL    HW136499   1.940   6.779  11.913
11686SOL    HW236500   2.023   6.798  11.774
11687SOL     OW36501   3.686   5.778  12.399
11687SOL    HW136502   3.682   5.688  12.443
11687SOL    HW236503   3.689   5.767  12.300
11688SOL     OW36504   2.290   6.010  11.692
11688SOL    HW136505   2.320   5.938  11.630
11688SOL    HW236506   2.251   5.970  11.775
11689SOL     OW36507   3.567   7.073  12.276
11689SOL    HW136508   3.474   7.048  12.249
11689SOL    HW236509   3.593   7.023  12.358
11690SOL     OW36510   2.674   7.172  11.859
11690SOL    HW136511   2.706   7.182  11.765
11690SOL    HW236512   2.595   7.110  11.861
11691SOL     OW36513   3.286   5.800  12.284
11691SOL    HW136514   3.338   5.735  12.339
11691SOL    HW236515   3.237   5.863  12.345
11692SOL     OW36516   2.863   5.620  12.326
11692SOL    HW136517   2.800   5.548  12.295
11692SOL    HW236518   2.956   5.584  12.326
11693SOL     OW36519   2.632   6.916  11.473
11693SOL    HW136520   2.586   6.829  11.490
11693SOL    HW236521   2.723   6.913  11.514
11694SOL     OW36522   3.214   5.638  11.340
11694SOL    HW136523   3.249   5.597  11.256
11694SOL    HW236524   3.124   5.600  11.360
11695SOL     OW36525   3.162   6.039  11.863
11695SOL    HW136526   3.103   6.119  11.867
11695SOL    HW236527   3.177   6.004  11.956
11696SOL     OW36528   3.455   5.807  12.054
11696SOL    HW136529   3.371   5.806  12.108
11696SOL    HW236530   3.457   5.890  11.998
11697SOL     OW36531   1.901   6.663  11.472
11697SOL    HW136532   2.000   6.652  11.463
11697SOL    HW236533   1.861   6.577  11.504
11698SOL     OW36534   2.737   7.232  11.509
11698SOL    HW136535   2.660   7.197  11.455
11698SOL    HW236536   2.705   7.303  11.571
11699SOL     OW36537   2.087   7.723   0.996
11699SOL    HW136538   2.122   7.706   1.088
11699SOL    HW236539   1.999   7.678   0.984
11700SOL     OW36540   1.881   7.816   0.647
11700SOL    HW136541   1.799   7.859   0.686
11700SOL    HW236542   1.853   7.743   0.584
11701SOL     OW36543   3.617   8.055   0.231
11701SOL    HW136544   3.605   8.042   0.132
11701SOL    HW236545   3.587   7.974   0.280
11702SOL     OW36546   2.300   7.840   1.499
11702SOL    HW136547   2.382   7.784   1.508
11702SOL    HW236548   2.219   7.782   1.503
11703SOL     OW36549   3.465   7.895   0.737
11703SOL    HW136550   3.391   7.941   0.687
11703SOL    HW236551   3.516   7.963   0.790
11704SOL     OW36552   3.456   7.562   1.480
11704SOL    HW136553   3.438   7.629   1.408
11704SOL    HW236554   3.453   7.608   1.569
11705SOL     OW36555   1.984   8.091   0.563
11705SOL    HW136556   1.939   8.003   0.580
11705SOL    HW236557   1.983   8.145   0.647
11706SOL     OW36558   2.671   7.452   0.502
11706SOL    HW136559   2.711   7.543   0.493
11706SOL    HW236560   2.571   7.460   0.508
11707SOL     OW36561   2.179   7.699   1.801
11707SOL    HW136562   2.250   7.770   1.807
11707SOL    HW236563   2.091   7.738   1.829
11708SOL     OW36564   3.143   7.793   0.944
11708SOL    HW136565   3.057   7.743   0.931
11708SOL    HW236566   3.205   7.739   1.000
11709SOL     OW36567   3.256   7.917   1.674
11709SOL    HW136568   3.236   7.960   1.762
11709SOL    HW236569   3.334   7.855   1.683
11710SOL     OW36570   2.835   8.338   1.572
11710SOL    HW136571   2.881   8.254   1.543
11710SOL    HW236572   2.779   8.372   1.497
11711SOL     OW36573   2.853   7.858   1.242
11711SOL    HW136574   2.776   7.892   1.296
11711SOL    HW236575   2.819   7.807   1.163
11712SOL     OW36576   2.727   7.796   0.195
11712SOL    HW136577   2.786   7.859   0.146
11712SOL    HW236578   2.746   7.702   0.166
11713SOL     OW36579   3.581   8.033   1.831
11713SOL    HW136580   3.555   8.122   1.795
11713SOL    HW236581   3.579   7.965   1.758
11714SOL     OW36582   2.412   7.644   0.885
11714SOL    HW136583   2.407   7.639   0.985
11714SOL    HW236584   2.414   7.740   0.856
11715SOL     OW36585   2.064   7.733   1.498
11715SOL    HW136586   1.984   7.793   1.485
11715SOL    HW236587   2.054   7.684   1.584
11716SOL     OW36588   3.262   7.555   0.426
11716SOL    HW136589   3.238   7.518   0.336
11716SOL    HW236590   3.361   7.571   0.430
11717SOL     OW36591   3.409   7.670   1.729
11717SOL    HW136592   3.404   7.707   1.821
11717SOL    HW236593   3.337   7.601   1.717
11718SOL     OW36594   2.476   7.570   0.117
11718SOL    HW136595   2.574   7.548   0.124
11718SOL    HW236596   2.445   7.553   0.024
11719SOL     OW36597   2.643   7.712   1.749
11719SOL    HW136598   2.710   7.651   1.792
11719SOL    HW236599   2.570   7.731   1.814
11720SOL     OW36600   3.213   8.038   1.433
11720SOL    HW136601   3.241   7.995   1.518
11720SOL    HW236602   3.238   8.134   1.434
11721SOL     OW36603   2.401   7.512   0.512
11721SOL    HW136604   2.320   7.513   0.570
11721SOL    HW236605   2.404   7.595   0.457
11722SOL     OW36606   2.159   7.483   0.171
11722SOL    HW136607   2.208   7.567   0.150
11722SOL    HW236608   2.221   7.418   0.216
11723SOL     OW36609   2.797   7.684   0.480
11723SOL    HW136610   2.749   7.725   0.402
11723SOL    HW236611   2.896   7.682   0.461
11724SOL     OW36612   1.940   8.004   1.386
11724SOL    HW136613   2.032   8.003   1.345
11724SOL    HW236614   1.934   8.078   1.453
11725SOL     OW36615   2.423   7.670   1.147
11725SOL    HW136616   2.461   7.586   1.184
11725SOL    HW236617   2.335   7.689   1.191
11726SOL     OW36618   2.879   7.487   0.753
11726SOL    HW136619   2.807   7.492   0.684
11726SOL    HW236620   2.855   7.418   0.822
11727SOL     OW36621   3.328   8.038   0.992
11727SOL    HW136622   3.298   7.943   0.999
11727SOL    HW236623   3.401   8.054   1.058
11728SOL     OW36624   2.389   7.704   0.328
11728SOL    HW136625   2.416   7.645   0.253
11728SOL    HW236626   2.389   7.799   0.297
11729SOL     OW36627   2.777   7.537   1.402
11729SOL    HW136628   2.802   7.517   1.307
11729SOL    HW236629   2.849   7.593   1.444
11730SOL     OW36630   3.136   7.834   1.262
11730SOL    HW136631   3.157   7.908   1.326
11730SOL    HW236632   3.047   7.851   1.219
11731SOL     OW36633   2.428   7.985   0.865
11731SOL    HW136634   2.440   8.051   0.791
11731SOL    HW236635   2.474   8.019   0.948
11732SOL     OW36636   2.875   7.553   1.770
11732SOL    HW136637   2.881   7.638   1.718
11732SOL    HW236638   2.907   7.477   1.713
11733SOL     OW36639   2.366   7.498   1.740
11733SOL    HW136640   2.324   7.441   1.670
11733SOL    HW236641   2.300   7.567   1.772
11734SOL     OW36642   2.169   7.661   1.231
11734SOL    HW136643   2.146   7.698   1.321
11734SOL    HW236644   2.139   7.566   1.225
11735SOL     OW36645   2.594   8.082   1.064
11735SOL    HW136646   2.653   8.056   0.988
11735SOL    HW236647   2.566   8.178   1.053
11736SOL     OW36648   2.169   7.511   0.618
11736SOL    HW136649   2.158   7.605   0.651
11736SOL    HW236650   2.164   7.448   0.695
11737SOL     OW36651   3.484   7.815   0.374
11737SOL    HW136652   3.486   7.739   0.438
11737SOL    HW236653   3.436   7.892   0.414
11738SOL     OW36654   3.402   7.722   0.125
11738SOL    HW136655   3.341   7.647   0.148
11738SOL    HW236656   3.424   7.774   0.208
11739SOL     OW36657   2.201   7.957   1.006
11739SOL    HW136658   2.149   7.874   0.989
11739SOL    HW236659   2.278   7.962   0.942
11740SOL     OW36660   3.000   7.828   1.678
11740SOL    HW136661   2.955   7.891   1.742
11740SOL    HW236662   3.093   7.859   1.661
11741SOL     OW36663   3.022   7.655   1.477
11741SOL    HW136664   3.022   7.719   1.554
11741SOL    HW236665   3.050   7.703   1.394
11742SOL     OW36666   1.902   7.992   1.114
11742SOL    HW136667   1.987   7.959   1.073
11742SOL    HW236668   1.915   8.007   1.212
11743SOL     OW36669   2.051   7.968   1.722
11743SOL    HW136670   2.110   7.928   1.652
11743SOL    HW236671   1.993   8.039   1.681
11744SOL     OW36672   2.677   8.020   0.325
11744SOL    HW136673   2.684   7.931   0.279
11744SOL    HW236674   2.583   8.054   0.317
11745SOL     OW36675   3.519   8.052   1.206
11745SOL    HW136676   3.481   7.983   1.268
11745SOL    HW236677   3.601   8.016   1.162
11746SOL     OW36678   2.533   7.912   1.269
11746SOL    HW136679   2.499   7.823   1.239
11746SOL    HW236680   2.559   7.966   1.189
11747SOL     OW36681   2.765   7.534   0.133
11747SOL    HW136682   2.816   7.535   0.047
11747SOL    HW236683   2.821   7.492   0.204
11748SOL     OW36684   3.588   7.583   0.523
11748SOL    HW136685   3.661   7.566   0.456
11748SOL    HW236686   3.557   7.496   0.561
11749SOL     OW36687   3.703   7.623   0.963
11749SOL    HW136688   3.742   7.538   0.927
11749SOL    HW236689   3.605   7.625   0.944
11750SOL     OW36690   2.125   7.774   0.720
11750SOL    HW136691   2.046   7.825   0.686
11750SOL    HW236692   2.116   7.759   0.818
11751SOL     OW36693   2.876   7.684   0.971
11751SOL    HW136694   2.868   7.648   0.878
11751SOL    HW236695   2.874   7.608   1.036
11752SOL     OW36696   3.571   7.833   1.381
11752SOL    HW136697   3.644   7.902   1.385
11752SOL    HW236698   3.599   7.758   1.322
11753SOL     OW36699   2.534   7.651   1.489
11753SOL    HW136700   2.624   7.635   1.449
11753SOL    HW236701   2.542   7.656   1.588
11754SOL     OW36702   1.934   7.614   0.318
11754SOL    HW136703   1.917   7.697   0.264
11754SOL    HW236704   2.024   7.577   0.296
11755SOL     OW36705   2.578   8.013   1.708
11755SOL    HW136706   2.597   8.078   1.782
11755SOL    HW236707   2.638   7.933   1.717
11756SOL     OW36708   3.087   7.773   0.449
11756SOL    HW136709   3.152   7.699   0.438
11756SOL    HW236710   3.107   7.823   0.533
11757SOL     OW36711   2.456   8.193   0.652
11757SOL    HW136712   2.506   8.278   0.633
11757SOL    HW236713   2.368   8.195   0.604
11758SOL     OW36714   3.639   7.790   1.642
11758SOL    HW136715   3.622   7.821   1.548
11758SOL    HW236716   3.555   7.753   1.680
11759SOL     OW36717   3.686   7.640   1.227
11759SOL    HW136718   3.682   7.550   1.271
11759SOL    HW236719   3.689   7.629   1.128
11760SOL     OW36720   2.290   7.872   0.520
11760SOL    HW136721   2.320   7.800   0.458
11760SOL    HW236722   2.251   7.832   0.603
11761SOL     OW36723   3.286   7.662   1.112
11761SOL    HW136724   3.338   7.597   1.167
11761SOL    HW236725   3.237   7.725   1.173
11762SOL     OW36726   2.863   7.482   1.154
11762SOL    HW136727   2.800   7.410   1.123
11762SOL    HW236728   2.956   7.446   1.154
11763SOL     OW36729   3.214   7.500   0.168
11763SOL    HW136730   3.249   7.459   0.084
11763SOL    HW236731   3.124   7.462   0.188
11764SOL     OW36732   3.162   7.901   0.691
11764SOL    HW136733   3.103   7.981   0.695
11764SOL    HW236734   3.177   7.866   0.784
11765SOL     OW36735   3.455   7.669   0.882
11765SOL    HW136736   3.371   7.668   0.936
11765SOL    HW236737   3.457   7.752   0.826
11766SOL     OW36738   2.087   7.723   2.858
11766SOL    HW136739   2.122   7.706   2.950
11766SOL    HW236740   1.999   7.678   2.846
11767SOL     OW36741   1.881   7.816   2.509
11767SOL    HW136742   1.799   7.859   2.548
11767SOL    HW236743   1.853   7.743   2.446
11768SOL     OW36744   3.617   8.055   2.093
11768SOL    HW136745   3.605   8.042   1.994
11768SOL    HW236746   3.587   7.974   2.142
11769SOL     OW36747   2.300   7.840   3.361
11769SOL    HW136748   2.382   7.784   3.370
11769SOL    HW236749   2.219   7.782   3.365
11770SOL     OW36750   3.465   7.895   2.599
11770SOL    HW136751   3.391   7.941   2.549
11770SOL    HW236752   3.516   7.963   2.652
11771SOL     OW36753   3.456   7.562   3.342
11771SOL    HW136754   3.438   7.629   3.270
11771SOL    HW236755   3.453   7.608   3.431
11772SOL     OW36756   1.984   8.091   2.425
11772SOL    HW136757   1.939   8.003   2.442
11772SOL    HW236758   1.983   8.145   2.509
11773SOL     OW36759   2.671   7.452   2.364
11773SOL    HW136760   2.711   7.543   2.355
11773SOL    HW236761   2.571   7.460   2.370
11774SOL     OW36762   2.179   7.699   3.663
11774SOL    HW136763   2.250   7.770   3.669
11774SOL    HW236764   2.091   7.738   3.691
11775SOL     OW36765   3.143   7.793   2.806
11775SOL    HW136766   3.057   7.743   2.793
11775SOL    HW236767   3.205   7.739   2.862
11776SOL     OW36768   3.256   7.917   3.536
11776SOL    HW136769   3.236   7.960   3.624
11776SOL    HW236770   3.334   7.855   3.545
11777SOL     OW36771   2.835   8.338   3.434
11777SOL    HW136772   2.881   8.254   3.405
11777SOL    HW236773   2.779   8.372   3.359
11778SOL     OW36774   2.853   7.858   3.104
11778SOL    HW136775   2.776   7.892   3.158
11778SOL    HW236776   2.819   7.807   3.025
11779SOL     OW36777   2.727   7.796   2.057
11779SOL    HW136778   2.786   7.859   2.008
11779SOL    HW236779   2.746   7.702   2.028
11780SOL     OW36780   3.581   8.033   3.693
11780SOL    HW136781   3.555   8.122   3.657
11780SOL    HW236782   3.579   7.965   3.620
11781SOL     OW36783   2.412   7.644   2.747
11781SOL    HW136784   2.407   7.639   2.847
11781SOL    HW236785   2.414   7.740   2.718
11782SOL     OW36786   2.064   7.733   3.360
11782SOL    HW136787   1.984   7.793   3.347
11782SOL    HW236788   2.054   7.684   3.446
11783SOL     OW36789   3.262   7.555   2.288
11783SOL    HW136790   3.238   7.518   2.198
11783SOL    HW236791   3.361   7.571   2.292
11784SOL     OW36792   3.409   7.670   3.591
11784SOL    HW136793   3.404   7.707   3.683
11784SOL    HW236794   3.337   7.601   3.579
11785SOL     OW36795   2.476   7.570   1.979
11785SOL    HW136796   2.574   7.548   1.986
11785SOL    HW236797   2.445   7.553   1.886
11786SOL     OW36798   2.643   7.712   3.611
11786SOL    HW136799   2.710   7.651   3.654
11786SOL    HW236800   2.570   7.731   3.676
11787SOL     OW36801   3.213   8.038   3.295
11787SOL    HW136802   3.241   7.995   3.380
11787SOL    HW236803   3.238   8.134   3.296
11788SOL     OW36804   2.401   7.512   2.374
11788SOL    HW136805   2.320   7.513   2.432
11788SOL    HW236806   2.404   7.595   2.319
11789SOL     OW36807   2.159   7.483   2.033
11789SOL    HW136808   2.208   7.567   2.012
11789SOL    HW236809   2.221   7.418   2.078
11790SOL     OW36810   2.797   7.684   2.342
11790SOL    HW136811   2.749   7.725   2.264
11790SOL    HW236812   2.896   7.682   2.323
11791SOL     OW36813   1.940   8.004   3.248
11791SOL    HW136814   2.032   8.003   3.207
11791SOL    HW236815   1.934   8.078   3.315
11792SOL     OW36816   2.423   7.670   3.009
11792SOL    HW136817   2.461   7.586   3.046
11792SOL    HW236818   2.335   7.689   3.053
11793SOL     OW36819   2.879   7.487   2.615
11793SOL    HW136820   2.807   7.492   2.546
11793SOL    HW236821   2.855   7.418   2.684
11794SOL     OW36822   3.328   8.038   2.854
11794SOL    HW136823   3.298   7.943   2.861
11794SOL    HW236824   3.401   8.054   2.920
11795SOL     OW36825   2.389   7.704   2.190
11795SOL    HW136826   2.416   7.645   2.115
11795SOL    HW236827   2.389   7.799   2.159
11796SOL     OW36828   2.777   7.537   3.264
11796SOL    HW136829   2.802   7.517   3.169
11796SOL    HW236830   2.849   7.593   3.306
11797SOL     OW36831   3.136   7.834   3.124
11797SOL    HW136832   3.157   7.908   3.188
11797SOL    HW236833   3.047   7.851   3.081
11798SOL     OW36834   2.428   7.985   2.727
11798SOL    HW136835   2.440   8.051   2.653
11798SOL    HW236836   2.474   8.019   2.810
11799SOL     OW36837   2.875   7.553   3.632
11799SOL    HW136838   2.881   7.638   3.580
11799SOL    HW236839   2.907   7.477   3.575
11800SOL     OW36840   2.366   7.498   3.602
11800SOL    HW136841   2.324   7.441   3.532
11800SOL    HW236842   2.300   7.567   3.634
11801SOL     OW36843   2.169   7.661   3.093
11801SOL    HW136844   2.146   7.698   3.183
11801SOL    HW236845   2.139   7.566   3.087
11802SOL     OW36846   2.594   8.082   2.926
11802SOL    HW136847   2.653   8.056   2.850
11802SOL    HW236848   2.566   8.178   2.915
11803SOL     OW36849   2.169   7.511   2.480
11803SOL    HW136850   2.158   7.605   2.513
11803SOL    HW236851   2.164   7.448   2.557
11804SOL     OW36852   3.484   7.815   2.236
11804SOL    HW136853   3.486   7.739   2.300
11804SOL    HW236854   3.436   7.892   2.276
11805SOL     OW36855   3.402   7.722   1.987
11805SOL    HW136856   3.341   7.647   2.010
11805SOL    HW236857   3.424   7.774   2.070
11806SOL     OW36858   3.165   8.286   1.904
11806SOL    HW136859   3.199   8.193   1.919
11806SOL    HW236860   3.183   8.313   1.809
11807SOL     OW36861   2.201   7.957   2.868
11807SOL    HW136862   2.149   7.874   2.851
11807SOL    HW236863   2.278   7.962   2.804
11808SOL     OW36864   3.000   7.828   3.540
11808SOL    HW136865   2.955   7.891   3.604
11808SOL    HW236866   3.093   7.859   3.523
11809SOL     OW36867   3.022   7.655   3.339
11809SOL    HW136868   3.022   7.719   3.416
11809SOL    HW236869   3.050   7.703   3.256
11810SOL     OW36870   1.902   7.992   2.976
11810SOL    HW136871   1.987   7.959   2.935
11810SOL    HW236872   1.915   8.007   3.074
11811SOL     OW36873   2.051   7.968   3.584
11811SOL    HW136874   2.110   7.928   3.514
11811SOL    HW236875   1.993   8.039   3.543
11812SOL     OW36876   2.677   8.020   2.187
11812SOL    HW136877   2.684   7.931   2.141
11812SOL    HW236878   2.583   8.054   2.179
11813SOL     OW36879   3.519   8.052   3.068
11813SOL    HW136880   3.481   7.983   3.130
11813SOL    HW236881   3.601   8.016   3.024
11814SOL     OW36882   2.533   7.912   3.131
11814SOL    HW136883   2.499   7.823   3.101
11814SOL    HW236884   2.559   7.966   3.051
11815SOL     OW36885   3.588   7.583   2.385
11815SOL    HW136886   3.661   7.566   2.318
11815SOL    HW236887   3.557   7.496   2.423
11816SOL     OW36888   3.703   7.623   2.825
11816SOL    HW136889   3.742   7.538   2.789
11816SOL    HW236890   3.605   7.625   2.806
11817SOL     OW36891   2.125   7.774   2.582
11817SOL    HW136892   2.046   7.825   2.548
11817SOL    HW236893   2.116   7.759   2.680
11818SOL     OW36894   2.876   7.684   2.833
11818SOL    HW136895   2.868   7.648   2.740
11818SOL    HW236896   2.874   7.608   2.898
11819SOL     OW36897   3.571   7.833   3.243
11819SOL    HW136898   3.644   7.902   3.247
11819SOL    HW236899   3.599   7.758   3.184
11820SOL     OW36900   2.534   7.651   3.351
11820SOL    HW136901   2.624   7.635   3.311
11820SOL    HW236902   2.542   7.656   3.450
11821SOL     OW36903   1.937   7.793   1.895
11821SOL    HW136904   1.845   7.765   1.866
11821SOL    HW236905   1.968   7.870   1.839
11822SOL     OW36906   1.934   7.614   2.180
11822SOL    HW136907   1.917   7.697   2.126
11822SOL    HW236908   2.024   7.577   2.158
11823SOL     OW36909   2.578   8.013   3.570
11823SOL    HW136910   2.597   8.078   3.644
11823SOL    HW236911   2.638   7.933   3.579
11824SOL     OW36912   3.087   7.773   2.311
11824SOL    HW136913   3.152   7.699   2.300
11824SOL    HW236914   3.107   7.823   2.395
11825SOL     OW36915   2.456   8.193   2.514
11825SOL    HW136916   2.506   8.278   2.495
11825SOL    HW236917   2.368   8.195   2.466
11826SOL     OW36918   3.639   7.790   3.504
11826SOL    HW136919   3.622   7.821   3.410
11826SOL    HW236920   3.555   7.753   3.542
11827SOL     OW36921   3.686   7.640   3.089
11827SOL    HW136922   3.682   7.550   3.133
11827SOL    HW236923   3.689   7.629   2.990
11828SOL     OW36924   2.290   7.872   2.382
11828SOL    HW136925   2.320   7.800   2.320
11828SOL    HW236926   2.251   7.832   2.465
11829SOL     OW36927   3.286   7.662   2.974
11829SOL    HW136928   3.338   7.597   3.029
11829SOL    HW236929   3.237   7.725   3.035
11830SOL     OW36930   2.863   7.482   3.016
11830SOL    HW136931   2.800   7.410   2.985
11830SOL    HW236932   2.956   7.446   3.016
11831SOL     OW36933   3.214   7.500   2.030
11831SOL    HW136934   3.249   7.459   1.946
11831SOL    HW236935   3.124   7.462   2.050
11832SOL     OW36936   3.162   7.901   2.553
11832SOL    HW136937   3.103   7.981   2.557
11832SOL    HW236938   3.177   7.866   2.646
11833SOL     OW36939   3.455   7.669   2.744
11833SOL    HW136940   3.371   7.668   2.798
11833SOL    HW236941   3.457   7.752   2.688
11834SOL     OW36942   2.087   7.723   4.720
11834SOL    HW136943   2.122   7.706   4.812
11834SOL    HW236944   1.999   7.678   4.708
11835SOL     OW36945   1.881   7.816   4.371
11835SOL    HW136946   1.799   7.859   4.410
11835SOL    HW236947   1.853   7.743   4.308
11836SOL     OW36948   3.617   8.055   3.955
11836SOL    HW136949   3.605   8.042   3.856
11836SOL    HW236950   3.587   7.974   4.004
11837SOL     OW36951   2.300   7.840   5.223
11837SOL    HW136952   2.382   7.784   5.232
11837SOL    HW236953   2.219   7.782   5.227
11838SOL     OW36954   3.465   7.895   4.461
11838SOL    HW136955   3.391   7.941   4.411
11838SOL    HW236956   3.516   7.963   4.514
11839SOL     OW36957   3.456   7.562   5.204
11839SOL    HW136958   3.438   7.629   5.132
11839SOL    HW236959   3.453   7.608   5.293
11840SOL     OW36960   1.984   8.091   4.287
11840SOL    HW136961   1.939   8.003   4.304
11840SOL    HW236962   1.983   8.145   4.371
11841SOL     OW36963   2.671   7.452   4.226
11841SOL    HW136964   2.711   7.543   4.217
11841SOL    HW236965   2.571   7.460   4.232
11842SOL     OW36966   2.179   7.699   5.525
11842SOL    HW136967   2.250   7.770   5.531
11842SOL    HW236968   2.091   7.738   5.553
11843SOL     OW36969   3.143   7.793   4.668
11843SOL    HW136970   3.057   7.743   4.655
11843SOL    HW236971   3.205   7.739   4.724
11844SOL     OW36972   3.256   7.917   5.398
11844SOL    HW136973   3.236   7.960   5.486
11844SOL    HW236974   3.334   7.855   5.407
11845SOL     OW36975   2.835   8.338   5.296
11845SOL    HW136976   2.881   8.254   5.267
11845SOL    HW236977   2.779   8.372   5.221
11846SOL     OW36978   2.853   7.858   4.966
11846SOL    HW136979   2.776   7.892   5.020
11846SOL    HW236980   2.819   7.807   4.887
11847SOL     OW36981   2.727   7.796   3.919
11847SOL    HW136982   2.786   7.859   3.870
11847SOL    HW236983   2.746   7.702   3.890
11848SOL     OW36984   3.581   8.033   5.555
11848SOL    HW136985   3.555   8.122   5.519
11848SOL    HW236986   3.579   7.965   5.482
11849SOL     OW36987   2.412   7.644   4.609
11849SOL    HW136988   2.407   7.639   4.709
11849SOL    HW236989   2.414   7.740   4.580
11850SOL     OW36990   2.064   7.733   5.222
11850SOL    HW136991   1.984   7.793   5.209
11850SOL    HW236992   2.054   7.684   5.308
11851SOL     OW36993   3.262   7.555   4.150
11851SOL    HW136994   3.238   7.518   4.060
11851SOL    HW236995   3.361   7.571   4.154
11852SOL     OW36996   3.409   7.670   5.453
11852SOL    HW136997   3.404   7.707   5.545
11852SOL    HW236998   3.337   7.601   5.441
11853SOL     OW36999   2.476   7.570   3.841
11853SOL    HW137000   2.574   7.548   3.848
11853SOL    HW237001   2.445   7.553   3.748
11854SOL     OW37002   2.643   7.712   5.473
11854SOL    HW137003   2.710   7.651   5.516
11854SOL    HW237004   2.570   7.731   5.538
11855SOL     OW37005   3.213   8.038   5.157
11855SOL    HW137006   3.241   7.995   5.242
11855SOL    HW237007   3.238   8.134   5.158
11856SOL     OW37008   2.401   7.512   4.236
11856SOL    HW137009   2.320   7.513   4.294
11856SOL    HW237010   2.404   7.595   4.181
11857SOL     OW37011   2.159   7.483   3.895
11857SOL    HW137012   2.208   7.567   3.874
11857SOL    HW237013   2.221   7.418   3.940
11858SOL     OW37014   2.797   7.684   4.204
11858SOL    HW137015   2.749   7.725   4.126
11858SOL    HW237016   2.896   7.682   4.185
11859SOL     OW37017   1.940   8.004   5.110
11859SOL    HW137018   2.032   8.003   5.069
11859SOL    HW237019   1.934   8.078   5.177
11860SOL     OW37020   2.423   7.670   4.871
11860SOL    HW137021   2.461   7.586   4.908
11860SOL    HW237022   2.335   7.689   4.915
11861SOL     OW37023   2.879   7.487   4.477
11861SOL    HW137024   2.807   7.492   4.408
11861SOL    HW237025   2.855   7.418   4.546
11862SOL     OW37026   3.328   8.038   4.716
11862SOL    HW137027   3.298   7.943   4.723
11862SOL    HW237028   3.401   8.054   4.782
11863SOL     OW37029   2.389   7.704   4.052
11863SOL    HW137030   2.416   7.645   3.977
11863SOL    HW237031   2.389   7.799   4.021
11864SOL     OW37032   2.777   7.537   5.126
11864SOL    HW137033   2.802   7.517   5.031
11864SOL    HW237034   2.849   7.593   5.168
11865SOL     OW37035   3.136   7.834   4.986
11865SOL    HW137036   3.157   7.908   5.050
11865SOL    HW237037   3.047   7.851   4.943
11866SOL     OW37038   2.428   7.985   4.589
11866SOL    HW137039   2.440   8.051   4.515
11866SOL    HW237040   2.474   8.019   4.672
11867SOL     OW37041   2.875   7.553   5.494
11867SOL    HW137042   2.881   7.638   5.442
11867SOL    HW237043   2.907   7.477   5.437
11868SOL     OW37044   2.366   7.498   5.464
11868SOL    HW137045   2.324   7.441   5.394
11868SOL    HW237046   2.300   7.567   5.496
11869SOL     OW37047   2.169   7.661   4.955
11869SOL    HW137048   2.146   7.698   5.045
11869SOL    HW237049   2.139   7.566   4.949
11870SOL     OW37050   2.594   8.082   4.788
11870SOL    HW137051   2.653   8.056   4.712
11870SOL    HW237052   2.566   8.178   4.777
11871SOL     OW37053   2.169   7.511   4.342
11871SOL    HW137054   2.158   7.605   4.375
11871SOL    HW237055   2.164   7.448   4.419
11872SOL     OW37056   3.484   7.815   4.098
11872SOL    HW137057   3.486   7.739   4.162
11872SOL    HW237058   3.436   7.892   4.138
11873SOL     OW37059   3.402   7.722   3.849
11873SOL    HW137060   3.341   7.647   3.872
11873SOL    HW237061   3.424   7.774   3.932
11874SOL     OW37062   3.165   8.286   3.766
11874SOL    HW137063   3.199   8.193   3.781
11874SOL    HW237064   3.183   8.313   3.671
11875SOL     OW37065   2.201   7.957   4.730
11875SOL    HW137066   2.149   7.874   4.713
11875SOL    HW237067   2.278   7.962   4.666
11876SOL     OW37068   3.000   7.828   5.402
11876SOL    HW137069   2.955   7.891   5.466
11876SOL    HW237070   3.093   7.859   5.385
11877SOL     OW37071   3.022   7.655   5.201
11877SOL    HW137072   3.022   7.719   5.278
11877SOL    HW237073   3.050   7.703   5.118
11878SOL     OW37074   1.902   7.992   4.838
11878SOL    HW137075   1.987   7.959   4.797
11878SOL    HW237076   1.915   8.007   4.936
11879SOL     OW37077   2.051   7.968   5.446
11879SOL    HW137078   2.110   7.928   5.376
11879SOL    HW237079   1.993   8.039   5.405
11880SOL     OW37080   2.677   8.020   4.049
11880SOL    HW137081   2.684   7.931   4.003
11880SOL    HW237082   2.583   8.054   4.041
11881SOL     OW37083   3.519   8.052   4.930
11881SOL    HW137084   3.481   7.983   4.992
11881SOL    HW237085   3.601   8.016   4.886
11882SOL     OW37086   2.533   7.912   4.993
11882SOL    HW137087   2.499   7.823   4.963
11882SOL    HW237088   2.559   7.966   4.913
11883SOL     OW37089   3.588   7.583   4.247
11883SOL    HW137090   3.661   7.566   4.180
11883SOL    HW237091   3.557   7.496   4.285
11884SOL     OW37092   3.703   7.623   4.687
11884SOL    HW137093   3.742   7.538   4.651
11884SOL    HW237094   3.605   7.625   4.668
11885SOL     OW37095   2.125   7.774   4.444
11885SOL    HW137096   2.046   7.825   4.410
11885SOL    HW237097   2.116   7.759   4.542
11886SOL     OW37098   2.876   7.684   4.695
11886SOL    HW137099   2.868   7.648   4.602
11886SOL    HW237100   2.874   7.608   4.760
11887SOL     OW37101   3.571   7.833   5.105
11887SOL    HW137102   3.644   7.902   5.109
11887SOL    HW237103   3.599   7.758   5.046
11888SOL     OW37104   2.534   7.651   5.213
11888SOL    HW137105   2.624   7.635   5.173
11888SOL    HW237106   2.542   7.656   5.312
11889SOL     OW37107   1.937   7.793   3.757
11889SOL    HW137108   1.845   7.765   3.728
11889SOL    HW237109   1.968   7.870   3.701
11890SOL     OW37110   1.934   7.614   4.042
11890SOL    HW137111   1.917   7.697   3.988
11890SOL    HW237112   2.024   7.577   4.020
11891SOL     OW37113   2.578   8.013   5.432
11891SOL    HW137114   2.597   8.078   5.506
11891SOL    HW237115   2.638   7.933   5.441
11892SOL     OW37116   3.087   7.773   4.173
11892SOL    HW137117   3.152   7.699   4.162
11892SOL    HW237118   3.107   7.823   4.257
11893SOL     OW37119   2.456   8.193   4.376
11893SOL    HW137120   2.506   8.278   4.357
11893SOL    HW237121   2.368   8.195   4.328
11894SOL     OW37122   3.639   7.790   5.366
11894SOL    HW137123   3.622   7.821   5.272
11894SOL    HW237124   3.555   7.753   5.404
11895SOL     OW37125   3.686   7.640   4.951
11895SOL    HW137126   3.682   7.550   4.995
11895SOL    HW237127   3.689   7.629   4.852
11896SOL     OW37128   2.290   7.872   4.244
11896SOL    HW137129   2.320   7.800   4.182
11896SOL    HW237130   2.251   7.832   4.327
11897SOL     OW37131   3.286   7.662   4.836
11897SOL    HW137132   3.338   7.597   4.891
11897SOL    HW237133   3.237   7.725   4.897
11898SOL     OW37134   2.863   7.482   4.878
11898SOL    HW137135   2.800   7.410   4.847
11898SOL    HW237136   2.956   7.446   4.878
11899SOL     OW37137   3.214   7.500   3.892
11899SOL    HW137138   3.249   7.459   3.808
11899SOL    HW237139   3.124   7.462   3.912
11900SOL     OW37140   3.162   7.901   4.415
11900SOL    HW137141   3.103   7.981   4.419
11900SOL    HW237142   3.177   7.866   4.508
11901SOL     OW37143   3.455   7.669   4.606
11901SOL    HW137144   3.371   7.668   4.660
11901SOL    HW237145   3.457   7.752   4.550
11902SOL     OW37146   2.087   7.723   6.582
11902SOL    HW137147   2.122   7.706   6.674
11902SOL    HW237148   1.999   7.678   6.570
11903SOL     OW37149   1.881   7.816   6.233
11903SOL    HW137150   1.799   7.859   6.272
11903SOL    HW237151   1.853   7.743   6.170
11904SOL     OW37152   3.617   8.055   5.817
11904SOL    HW137153   3.605   8.042   5.718
11904SOL    HW237154   3.587   7.974   5.866
11905SOL     OW37155   2.300   7.840   7.085
11905SOL    HW137156   2.382   7.784   7.094
11905SOL    HW237157   2.219   7.782   7.089
11906SOL     OW37158   3.465   7.895   6.323
11906SOL    HW137159   3.391   7.941   6.273
11906SOL    HW237160   3.516   7.963   6.376
11907SOL     OW37161   3.456   7.562   7.066
11907SOL    HW137162   3.438   7.629   6.994
11907SOL    HW237163   3.453   7.608   7.155
11908SOL     OW37164   1.984   8.091   6.149
11908SOL    HW137165   1.939   8.003   6.166
11908SOL    HW237166   1.983   8.145   6.233
11909SOL     OW37167   2.671   7.452   6.088
11909SOL    HW137168   2.711   7.543   6.079
11909SOL    HW237169   2.571   7.460   6.094
11910SOL     OW37170   2.179   7.699   7.387
11910SOL    HW137171   2.250   7.770   7.393
11910SOL    HW237172   2.091   7.738   7.415
11911SOL     OW37173   3.143   7.793   6.530
11911SOL    HW137174   3.057   7.743   6.517
11911SOL    HW237175   3.205   7.739   6.586
11912SOL     OW37176   3.256   7.917   7.260
11912SOL    HW137177   3.236   7.960   7.348
11912SOL    HW237178   3.334   7.855   7.269
11913SOL     OW37179   2.835   8.338   7.158
11913SOL    HW137180   2.881   8.254   7.129
11913SOL    HW237181   2.779   8.372   7.083
11914SOL     OW37182   2.853   7.858   6.828
11914SOL    HW137183   2.776   7.892   6.882
11914SOL    HW237184   2.819   7.807   6.749
11915SOL     OW37185   2.727   7.796   5.781
11915SOL    HW137186   2.786   7.859   5.732
11915SOL    HW237187   2.746   7.702   5.752
11916SOL     OW37188   3.581   8.033   7.417
11916SOL    HW137189   3.555   8.122   7.381
11916SOL    HW237190   3.579   7.965   7.344
11917SOL     OW37191   2.412   7.644   6.471
11917SOL    HW137192   2.407   7.639   6.571
11917SOL    HW237193   2.414   7.740   6.442
11918SOL     OW37194   2.064   7.733   7.084
11918SOL    HW137195   1.984   7.793   7.071
11918SOL    HW237196   2.054   7.684   7.170
11919SOL     OW37197   3.262   7.555   6.012
11919SOL    HW137198   3.238   7.518   5.922
11919SOL    HW237199   3.361   7.571   6.016
11920SOL     OW37200   3.409   7.670   7.315
11920SOL    HW137201   3.404   7.707   7.407
11920SOL    HW237202   3.337   7.601   7.303
11921SOL     OW37203   2.476   7.570   5.703
11921SOL    HW137204   2.574   7.548   5.710
11921SOL    HW237205   2.445   7.553   5.610
11922SOL     OW37206   2.643   7.712   7.335
11922SOL    HW137207   2.710   7.651   7.378
11922SOL    HW237208   2.570   7.731   7.400
11923SOL     OW37209   3.213   8.038   7.019
11923SOL    HW137210   3.241   7.995   7.104
11923SOL    HW237211   3.238   8.134   7.020
11924SOL     OW37212   2.401   7.512   6.098
11924SOL    HW137213   2.320   7.513   6.156
11924SOL    HW237214   2.404   7.595   6.043
11925SOL     OW37215   2.159   7.483   5.757
11925SOL    HW137216   2.208   7.567   5.736
11925SOL    HW237217   2.221   7.418   5.802
11926SOL     OW37218   2.797   7.684   6.066
11926SOL    HW137219   2.749   7.725   5.988
11926SOL    HW237220   2.896   7.682   6.047
11927SOL     OW37221   1.940   8.004   6.972
11927SOL    HW137222   2.032   8.003   6.931
11927SOL    HW237223   1.934   8.078   7.039
11928SOL     OW37224   2.423   7.670   6.733
11928SOL    HW137225   2.461   7.586   6.770
11928SOL    HW237226   2.335   7.689   6.777
11929SOL     OW37227   2.879   7.487   6.339
11929SOL    HW137228   2.807   7.492   6.270
11929SOL    HW237229   2.855   7.418   6.408
11930SOL     OW37230   3.328   8.038   6.578
11930SOL    HW137231   3.298   7.943   6.585
11930SOL    HW237232   3.401   8.054   6.644
11931SOL     OW37233   2.389   7.704   5.914
11931SOL    HW137234   2.416   7.645   5.839
11931SOL    HW237235   2.389   7.799   5.883
11932SOL     OW37236   2.777   7.537   6.988
11932SOL    HW137237   2.802   7.517   6.893
11932SOL    HW237238   2.849   7.593   7.030
11933SOL     OW37239   3.136   7.834   6.848
11933SOL    HW137240   3.157   7.908   6.912
11933SOL    HW237241   3.047   7.851   6.805
11934SOL     OW37242   2.428   7.985   6.451
11934SOL    HW137243   2.440   8.051   6.377
11934SOL    HW237244   2.474   8.019   6.534
11935SOL     OW37245   2.875   7.553   7.356
11935SOL    HW137246   2.881   7.638   7.304
11935SOL    HW237247   2.907   7.477   7.299
11936SOL     OW37248   2.366   7.498   7.326
11936SOL    HW137249   2.324   7.441   7.256
11936SOL    HW237250   2.300   7.567   7.358
11937SOL     OW37251   2.169   7.661   6.817
11937SOL    HW137252   2.146   7.698   6.907
11937SOL    HW237253   2.139   7.566   6.811
11938SOL     OW37254   2.594   8.082   6.650
11938SOL    HW137255   2.653   8.056   6.574
11938SOL    HW237256   2.566   8.178   6.639
11939SOL     OW37257   2.169   7.511   6.204
11939SOL    HW137258   2.158   7.605   6.237
11939SOL    HW237259   2.164   7.448   6.281
11940SOL     OW37260   3.484   7.815   5.960
11940SOL    HW137261   3.486   7.739   6.024
11940SOL    HW237262   3.436   7.892   6.000
11941SOL     OW37263   3.402   7.722   5.711
11941SOL    HW137264   3.341   7.647   5.734
11941SOL    HW237265   3.424   7.774   5.794
11942SOL     OW37266   3.165   8.286   5.628
11942SOL    HW137267   3.199   8.193   5.643
11942SOL    HW237268   3.183   8.313   5.533
11943SOL     OW37269   2.201   7.957   6.592
11943SOL    HW137270   2.149   7.874   6.575
11943SOL    HW237271   2.278   7.962   6.528
11944SOL     OW37272   3.000   7.828   7.264
11944SOL    HW137273   2.955   7.891   7.328
11944SOL    HW237274   3.093   7.859   7.247
11945SOL     OW37275   3.022   7.655   7.063
11945SOL    HW137276   3.022   7.719   7.140
11945SOL    HW237277   3.050   7.703   6.980
11946SOL     OW37278   1.902   7.992   6.700
11946SOL    HW137279   1.987   7.959   6.659
11946SOL    HW237280   1.915   8.007   6.798
11947SOL     OW37281   2.051   7.968   7.308
11947SOL    HW137282   2.110   7.928   7.238
11947SOL    HW237283   1.993   8.039   7.267
11948SOL     OW37284   2.677   8.020   5.911
11948SOL    HW137285   2.684   7.931   5.865
11948SOL    HW237286   2.583   8.054   5.903
11949SOL     OW37287   3.519   8.052   6.792
11949SOL    HW137288   3.481   7.983   6.854
11949SOL    HW237289   3.601   8.016   6.748
11950SOL     OW37290   2.533   7.912   6.855
11950SOL    HW137291   2.499   7.823   6.825
11950SOL    HW237292   2.559   7.966   6.775
11951SOL     OW37293   3.588   7.583   6.109
11951SOL    HW137294   3.661   7.566   6.042
11951SOL    HW237295   3.557   7.496   6.147
11952SOL     OW37296   3.703   7.623   6.549
11952SOL    HW137297   3.742   7.538   6.513
11952SOL    HW237298   3.605   7.625   6.530
11953SOL     OW37299   2.125   7.774   6.306
11953SOL    HW137300   2.046   7.825   6.272
11953SOL    HW237301   2.116   7.759   6.404
11954SOL     OW37302   2.876   7.684   6.557
11954SOL    HW137303   2.868   7.648   6.464
11954SOL    HW237304   2.874   7.608   6.622
11955SOL     OW37305   3.571   7.833   6.967
11955SOL    HW137306   3.644   7.902   6.971
11955SOL    HW237307   3.599   7.758   6.908
11956SOL     OW37308   2.534   7.651   7.075
11956SOL    HW137309   2.624   7.635   7.035
11956SOL    HW237310   2.542   7.656   7.174
11957SOL     OW37311   1.937   7.793   5.619
11957SOL    HW137312   1.845   7.765   5.590
11957SOL    HW237313   1.968   7.870   5.563
11958SOL     OW37314   1.934   7.614   5.904
11958SOL    HW137315   1.917   7.697   5.850
11958SOL    HW237316   2.024   7.577   5.882
11959SOL     OW37317   2.578   8.013   7.294
11959SOL    HW137318   2.597   8.078   7.368
11959SOL    HW237319   2.638   7.933   7.303
11960SOL     OW37320   3.087   7.773   6.035
11960SOL    HW137321   3.152   7.699   6.024
11960SOL    HW237322   3.107   7.823   6.119
11961SOL     OW37323   2.456   8.193   6.238
11961SOL    HW137324   2.506   8.278   6.219
11961SOL    HW237325   2.368   8.195   6.190
11962SOL     OW37326   3.639   7.790   7.228
11962SOL    HW137327   3.622   7.821   7.134
11962SOL    HW237328   3.555   7.753   7.266
11963SOL     OW37329   3.686   7.640   6.813
11963SOL    HW137330   3.682   7.550   6.857
11963SOL    HW237331   3.689   7.629   6.714
11964SOL     OW37332   2.290   7.872   6.106
11964SOL    HW137333   2.320   7.800   6.044
11964SOL    HW237334   2.251   7.832   6.189
11965SOL     OW37335   3.286   7.662   6.698
11965SOL    HW137336   3.338   7.597   6.753
11965SOL    HW237337   3.237   7.725   6.759
11966SOL     OW37338   2.863   7.482   6.740
11966SOL    HW137339   2.800   7.410   6.709
11966SOL    HW237340   2.956   7.446   6.740
11967SOL     OW37341   3.214   7.500   5.754
11967SOL    HW137342   3.249   7.459   5.670
11967SOL    HW237343   3.124   7.462   5.774
11968SOL     OW37344   3.162   7.901   6.277
11968SOL    HW137345   3.103   7.981   6.281
11968SOL    HW237346   3.177   7.866   6.370
11969SOL     OW37347   3.455   7.669   6.468
11969SOL    HW137348   3.371   7.668   6.522
11969SOL    HW237349   3.457   7.752   6.412
11970SOL     OW37350   2.087   7.723   8.444
11970SOL    HW137351   2.122   7.706   8.536
11970SOL    HW237352   1.999   7.678   8.432
11971SOL     OW37353   1.881   7.816   8.095
11971SOL    HW137354   1.799   7.859   8.134
11971SOL    HW237355   1.853   7.743   8.032
11972SOL     OW37356   3.617   8.055   7.679
11972SOL    HW137357   3.605   8.042   7.580
11972SOL    HW237358   3.587   7.974   7.728
11973SOL     OW37359   2.300   7.840   8.947
11973SOL    HW137360   2.382   7.784   8.956
11973SOL    HW237361   2.219   7.782   8.951
11974SOL     OW37362   3.465   7.895   8.185
11974SOL    HW137363   3.391   7.941   8.135
11974SOL    HW237364   3.516   7.963   8.238
11975SOL     OW37365   3.456   7.562   8.928
11975SOL    HW137366   3.438   7.629   8.856
11975SOL    HW237367   3.453   7.608   9.017
11976SOL     OW37368   1.984   8.091   8.011
11976SOL    HW137369   1.939   8.003   8.028
11976SOL    HW237370   1.983   8.145   8.095
11977SOL     OW37371   2.671   7.452   7.950
11977SOL    HW137372   2.711   7.543   7.941
11977SOL    HW237373   2.571   7.460   7.956
11978SOL     OW37374   2.179   7.699   9.249
11978SOL    HW137375   2.250   7.770   9.255
11978SOL    HW237376   2.091   7.738   9.277
11979SOL     OW37377   3.143   7.793   8.392
11979SOL    HW137378   3.057   7.743   8.379
11979SOL    HW237379   3.205   7.739   8.448
11980SOL     OW37380   3.256   7.917   9.122
11980SOL    HW137381   3.236   7.960   9.210
11980SOL    HW237382   3.334   7.855   9.131
11981SOL     OW37383   2.835   8.338   9.020
11981SOL    HW137384   2.881   8.254   8.991
11981SOL    HW237385   2.779   8.372   8.945
11982SOL     OW37386   2.853   7.858   8.690
11982SOL    HW137387   2.776   7.892   8.744
11982SOL    HW237388   2.819   7.807   8.611
11983SOL     OW37389   2.727   7.796   7.643
11983SOL    HW137390   2.786   7.859   7.594
11983SOL    HW237391   2.746   7.702   7.614
11984SOL     OW37392   3.581   8.033   9.279
11984SOL    HW137393   3.555   8.122   9.243
11984SOL    HW237394   3.579   7.965   9.206
11985SOL     OW37395   2.412   7.644   8.333
11985SOL    HW137396   2.407   7.639   8.433
11985SOL    HW237397   2.414   7.740   8.304
11986SOL     OW37398   2.064   7.733   8.946
11986SOL    HW137399   1.984   7.793   8.933
11986SOL    HW237400   2.054   7.684   9.032
11987SOL     OW37401   3.262   7.555   7.874
11987SOL    HW137402   3.238   7.518   7.784
11987SOL    HW237403   3.361   7.571   7.878
11988SOL     OW37404   3.409   7.670   9.177
11988SOL    HW137405   3.404   7.707   9.269
11988SOL    HW237406   3.337   7.601   9.165
11989SOL     OW37407   2.476   7.570   7.565
11989SOL    HW137408   2.574   7.548   7.572
11989SOL    HW237409   2.445   7.553   7.472
11990SOL     OW37410   2.643   7.712   9.197
11990SOL    HW137411   2.710   7.651   9.240
11990SOL    HW237412   2.570   7.731   9.262
11991SOL     OW37413   3.213   8.038   8.881
11991SOL    HW137414   3.241   7.995   8.966
11991SOL    HW237415   3.238   8.134   8.882
11992SOL     OW37416   2.401   7.512   7.960
11992SOL    HW137417   2.320   7.513   8.018
11992SOL    HW237418   2.404   7.595   7.905
11993SOL     OW37419   2.159   7.483   7.619
11993SOL    HW137420   2.208   7.567   7.598
11993SOL    HW237421   2.221   7.418   7.664
11994SOL     OW37422   2.797   7.684   7.928
11994SOL    HW137423   2.749   7.725   7.850
11994SOL    HW237424   2.896   7.682   7.909
11995SOL     OW37425   1.940   8.004   8.834
11995SOL    HW137426   2.032   8.003   8.793
11995SOL    HW237427   1.934   8.078   8.901
11996SOL     OW37428   2.423   7.670   8.595
11996SOL    HW137429   2.461   7.586   8.632
11996SOL    HW237430   2.335   7.689   8.639
11997SOL     OW37431   2.879   7.487   8.201
11997SOL    HW137432   2.807   7.492   8.132
11997SOL    HW237433   2.855   7.418   8.270
11998SOL     OW37434   3.328   8.038   8.440
11998SOL    HW137435   3.298   7.943   8.447
11998SOL    HW237436   3.401   8.054   8.506
11999SOL     OW37437   2.389   7.704   7.776
11999SOL    HW137438   2.416   7.645   7.701
11999SOL    HW237439   2.389   7.799   7.745
12000SOL     OW37440   2.777   7.537   8.850
12000SOL    HW137441   2.802   7.517   8.755
12000SOL    HW237442   2.849   7.593   8.892
12001SOL     OW37443   3.136   7.834   8.710
12001SOL    HW137444   3.157   7.908   8.774
12001SOL    HW237445   3.047   7.851   8.667
12002SOL     OW37446   2.428   7.985   8.313
12002SOL    HW137447   2.440   8.051   8.239
12002SOL    HW237448   2.474   8.019   8.396
12003SOL     OW37449   2.875   7.553   9.218
12003SOL    HW137450   2.881   7.638   9.166
12003SOL    HW237451   2.907   7.477   9.161
12004SOL     OW37452   2.366   7.498   9.188
12004SOL    HW137453   2.324   7.441   9.118
12004SOL    HW237454   2.300   7.567   9.220
12005SOL     OW37455   2.169   7.661   8.679
12005SOL    HW137456   2.146   7.698   8.769
12005SOL    HW237457   2.139   7.566   8.673
12006SOL     OW37458   2.594   8.082   8.512
12006SOL    HW137459   2.653   8.056   8.436
12006SOL    HW237460   2.566   8.178   8.501
12007SOL     OW37461   2.169   7.511   8.066
12007SOL    HW137462   2.158   7.605   8.099
12007SOL    HW237463   2.164   7.448   8.143
12008SOL     OW37464   3.484   7.815   7.822
12008SOL    HW137465   3.486   7.739   7.886
12008SOL    HW237466   3.436   7.892   7.862
12009SOL     OW37467   3.402   7.722   7.573
12009SOL    HW137468   3.341   7.647   7.596
12009SOL    HW237469   3.424   7.774   7.656
12010SOL     OW37470   3.165   8.286   7.490
12010SOL    HW137471   3.199   8.193   7.505
12010SOL    HW237472   3.183   8.313   7.395
12011SOL     OW37473   2.201   7.957   8.454
12011SOL    HW137474   2.149   7.874   8.437
12011SOL    HW237475   2.278   7.962   8.390
12012SOL     OW37476   3.000   7.828   9.126
12012SOL    HW137477   2.955   7.891   9.190
12012SOL    HW237478   3.093   7.859   9.109
12013SOL     OW37479   3.022   7.655   8.925
12013SOL    HW137480   3.022   7.719   9.002
12013SOL    HW237481   3.050   7.703   8.842
12014SOL     OW37482   1.902   7.992   8.562
12014SOL    HW137483   1.987   7.959   8.521
12014SOL    HW237484   1.915   8.007   8.660
12015SOL     OW37485   2.051   7.968   9.170
12015SOL    HW137486   2.110   7.928   9.100
12015SOL    HW237487   1.993   8.039   9.129
12016SOL     OW37488   2.677   8.020   7.773
12016SOL    HW137489   2.684   7.931   7.727
12016SOL    HW237490   2.583   8.054   7.765
12017SOL     OW37491   3.519   8.052   8.654
12017SOL    HW137492   3.481   7.983   8.716
12017SOL    HW237493   3.601   8.016   8.610
12018SOL     OW37494   2.533   7.912   8.717
12018SOL    HW137495   2.499   7.823   8.687
12018SOL    HW237496   2.559   7.966   8.637
12019SOL     OW37497   3.588   7.583   7.971
12019SOL    HW137498   3.661   7.566   7.904
12019SOL    HW237499   3.557   7.496   8.009
12020SOL     OW37500   3.703   7.623   8.411
12020SOL    HW137501   3.742   7.538   8.375
12020SOL    HW237502   3.605   7.625   8.392
12021SOL     OW37503   2.125   7.774   8.168
12021SOL    HW137504   2.046   7.825   8.134
12021SOL    HW237505   2.116   7.759   8.266
12022SOL     OW37506   2.876   7.684   8.419
12022SOL    HW137507   2.868   7.648   8.326
12022SOL    HW237508   2.874   7.608   8.484
12023SOL     OW37509   3.571   7.833   8.829
12023SOL    HW137510   3.644   7.902   8.833
12023SOL    HW237511   3.599   7.758   8.770
12024SOL     OW37512   2.534   7.651   8.937
12024SOL    HW137513   2.624   7.635   8.897
12024SOL    HW237514   2.542   7.656   9.036
12025SOL     OW37515   1.937   7.793   7.481
12025SOL    HW137516   1.845   7.765   7.452
12025SOL    HW237517   1.968   7.870   7.425
12026SOL     OW37518   1.934   7.614   7.766
12026SOL    HW137519   1.917   7.697   7.712
12026SOL    HW237520   2.024   7.577   7.744
12027SOL     OW37521   2.578   8.013   9.156
12027SOL    HW137522   2.597   8.078   9.230
12027SOL    HW237523   2.638   7.933   9.165
12028SOL     OW37524   3.087   7.773   7.897
12028SOL    HW137525   3.152   7.699   7.886
12028SOL    HW237526   3.107   7.823   7.981
12029SOL     OW37527   2.456   8.193   8.100
12029SOL    HW137528   2.506   8.278   8.081
12029SOL    HW237529   2.368   8.195   8.052
12030SOL     OW37530   3.639   7.790   9.090
12030SOL    HW137531   3.622   7.821   8.996
12030SOL    HW237532   3.555   7.753   9.128
12031SOL     OW37533   2.290   7.872   7.968
12031SOL    HW137534   2.320   7.800   7.906
12031SOL    HW237535   2.251   7.832   8.051
12032SOL     OW37536   3.286   7.662   8.560
12032SOL    HW137537   3.338   7.597   8.615
12032SOL    HW237538   3.237   7.725   8.621
12033SOL     OW37539   2.863   7.482   8.602
12033SOL    HW137540   2.800   7.410   8.571
12033SOL    HW237541   2.956   7.446   8.602
12034SOL     OW37542   3.214   7.500   7.616
12034SOL    HW137543   3.249   7.459   7.532
12034SOL    HW237544   3.124   7.462   7.636
12035SOL     OW37545   3.162   7.901   8.139
12035SOL    HW137546   3.103   7.981   8.143
12035SOL    HW237547   3.177   7.866   8.232
12036SOL     OW37548   3.455   7.669   8.330
12036SOL    HW137549   3.371   7.668   8.384
12036SOL    HW237550   3.457   7.752   8.274
12037SOL     OW37551   2.087   7.723  10.306
12037SOL    HW137552   2.122   7.706  10.398
12037SOL    HW237553   1.999   7.678  10.294
12038SOL     OW37554   1.881   7.816   9.957
12038SOL    HW137555   1.799   7.859   9.996
12038SOL    HW237556   1.853   7.743   9.894
12039SOL     OW37557   3.617   8.055   9.541
12039SOL    HW137558   3.605   8.042   9.442
12039SOL    HW237559   3.587   7.974   9.590
12040SOL     OW37560   2.300   7.840  10.809
12040SOL    HW137561   2.382   7.784  10.818
12040SOL    HW237562   2.219   7.782  10.813
12041SOL     OW37563   3.465   7.895  10.047
12041SOL    HW137564   3.391   7.941   9.997
12041SOL    HW237565   3.516   7.963  10.100
12042SOL     OW37566   3.456   7.562  10.790
12042SOL    HW137567   3.438   7.629  10.718
12042SOL    HW237568   3.453   7.608  10.879
12043SOL     OW37569   1.984   8.091   9.873
12043SOL    HW137570   1.939   8.003   9.890
12043SOL    HW237571   1.983   8.145   9.957
12044SOL     OW37572   2.671   7.452   9.812
12044SOL    HW137573   2.711   7.543   9.803
12044SOL    HW237574   2.571   7.460   9.818
12045SOL     OW37575   2.179   7.699  11.111
12045SOL    HW137576   2.250   7.770  11.117
12045SOL    HW237577   2.091   7.738  11.139
12046SOL     OW37578   3.143   7.793  10.254
12046SOL    HW137579   3.057   7.743  10.241
12046SOL    HW237580   3.205   7.739  10.310
12047SOL     OW37581   3.256   7.917  10.984
12047SOL    HW137582   3.236   7.960  11.072
12047SOL    HW237583   3.334   7.855  10.993
12048SOL     OW37584   2.835   8.338  10.882
12048SOL    HW137585   2.881   8.254  10.853
12048SOL    HW237586   2.779   8.372  10.807
12049SOL     OW37587   2.853   7.858  10.552
12049SOL    HW137588   2.776   7.892  10.606
12049SOL    HW237589   2.819   7.807  10.473
12050SOL     OW37590   2.727   7.796   9.505
12050SOL    HW137591   2.786   7.859   9.456
12050SOL    HW237592   2.746   7.702   9.476
12051SOL     OW37593   3.581   8.033  11.141
12051SOL    HW137594   3.555   8.122  11.105
12051SOL    HW237595   3.579   7.965  11.068
12052SOL     OW37596   2.412   7.644  10.195
12052SOL    HW137597   2.407   7.639  10.295
12052SOL    HW237598   2.414   7.740  10.166
12053SOL     OW37599   2.064   7.733  10.808
12053SOL    HW137600   1.984   7.793  10.795
12053SOL    HW237601   2.054   7.684  10.894
12054SOL     OW37602   3.262   7.555   9.736
12054SOL    HW137603   3.238   7.518   9.646
12054SOL    HW237604   3.361   7.571   9.740
12055SOL     OW37605   3.409   7.670  11.039
12055SOL    HW137606   3.404   7.707  11.131
12055SOL    HW237607   3.337   7.601  11.027
12056SOL     OW37608   2.476   7.570   9.427
12056SOL    HW137609   2.574   7.548   9.434
12056SOL    HW237610   2.445   7.553   9.334
12057SOL     OW37611   2.643   7.712  11.059
12057SOL    HW137612   2.710   7.651  11.102
12057SOL    HW237613   2.570   7.731  11.124
12058SOL     OW37614   3.213   8.038  10.743
12058SOL    HW137615   3.241   7.995  10.828
12058SOL    HW237616   3.238   8.134  10.744
12059SOL     OW37617   2.401   7.512   9.822
12059SOL    HW137618   2.320   7.513   9.880
12059SOL    HW237619   2.404   7.595   9.767
12060SOL     OW37620   2.159   7.483   9.481
12060SOL    HW137621   2.208   7.567   9.460
12060SOL    HW237622   2.221   7.418   9.526
12061SOL     OW37623   2.797   7.684   9.790
12061SOL    HW137624   2.749   7.725   9.712
12061SOL    HW237625   2.896   7.682   9.771
12062SOL     OW37626   1.940   8.004  10.696
12062SOL    HW137627   2.032   8.003  10.655
12062SOL    HW237628   1.934   8.078  10.763
12063SOL     OW37629   2.423   7.670  10.457
12063SOL    HW137630   2.461   7.586  10.494
12063SOL    HW237631   2.335   7.689  10.501
12064SOL     OW37632   2.879   7.487  10.063
12064SOL    HW137633   2.807   7.492   9.994
12064SOL    HW237634   2.855   7.418  10.132
12065SOL     OW37635   3.328   8.038  10.302
12065SOL    HW137636   3.298   7.943  10.309
12065SOL    HW237637   3.401   8.054  10.368
12066SOL     OW37638   2.389   7.704   9.638
12066SOL    HW137639   2.416   7.645   9.563
12066SOL    HW237640   2.389   7.799   9.607
12067SOL     OW37641   2.777   7.537  10.712
12067SOL    HW137642   2.802   7.517  10.617
12067SOL    HW237643   2.849   7.593  10.754
12068SOL     OW37644   3.136   7.834  10.572
12068SOL    HW137645   3.157   7.908  10.636
12068SOL    HW237646   3.047   7.851  10.529
12069SOL     OW37647   2.428   7.985  10.175
12069SOL    HW137648   2.440   8.051  10.101
12069SOL    HW237649   2.474   8.019  10.258
12070SOL     OW37650   2.875   7.553  11.080
12070SOL    HW137651   2.881   7.638  11.028
12070SOL    HW237652   2.907   7.477  11.023
12071SOL     OW37653   2.366   7.498  11.050
12071SOL    HW137654   2.324   7.441  10.980
12071SOL    HW237655   2.300   7.567  11.082
12072SOL     OW37656   2.169   7.661  10.541
12072SOL    HW137657   2.146   7.698  10.631
12072SOL    HW237658   2.139   7.566  10.535
12073SOL     OW37659   2.594   8.082  10.374
12073SOL    HW137660   2.653   8.056  10.298
12073SOL    HW237661   2.566   8.178  10.363
12074SOL     OW37662   2.169   7.511   9.928
12074SOL    HW137663   2.158   7.605   9.961
12074SOL    HW237664   2.164   7.448  10.005
12075SOL     OW37665   3.484   7.815   9.684
12075SOL    HW137666   3.486   7.739   9.748
12075SOL    HW237667   3.436   7.892   9.724
12076SOL     OW37668   3.402   7.722   9.435
12076SOL    HW137669   3.341   7.647   9.458
12076SOL    HW237670   3.424   7.774   9.518
12077SOL     OW37671   3.165   8.286   9.352
12077SOL    HW137672   3.199   8.193   9.367
12077SOL    HW237673   3.183   8.313   9.257
12078SOL     OW37674   2.201   7.957  10.316
12078SOL    HW137675   2.149   7.874  10.299
12078SOL    HW237676   2.278   7.962  10.252
12079SOL     OW37677   3.000   7.828  10.988
12079SOL    HW137678   2.955   7.891  11.052
12079SOL    HW237679   3.093   7.859  10.971
12080SOL     OW37680   3.022   7.655  10.787
12080SOL    HW137681   3.022   7.719  10.864
12080SOL    HW237682   3.050   7.703  10.704
12081SOL     OW37683   1.902   7.992  10.424
12081SOL    HW137684   1.987   7.959  10.383
12081SOL    HW237685   1.915   8.007  10.522
12082SOL     OW37686   2.051   7.968  11.032
12082SOL    HW137687   2.110   7.928  10.962
12082SOL    HW237688   1.993   8.039  10.991
12083SOL     OW37689   2.677   8.020   9.635
12083SOL    HW137690   2.684   7.931   9.589
12083SOL    HW237691   2.583   8.054   9.627
12084SOL     OW37692   3.519   8.052  10.516
12084SOL    HW137693   3.481   7.983  10.578
12084SOL    HW237694   3.601   8.016  10.472
12085SOL     OW37695   2.533   7.912  10.579
12085SOL    HW137696   2.499   7.823  10.549
12085SOL    HW237697   2.559   7.966  10.499
12086SOL     OW37698   3.588   7.583   9.833
12086SOL    HW137699   3.661   7.566   9.766
12086SOL    HW237700   3.557   7.496   9.871
12087SOL     OW37701   3.703   7.623  10.273
12087SOL    HW137702   3.742   7.538  10.237
12087SOL    HW237703   3.605   7.625  10.254
12088SOL     OW37704   2.125   7.774  10.030
12088SOL    HW137705   2.046   7.825   9.996
12088SOL    HW237706   2.116   7.759  10.128
12089SOL     OW37707   2.876   7.684  10.281
12089SOL    HW137708   2.868   7.648  10.188
12089SOL    HW237709   2.874   7.608  10.346
12090SOL     OW37710   3.571   7.833  10.691
12090SOL    HW137711   3.644   7.902  10.695
12090SOL    HW237712   3.599   7.758  10.632
12091SOL     OW37713   2.534   7.651  10.799
12091SOL    HW137714   2.624   7.635  10.759
12091SOL    HW237715   2.542   7.656  10.898
12092SOL     OW37716   1.937   7.793   9.343
12092SOL    HW137717   1.845   7.765   9.314
12092SOL    HW237718   1.968   7.870   9.287
12093SOL     OW37719   1.934   7.614   9.628
12093SOL    HW137720   1.917   7.697   9.574
12093SOL    HW237721   2.024   7.577   9.606
12094SOL     OW37722   2.578   8.013  11.018
12094SOL    HW137723   2.597   8.078  11.092
12094SOL    HW237724   2.638   7.933  11.027
12095SOL     OW37725   3.087   7.773   9.759
12095SOL    HW137726   3.152   7.699   9.748
12095SOL    HW237727   3.107   7.823   9.843
12096SOL     OW37728   2.456   8.193   9.962
12096SOL    HW137729   2.506   8.278   9.943
12096SOL    HW237730   2.368   8.195   9.914
12097SOL     OW37731   3.639   7.790  10.952
12097SOL    HW137732   3.622   7.821  10.858
12097SOL    HW237733   3.555   7.753  10.990
12098SOL     OW37734   3.686   7.640  10.537
12098SOL    HW137735   3.682   7.550  10.581
12098SOL    HW237736   3.689   7.629  10.438
12099SOL     OW37737   2.290   7.872   9.830
12099SOL    HW137738   2.320   7.800   9.768
12099SOL    HW237739   2.251   7.832   9.913
12100SOL     OW37740   3.286   7.662  10.422
12100SOL    HW137741   3.338   7.597  10.477
12100SOL    HW237742   3.237   7.725  10.483
12101SOL     OW37743   2.863   7.482  10.464
12101SOL    HW137744   2.800   7.410  10.433
12101SOL    HW237745   2.956   7.446  10.464
12102SOL     OW37746   3.214   7.500   9.478
12102SOL    HW137747   3.249   7.459   9.394
12102SOL    HW237748   3.124   7.462   9.498
12103SOL     OW37749   3.162   7.901  10.001
12103SOL    HW137750   3.103   7.981  10.005
12103SOL    HW237751   3.177   7.866  10.094
12104SOL     OW37752   3.455   7.669  10.192
12104SOL    HW137753   3.371   7.668  10.246
12104SOL    HW237754   3.457   7.752  10.136
12105SOL     OW37755   2.087   7.723  12.168
12105SOL    HW137756   2.122   7.706  12.260
12105SOL    HW237757   1.999   7.678  12.156
12106SOL     OW37758   1.881   7.816  11.819
12106SOL    HW137759   1.799   7.859  11.858
12106SOL    HW237760   1.853   7.743  11.756
12107SOL     OW37761   3.617   8.055  11.403
12107SOL    HW137762   3.605   8.042  11.304
12107SOL    HW237763   3.587   7.974  11.452
12108SOL     OW37764   3.465   7.895  11.909
12108SOL    HW137765   3.391   7.941  11.859
12108SOL    HW237766   3.516   7.963  11.962
12109SOL     OW37767   1.984   8.091  11.735
12109SOL    HW137768   1.939   8.003  11.752
12109SOL    HW237769   1.983   8.145  11.819
12110SOL     OW37770   2.671   7.452  11.674
12110SOL    HW137771   2.711   7.543  11.665
12110SOL    HW237772   2.571   7.460  11.680
12111SOL     OW37773   3.143   7.793  12.116
12111SOL    HW137774   3.057   7.743  12.103
12111SOL    HW237775   3.205   7.739  12.172
12112SOL     OW37776   2.853   7.858  12.414
12112SOL    HW137777   2.776   7.892  12.468
12112SOL    HW237778   2.819   7.807  12.335
12113SOL     OW37779   2.727   7.796  11.367
12113SOL    HW137780   2.786   7.859  11.318
12113SOL    HW237781   2.746   7.702  11.338
12114SOL     OW37782   2.412   7.644  12.057
12114SOL    HW137783   2.407   7.639  12.157
12114SOL    HW237784   2.414   7.740  12.028
12115SOL     OW37785   3.262   7.555  11.598
12115SOL    HW137786   3.238   7.518  11.508
12115SOL    HW237787   3.361   7.571  11.602
12116SOL     OW37788   2.476   7.570  11.289
12116SOL    HW137789   2.574   7.548  11.296
12116SOL    HW237790   2.445   7.553  11.196
12117SOL     OW37791   2.159   7.483  11.343
12117SOL    HW137792   2.208   7.567  11.322
12117SOL    HW237793   2.221   7.418  11.388
12118SOL     OW37794   2.797   7.684  11.652
12118SOL    HW137795   2.749   7.725  11.574
12118SOL    HW237796   2.896   7.682  11.633
12119SOL     OW37797   1.940   8.004  12.558
12119SOL    HW137798   2.032   8.003  12.517
12119SOL    HW237799   1.934   8.078  12.625
12120SOL     OW37800   2.423   7.670  12.319
12120SOL    HW137801   2.461   7.586  12.356
12120SOL    HW237802   2.335   7.689  12.363
12121SOL     OW37803   2.879   7.487  11.925
12121SOL    HW137804   2.807   7.492  11.856
12121SOL    HW237805   2.855   7.418  11.994
12122SOL     OW37806   3.328   8.038  12.164
12122SOL    HW137807   3.298   7.943  12.171
12122SOL    HW237808   3.401   8.054  12.230
12123SOL     OW37809   2.389   7.704  11.500
12123SOL    HW137810   2.416   7.645  11.425
12123SOL    HW237811   2.389   7.799  11.469
12124SOL     OW37812   3.136   7.834  12.434
12124SOL    HW137813   3.157   7.908  12.498
12124SOL    HW237814   3.047   7.851  12.391
12125SOL     OW37815   2.428   7.985  12.037
12125SOL    HW137816   2.440   8.051  11.963
12125SOL    HW237817   2.474   8.019  12.120
12126SOL     OW37818   2.169   7.661  12.403
12126SOL    HW137819   2.146   7.698  12.493
12126SOL    HW237820   2.139   7.566  12.397
12127SOL     OW37821   2.594   8.082  12.236
12127SOL    HW137822   2.653   8.056  12.160
12127SOL    HW237823   2.566   8.178  12.225
12128SOL     OW37824   2.169   7.511  11.790
12128SOL    HW137825   2.158   7.605  11.823
12128SOL    HW237826   2.164   7.448  11.867
12129SOL     OW37827   3.484   7.815  11.546
12129SOL    HW137828   3.486   7.739  11.610
12129SOL    HW237829   3.436   7.892  11.586
12130SOL     OW37830   3.402   7.722  11.297
12130SOL    HW137831   3.341   7.647  11.320
12130SOL    HW237832   3.424   7.774  11.380
12131SOL     OW37833   3.165   8.286  11.214
12131SOL    HW137834   3.199   8.193  11.229
12131SOL    HW237835   3.183   8.313  11.119
12132SOL     OW37836   2.201   7.957  12.178
12132SOL    HW137837   2.149   7.874  12.161
12132SOL    HW237838   2.278   7.962  12.114
12133SOL     OW37839   3.022   7.655  12.649
12133SOL    HW137840   3.022   7.719  12.726
12133SOL    HW237841   3.050   7.703  12.566
12134SOL     OW37842   1.902   7.992  12.286
12134SOL    HW137843   1.987   7.959  12.245
12134SOL    HW237844   1.915   8.007  12.384
12135SOL     OW37845   2.677   8.020  11.497
12135SOL    HW137846   2.684   7.931  11.451
12135SOL    HW237847   2.583   8.054  11.489
12136SOL     OW37848   3.519   8.052  12.378
12136SOL    HW137849   3.481   7.983  12.440
12136SOL    HW237850   3.601   8.016  12.334
12137SOL     OW37851   2.533   7.912  12.441
12137SOL    HW137852   2.499   7.823  12.411
12137SOL    HW237853   2.559   7.966  12.361
12138SOL     OW37854   3.588   7.583  11.695
12138SOL    HW137855   3.661   7.566  11.628
12138SOL    HW237856   3.557   7.496  11.733
12139SOL     OW37857   3.703   7.623  12.135
12139SOL    HW137858   3.742   7.538  12.099
12139SOL    HW237859   3.605   7.625  12.116
12140SOL     OW37860   2.125   7.774  11.892
12140SOL    HW137861   2.046   7.825  11.858
12140SOL    HW237862   2.116   7.759  11.990
12141SOL     OW37863   2.876   7.684  12.143
12141SOL    HW137864   2.868   7.648  12.050
12141SOL    HW237865   2.874   7.608  12.208
12142SOL     OW37866   3.571   7.833  12.553
12142SOL    HW137867   3.644   7.902  12.557
12142SOL    HW237868   3.599   7.758  12.494
12143SOL     OW37869   1.937   7.793  11.205
12143SOL    HW137870   1.845   7.765  11.176
12143SOL    HW237871   1.968   7.870  11.149
12144SOL     OW37872   1.934   7.614  11.490
12144SOL    HW137873   1.917   7.697  11.436
12144SOL    HW237874   2.024   7.577  11.468
12145SOL     OW37875   3.087   7.773  11.621
12145SOL    HW137876   3.152   7.699  11.610
12145SOL    HW237877   3.107   7.823  11.705
12146SOL     OW37878   2.456   8.193  11.824
12146SOL    HW137879   2.506   8.278  11.805
12146SOL    HW237880   2.368   8.195  11.776
12147SOL     OW37881   3.686   7.640  12.399
12147SOL    HW137882   3.682   7.550  12.443
12147SOL    HW237883   3.689   7.629  12.300
12148SOL     OW37884   2.290   7.872  11.692
12148SOL    HW137885   2.320   7.800  11.630
12148SOL    HW237886   2.251   7.832  11.775
12149SOL     OW37887   3.286   7.662  12.284
12149SOL    HW137888   3.338   7.597  12.339
12149SOL    HW237889   3.237   7.725  12.345
12150SOL     OW37890   2.863   7.482  12.326
12150SOL    HW137891   2.800   7.410  12.295
12150SOL    HW237892   2.956   7.446  12.326
12151SOL     OW37893   3.214   7.500  11.340
12151SOL    HW137894   3.249   7.459  11.256
12151SOL    HW237895   3.124   7.462  11.360
12152SOL     OW37896   3.162   7.901  11.863
12152SOL    HW137897   3.103   7.981  11.867
12152SOL    HW237898   3.177   7.866  11.956
12153SOL     OW37899   3.455   7.669  12.054
12153SOL    HW137900   3.371   7.668  12.108
12153SOL    HW237901   3.457   7.752  11.998
12154SOL     OW37902   3.954   0.628   0.113
12154SOL    HW137903   3.861   0.626   0.150
12154SOL    HW237904   3.955   0.589   0.021
12155SOL     OW37905   3.949   0.275   0.996
12155SOL    HW137906   3.984   0.258   1.088
12155SOL    HW237907   3.861   0.230   0.984
12156SOL     OW37908   3.743   0.368   0.647
12156SOL    HW137909   3.661   0.411   0.686
12156SOL    HW237910   3.715   0.295   0.584
12157SOL     OW37911   5.279   1.511   0.703
12157SOL    HW137912   5.222   1.495   0.784
12157SOL    HW237913   5.220   1.521   0.623
12158SOL     OW37914   4.859   0.703   0.717
12158SOL    HW137915   4.916   0.781   0.692
12158SOL    HW237916   4.799   0.729   0.793
12159SOL     OW37917   5.479   0.607   0.231
12159SOL    HW137918   5.467   0.594   0.132
12159SOL    HW237919   5.449   0.526   0.280
12160SOL     OW37920   4.492   1.144   1.023
12160SOL    HW137921   4.414   1.161   1.083
12160SOL    HW237922   4.526   1.231   0.987
12161SOL     OW37923   4.574   0.798   1.823
12161SOL    HW137924   4.570   0.874   1.888
12161SOL    HW237925   4.596   0.834   1.732
12162SOL     OW37926   4.409   1.012   0.665
12162SOL    HW137927   4.478   0.996   0.735
12162SOL    HW237928   4.336   1.069   0.703
12163SOL     OW37929   4.410   1.161   1.803
12163SOL    HW137930   4.470   1.240   1.817
12163SOL    HW237931   4.324   1.192   1.762
12164SOL     OW37932   4.059   1.435   1.061
12164SOL    HW137933   3.981   1.404   1.008
12164SOL    HW237934   4.117   1.493   1.004
12165SOL     OW37935   5.184   1.505   1.339
12165SOL    HW137936   5.208   1.599   1.365
12165SOL    HW237937   5.168   1.451   1.421
12166SOL     OW37938   4.162   0.392   1.499
12166SOL    HW137939   4.244   0.336   1.508
12166SOL    HW237940   4.081   0.334   1.503
12167SOL     OW37941   5.327   0.447   0.737
12167SOL    HW137942   5.253   0.493   0.687
12167SOL    HW237943   5.378   0.515   0.790
12168SOL     OW37944   3.955   1.713   0.483
12168SOL    HW137945   3.989   1.790   0.537
12168SOL    HW237946   3.999   1.713   0.393
12169SOL     OW37947   4.851   1.341   1.690
12169SOL    HW137948   4.898   1.341   1.778
12169SOL    HW237949   4.803   1.254   1.679
12170SOL     OW37950   3.954   1.434   0.538
12170SOL    HW137951   3.928   1.530   0.538
12170SOL    HW237952   3.883   1.380   0.583
12171SOL     OW37953   3.964   1.091   0.886
12171SOL    HW137954   3.978   1.007   0.938
12171SOL    HW237955   3.909   1.155   0.941
12172SOL     OW37956   4.344   1.786   1.439
12172SOL    HW137957   4.252   1.769   1.474
12172SOL    HW237958   4.372   1.878   1.465
12173SOL     OW37959   4.330   0.964   0.123
12173SOL    HW137960   4.337   1.048   0.069
12173SOL    HW237961   4.376   0.977   0.211
12174SOL     OW37962   5.318   0.114   1.480
12174SOL    HW137963   5.300   0.181   1.408
12174SOL    HW237964   5.315   0.160   1.569
12175SOL     OW37965   3.846   0.643   0.563
12175SOL    HW137966   3.801   0.555   0.580
12175SOL    HW237967   3.845   0.697   0.647
12176SOL     OW37968   5.566   1.767   0.359
12176SOL    HW137969   5.620   1.738   0.439
12176SOL    HW237970   5.596   1.857   0.330
12177SOL     OW37971   3.751   1.596   0.117
12177SOL    HW137972   3.732   1.500   0.138
12177SOL    HW237973   3.718   1.654   0.192
12178SOL     OW37974   5.413   0.922   0.612
12178SOL    HW137975   5.508   0.893   0.620
12178SOL    HW237976   5.405   0.987   0.537
12179SOL     OW37977   5.365   1.108   0.432
12179SOL    HW137978   5.451   1.110   0.380
12179SOL    HW237979   5.379   1.155   0.520
12180SOL     OW37980   3.837   0.737   1.597
12180SOL    HW137981   3.925   0.724   1.642
12180SOL    HW237982   3.824   0.834   1.575
12181SOL     OW37983   4.337   1.365   0.726
12181SOL    HW137984   4.288   1.278   0.735
12181SOL    HW237985   4.314   1.408   0.639
12182SOL     OW37986   5.017   1.228   1.423
12182SOL    HW137987   5.054   1.155   1.365
12182SOL    HW237988   5.069   1.233   1.508
12183SOL     OW37989   4.533   0.004   0.502
12183SOL    HW137990   4.573   0.095   0.493
12183SOL    HW237991   4.433   0.012   0.508
12184SOL     OW37992   3.921   0.976   1.264
12184SOL    HW137993   4.010   0.931   1.250
12184SOL    HW237994   3.848   0.911   1.245
12185SOL     OW37995   5.249   0.999   0.190
12185SOL    HW137996   5.186   0.923   0.203
12185SOL    HW237997   5.297   1.017   0.276
12186SOL     OW37998   4.911   1.792   1.616
12186SOL    HW137999   4.935   1.852   1.540
12186SOL    HW238000   4.918   1.697   1.586
12187SOL     OW38001   4.041   0.251   1.801
12187SOL    HW138002   4.112   0.322   1.807
12187SOL    HW238003   3.953   0.290   1.829
12188SOL     OW38004   5.190   1.417   0.953
12188SOL    HW138005   5.131   1.423   1.033
12188SOL    HW238006   5.175   1.329   0.907
12189SOL     OW38007   5.391   1.714   0.572
12189SOL    HW138008   5.350   1.691   0.484
12189SOL    HW238009   5.373   1.640   0.637
12190SOL     OW38010   4.322   0.729   0.270
12190SOL    HW138011   4.346   0.798   0.202
12190SOL    HW238012   4.244   0.762   0.324
12191SOL     OW38013   5.005   0.345   0.944
12191SOL    HW138014   4.919   0.295   0.931
12191SOL    HW238015   5.067   0.291   1.000
12192SOL     OW38016   5.300   1.662   0.307
12192SOL    HW138017   5.389   1.708   0.310
12192SOL    HW238018   5.279   1.638   0.212
12193SOL     OW38019   4.531   0.605   1.465
12193SOL    HW138020   4.484   0.602   1.554
12193SOL    HW238021   4.480   0.550   1.399
12194SOL     OW38022   5.118   0.469   1.674
12194SOL    HW138023   5.098   0.512   1.762
12194SOL    HW238024   5.196   0.407   1.683
12195SOL     OW38025   4.697   0.890   1.572
12195SOL    HW138026   4.743   0.806   1.543
12195SOL    HW238027   4.641   0.924   1.497
12196SOL     OW38028   4.715   0.410   1.242
12196SOL    HW138029   4.638   0.444   1.296
12196SOL    HW238030   4.681   0.359   1.163
12197SOL     OW38031   4.765   0.701   0.429
12197SOL    HW138032   4.791   0.697   0.525
12197SOL    HW238033   4.680   0.650   0.415
12198SOL     OW38034   3.800   0.811   0.789
12198SOL    HW138035   3.899   0.799   0.798
12198SOL    HW238036   3.776   0.906   0.810
12199SOL     OW38037   3.854   1.821   1.571
12199SOL    HW138038   3.844   1.806   1.670
12199SOL    HW238039   3.768   1.857   1.535
12200SOL     OW38040   4.589   0.348   0.195
12200SOL    HW138041   4.648   0.411   0.146
12200SOL    HW238042   4.608   0.254   0.166
12201SOL     OW38043   5.443   0.585   1.831
12201SOL    HW138044   5.417   0.674   1.795
12201SOL    HW238045   5.441   0.517   1.758
12202SOL     OW38046   5.086   1.144   0.545
12202SOL    HW138047   5.169   1.115   0.497
12202SOL    HW238048   5.037   1.211   0.489
12203SOL     OW38049   4.274   0.196   0.885
12203SOL    HW138050   4.269   0.191   0.985
12203SOL    HW238051   4.276   0.292   0.856
12204SOL     OW38052   4.732   1.456   0.477
12204SOL    HW138053   4.686   1.528   0.425
12204SOL    HW238054   4.728   1.476   0.575
12205SOL     OW38055   4.075   1.801   0.853
12205SOL    HW138056   4.125   1.715   0.859
12205SOL    HW238057   4.140   1.878   0.850
12206SOL     OW38058   5.519   1.066   0.873
12206SOL    HW138059   5.457   1.051   0.797
12206SOL    HW238060   5.467   1.077   0.958
12207SOL     OW38061   4.951   1.550   1.506
12207SOL    HW138062   4.957   1.473   1.570
12207SOL    HW238063   4.899   1.524   1.426
12208SOL     OW38064   4.045   0.943   0.242
12208SOL    HW138065   4.127   0.982   0.200
12208SOL    HW238066   4.018   0.861   0.193
12209SOL     OW38067   5.182   0.735   0.728
12209SOL    HW138068   5.177   0.670   0.803
12209SOL    HW238069   5.262   0.794   0.741
12210SOL     OW38070   4.185   1.266   1.727
12210SOL    HW138071   4.135   1.267   1.641
12210SOL    HW238072   4.122   1.248   1.803
12211SOL     OW38073   4.835   1.776   0.237
12211SOL    HW138074   4.775   1.714   0.287
12211SOL    HW238075   4.866   1.732   0.152
12212SOL     OW38076   3.926   0.285   1.498
12212SOL    HW138077   3.846   0.345   1.485
12212SOL    HW238078   3.916   0.236   1.584
12213SOL     OW38079   5.356   1.377   0.081
12213SOL    HW138080   5.324   1.471   0.071
12213SOL    HW238081   5.280   1.314   0.069
12214SOL     OW38082   4.188   1.743   0.323
12214SOL    HW138083   4.221   1.782   0.409
12214SOL    HW238084   4.264   1.736   0.258
12215SOL     OW38085   5.124   0.107   0.426
12215SOL    HW138086   5.100   0.070   0.336
12215SOL    HW238087   5.223   0.123   0.430
12216SOL     OW38088   3.973   1.785   1.241
12216SOL    HW138089   4.030   1.720   1.291
12216SOL    HW238090   3.957   1.752   1.148
12217SOL     OW38091   4.664   1.698   0.904
12217SOL    HW138092   4.744   1.641   0.925
12217SOL    HW238093   4.615   1.658   0.827
12218SOL     OW38094   4.106   0.700   0.480
12218SOL    HW138095   4.151   0.610   0.477
12218SOL    HW238096   4.012   0.689   0.513
12219SOL     OW38097   5.271   0.222   1.729
12219SOL    HW138098   5.266   0.259   1.821
12219SOL    HW238099   5.199   0.153   1.717
12220SOL     OW38100   4.338   0.122   0.117
12220SOL    HW138101   4.436   0.100   0.124
12220SOL    HW238102   4.307   0.105   0.024
12221SOL     OW38103   4.505   0.264   1.749
12221SOL    HW138104   4.572   0.203   1.792
12221SOL    HW238105   4.432   0.283   1.814
12222SOL     OW38106   4.612   1.514   1.195
12222SOL    HW138107   4.589   1.489   1.101
12222SOL    HW238108   4.673   1.445   1.234
12223SOL     OW38109   5.075   0.590   1.433
12223SOL    HW138110   5.103   0.547   1.518
12223SOL    HW238111   5.100   0.686   1.434
12224SOL     OW38112   4.527   1.402   0.924
12224SOL    HW138113   4.617   1.416   0.882
12224SOL    HW238114   4.456   1.404   0.853
12225SOL     OW38115   4.646   0.503   0.899
12225SOL    HW138116   4.621   0.494   0.803
12225SOL    HW238117   4.694   0.421   0.930
12226SOL     OW38118   4.263   0.064   0.512
12226SOL    HW138119   4.182   0.065   0.570
12226SOL    HW238120   4.266   0.147   0.457
12227SOL     OW38121   5.158   1.188   0.041
12227SOL    HW138122   5.190   1.112   0.098
12227SOL    HW238123   5.066   1.215   0.071
12228SOL     OW38124   4.021   0.035   0.171
12228SOL    HW138125   4.070   0.119   0.150
12228SOL    HW238126   4.083  -0.030   0.216
12229SOL     OW38127   4.659   0.236   0.480
12229SOL    HW138128   4.611   0.277   0.402
12229SOL    HW238129   4.758   0.234   0.461
12230SOL     OW38130   4.800   0.683   1.464
12230SOL    HW138131   4.720   0.622   1.467
12230SOL    HW238132   4.881   0.630   1.440
12231SOL     OW38133   4.951   1.570   0.793
12231SOL    HW138134   4.972   1.644   0.728
12231SOL    HW238135   5.019   1.570   0.866
12232SOL     OW38136   4.183   1.152   0.741
12232SOL    HW138137   4.112   1.125   0.806
12232SOL    HW238138   4.157   1.124   0.648
12233SOL     OW38139   4.995   1.797   0.591
12233SOL    HW138140   5.039   1.861   0.527
12233SOL    HW238141   4.945   1.849   0.661
12234SOL     OW38142   4.756   0.549   0.016
12234SOL    HW138143   4.715   0.631  -0.023
12234SOL    HW238144   4.820   0.575   0.089
12235SOL     OW38145   3.802   0.556   1.386
12235SOL    HW138146   3.894   0.555   1.345
12235SOL    HW238147   3.796   0.630   1.453
12236SOL     OW38148   4.285   0.222   1.147
12236SOL    HW138149   4.323   0.138   1.184
12236SOL    HW238150   4.197   0.241   1.191
12237SOL     OW38151   4.590   0.454   0.642
12237SOL    HW138152   4.558   0.526   0.580
12237SOL    HW238153   4.614   0.373   0.589
12238SOL     OW38154   4.741   0.039   0.753
12238SOL    HW138155   4.669   0.044   0.684
12238SOL    HW238156   4.717  -0.030   0.822
12239SOL     OW38157   5.153   1.173   0.867
12239SOL    HW138158   5.098   1.089   0.860
12239SOL    HW238159   5.179   1.202   0.775
12240SOL     OW38160   5.190   0.590   0.992
12240SOL    HW138161   5.160   0.495   0.999
12240SOL    HW238162   5.263   0.606   1.058
12241SOL     OW38163   5.581   0.833   0.377
12241SOL    HW138164   5.623   0.769   0.441
12241SOL    HW238165   5.543   0.782   0.299
12242SOL     OW38166   4.212   1.385   0.174
12242SOL    HW138167   4.125   1.370   0.221
12242SOL    HW238168   4.195   1.411   0.079
12243SOL     OW38169   5.388   1.280   0.657
12243SOL    HW138170   5.487   1.288   0.671
12243SOL    HW238171   5.343   1.364   0.688
12244SOL     OW38172   5.114   0.575   0.078
12244SOL    HW138173   5.060   0.554   0.159
12244SOL    HW238174   5.205   0.534   0.087
12245SOL     OW38175   4.251   0.256   0.328
12245SOL    HW138176   4.278   0.197   0.253
12245SOL    HW238177   4.251   0.351   0.297
12246SOL     OW38178   5.478   1.223   1.588
12246SOL    HW138179   5.569   1.184   1.575
12246SOL    HW238180   5.486   1.319   1.612
12247SOL     OW38181   4.788   1.347   1.340
12247SOL    HW138182   4.708   1.324   1.395
12247SOL    HW238183   4.871   1.321   1.389
12248SOL     OW38184   5.316   1.629   1.625
12248SOL    HW138185   5.343   1.663   1.535
12248SOL    HW238186   5.395   1.591   1.671
12249SOL     OW38187   4.835   1.195   1.100
12249SOL    HW138188   4.795   1.239   1.181
12249SOL    HW238189   4.794   1.232   1.017
12250SOL     OW38190   5.362   1.099   1.079
12250SOL    HW138191   5.367   1.180   1.138
12250SOL    HW238192   5.276   1.101   1.028
12251SOL     OW38193   4.639   0.089   1.402
12251SOL    HW138194   4.664   0.069   1.307
12251SOL    HW238195   4.711   0.145   1.444
12252SOL     OW38196   4.704   1.116   1.719
12252SOL    HW138197   4.605   1.122   1.729
12252SOL    HW238198   4.727   1.036   1.663
12253SOL     OW38199   4.429   1.050   0.368
12253SOL    HW138200   4.415   1.057   0.467
12253SOL    HW238201   4.513   0.999   0.350
12254SOL     OW38202   4.134   0.813   1.251
12254SOL    HW138203   4.220   0.825   1.301
12254SOL    HW238204   4.092   0.726   1.278
12255SOL     OW38205   4.998   0.386   1.262
12255SOL    HW138206   5.019   0.460   1.326
12255SOL    HW238207   4.909   0.403   1.219
12256SOL     OW38208   3.788   1.564   1.331
12256SOL    HW138209   3.742   1.646   1.297
12256SOL    HW238210   3.886   1.583   1.340
12257SOL     OW38211   4.091   1.100   0.501
12257SOL    HW138212   4.084   1.183   0.445
12257SOL    HW238213   4.095   1.020   0.441
12258SOL     OW38214   4.290   0.537   0.865
12258SOL    HW138215   4.302   0.603   0.791
12258SOL    HW238216   4.336   0.571   0.948
12259SOL     OW38217   4.976   1.348   0.388
12259SOL    HW138218   5.026   1.425   0.428
12259SOL    HW238219   4.881   1.350   0.420
12260SOL     OW38220   4.996   1.445   1.142
12260SOL    HW138221   5.043   1.458   1.229
12260SOL    HW238222   4.930   1.371   1.151
12261SOL     OW38223   5.306   0.639   0.472
12261SOL    HW138224   5.275   0.700   0.545
12261SOL    HW238225   5.356   0.691   0.403
12262SOL     OW38226   4.078   1.510   1.329
12262SOL    HW138227   4.057   1.466   1.242
12262SOL    HW238228   4.175   1.536   1.332
12263SOL     OW38229   4.126   0.751   1.598
12263SOL    HW138230   4.194   0.806   1.551
12263SOL    HW238231   4.166   0.663   1.625
12264SOL     OW38232   5.311   0.779   1.670
12264SOL    HW138233   5.219   0.817   1.665
12264SOL    HW238234   5.371   0.826   1.605
12265SOL     OW38235   4.737   0.105   1.770
12265SOL    HW138236   4.743   0.190   1.718
12265SOL    HW238237   4.769   0.029   1.713
12266SOL     OW38238   4.228   0.050   1.740
12266SOL    HW138239   4.186  -0.007   1.670
12266SOL    HW238240   4.162   0.119   1.772
12267SOL     OW38241   4.297   0.870   1.029
12267SOL    HW138242   4.341   0.959   1.020
12267SOL    HW238243   4.234   0.870   1.106
12268SOL     OW38244   5.084   0.862   1.045
12268SOL    HW138245   5.009   0.862   0.979
12268SOL    HW238246   5.121   0.770   1.054
12269SOL     OW38247   4.933   0.525   0.275
12269SOL    HW138248   4.946   0.441   0.329
12269SOL    HW238249   4.904   0.599   0.335
12270SOL     OW38250   4.031   0.213   1.231
12270SOL    HW138251   4.008   0.250   1.321
12270SOL    HW238252   4.001   0.118   1.225
12271SOL     OW38253   3.761   1.310   1.282
12271SOL    HW138254   3.814   1.261   1.350
12271SOL    HW238255   3.783   1.408   1.287
12272SOL     OW38256   4.456   0.634   1.064
12272SOL    HW138257   4.515   0.608   0.988
12272SOL    HW238258   4.428   0.730   1.053
12273SOL     OW38259   5.452   0.935   1.854
12273SOL    HW138260   5.406   0.928   1.765
12273SOL    HW238261   5.390   0.979   1.920
12274SOL     OW38262   4.031   0.063   0.618
12274SOL    HW138263   4.020   0.157   0.651
12274SOL    HW238264   4.026   0.000   0.695
12275SOL     OW38265   5.346   0.367   0.374
12275SOL    HW138266   5.348   0.291   0.438
12275SOL    HW238267   5.298   0.444   0.414
12276SOL     OW38268   4.747   0.766   0.966
12276SOL    HW138269   4.762   0.787   1.062
12276SOL    HW238270   4.717   0.671   0.957
12277SOL     OW38271   4.704   1.573   1.700
12277SOL    HW138272   4.684   1.617   1.612
12277SOL    HW238273   4.743   1.482   1.684
12278SOL     OW38274   5.583   1.518   1.605
12278SOL    HW138275   5.597   1.545   1.510
12278SOL    HW238276   5.666   1.540   1.658
12279SOL     OW38277   4.074   0.898   1.804
12279SOL    HW138278   4.150   0.942   1.852
12279SOL    HW238279   4.109   0.851   1.722
12280SOL     OW38280   5.264   0.274   0.125
12280SOL    HW138281   5.203   0.199   0.148
12280SOL    HW238282   5.286   0.326   0.208
12281SOL     OW38283   5.027   0.838   0.042
12281SOL    HW138284   5.061   0.745   0.057
12281SOL    HW238285   5.045   0.865  -0.053
12282SOL     OW38286   4.792   1.333   0.849
12282SOL    HW138287   4.799   1.249   0.794
12282SOL    HW238288   4.854   1.402   0.813
12283SOL     OW38289   4.043   0.810   0.949
12283SOL    HW138290   4.136   0.846   0.954
12283SOL    HW238291   4.037   0.725   1.001
12284SOL     OW38292   4.063   0.509   1.006
12284SOL    HW138293   4.011   0.426   0.989
12284SOL    HW238294   4.140   0.514   0.942
12285SOL     OW38295   4.862   0.380   1.678
12285SOL    HW138296   4.817   0.443   1.742
12285SOL    HW238297   4.955   0.411   1.661
12286SOL     OW38298   4.884   0.207   1.477
12286SOL    HW138299   4.884   0.271   1.554
12286SOL    HW238300   4.912   0.255   1.394
12287SOL     OW38301   3.812   1.801   0.927
12287SOL    HW138302   3.770   1.715   0.900
12287SOL    HW238303   3.906   1.804   0.893
12288SOL     OW38304   4.228   1.568   0.910
12288SOL    HW138305   4.294   1.642   0.919
12288SOL    HW238306   4.272   1.489   0.868
12289SOL     OW38307   4.726   0.796   1.238
12289SOL    HW138308   4.767   0.764   1.324
12289SOL    HW238309   4.630   0.769   1.235
12290SOL     OW38310   3.764   0.544   1.114
12290SOL    HW138311   3.849   0.511   1.073
12290SOL    HW238312   3.777   0.559   1.212
12291SOL     OW38313   3.913   0.520   1.722
12291SOL    HW138314   3.972   0.480   1.652
12291SOL    HW238315   3.855   0.591   1.681
12292SOL     OW38316   5.093   0.950   1.660
12292SOL    HW138317   5.132   1.039   1.680
12292SOL    HW238318   5.103   0.930   1.563
12293SOL     OW38319   4.539   0.572   0.325
12293SOL    HW138320   4.546   0.483   0.279
12293SOL    HW238321   4.445   0.606   0.317
12294SOL     OW38322   5.381   0.604   1.206
12294SOL    HW138323   5.343   0.535   1.268
12294SOL    HW238324   5.463   0.568   1.162
12295SOL     OW38325   3.976   1.564   1.744
12295SOL    HW138326   3.946   1.621   1.820
12295SOL    HW238327   3.969   1.467   1.770
12296SOL     OW38328   4.395   0.464   1.269
12296SOL    HW138329   4.361   0.375   1.239
12296SOL    HW238330   4.421   0.518   1.189
12297SOL     OW38331   4.654   1.678   1.465
12297SOL    HW138332   4.630   1.660   1.370
12297SOL    HW238333   4.684   1.772   1.475
12298SOL     OW38334   4.197   0.500   0.191
12298SOL    HW138335   4.258   0.580   0.195
12298SOL    HW238336   4.102   0.531   0.198
12299SOL     OW38337   3.883   1.137   1.466
12299SOL    HW138338   3.905   1.076   1.542
12299SOL    HW238339   3.893   1.088   1.380
12300SOL     OW38340   5.071   1.059   1.234
12300SOL    HW138341   5.095   0.996   1.160
12300SOL    HW238342   4.981   1.099   1.216
12301SOL     OW38343   5.026   0.855   0.309
12301SOL    HW138344   4.940   0.824   0.351
12301SOL    HW238345   5.022   0.841   0.210
12302SOL     OW38346   5.483   1.747   1.154
12302SOL    HW138347   5.544   1.777   1.081
12302SOL    HW238348   5.445   1.658   1.132
12303SOL     OW38349   4.976   1.731   1.128
12303SOL    HW138350   5.060   1.736   1.074
12303SOL    HW238351   4.953   1.635   1.146
12304SOL     OW38352   3.807   1.258   1.022
12304SOL    HW138353   3.802   1.257   1.122
12304SOL    HW238354   3.724   1.217   0.984
12305SOL     OW38355   4.412   1.662   1.716
12305SOL    HW138356   4.356   1.743   1.725
12305SOL    HW238357   4.464   1.666   1.630
12306SOL     OW38358   4.627   0.086   0.133
12306SOL    HW138359   4.678   0.087   0.047
12306SOL    HW238360   4.683   0.044   0.204
12307SOL     OW38361   5.450   0.135   0.523
12307SOL    HW138362   5.523   0.118   0.456
12307SOL    HW238363   5.419   0.048   0.561
12308SOL     OW38364   5.112   1.573   0.477
12308SOL    HW138365   5.179   1.585   0.403
12308SOL    HW238366   5.072   1.662   0.500
12309SOL     OW38367   3.854   1.794   1.851
12309SOL    HW138368   3.813   1.720   1.904
12309SOL    HW238369   3.918   1.845   1.909
12310SOL     OW38370   5.004   0.927   0.672
12310SOL    HW138371   5.064   0.846   0.674
12310SOL    HW238372   5.044   0.996   0.612
12311SOL     OW38373   4.554   1.273   1.422
12311SOL    HW138374   4.549   1.306   1.517
12311SOL    HW238375   4.468   1.292   1.376
12312SOL     OW38376   4.396   1.616   0.154
12312SOL    HW138377   4.405   1.626   0.055
12312SOL    HW238378   4.356   1.527   0.175
12313SOL     OW38379   5.374   1.720   1.394
12313SOL    HW138380   5.427   1.730   1.310
12313SOL    HW238381   5.347   1.810   1.428
12314SOL     OW38382   5.565   0.175   0.963
12314SOL    HW138383   5.604   0.090   0.927
12314SOL    HW238384   5.467   0.177   0.944
12315SOL     OW38385   3.987   0.326   0.720
12315SOL    HW138386   3.908   0.377   0.686
12315SOL    HW238387   3.978   0.311   0.818
12316SOL     OW38388   4.918   1.612   0.031
12316SOL    HW138389   4.924   1.519   0.068
12316SOL    HW238390   4.859   1.612  -0.049
12317SOL     OW38391   4.546   1.002   1.372
12317SOL    HW138392   4.586   1.001   1.280
12317SOL    HW238393   4.556   1.094   1.412
12318SOL     OW38394   4.640   0.910   0.291
12318SOL    HW138395   4.703   0.948   0.223
12318SOL    HW238396   4.680   0.827   0.330
12319SOL     OW38397   5.228   1.607   0.044
12319SOL    HW138398   5.136   1.644   0.051
12319SOL    HW238399   5.266   1.627  -0.046
12320SOL     OW38400   4.096   1.288   1.490
12320SOL    HW138401   4.083   1.381   1.456
12320SOL    HW238402   4.012   1.236   1.477
12321SOL     OW38403   5.338   1.292   1.289
12321SOL    HW138404   5.398   1.295   1.369
12321SOL    HW238405   5.263   1.356   1.302
12322SOL     OW38406   4.763   1.098   0.696
12322SOL    HW138407   4.693   1.051   0.750
12322SOL    HW238408   4.822   1.030   0.653
12323SOL     OW38409   4.738   0.236   0.971
12323SOL    HW138410   4.730   0.200   0.878
12323SOL    HW238411   4.736   0.160   1.036
12324SOL     OW38412   4.314   1.487   0.491
12324SOL    HW138413   4.356   1.429   0.421
12324SOL    HW238414   4.270   1.566   0.447
12325SOL     OW38415   5.433   0.385   1.381
12325SOL    HW138416   5.506   0.454   1.385
12325SOL    HW238417   5.461   0.310   1.322
12326SOL     OW38418   3.979   1.348   0.290
12326SOL    HW138419   3.883   1.349   0.263
12326SOL    HW238420   3.991   1.401   0.374
12327SOL     OW38421   3.829   1.013   1.726
12327SOL    HW138422   3.752   0.980   1.780
12327SOL    HW238423   3.914   0.983   1.768
12328SOL     OW38424   4.396   0.203   1.489
12328SOL    HW138425   4.486   0.187   1.449
12328SOL    HW238426   4.404   0.208   1.588
12329SOL     OW38427   5.164   0.856   1.398
12329SOL    HW138428   5.107   0.908   1.335
12329SOL    HW238429   5.260   0.868   1.374
12330SOL     OW38430   3.796   0.166   0.318
12330SOL    HW138431   3.779   0.249   0.264
12330SOL    HW238432   3.886   0.129   0.296
12331SOL     OW38433   4.907   1.335   0.119
12331SOL    HW138434   4.808   1.324   0.121
12331SOL    HW238435   4.941   1.350   0.212
12332SOL     OW38436   4.337   0.842   1.431
12332SOL    HW138437   4.393   0.923   1.414
12332SOL    HW238438   4.396   0.762   1.434
12333SOL     OW38439   5.217   1.767   0.959
12333SOL    HW138440   5.250   1.831   0.890
12333SOL    HW238441   5.283   1.761   1.034
12334SOL     OW38442   4.440   0.565   1.708
12334SOL    HW138443   4.459   0.630   1.782
12334SOL    HW238444   4.500   0.485   1.717
12335SOL     OW38445   5.174   1.220   1.633
12335SOL    HW138446   5.165   1.210   1.732
12335SOL    HW238447   5.270   1.213   1.607
12336SOL     OW38448   4.114   1.741   1.560
12336SOL    HW138449   4.023   1.782   1.558
12336SOL    HW238450   4.107   1.647   1.592
12337SOL     OW38451   5.398   0.883   1.254
12337SOL    HW138452   5.371   0.794   1.217
12337SOL    HW238453   5.399   0.951   1.181
12338SOL     OW38454   4.949   0.325   0.449
12338SOL    HW138455   5.014   0.251   0.438
12338SOL    HW238456   4.969   0.375   0.533
12339SOL     OW38457   4.318   0.745   0.652
12339SOL    HW138458   4.368   0.830   0.633
12339SOL    HW238459   4.230   0.747   0.604
12340SOL     OW38460   5.501   0.342   1.642
12340SOL    HW138461   5.484   0.373   1.548
12340SOL    HW238462   5.417   0.305   1.680
12341SOL     OW38463   5.454   0.934   1.517
12341SOL    HW138464   5.492   1.025   1.532
12341SOL    HW238465   5.446   0.917   1.418
12342SOL     OW38466   4.583   1.374   0.016
12342SOL    HW138467   4.537   1.389   0.104
12342SOL    HW238468   4.627   1.459  -0.014
12343SOL     OW38469   4.385   1.790   0.953
12343SOL    HW138470   4.339   1.878   0.940
12343SOL    HW238471   4.484   1.802   0.946
12344SOL     OW38472   4.583   0.956   0.861
12344SOL    HW138473   4.637   0.887   0.909
12344SOL    HW238474   4.551   1.025   0.927
12345SOL     OW38475   4.807   0.984   0.087
12345SOL    HW138476   4.784   1.037   0.005
12345SOL    HW238477   4.888   0.928   0.068
12346SOL     OW38478   5.585   1.569   0.851
12346SOL    HW138479   5.514   1.557   0.781
12346SOL    HW238480   5.586   1.490   0.911
12347SOL     OW38481   3.945   1.314   1.844
12347SOL    HW138482   3.880   1.241   1.823
12347SOL    HW238483   3.949   1.328   1.942
12348SOL     OW38484   3.803   1.240   0.653
12348SOL    HW138485   3.802   1.193   0.741
12348SOL    HW238486   3.885   1.212   0.602
12349SOL     OW38487   4.396   1.391   1.624
12349SOL    HW138488   4.318   1.341   1.662
12349SOL    HW238489   4.393   1.486   1.655
12350SOL     OW38490   5.548   0.192   1.227
12350SOL    HW138491   5.544   0.102   1.271
12350SOL    HW238492   5.551   0.181   1.128
12351SOL     OW38493   4.152   0.424   0.520
12351SOL    HW138494   4.182   0.352   0.458
12351SOL    HW238495   4.113   0.384   0.603
12352SOL     OW38496   5.429   1.487   1.104
12352SOL    HW138497   5.336   1.462   1.077
12352SOL    HW238498   5.455   1.437   1.186
12353SOL     OW38499   4.041   0.547   1.280
12353SOL    HW138500   4.079   0.488   1.352
12353SOL    HW238501   4.081   0.521   1.192
12354SOL     OW38502   4.536   1.586   0.687
12354SOL    HW138503   4.568   1.596   0.593
12354SOL    HW238504   4.457   1.524   0.689
12355SOL     OW38505   5.148   0.214   1.112
12355SOL    HW138506   5.200   0.149   1.167
12355SOL    HW238507   5.099   0.277   1.173
12356SOL     OW38508   4.725   0.034   1.154
12356SOL    HW138509   4.662  -0.038   1.123
12356SOL    HW238510   4.818  -0.002   1.154
12357SOL     OW38511   4.494   1.330   0.301
12357SOL    HW138512   4.448   1.243   0.318
12357SOL    HW238513   4.585   1.327   0.342
12358SOL     OW38514   4.342   1.567   1.284
12358SOL    HW138515   4.337   1.649   1.341
12358SOL    HW238516   4.431   1.564   1.239
12359SOL     OW38517   5.076   0.052   0.168
12359SOL    HW138518   5.111   0.011   0.084
12359SOL    HW238519   4.986   0.014   0.188
12360SOL     OW38520   5.024   0.453   0.691
12360SOL    HW138521   4.965   0.533   0.695
12360SOL    HW238522   5.039   0.418   0.784
12361SOL     OW38523   5.317   0.221   0.882
12361SOL    HW138524   5.233   0.220   0.936
12361SOL    HW238525   5.319   0.304   0.826
12362SOL     OW38526   3.763   1.077   0.300
12362SOL    HW138527   3.862   1.066   0.291
12362SOL    HW238528   3.723   0.991   0.332
12363SOL     OW38529   4.599   1.646   0.337
12363SOL    HW138530   4.522   1.611   0.283
12363SOL    HW238531   4.567   1.717   0.399
12364SOL     OW38532   3.954   0.628   1.975
12364SOL    HW138533   3.861   0.626   2.012
12364SOL    HW238534   3.955   0.589   1.883
12365SOL     OW38535   3.949   0.275   2.858
12365SOL    HW138536   3.984   0.258   2.950
12365SOL    HW238537   3.861   0.230   2.846
12366SOL     OW38538   3.743   0.368   2.509
12366SOL    HW138539   3.661   0.411   2.548
12366SOL    HW238540   3.715   0.295   2.446
12367SOL     OW38541   4.293   1.275   3.027
12367SOL    HW138542   4.200   1.268   2.990
12367SOL    HW238543   4.304   1.364   3.071
12368SOL     OW38544   5.279   1.511   2.565
12368SOL    HW138545   5.222   1.495   2.646
12368SOL    HW238546   5.220   1.521   2.485
12369SOL     OW38547   4.859   0.703   2.579
12369SOL    HW138548   4.916   0.781   2.554
12369SOL    HW238549   4.799   0.729   2.655
12370SOL     OW38550   5.479   0.607   2.093
12370SOL    HW138551   5.467   0.594   1.994
12370SOL    HW238552   5.449   0.526   2.142
12371SOL     OW38553   4.492   1.144   2.885
12371SOL    HW138554   4.414   1.161   2.945
12371SOL    HW238555   4.526   1.231   2.849
12372SOL     OW38556   4.574   0.798   3.685
12372SOL    HW138557   4.570   0.874   3.750
12372SOL    HW238558   4.596   0.834   3.594
12373SOL     OW38559   4.409   1.012   2.527
12373SOL    HW138560   4.478   0.996   2.597
12373SOL    HW238561   4.336   1.069   2.565
12374SOL     OW38562   4.410   1.161   3.665
12374SOL    HW138563   4.470   1.240   3.679
12374SOL    HW238564   4.324   1.192   3.624
12375SOL     OW38565   4.059   1.435   2.923
12375SOL    HW138566   3.981   1.404   2.870
12375SOL    HW238567   4.117   1.493   2.866
12376SOL     OW38568   5.184   1.505   3.201
12376SOL    HW138569   5.208   1.599   3.227
12376SOL    HW238570   5.168   1.451   3.283
12377SOL     OW38571   4.162   0.392   3.361
12377SOL    HW138572   4.244   0.336   3.370
12377SOL    HW238573   4.081   0.334   3.365
12378SOL     OW38574   5.327   0.447   2.599
12378SOL    HW138575   5.253   0.493   2.549
12378SOL    HW238576   5.378   0.515   2.652
12379SOL     OW38577   3.955   1.713   2.345
12379SOL    HW138578   3.989   1.790   2.399
12379SOL    HW238579   3.999   1.713   2.255
12380SOL     OW38580   4.851   1.341   3.552
12380SOL    HW138581   4.898   1.341   3.640
12380SOL    HW238582   4.803   1.254   3.541
12381SOL     OW38583   3.954   1.434   2.400
12381SOL    HW138584   3.928   1.530   2.400
12381SOL    HW238585   3.883   1.380   2.445
12382SOL     OW38586   3.964   1.091   2.748
12382SOL    HW138587   3.978   1.007   2.800
12382SOL    HW238588   3.909   1.155   2.803
12383SOL     OW38589   4.344   1.786   3.301
12383SOL    HW138590   4.252   1.769   3.336
12383SOL    HW238591   4.372   1.878   3.327
12384SOL     OW38592   4.330   0.964   1.985
12384SOL    HW138593   4.337   1.048   1.931
12384SOL    HW238594   4.376   0.977   2.073
12385SOL     OW38595   5.318   0.114   3.342
12385SOL    HW138596   5.300   0.181   3.270
12385SOL    HW238597   5.315   0.160   3.431
12386SOL     OW38598   3.846   0.643   2.425
12386SOL    HW138599   3.801   0.555   2.442
12386SOL    HW238600   3.845   0.697   2.509
12387SOL     OW38601   5.566   1.767   2.221
12387SOL    HW138602   5.620   1.738   2.301
12387SOL    HW238603   5.596   1.857   2.192
12388SOL     OW38604   3.751   1.596   1.979
12388SOL    HW138605   3.732   1.500   2.000
12388SOL    HW238606   3.718   1.654   2.054
12389SOL     OW38607   5.413   0.922   2.474
12389SOL    HW138608   5.508   0.893   2.482
12389SOL    HW238609   5.405   0.987   2.399
12390SOL     OW38610   5.365   1.108   2.294
12390SOL    HW138611   5.451   1.110   2.242
12390SOL    HW238612   5.379   1.155   2.382
12391SOL     OW38613   3.837   0.737   3.459
12391SOL    HW138614   3.925   0.724   3.504
12391SOL    HW238615   3.824   0.834   3.437
12392SOL     OW38616   4.337   1.365   2.588
12392SOL    HW138617   4.288   1.278   2.597
12392SOL    HW238618   4.314   1.408   2.501
12393SOL     OW38619   5.017   1.228   3.285
12393SOL    HW138620   5.054   1.155   3.227
12393SOL    HW238621   5.069   1.233   3.370
12394SOL     OW38622   4.533   0.004   2.364
12394SOL    HW138623   4.573   0.095   2.355
12394SOL    HW238624   4.433   0.012   2.370
12395SOL     OW38625   3.921   0.976   3.126
12395SOL    HW138626   4.010   0.931   3.112
12395SOL    HW238627   3.848   0.911   3.107
12396SOL     OW38628   5.249   0.999   2.052
12396SOL    HW138629   5.186   0.923   2.065
12396SOL    HW238630   5.297   1.017   2.138
12397SOL     OW38631   4.911   1.792   3.478
12397SOL    HW138632   4.935   1.852   3.402
12397SOL    HW238633   4.918   1.697   3.448
12398SOL     OW38634   4.041   0.251   3.663
12398SOL    HW138635   4.112   0.322   3.669
12398SOL    HW238636   3.953   0.290   3.691
12399SOL     OW38637   5.190   1.417   2.815
12399SOL    HW138638   5.131   1.423   2.895
12399SOL    HW238639   5.175   1.329   2.769
12400SOL     OW38640   5.391   1.714   2.434
12400SOL    HW138641   5.350   1.691   2.346
12400SOL    HW238642   5.373   1.640   2.499
12401SOL     OW38643   4.322   0.729   2.132
12401SOL    HW138644   4.346   0.798   2.064
12401SOL    HW238645   4.244   0.762   2.186
12402SOL     OW38646   5.005   0.345   2.806
12402SOL    HW138647   4.919   0.295   2.793
12402SOL    HW238648   5.067   0.291   2.862
12403SOL     OW38649   5.300   1.662   2.169
12403SOL    HW138650   5.389   1.708   2.172
12403SOL    HW238651   5.279   1.638   2.074
12404SOL     OW38652   4.531   0.605   3.327
12404SOL    HW138653   4.484   0.602   3.416
12404SOL    HW238654   4.480   0.550   3.261
12405SOL     OW38655   5.118   0.469   3.536
12405SOL    HW138656   5.098   0.512   3.624
12405SOL    HW238657   5.196   0.407   3.545
12406SOL     OW38658   4.697   0.890   3.434
12406SOL    HW138659   4.743   0.806   3.405
12406SOL    HW238660   4.641   0.924   3.359
12407SOL     OW38661   4.715   0.410   3.104
12407SOL    HW138662   4.638   0.444   3.158
12407SOL    HW238663   4.681   0.359   3.025
12408SOL     OW38664   4.765   0.701   2.291
12408SOL    HW138665   4.791   0.697   2.387
12408SOL    HW238666   4.680   0.650   2.277
12409SOL     OW38667   3.800   0.811   2.651
12409SOL    HW138668   3.899   0.799   2.660
12409SOL    HW238669   3.776   0.906   2.672
12410SOL     OW38670   3.854   1.821   3.433
12410SOL    HW138671   3.844   1.806   3.532
12410SOL    HW238672   3.768   1.857   3.397
12411SOL     OW38673   4.589   0.348   2.057
12411SOL    HW138674   4.648   0.411   2.008
12411SOL    HW238675   4.608   0.254   2.028
12412SOL     OW38676   5.443   0.585   3.693
12412SOL    HW138677   5.417   0.674   3.657
12412SOL    HW238678   5.441   0.517   3.620
12413SOL     OW38679   5.086   1.144   2.407
12413SOL    HW138680   5.169   1.115   2.359
12413SOL    HW238681   5.037   1.211   2.351
12414SOL     OW38682   4.274   0.196   2.747
12414SOL    HW138683   4.269   0.191   2.847
12414SOL    HW238684   4.276   0.292   2.718
12415SOL     OW38685   4.732   1.456   2.339
12415SOL    HW138686   4.686   1.528   2.287
12415SOL    HW238687   4.728   1.476   2.437
12416SOL     OW38688   4.075   1.801   2.715
12416SOL    HW138689   4.125   1.715   2.721
12416SOL    HW238690   4.140   1.878   2.712
12417SOL     OW38691   5.519   1.066   2.735
12417SOL    HW138692   5.457   1.051   2.659
12417SOL    HW238693   5.467   1.077   2.820
12418SOL     OW38694   4.951   1.550   3.368
12418SOL    HW138695   4.957   1.473   3.432
12418SOL    HW238696   4.899   1.524   3.288
12419SOL     OW38697   4.045   0.943   2.104
12419SOL    HW138698   4.127   0.982   2.062
12419SOL    HW238699   4.018   0.861   2.055
12420SOL     OW38700   5.182   0.735   2.590
12420SOL    HW138701   5.177   0.670   2.665
12420SOL    HW238702   5.262   0.794   2.603
12421SOL     OW38703   4.185   1.266   3.589
12421SOL    HW138704   4.135   1.267   3.503
12421SOL    HW238705   4.122   1.248   3.665
12422SOL     OW38706   4.835   1.776   2.099
12422SOL    HW138707   4.775   1.714   2.149
12422SOL    HW238708   4.866   1.732   2.014
12423SOL     OW38709   3.926   0.285   3.360
12423SOL    HW138710   3.846   0.345   3.347
12423SOL    HW238711   3.916   0.236   3.446
12424SOL     OW38712   5.356   1.377   1.943
12424SOL    HW138713   5.324   1.471   1.933
12424SOL    HW238714   5.280   1.314   1.931
12425SOL     OW38715   4.188   1.743   2.185
12425SOL    HW138716   4.221   1.782   2.271
12425SOL    HW238717   4.264   1.736   2.120
12426SOL     OW38718   5.124   0.107   2.288
12426SOL    HW138719   5.100   0.070   2.198
12426SOL    HW238720   5.223   0.123   2.292
12427SOL     OW38721   3.973   1.785   3.103
12427SOL    HW138722   4.030   1.720   3.153
12427SOL    HW238723   3.957   1.752   3.010
12428SOL     OW38724   4.664   1.698   2.766
12428SOL    HW138725   4.744   1.641   2.787
12428SOL    HW238726   4.615   1.658   2.689
12429SOL     OW38727   4.106   0.700   2.342
12429SOL    HW138728   4.151   0.610   2.339
12429SOL    HW238729   4.012   0.689   2.375
12430SOL     OW38730   5.271   0.222   3.591
12430SOL    HW138731   5.266   0.259   3.683
12430SOL    HW238732   5.199   0.153   3.579
12431SOL     OW38733   4.338   0.122   1.979
12431SOL    HW138734   4.436   0.100   1.986
12431SOL    HW238735   4.307   0.105   1.886
12432SOL     OW38736   4.505   0.264   3.611
12432SOL    HW138737   4.572   0.203   3.654
12432SOL    HW238738   4.432   0.283   3.676
12433SOL     OW38739   4.612   1.514   3.057
12433SOL    HW138740   4.589   1.489   2.963
12433SOL    HW238741   4.673   1.445   3.096
12434SOL     OW38742   5.075   0.590   3.295
12434SOL    HW138743   5.103   0.547   3.380
12434SOL    HW238744   5.100   0.686   3.296
12435SOL     OW38745   4.527   1.402   2.786
12435SOL    HW138746   4.617   1.416   2.744
12435SOL    HW238747   4.456   1.404   2.715
12436SOL     OW38748   4.646   0.503   2.761
12436SOL    HW138749   4.621   0.494   2.665
12436SOL    HW238750   4.694   0.421   2.792
12437SOL     OW38751   4.263   0.064   2.374
12437SOL    HW138752   4.182   0.065   2.432
12437SOL    HW238753   4.266   0.147   2.319
12438SOL     OW38754   5.158   1.188   1.903
12438SOL    HW138755   5.190   1.112   1.960
12438SOL    HW238756   5.066   1.215   1.933
12439SOL     OW38757   4.021   0.035   2.033
12439SOL    HW138758   4.070   0.119   2.012
12439SOL    HW238759   4.083  -0.030   2.078
12440SOL     OW38760   4.659   0.236   2.342
12440SOL    HW138761   4.611   0.277   2.264
12440SOL    HW238762   4.758   0.234   2.323
12441SOL     OW38763   4.800   0.683   3.326
12441SOL    HW138764   4.720   0.622   3.329
12441SOL    HW238765   4.881   0.630   3.302
12442SOL     OW38766   4.951   1.570   2.655
12442SOL    HW138767   4.972   1.644   2.590
12442SOL    HW238768   5.019   1.570   2.728
12443SOL     OW38769   4.183   1.152   2.603
12443SOL    HW138770   4.112   1.125   2.668
12443SOL    HW238771   4.157   1.124   2.510
12444SOL     OW38772   4.995   1.797   2.453
12444SOL    HW138773   5.039   1.861   2.389
12444SOL    HW238774   4.945   1.849   2.523
12445SOL     OW38775   4.756   0.549   1.878
12445SOL    HW138776   4.715   0.631   1.839
12445SOL    HW238777   4.820   0.575   1.951
12446SOL     OW38778   3.802   0.556   3.248
12446SOL    HW138779   3.894   0.555   3.207
12446SOL    HW238780   3.796   0.630   3.315
12447SOL     OW38781   4.285   0.222   3.009
12447SOL    HW138782   4.323   0.138   3.046
12447SOL    HW238783   4.197   0.241   3.053
12448SOL     OW38784   4.590   0.454   2.504
12448SOL    HW138785   4.558   0.526   2.442
12448SOL    HW238786   4.614   0.373   2.451
12449SOL     OW38787   4.741   0.039   2.615
12449SOL    HW138788   4.669   0.044   2.546
12449SOL    HW238789   4.717  -0.030   2.684
12450SOL     OW38790   5.153   1.173   2.729
12450SOL    HW138791   5.098   1.089   2.722
12450SOL    HW238792   5.179   1.202   2.637
12451SOL     OW38793   5.190   0.590   2.854
12451SOL    HW138794   5.160   0.495   2.861
12451SOL    HW238795   5.263   0.606   2.920
12452SOL     OW38796   5.581   0.833   2.239
12452SOL    HW138797   5.623   0.769   2.303
12452SOL    HW238798   5.543   0.782   2.161
12453SOL     OW38799   4.212   1.385   2.036
12453SOL    HW138800   4.125   1.370   2.083
12453SOL    HW238801   4.195   1.411   1.941
12454SOL     OW38802   5.388   1.280   2.519
12454SOL    HW138803   5.487   1.288   2.533
12454SOL    HW238804   5.343   1.364   2.550
12455SOL     OW38805   5.114   0.575   1.940
12455SOL    HW138806   5.060   0.554   2.021
12455SOL    HW238807   5.205   0.534   1.949
12456SOL     OW38808   4.251   0.256   2.190
12456SOL    HW138809   4.278   0.197   2.115
12456SOL    HW238810   4.251   0.351   2.159
12457SOL     OW38811   5.478   1.223   3.450
12457SOL    HW138812   5.569   1.184   3.437
12457SOL    HW238813   5.486   1.319   3.474
12458SOL     OW38814   4.788   1.347   3.202
12458SOL    HW138815   4.708   1.324   3.257
12458SOL    HW238816   4.871   1.321   3.251
12459SOL     OW38817   5.316   1.629   3.487
12459SOL    HW138818   5.343   1.663   3.397
12459SOL    HW238819   5.395   1.591   3.533
12460SOL     OW38820   4.835   1.195   2.962
12460SOL    HW138821   4.795   1.239   3.043
12460SOL    HW238822   4.794   1.232   2.879
12461SOL     OW38823   5.362   1.099   2.941
12461SOL    HW138824   5.367   1.180   3.000
12461SOL    HW238825   5.276   1.101   2.890
12462SOL     OW38826   4.639   0.089   3.264
12462SOL    HW138827   4.664   0.069   3.169
12462SOL    HW238828   4.711   0.145   3.306
12463SOL     OW38829   4.704   1.116   3.581
12463SOL    HW138830   4.605   1.122   3.591
12463SOL    HW238831   4.727   1.036   3.525
12464SOL     OW38832   4.429   1.050   2.230
12464SOL    HW138833   4.415   1.057   2.329
12464SOL    HW238834   4.513   0.999   2.212
12465SOL     OW38835   4.134   0.813   3.113
12465SOL    HW138836   4.220   0.825   3.163
12465SOL    HW238837   4.092   0.726   3.140
12466SOL     OW38838   4.998   0.386   3.124
12466SOL    HW138839   5.019   0.460   3.188
12466SOL    HW238840   4.909   0.403   3.081
12467SOL     OW38841   3.788   1.564   3.193
12467SOL    HW138842   3.742   1.646   3.159
12467SOL    HW238843   3.886   1.583   3.202
12468SOL     OW38844   4.091   1.100   2.363
12468SOL    HW138845   4.084   1.183   2.307
12468SOL    HW238846   4.095   1.020   2.303
12469SOL     OW38847   4.290   0.537   2.727
12469SOL    HW138848   4.302   0.603   2.653
12469SOL    HW238849   4.336   0.571   2.810
12470SOL     OW38850   4.976   1.348   2.250
12470SOL    HW138851   5.026   1.425   2.290
12470SOL    HW238852   4.881   1.350   2.282
12471SOL     OW38853   4.996   1.445   3.004
12471SOL    HW138854   5.043   1.458   3.091
12471SOL    HW238855   4.930   1.371   3.013
12472SOL     OW38856   5.306   0.639   2.334
12472SOL    HW138857   5.275   0.700   2.407
12472SOL    HW238858   5.356   0.691   2.265
12473SOL     OW38859   4.078   1.510   3.191
12473SOL    HW138860   4.057   1.466   3.104
12473SOL    HW238861   4.175   1.536   3.194
12474SOL     OW38862   4.126   0.751   3.460
12474SOL    HW138863   4.194   0.806   3.413
12474SOL    HW238864   4.166   0.663   3.487
12475SOL     OW38865   5.311   0.779   3.532
12475SOL    HW138866   5.219   0.817   3.527
12475SOL    HW238867   5.371   0.826   3.467
12476SOL     OW38868   4.737   0.105   3.632
12476SOL    HW138869   4.743   0.190   3.580
12476SOL    HW238870   4.769   0.029   3.575
12477SOL     OW38871   4.228   0.050   3.602
12477SOL    HW138872   4.186  -0.007   3.532
12477SOL    HW238873   4.162   0.119   3.634
12478SOL     OW38874   4.297   0.870   2.891
12478SOL    HW138875   4.341   0.959   2.882
12478SOL    HW238876   4.234   0.870   2.968
12479SOL     OW38877   5.084   0.862   2.907
12479SOL    HW138878   5.009   0.862   2.841
12479SOL    HW238879   5.121   0.770   2.916
12480SOL     OW38880   4.933   0.525   2.137
12480SOL    HW138881   4.946   0.441   2.191
12480SOL    HW238882   4.904   0.599   2.197
12481SOL     OW38883   4.031   0.213   3.093
12481SOL    HW138884   4.008   0.250   3.183
12481SOL    HW238885   4.001   0.118   3.087
12482SOL     OW38886   3.761   1.310   3.144
12482SOL    HW138887   3.814   1.261   3.212
12482SOL    HW238888   3.783   1.408   3.149
12483SOL     OW38889   4.456   0.634   2.926
12483SOL    HW138890   4.515   0.608   2.850
12483SOL    HW238891   4.428   0.730   2.915
12484SOL     OW38892   5.452   0.935   3.716
12484SOL    HW138893   5.406   0.928   3.627
12484SOL    HW238894   5.390   0.979   3.782
12485SOL     OW38895   4.031   0.063   2.480
12485SOL    HW138896   4.020   0.157   2.513
12485SOL    HW238897   4.026   0.000   2.557
12486SOL     OW38898   5.346   0.367   2.236
12486SOL    HW138899   5.348   0.291   2.300
12486SOL    HW238900   5.298   0.444   2.276
12487SOL     OW38901   4.747   0.766   2.828
12487SOL    HW138902   4.762   0.787   2.924
12487SOL    HW238903   4.717   0.671   2.819
12488SOL     OW38904   4.704   1.573   3.562
12488SOL    HW138905   4.684   1.617   3.474
12488SOL    HW238906   4.743   1.482   3.546
12489SOL     OW38907   5.583   1.518   3.467
12489SOL    HW138908   5.597   1.545   3.372
12489SOL    HW238909   5.666   1.540   3.520
12490SOL     OW38910   4.074   0.898   3.666
12490SOL    HW138911   4.150   0.942   3.714
12490SOL    HW238912   4.109   0.851   3.584
12491SOL     OW38913   5.264   0.274   1.987
12491SOL    HW138914   5.203   0.199   2.010
12491SOL    HW238915   5.286   0.326   2.070
12492SOL     OW38916   5.027   0.838   1.904
12492SOL    HW138917   5.061   0.745   1.919
12492SOL    HW238918   5.045   0.865   1.809
12493SOL     OW38919   4.792   1.333   2.711
12493SOL    HW138920   4.799   1.249   2.656
12493SOL    HW238921   4.854   1.402   2.675
12494SOL     OW38922   4.043   0.810   2.811
12494SOL    HW138923   4.136   0.846   2.816
12494SOL    HW238924   4.037   0.725   2.863
12495SOL     OW38925   4.063   0.509   2.868
12495SOL    HW138926   4.011   0.426   2.851
12495SOL    HW238927   4.140   0.514   2.804
12496SOL     OW38928   4.862   0.380   3.540
12496SOL    HW138929   4.817   0.443   3.604
12496SOL    HW238930   4.955   0.411   3.523
12497SOL     OW38931   4.884   0.207   3.339
12497SOL    HW138932   4.884   0.271   3.416
12497SOL    HW238933   4.912   0.255   3.256
12498SOL     OW38934   3.732   1.326   2.062
12498SOL    HW138935   3.639   1.347   2.031
12498SOL    HW238936   3.742   1.227   2.075
12499SOL     OW38937   3.812   1.801   2.789
12499SOL    HW138938   3.770   1.715   2.762
12499SOL    HW238939   3.906   1.804   2.755
12500SOL     OW38940   4.228   1.568   2.772
12500SOL    HW138941   4.294   1.642   2.781
12500SOL    HW238942   4.272   1.489   2.730
12501SOL     OW38943   4.726   0.796   3.100
12501SOL    HW138944   4.767   0.764   3.186
12501SOL    HW238945   4.630   0.769   3.097
12502SOL     OW38946   3.764   0.544   2.976
12502SOL    HW138947   3.849   0.511   2.935
12502SOL    HW238948   3.777   0.559   3.074
12503SOL     OW38949   3.913   0.520   3.584
12503SOL    HW138950   3.972   0.480   3.514
12503SOL    HW238951   3.855   0.591   3.543
12504SOL     OW38952   5.093   0.950   3.522
12504SOL    HW138953   5.132   1.039   3.542
12504SOL    HW238954   5.103   0.930   3.425
12505SOL     OW38955   4.539   0.572   2.187
12505SOL    HW138956   4.546   0.483   2.141
12505SOL    HW238957   4.445   0.606   2.179
12506SOL     OW38958   5.381   0.604   3.068
12506SOL    HW138959   5.343   0.535   3.130
12506SOL    HW238960   5.463   0.568   3.024
12507SOL     OW38961   3.976   1.564   3.606
12507SOL    HW138962   3.946   1.621   3.682
12507SOL    HW238963   3.969   1.467   3.632
12508SOL     OW38964   4.395   0.464   3.131
12508SOL    HW138965   4.361   0.375   3.101
12508SOL    HW238966   4.421   0.518   3.051
12509SOL     OW38967   4.654   1.678   3.327
12509SOL    HW138968   4.630   1.660   3.232
12509SOL    HW238969   4.684   1.772   3.337
12510SOL     OW38970   4.197   0.500   2.053
12510SOL    HW138971   4.258   0.580   2.057
12510SOL    HW238972   4.102   0.531   2.060
12511SOL     OW38973   3.883   1.137   3.328
12511SOL    HW138974   3.905   1.076   3.404
12511SOL    HW238975   3.893   1.088   3.242
12512SOL     OW38976   5.071   1.059   3.096
12512SOL    HW138977   5.095   0.996   3.022
12512SOL    HW238978   4.981   1.099   3.078
12513SOL     OW38979   5.026   0.855   2.171
12513SOL    HW138980   4.940   0.824   2.213
12513SOL    HW238981   5.022   0.841   2.072
12514SOL     OW38982   5.483   1.747   3.016
12514SOL    HW138983   5.544   1.777   2.943
12514SOL    HW238984   5.445   1.658   2.994
12515SOL     OW38985   4.976   1.731   2.990
12515SOL    HW138986   5.060   1.736   2.936
12515SOL    HW238987   4.953   1.635   3.008
12516SOL     OW38988   3.807   1.258   2.884
12516SOL    HW138989   3.802   1.257   2.984
12516SOL    HW238990   3.724   1.217   2.846
12517SOL     OW38991   4.412   1.662   3.578
12517SOL    HW138992   4.356   1.743   3.587
12517SOL    HW238993   4.464   1.666   3.492
12518SOL     OW38994   5.450   0.135   2.385
12518SOL    HW138995   5.523   0.118   2.318
12518SOL    HW238996   5.419   0.048   2.423
12519SOL     OW38997   5.112   1.573   2.339
12519SOL    HW138998   5.179   1.585   2.265
12519SOL    HW238999   5.072   1.662   2.362
12520SOL     OW39000   3.854   1.794   3.713
12520SOL    HW139001   3.813   1.720   3.766
12520SOL    HW239002   3.918   1.845   3.771
12521SOL     OW39003   5.004   0.927   2.534
12521SOL    HW139004   5.064   0.846   2.536
12521SOL    HW239005   5.044   0.996   2.474
12522SOL     OW39006   4.554   1.273   3.284
12522SOL    HW139007   4.549   1.306   3.379
12522SOL    HW239008   4.468   1.292   3.238
12523SOL     OW39009   4.396   1.616   2.016
12523SOL    HW139010   4.405   1.626   1.917
12523SOL    HW239011   4.356   1.527   2.037
12524SOL     OW39012   5.374   1.720   3.256
12524SOL    HW139013   5.427   1.730   3.172
12524SOL    HW239014   5.347   1.810   3.290
12525SOL     OW39015   5.565   0.175   2.825
12525SOL    HW139016   5.604   0.090   2.789
12525SOL    HW239017   5.467   0.177   2.806
12526SOL     OW39018   3.987   0.326   2.582
12526SOL    HW139019   3.908   0.377   2.548
12526SOL    HW239020   3.978   0.311   2.680
12527SOL     OW39021   4.918   1.612   1.893
12527SOL    HW139022   4.924   1.519   1.930
12527SOL    HW239023   4.859   1.612   1.813
12528SOL     OW39024   4.546   1.002   3.234
12528SOL    HW139025   4.586   1.001   3.142
12528SOL    HW239026   4.556   1.094   3.274
12529SOL     OW39027   4.640   0.910   2.153
12529SOL    HW139028   4.703   0.948   2.085
12529SOL    HW239029   4.680   0.827   2.192
12530SOL     OW39030   5.228   1.607   1.906
12530SOL    HW139031   5.136   1.644   1.913
12530SOL    HW239032   5.266   1.627   1.816
12531SOL     OW39033   4.096   1.288   3.352
12531SOL    HW139034   4.083   1.381   3.318
12531SOL    HW239035   4.012   1.236   3.339
12532SOL     OW39036   5.338   1.292   3.151
12532SOL    HW139037   5.398   1.295   3.231
12532SOL    HW239038   5.263   1.356   3.164
12533SOL     OW39039   4.763   1.098   2.558
12533SOL    HW139040   4.693   1.051   2.612
12533SOL    HW239041   4.822   1.030   2.515
12534SOL     OW39042   4.738   0.236   2.833
12534SOL    HW139043   4.730   0.200   2.740
12534SOL    HW239044   4.736   0.160   2.898
12535SOL     OW39045   4.314   1.487   2.353
12535SOL    HW139046   4.356   1.429   2.283
12535SOL    HW239047   4.270   1.566   2.309
12536SOL     OW39048   5.433   0.385   3.243
12536SOL    HW139049   5.506   0.454   3.247
12536SOL    HW239050   5.461   0.310   3.184
12537SOL     OW39051   3.979   1.348   2.152
12537SOL    HW139052   3.883   1.349   2.125
12537SOL    HW239053   3.991   1.401   2.236
12538SOL     OW39054   3.829   1.013   3.588
12538SOL    HW139055   3.752   0.980   3.642
12538SOL    HW239056   3.914   0.983   3.630
12539SOL     OW39057   4.396   0.203   3.351
12539SOL    HW139058   4.486   0.187   3.311
12539SOL    HW239059   4.404   0.208   3.450
12540SOL     OW39060   3.799   0.345   1.895
12540SOL    HW139061   3.707   0.317   1.866
12540SOL    HW239062   3.830   0.422   1.839
12541SOL     OW39063   5.164   0.856   3.260
12541SOL    HW139064   5.107   0.908   3.197
12541SOL    HW239065   5.260   0.868   3.236
12542SOL     OW39066   3.796   0.166   2.180
12542SOL    HW139067   3.779   0.249   2.126
12542SOL    HW239068   3.886   0.129   2.158
12543SOL     OW39069   4.907   1.335   1.981
12543SOL    HW139070   4.808   1.324   1.983
12543SOL    HW239071   4.941   1.350   2.074
12544SOL     OW39072   4.337   0.842   3.293
12544SOL    HW139073   4.393   0.923   3.276
12544SOL    HW239074   4.396   0.762   3.296
12545SOL     OW39075   5.217   1.767   2.821
12545SOL    HW139076   5.250   1.831   2.752
12545SOL    HW239077   5.283   1.761   2.896
12546SOL     OW39078   4.440   0.565   3.570
12546SOL    HW139079   4.459   0.630   3.644
12546SOL    HW239080   4.500   0.485   3.579
12547SOL     OW39081   5.174   1.220   3.495
12547SOL    HW139082   5.165   1.210   3.594
12547SOL    HW239083   5.270   1.213   3.469
12548SOL     OW39084   4.114   1.741   3.422
12548SOL    HW139085   4.023   1.782   3.420
12548SOL    HW239086   4.107   1.647   3.454
12549SOL     OW39087   5.398   0.883   3.116
12549SOL    HW139088   5.371   0.794   3.079
12549SOL    HW239089   5.399   0.951   3.043
12550SOL     OW39090   4.949   0.325   2.311
12550SOL    HW139091   5.014   0.251   2.300
12550SOL    HW239092   4.969   0.375   2.395
12551SOL     OW39093   4.318   0.745   2.514
12551SOL    HW139094   4.368   0.830   2.495
12551SOL    HW239095   4.230   0.747   2.466
12552SOL     OW39096   5.501   0.342   3.504
12552SOL    HW139097   5.484   0.373   3.410
12552SOL    HW239098   5.417   0.305   3.542
12553SOL     OW39099   5.454   0.934   3.379
12553SOL    HW139100   5.492   1.025   3.394
12553SOL    HW239101   5.446   0.917   3.280
12554SOL     OW39102   4.583   1.374   1.878
12554SOL    HW139103   4.537   1.389   1.966
12554SOL    HW239104   4.627   1.459   1.848
12555SOL     OW39105   4.385   1.790   2.815
12555SOL    HW139106   4.339   1.878   2.802
12555SOL    HW239107   4.484   1.802   2.808
12556SOL     OW39108   4.583   0.956   2.723
12556SOL    HW139109   4.637   0.887   2.771
12556SOL    HW239110   4.551   1.025   2.789
12557SOL     OW39111   4.807   0.984   1.949
12557SOL    HW139112   4.784   1.037   1.867
12557SOL    HW239113   4.888   0.928   1.930
12558SOL     OW39114   5.585   1.569   2.713
12558SOL    HW139115   5.514   1.557   2.643
12558SOL    HW239116   5.586   1.490   2.773
12559SOL     OW39117   3.945   1.314   3.706
12559SOL    HW139118   3.880   1.241   3.685
12559SOL    HW239119   3.949   1.328   3.804
12560SOL     OW39120   3.803   1.240   2.515
12560SOL    HW139121   3.802   1.193   2.603
12560SOL    HW239122   3.885   1.212   2.464
12561SOL     OW39123   4.396   1.391   3.486
12561SOL    HW139124   4.318   1.341   3.524
12561SOL    HW239125   4.393   1.486   3.517
12562SOL     OW39126   5.548   0.192   3.089
12562SOL    HW139127   5.544   0.102   3.133
12562SOL    HW239128   5.551   0.181   2.990
12563SOL     OW39129   4.152   0.424   2.382
12563SOL    HW139130   4.182   0.352   2.320
12563SOL    HW239131   4.113   0.384   2.465
12564SOL     OW39132   5.429   1.487   2.966
12564SOL    HW139133   5.336   1.462   2.939
12564SOL    HW239134   5.455   1.437   3.048
12565SOL     OW39135   4.041   0.547   3.142
12565SOL    HW139136   4.079   0.488   3.214
12565SOL    HW239137   4.081   0.521   3.054
12566SOL     OW39138   4.536   1.586   2.549
12566SOL    HW139139   4.568   1.596   2.455
12566SOL    HW239140   4.457   1.524   2.551
12567SOL     OW39141   5.148   0.214   2.974
12567SOL    HW139142   5.200   0.149   3.029
12567SOL    HW239143   5.099   0.277   3.035
12568SOL     OW39144   4.725   0.034   3.016
12568SOL    HW139145   4.662  -0.038   2.985
12568SOL    HW239146   4.818  -0.002   3.016
12569SOL     OW39147   4.494   1.330   2.163
12569SOL    HW139148   4.448   1.243   2.180
12569SOL    HW239149   4.585   1.327   2.204
12570SOL     OW39150   4.342   1.567   3.146
12570SOL    HW139151   4.337   1.649   3.203
12570SOL    HW239152   4.431   1.564   3.101
12571SOL     OW39153   5.076   0.052   2.030
12571SOL    HW139154   5.111   0.011   1.946
12571SOL    HW239155   4.986   0.014   2.050
12572SOL     OW39156   5.024   0.453   2.553
12572SOL    HW139157   4.965   0.533   2.557
12572SOL    HW239158   5.039   0.418   2.646
12573SOL     OW39159   5.317   0.221   2.744
12573SOL    HW139160   5.233   0.220   2.798
12573SOL    HW239161   5.319   0.304   2.688
12574SOL     OW39162   3.763   1.077   2.162
12574SOL    HW139163   3.862   1.066   2.153
12574SOL    HW239164   3.723   0.991   2.194
12575SOL     OW39165   4.599   1.646   2.199
12575SOL    HW139166   4.522   1.611   2.145
12575SOL    HW239167   4.567   1.717   2.261
12576SOL     OW39168   3.954   0.628   3.837
12576SOL    HW139169   3.861   0.626   3.874
12576SOL    HW239170   3.955   0.589   3.745
12577SOL     OW39171   3.949   0.275   4.720
12577SOL    HW139172   3.984   0.258   4.812
12577SOL    HW239173   3.861   0.230   4.708
12578SOL     OW39174   3.743   0.368   4.371
12578SOL    HW139175   3.661   0.411   4.410
12578SOL    HW239176   3.715   0.295   4.308
12579SOL     OW39177   4.293   1.275   4.889
12579SOL    HW139178   4.200   1.268   4.852
12579SOL    HW239179   4.304   1.364   4.933
12580SOL     OW39180   5.279   1.511   4.427
12580SOL    HW139181   5.222   1.495   4.508
12580SOL    HW239182   5.220   1.521   4.347
12581SOL     OW39183   4.859   0.703   4.441
12581SOL    HW139184   4.916   0.781   4.416
12581SOL    HW239185   4.799   0.729   4.517
12582SOL     OW39186   5.479   0.607   3.955
12582SOL    HW139187   5.467   0.594   3.856
12582SOL    HW239188   5.449   0.526   4.004
12583SOL     OW39189   4.492   1.144   4.747
12583SOL    HW139190   4.414   1.161   4.807
12583SOL    HW239191   4.526   1.231   4.711
12584SOL     OW39192   4.574   0.798   5.547
12584SOL    HW139193   4.570   0.874   5.612
12584SOL    HW239194   4.596   0.834   5.456
12585SOL     OW39195   4.409   1.012   4.389
12585SOL    HW139196   4.478   0.996   4.459
12585SOL    HW239197   4.336   1.069   4.427
12586SOL     OW39198   4.410   1.161   5.527
12586SOL    HW139199   4.470   1.240   5.541
12586SOL    HW239200   4.324   1.192   5.486
12587SOL     OW39201   4.059   1.435   4.785
12587SOL    HW139202   3.981   1.404   4.732
12587SOL    HW239203   4.117   1.493   4.728
12588SOL     OW39204   5.184   1.505   5.063
12588SOL    HW139205   5.208   1.599   5.089
12588SOL    HW239206   5.168   1.451   5.145
12589SOL     OW39207   4.162   0.392   5.223
12589SOL    HW139208   4.244   0.336   5.232
12589SOL    HW239209   4.081   0.334   5.227
12590SOL     OW39210   5.327   0.447   4.461
12590SOL    HW139211   5.253   0.493   4.411
12590SOL    HW239212   5.378   0.515   4.514
12591SOL     OW39213   3.955   1.713   4.207
12591SOL    HW139214   3.989   1.790   4.261
12591SOL    HW239215   3.999   1.713   4.117
12592SOL     OW39216   4.851   1.341   5.414
12592SOL    HW139217   4.898   1.341   5.502
12592SOL    HW239218   4.803   1.254   5.403
12593SOL     OW39219   3.954   1.434   4.262
12593SOL    HW139220   3.928   1.530   4.262
12593SOL    HW239221   3.883   1.380   4.307
12594SOL     OW39222   3.964   1.091   4.610
12594SOL    HW139223   3.978   1.007   4.662
12594SOL    HW239224   3.909   1.155   4.665
12595SOL     OW39225   4.344   1.786   5.163
12595SOL    HW139226   4.252   1.769   5.198
12595SOL    HW239227   4.372   1.878   5.189
12596SOL     OW39228   4.330   0.964   3.847
12596SOL    HW139229   4.337   1.048   3.793
12596SOL    HW239230   4.376   0.977   3.935
12597SOL     OW39231   5.318   0.114   5.204
12597SOL    HW139232   5.300   0.181   5.132
12597SOL    HW239233   5.315   0.160   5.293
12598SOL     OW39234   3.846   0.643   4.287
12598SOL    HW139235   3.801   0.555   4.304
12598SOL    HW239236   3.845   0.697   4.371
12599SOL     OW39237   5.566   1.767   4.083
12599SOL    HW139238   5.620   1.738   4.163
12599SOL    HW239239   5.596   1.857   4.054
12600SOL     OW39240   3.751   1.596   3.841
12600SOL    HW139241   3.732   1.500   3.862
12600SOL    HW239242   3.718   1.654   3.916
12601SOL     OW39243   5.413   0.922   4.336
12601SOL    HW139244   5.508   0.893   4.344
12601SOL    HW239245   5.405   0.987   4.261
12602SOL     OW39246   5.365   1.108   4.156
12602SOL    HW139247   5.451   1.110   4.104
12602SOL    HW239248   5.379   1.155   4.244
12603SOL     OW39249   3.837   0.737   5.321
12603SOL    HW139250   3.925   0.724   5.366
12603SOL    HW239251   3.824   0.834   5.299
12604SOL     OW39252   4.337   1.365   4.450
12604SOL    HW139253   4.288   1.278   4.459
12604SOL    HW239254   4.314   1.408   4.363
12605SOL     OW39255   5.017   1.228   5.147
12605SOL    HW139256   5.054   1.155   5.089
12605SOL    HW239257   5.069   1.233   5.232
12606SOL     OW39258   4.533   0.004   4.226
12606SOL    HW139259   4.573   0.095   4.217
12606SOL    HW239260   4.433   0.012   4.232
12607SOL     OW39261   3.921   0.976   4.988
12607SOL    HW139262   4.010   0.931   4.974
12607SOL    HW239263   3.848   0.911   4.969
12608SOL     OW39264   5.249   0.999   3.914
12608SOL    HW139265   5.186   0.923   3.927
12608SOL    HW239266   5.297   1.017   4.000
12609SOL     OW39267   4.911   1.792   5.340
12609SOL    HW139268   4.935   1.852   5.264
12609SOL    HW239269   4.918   1.697   5.310
12610SOL     OW39270   4.041   0.251   5.525
12610SOL    HW139271   4.112   0.322   5.531
12610SOL    HW239272   3.953   0.290   5.553
12611SOL     OW39273   5.190   1.417   4.677
12611SOL    HW139274   5.131   1.423   4.757
12611SOL    HW239275   5.175   1.329   4.631
12612SOL     OW39276   5.391   1.714   4.296
12612SOL    HW139277   5.350   1.691   4.208
12612SOL    HW239278   5.373   1.640   4.361
12613SOL     OW39279   4.322   0.729   3.994
12613SOL    HW139280   4.346   0.798   3.926
12613SOL    HW239281   4.244   0.762   4.048
12614SOL     OW39282   5.005   0.345   4.668
12614SOL    HW139283   4.919   0.295   4.655
12614SOL    HW239284   5.067   0.291   4.724
12615SOL     OW39285   5.300   1.662   4.031
12615SOL    HW139286   5.389   1.708   4.034
12615SOL    HW239287   5.279   1.638   3.936
12616SOL     OW39288   4.531   0.605   5.189
12616SOL    HW139289   4.484   0.602   5.278
12616SOL    HW239290   4.480   0.550   5.123
12617SOL     OW39291   5.118   0.469   5.398
12617SOL    HW139292   5.098   0.512   5.486
12617SOL    HW239293   5.196   0.407   5.407
12618SOL     OW39294   4.697   0.890   5.296
12618SOL    HW139295   4.743   0.806   5.267
12618SOL    HW239296   4.641   0.924   5.221
12619SOL     OW39297   4.715   0.410   4.966
12619SOL    HW139298   4.638   0.444   5.020
12619SOL    HW239299   4.681   0.359   4.887
12620SOL     OW39300   4.765   0.701   4.153
12620SOL    HW139301   4.791   0.697   4.249
12620SOL    HW239302   4.680   0.650   4.139
12621SOL     OW39303   3.800   0.811   4.513
12621SOL    HW139304   3.899   0.799   4.522
12621SOL    HW239305   3.776   0.906   4.534
12622SOL     OW39306   3.854   1.821   5.295
12622SOL    HW139307   3.844   1.806   5.394
12622SOL    HW239308   3.768   1.857   5.259
12623SOL     OW39309   4.589   0.348   3.919
12623SOL    HW139310   4.648   0.411   3.870
12623SOL    HW239311   4.608   0.254   3.890
12624SOL     OW39312   5.443   0.585   5.555
12624SOL    HW139313   5.417   0.674   5.519
12624SOL    HW239314   5.441   0.517   5.482
12625SOL     OW39315   5.086   1.144   4.269
12625SOL    HW139316   5.169   1.115   4.221
12625SOL    HW239317   5.037   1.211   4.213
12626SOL     OW39318   4.274   0.196   4.609
12626SOL    HW139319   4.269   0.191   4.709
12626SOL    HW239320   4.276   0.292   4.580
12627SOL     OW39321   4.732   1.456   4.201
12627SOL    HW139322   4.686   1.528   4.149
12627SOL    HW239323   4.728   1.476   4.299
12628SOL     OW39324   4.075   1.801   4.577
12628SOL    HW139325   4.125   1.715   4.583
12628SOL    HW239326   4.140   1.878   4.574
12629SOL     OW39327   5.519   1.066   4.597
12629SOL    HW139328   5.457   1.051   4.521
12629SOL    HW239329   5.467   1.077   4.682
12630SOL     OW39330   4.951   1.550   5.230
12630SOL    HW139331   4.957   1.473   5.294
12630SOL    HW239332   4.899   1.524   5.150
12631SOL     OW39333   4.045   0.943   3.966
12631SOL    HW139334   4.127   0.982   3.924
12631SOL    HW239335   4.018   0.861   3.917
12632SOL     OW39336   5.182   0.735   4.452
12632SOL    HW139337   5.177   0.670   4.527
12632SOL    HW239338   5.262   0.794   4.465
12633SOL     OW39339   4.185   1.266   5.451
12633SOL    HW139340   4.135   1.267   5.365
12633SOL    HW239341   4.122   1.248   5.527
12634SOL     OW39342   4.835   1.776   3.961
12634SOL    HW139343   4.775   1.714   4.011
12634SOL    HW239344   4.866   1.732   3.876
12635SOL     OW39345   3.926   0.285   5.222
12635SOL    HW139346   3.846   0.345   5.209
12635SOL    HW239347   3.916   0.236   5.308
12636SOL     OW39348   5.356   1.377   3.805
12636SOL    HW139349   5.324   1.471   3.795
12636SOL    HW239350   5.280   1.314   3.793
12637SOL     OW39351   4.188   1.743   4.047
12637SOL    HW139352   4.221   1.782   4.133
12637SOL    HW239353   4.264   1.736   3.982
12638SOL     OW39354   5.124   0.107   4.150
12638SOL    HW139355   5.100   0.070   4.060
12638SOL    HW239356   5.223   0.123   4.154
12639SOL     OW39357   3.973   1.785   4.965
12639SOL    HW139358   4.030   1.720   5.015
12639SOL    HW239359   3.957   1.752   4.872
12640SOL     OW39360   4.664   1.698   4.628
12640SOL    HW139361   4.744   1.641   4.649
12640SOL    HW239362   4.615   1.658   4.551
12641SOL     OW39363   4.106   0.700   4.204
12641SOL    HW139364   4.151   0.610   4.201
12641SOL    HW239365   4.012   0.689   4.237
12642SOL     OW39366   5.271   0.222   5.453
12642SOL    HW139367   5.266   0.259   5.545
12642SOL    HW239368   5.199   0.153   5.441
12643SOL     OW39369   4.338   0.122   3.841
12643SOL    HW139370   4.436   0.100   3.848
12643SOL    HW239371   4.307   0.105   3.748
12644SOL     OW39372   4.505   0.264   5.473
12644SOL    HW139373   4.572   0.203   5.516
12644SOL    HW239374   4.432   0.283   5.538
12645SOL     OW39375   4.612   1.514   4.919
12645SOL    HW139376   4.589   1.489   4.825
12645SOL    HW239377   4.673   1.445   4.958
12646SOL     OW39378   5.075   0.590   5.157
12646SOL    HW139379   5.103   0.547   5.242
12646SOL    HW239380   5.100   0.686   5.158
12647SOL     OW39381   4.527   1.402   4.648
12647SOL    HW139382   4.617   1.416   4.606
12647SOL    HW239383   4.456   1.404   4.577
12648SOL     OW39384   4.646   0.503   4.623
12648SOL    HW139385   4.621   0.494   4.527
12648SOL    HW239386   4.694   0.421   4.654
12649SOL     OW39387   4.263   0.064   4.236
12649SOL    HW139388   4.182   0.065   4.294
12649SOL    HW239389   4.266   0.147   4.181
12650SOL     OW39390   5.158   1.188   3.765
12650SOL    HW139391   5.190   1.112   3.822
12650SOL    HW239392   5.066   1.215   3.795
12651SOL     OW39393   4.021   0.035   3.895
12651SOL    HW139394   4.070   0.119   3.874
12651SOL    HW239395   4.083  -0.030   3.940
12652SOL     OW39396   4.659   0.236   4.204
12652SOL    HW139397   4.611   0.277   4.126
12652SOL    HW239398   4.758   0.234   4.185
12653SOL     OW39399   4.800   0.683   5.188
12653SOL    HW139400   4.720   0.622   5.191
12653SOL    HW239401   4.881   0.630   5.164
12654SOL     OW39402   4.951   1.570   4.517
12654SOL    HW139403   4.972   1.644   4.452
12654SOL    HW239404   5.019   1.570   4.590
12655SOL     OW39405   4.183   1.152   4.465
12655SOL    HW139406   4.112   1.125   4.530
12655SOL    HW239407   4.157   1.124   4.372
12656SOL     OW39408   4.995   1.797   4.315
12656SOL    HW139409   5.039   1.861   4.251
12656SOL    HW239410   4.945   1.849   4.385
12657SOL     OW39411   4.756   0.549   3.740
12657SOL    HW139412   4.715   0.631   3.701
12657SOL    HW239413   4.820   0.575   3.813
12658SOL     OW39414   3.802   0.556   5.110
12658SOL    HW139415   3.894   0.555   5.069
12658SOL    HW239416   3.796   0.630   5.177
12659SOL     OW39417   4.285   0.222   4.871
12659SOL    HW139418   4.323   0.138   4.908
12659SOL    HW239419   4.197   0.241   4.915
12660SOL     OW39420   4.590   0.454   4.366
12660SOL    HW139421   4.558   0.526   4.304
12660SOL    HW239422   4.614   0.373   4.313
12661SOL     OW39423   4.741   0.039   4.477
12661SOL    HW139424   4.669   0.044   4.408
12661SOL    HW239425   4.717  -0.030   4.546
12662SOL     OW39426   5.153   1.173   4.591
12662SOL    HW139427   5.098   1.089   4.584
12662SOL    HW239428   5.179   1.202   4.499
12663SOL     OW39429   5.190   0.590   4.716
12663SOL    HW139430   5.160   0.495   4.723
12663SOL    HW239431   5.263   0.606   4.782
12664SOL     OW39432   5.581   0.833   4.101
12664SOL    HW139433   5.623   0.769   4.165
12664SOL    HW239434   5.543   0.782   4.023
12665SOL     OW39435   4.212   1.385   3.898
12665SOL    HW139436   4.125   1.370   3.945
12665SOL    HW239437   4.195   1.411   3.803
12666SOL     OW39438   5.388   1.280   4.381
12666SOL    HW139439   5.487   1.288   4.395
12666SOL    HW239440   5.343   1.364   4.412
12667SOL     OW39441   5.114   0.575   3.802
12667SOL    HW139442   5.060   0.554   3.883
12667SOL    HW239443   5.205   0.534   3.811
12668SOL     OW39444   4.251   0.256   4.052
12668SOL    HW139445   4.278   0.197   3.977
12668SOL    HW239446   4.251   0.351   4.021
12669SOL     OW39447   5.478   1.223   5.312
12669SOL    HW139448   5.569   1.184   5.299
12669SOL    HW239449   5.486   1.319   5.336
12670SOL     OW39450   4.788   1.347   5.064
12670SOL    HW139451   4.708   1.324   5.119
12670SOL    HW239452   4.871   1.321   5.113
12671SOL     OW39453   5.316   1.629   5.349
12671SOL    HW139454   5.343   1.663   5.259
12671SOL    HW239455   5.395   1.591   5.395
12672SOL     OW39456   4.835   1.195   4.824
12672SOL    HW139457   4.795   1.239   4.905
12672SOL    HW239458   4.794   1.232   4.741
12673SOL     OW39459   5.362   1.099   4.803
12673SOL    HW139460   5.367   1.180   4.862
12673SOL    HW239461   5.276   1.101   4.752
12674SOL     OW39462   4.639   0.089   5.126
12674SOL    HW139463   4.664   0.069   5.031
12674SOL    HW239464   4.711   0.145   5.168
12675SOL     OW39465   4.704   1.116   5.443
12675SOL    HW139466   4.605   1.122   5.453
12675SOL    HW239467   4.727   1.036   5.387
12676SOL     OW39468   4.429   1.050   4.092
12676SOL    HW139469   4.415   1.057   4.191
12676SOL    HW239470   4.513   0.999   4.074
12677SOL     OW39471   4.134   0.813   4.975
12677SOL    HW139472   4.220   0.825   5.025
12677SOL    HW239473   4.092   0.726   5.002
12678SOL     OW39474   4.998   0.386   4.986
12678SOL    HW139475   5.019   0.460   5.050
12678SOL    HW239476   4.909   0.403   4.943
12679SOL     OW39477   3.788   1.564   5.055
12679SOL    HW139478   3.742   1.646   5.021
12679SOL    HW239479   3.886   1.583   5.064
12680SOL     OW39480   4.091   1.100   4.225
12680SOL    HW139481   4.084   1.183   4.169
12680SOL    HW239482   4.095   1.020   4.165
12681SOL     OW39483   4.290   0.537   4.589
12681SOL    HW139484   4.302   0.603   4.515
12681SOL    HW239485   4.336   0.571   4.672
12682SOL     OW39486   4.976   1.348   4.112
12682SOL    HW139487   5.026   1.425   4.152
12682SOL    HW239488   4.881   1.350   4.144
12683SOL     OW39489   4.996   1.445   4.866
12683SOL    HW139490   5.043   1.458   4.953
12683SOL    HW239491   4.930   1.371   4.875
12684SOL     OW39492   5.306   0.639   4.196
12684SOL    HW139493   5.275   0.700   4.269
12684SOL    HW239494   5.356   0.691   4.127
12685SOL     OW39495   4.078   1.510   5.053
12685SOL    HW139496   4.057   1.466   4.966
12685SOL    HW239497   4.175   1.536   5.056
12686SOL     OW39498   4.126   0.751   5.322
12686SOL    HW139499   4.194   0.806   5.275
12686SOL    HW239500   4.166   0.663   5.349
12687SOL     OW39501   5.311   0.779   5.394
12687SOL    HW139502   5.219   0.817   5.389
12687SOL    HW239503   5.371   0.826   5.329
12688SOL     OW39504   4.737   0.105   5.494
12688SOL    HW139505   4.743   0.190   5.442
12688SOL    HW239506   4.769   0.029   5.437
12689SOL     OW39507   4.228   0.050   5.464
12689SOL    HW139508   4.186  -0.007   5.394
12689SOL    HW239509   4.162   0.119   5.496
12690SOL     OW39510   4.297   0.870   4.753
12690SOL    HW139511   4.341   0.959   4.744
12690SOL    HW239512   4.234   0.870   4.830
12691SOL     OW39513   5.084   0.862   4.769
12691SOL    HW139514   5.009   0.862   4.703
12691SOL    HW239515   5.121   0.770   4.778
12692SOL     OW39516   4.933   0.525   3.999
12692SOL    HW139517   4.946   0.441   4.053
12692SOL    HW239518   4.904   0.599   4.059
12693SOL     OW39519   4.031   0.213   4.955
12693SOL    HW139520   4.008   0.250   5.045
12693SOL    HW239521   4.001   0.118   4.949
12694SOL     OW39522   3.761   1.310   5.006
12694SOL    HW139523   3.814   1.261   5.074
12694SOL    HW239524   3.783   1.408   5.011
12695SOL     OW39525   4.456   0.634   4.788
12695SOL    HW139526   4.515   0.608   4.712
12695SOL    HW239527   4.428   0.730   4.777
12696SOL     OW39528   5.452   0.935   5.578
12696SOL    HW139529   5.406   0.928   5.489
12696SOL    HW239530   5.390   0.979   5.644
12697SOL     OW39531   4.031   0.063   4.342
12697SOL    HW139532   4.020   0.157   4.375
12697SOL    HW239533   4.026   0.000   4.419
12698SOL     OW39534   5.346   0.367   4.098
12698SOL    HW139535   5.348   0.291   4.162
12698SOL    HW239536   5.298   0.444   4.138
12699SOL     OW39537   4.747   0.766   4.690
12699SOL    HW139538   4.762   0.787   4.786
12699SOL    HW239539   4.717   0.671   4.681
12700SOL     OW39540   4.704   1.573   5.424
12700SOL    HW139541   4.684   1.617   5.336
12700SOL    HW239542   4.743   1.482   5.408
12701SOL     OW39543   5.583   1.518   5.329
12701SOL    HW139544   5.597   1.545   5.234
12701SOL    HW239545   5.666   1.540   5.382
12702SOL     OW39546   4.074   0.898   5.528
12702SOL    HW139547   4.150   0.942   5.576
12702SOL    HW239548   4.109   0.851   5.446
12703SOL     OW39549   5.264   0.274   3.849
12703SOL    HW139550   5.203   0.199   3.872
12703SOL    HW239551   5.286   0.326   3.932
12704SOL     OW39552   5.027   0.838   3.766
12704SOL    HW139553   5.061   0.745   3.781
12704SOL    HW239554   5.045   0.865   3.671
12705SOL     OW39555   4.792   1.333   4.573
12705SOL    HW139556   4.799   1.249   4.518
12705SOL    HW239557   4.854   1.402   4.537
12706SOL     OW39558   4.043   0.810   4.673
12706SOL    HW139559   4.136   0.846   4.678
12706SOL    HW239560   4.037   0.725   4.725
12707SOL     OW39561   4.063   0.509   4.730
12707SOL    HW139562   4.011   0.426   4.713
12707SOL    HW239563   4.140   0.514   4.666
12708SOL     OW39564   4.862   0.380   5.402
12708SOL    HW139565   4.817   0.443   5.466
12708SOL    HW239566   4.955   0.411   5.385
12709SOL     OW39567   4.884   0.207   5.201
12709SOL    HW139568   4.884   0.271   5.278
12709SOL    HW239569   4.912   0.255   5.118
12710SOL     OW39570   3.732   1.326   3.924
12710SOL    HW139571   3.639   1.347   3.893
12710SOL    HW239572   3.742   1.227   3.937
12711SOL     OW39573   3.812   1.801   4.651
12711SOL    HW139574   3.770   1.715   4.624
12711SOL    HW239575   3.906   1.804   4.617
12712SOL     OW39576   4.228   1.568   4.634
12712SOL    HW139577   4.294   1.642   4.643
12712SOL    HW239578   4.272   1.489   4.592
12713SOL     OW39579   4.726   0.796   4.962
12713SOL    HW139580   4.767   0.764   5.048
12713SOL    HW239581   4.630   0.769   4.959
12714SOL     OW39582   3.764   0.544   4.838
12714SOL    HW139583   3.849   0.511   4.797
12714SOL    HW239584   3.777   0.559   4.936
12715SOL     OW39585   3.913   0.520   5.446
12715SOL    HW139586   3.972   0.480   5.376
12715SOL    HW239587   3.855   0.591   5.405
12716SOL     OW39588   5.093   0.950   5.384
12716SOL    HW139589   5.132   1.039   5.404
12716SOL    HW239590   5.103   0.930   5.287
12717SOL     OW39591   4.539   0.572   4.049
12717SOL    HW139592   4.546   0.483   4.003
12717SOL    HW239593   4.445   0.606   4.041
12718SOL     OW39594   5.381   0.604   4.930
12718SOL    HW139595   5.343   0.535   4.992
12718SOL    HW239596   5.463   0.568   4.886
12719SOL     OW39597   3.976   1.564   5.468
12719SOL    HW139598   3.946   1.621   5.544
12719SOL    HW239599   3.969   1.467   5.494
12720SOL     OW39600   4.395   0.464   4.993
12720SOL    HW139601   4.361   0.375   4.963
12720SOL    HW239602   4.421   0.518   4.913
12721SOL     OW39603   4.654   1.678   5.189
12721SOL    HW139604   4.630   1.660   5.094
12721SOL    HW239605   4.684   1.772   5.199
12722SOL     OW39606   4.197   0.500   3.915
12722SOL    HW139607   4.258   0.580   3.919
12722SOL    HW239608   4.102   0.531   3.922
12723SOL     OW39609   3.883   1.137   5.190
12723SOL    HW139610   3.905   1.076   5.266
12723SOL    HW239611   3.893   1.088   5.104
12724SOL     OW39612   5.071   1.059   4.958
12724SOL    HW139613   5.095   0.996   4.884
12724SOL    HW239614   4.981   1.099   4.940
12725SOL     OW39615   5.026   0.855   4.033
12725SOL    HW139616   4.940   0.824   4.075
12725SOL    HW239617   5.022   0.841   3.934
12726SOL     OW39618   5.483   1.747   4.878
12726SOL    HW139619   5.544   1.777   4.805
12726SOL    HW239620   5.445   1.658   4.856
12727SOL     OW39621   4.976   1.731   4.852
12727SOL    HW139622   5.060   1.736   4.798
12727SOL    HW239623   4.953   1.635   4.870
12728SOL     OW39624   3.807   1.258   4.746
12728SOL    HW139625   3.802   1.257   4.846
12728SOL    HW239626   3.724   1.217   4.708
12729SOL     OW39627   4.412   1.662   5.440
12729SOL    HW139628   4.356   1.743   5.449
12729SOL    HW239629   4.464   1.666   5.354
12730SOL     OW39630   5.450   0.135   4.247
12730SOL    HW139631   5.523   0.118   4.180
12730SOL    HW239632   5.419   0.048   4.285
12731SOL     OW39633   5.112   1.573   4.201
12731SOL    HW139634   5.179   1.585   4.127
12731SOL    HW239635   5.072   1.662   4.224
12732SOL     OW39636   3.854   1.794   5.575
12732SOL    HW139637   3.813   1.720   5.628
12732SOL    HW239638   3.918   1.845   5.633
12733SOL     OW39639   5.004   0.927   4.396
12733SOL    HW139640   5.064   0.846   4.398
12733SOL    HW239641   5.044   0.996   4.336
12734SOL     OW39642   4.554   1.273   5.146
12734SOL    HW139643   4.549   1.306   5.241
12734SOL    HW239644   4.468   1.292   5.100
12735SOL     OW39645   4.396   1.616   3.878
12735SOL    HW139646   4.405   1.626   3.779
12735SOL    HW239647   4.356   1.527   3.899
12736SOL     OW39648   5.374   1.720   5.118
12736SOL    HW139649   5.427   1.730   5.034
12736SOL    HW239650   5.347   1.810   5.152
12737SOL     OW39651   5.565   0.175   4.687
12737SOL    HW139652   5.604   0.090   4.651
12737SOL    HW239653   5.467   0.177   4.668
12738SOL     OW39654   3.987   0.326   4.444
12738SOL    HW139655   3.908   0.377   4.410
12738SOL    HW239656   3.978   0.311   4.542
12739SOL     OW39657   4.918   1.612   3.755
12739SOL    HW139658   4.924   1.519   3.792
12739SOL    HW239659   4.859   1.612   3.675
12740SOL     OW39660   4.546   1.002   5.096
12740SOL    HW139661   4.586   1.001   5.004
12740SOL    HW239662   4.556   1.094   5.136
12741SOL     OW39663   4.640   0.910   4.015
12741SOL    HW139664   4.703   0.948   3.947
12741SOL    HW239665   4.680   0.827   4.054
12742SOL     OW39666   5.228   1.607   3.768
12742SOL    HW139667   5.136   1.644   3.775
12742SOL    HW239668   5.266   1.627   3.678
12743SOL     OW39669   4.096   1.288   5.214
12743SOL    HW139670   4.083   1.381   5.180
12743SOL    HW239671   4.012   1.236   5.201
12744SOL     OW39672   5.338   1.292   5.013
12744SOL    HW139673   5.398   1.295   5.093
12744SOL    HW239674   5.263   1.356   5.026
12745SOL     OW39675   4.763   1.098   4.420
12745SOL    HW139676   4.693   1.051   4.474
12745SOL    HW239677   4.822   1.030   4.377
12746SOL     OW39678   4.738   0.236   4.695
12746SOL    HW139679   4.730   0.200   4.602
12746SOL    HW239680   4.736   0.160   4.760
12747SOL     OW39681   4.314   1.487   4.215
12747SOL    HW139682   4.356   1.429   4.145
12747SOL    HW239683   4.270   1.566   4.171
12748SOL     OW39684   5.433   0.385   5.105
12748SOL    HW139685   5.506   0.454   5.109
12748SOL    HW239686   5.461   0.310   5.046
12749SOL     OW39687   3.979   1.348   4.014
12749SOL    HW139688   3.883   1.349   3.987
12749SOL    HW239689   3.991   1.401   4.098
12750SOL     OW39690   3.829   1.013   5.450
12750SOL    HW139691   3.752   0.980   5.504
12750SOL    HW239692   3.914   0.983   5.492
12751SOL     OW39693   4.396   0.203   5.213
12751SOL    HW139694   4.486   0.187   5.173
12751SOL    HW239695   4.404   0.208   5.312
12752SOL     OW39696   3.799   0.345   3.757
12752SOL    HW139697   3.707   0.317   3.728
12752SOL    HW239698   3.830   0.422   3.701
12753SOL     OW39699   5.164   0.856   5.122
12753SOL    HW139700   5.107   0.908   5.059
12753SOL    HW239701   5.260   0.868   5.098
12754SOL     OW39702   3.796   0.166   4.042
12754SOL    HW139703   3.779   0.249   3.988
12754SOL    HW239704   3.886   0.129   4.020
12755SOL     OW39705   4.907   1.335   3.843
12755SOL    HW139706   4.808   1.324   3.845
12755SOL    HW239707   4.941   1.350   3.936
12756SOL     OW39708   4.337   0.842   5.155
12756SOL    HW139709   4.393   0.923   5.138
12756SOL    HW239710   4.396   0.762   5.158
12757SOL     OW39711   5.217   1.767   4.683
12757SOL    HW139712   5.250   1.831   4.614
12757SOL    HW239713   5.283   1.761   4.758
12758SOL     OW39714   4.440   0.565   5.432
12758SOL    HW139715   4.459   0.630   5.506
12758SOL    HW239716   4.500   0.485   5.441
12759SOL     OW39717   5.174   1.220   5.357
12759SOL    HW139718   5.165   1.210   5.456
12759SOL    HW239719   5.270   1.213   5.331
12760SOL     OW39720   4.114   1.741   5.284
12760SOL    HW139721   4.023   1.782   5.282
12760SOL    HW239722   4.107   1.647   5.316
12761SOL     OW39723   5.398   0.883   4.978
12761SOL    HW139724   5.371   0.794   4.941
12761SOL    HW239725   5.399   0.951   4.905
12762SOL     OW39726   4.949   0.325   4.173
12762SOL    HW139727   5.014   0.251   4.162
12762SOL    HW239728   4.969   0.375   4.257
12763SOL     OW39729   4.318   0.745   4.376
12763SOL    HW139730   4.368   0.830   4.357
12763SOL    HW239731   4.230   0.747   4.328
12764SOL     OW39732   5.501   0.342   5.366
12764SOL    HW139733   5.484   0.373   5.272
12764SOL    HW239734   5.417   0.305   5.404
12765SOL     OW39735   5.454   0.934   5.241
12765SOL    HW139736   5.492   1.025   5.256
12765SOL    HW239737   5.446   0.917   5.142
12766SOL     OW39738   4.583   1.374   3.740
12766SOL    HW139739   4.537   1.389   3.828
12766SOL    HW239740   4.627   1.459   3.710
12767SOL     OW39741   4.385   1.790   4.677
12767SOL    HW139742   4.339   1.878   4.664
12767SOL    HW239743   4.484   1.802   4.670
12768SOL     OW39744   4.583   0.956   4.585
12768SOL    HW139745   4.637   0.887   4.633
12768SOL    HW239746   4.551   1.025   4.651
12769SOL     OW39747   4.807   0.984   3.811
12769SOL    HW139748   4.784   1.037   3.729
12769SOL    HW239749   4.888   0.928   3.792
12770SOL     OW39750   5.585   1.569   4.575
12770SOL    HW139751   5.514   1.557   4.505
12770SOL    HW239752   5.586   1.490   4.635
12771SOL     OW39753   3.945   1.314   5.568
12771SOL    HW139754   3.880   1.241   5.547
12771SOL    HW239755   3.949   1.328   5.666
12772SOL     OW39756   3.803   1.240   4.377
12772SOL    HW139757   3.802   1.193   4.465
12772SOL    HW239758   3.885   1.212   4.326
12773SOL     OW39759   4.396   1.391   5.348
12773SOL    HW139760   4.318   1.341   5.386
12773SOL    HW239761   4.393   1.486   5.379
12774SOL     OW39762   5.548   0.192   4.951
12774SOL    HW139763   5.544   0.102   4.995
12774SOL    HW239764   5.551   0.181   4.852
12775SOL     OW39765   4.152   0.424   4.244
12775SOL    HW139766   4.182   0.352   4.182
12775SOL    HW239767   4.113   0.384   4.327
12776SOL     OW39768   5.429   1.487   4.828
12776SOL    HW139769   5.336   1.462   4.801
12776SOL    HW239770   5.455   1.437   4.910
12777SOL     OW39771   4.041   0.547   5.004
12777SOL    HW139772   4.079   0.488   5.076
12777SOL    HW239773   4.081   0.521   4.916
12778SOL     OW39774   4.536   1.586   4.411
12778SOL    HW139775   4.568   1.596   4.317
12778SOL    HW239776   4.457   1.524   4.413
12779SOL     OW39777   5.148   0.214   4.836
12779SOL    HW139778   5.200   0.149   4.891
12779SOL    HW239779   5.099   0.277   4.897
12780SOL     OW39780   4.725   0.034   4.878
12780SOL    HW139781   4.662  -0.038   4.847
12780SOL    HW239782   4.818  -0.002   4.878
12781SOL     OW39783   4.494   1.330   4.025
12781SOL    HW139784   4.448   1.243   4.042
12781SOL    HW239785   4.585   1.327   4.066
12782SOL     OW39786   4.342   1.567   5.008
12782SOL    HW139787   4.337   1.649   5.065
12782SOL    HW239788   4.431   1.564   4.963
12783SOL     OW39789   5.076   0.052   3.892
12783SOL    HW139790   5.111   0.011   3.808
12783SOL    HW239791   4.986   0.014   3.912
12784SOL     OW39792   5.024   0.453   4.415
12784SOL    HW139793   4.965   0.533   4.419
12784SOL    HW239794   5.039   0.418   4.508
12785SOL     OW39795   5.317   0.221   4.606
12785SOL    HW139796   5.233   0.220   4.660
12785SOL    HW239797   5.319   0.304   4.550
12786SOL     OW39798   3.763   1.077   4.024
12786SOL    HW139799   3.862   1.066   4.015
12786SOL    HW239800   3.723   0.991   4.056
12787SOL     OW39801   4.599   1.646   4.061
12787SOL    HW139802   4.522   1.611   4.007
12787SOL    HW239803   4.567   1.717   4.123
12788SOL     OW39804   3.954   0.628   5.699
12788SOL    HW139805   3.861   0.626   5.736
12788SOL    HW239806   3.955   0.589   5.607
12789SOL     OW39807   3.949   0.275   6.582
12789SOL    HW139808   3.984   0.258   6.674
12789SOL    HW239809   3.861   0.230   6.570
12790SOL     OW39810   3.743   0.368   6.233
12790SOL    HW139811   3.661   0.411   6.272
12790SOL    HW239812   3.715   0.295   6.170
12791SOL     OW39813   4.293   1.275   6.751
12791SOL    HW139814   4.200   1.268   6.714
12791SOL    HW239815   4.304   1.364   6.795
12792SOL     OW39816   5.279   1.511   6.289
12792SOL    HW139817   5.222   1.495   6.370
12792SOL    HW239818   5.220   1.521   6.209
12793SOL     OW39819   4.859   0.703   6.303
12793SOL    HW139820   4.916   0.781   6.278
12793SOL    HW239821   4.799   0.729   6.379
12794SOL     OW39822   5.479   0.607   5.817
12794SOL    HW139823   5.467   0.594   5.718
12794SOL    HW239824   5.449   0.526   5.866
12795SOL     OW39825   4.492   1.144   6.609
12795SOL    HW139826   4.414   1.161   6.669
12795SOL    HW239827   4.526   1.231   6.573
12796SOL     OW39828   4.574   0.798   7.409
12796SOL    HW139829   4.570   0.874   7.474
12796SOL    HW239830   4.596   0.834   7.318
12797SOL     OW39831   4.409   1.012   6.251
12797SOL    HW139832   4.478   0.996   6.321
12797SOL    HW239833   4.336   1.069   6.289
12798SOL     OW39834   4.410   1.161   7.389
12798SOL    HW139835   4.470   1.240   7.403
12798SOL    HW239836   4.324   1.192   7.348
12799SOL     OW39837   4.059   1.435   6.647
12799SOL    HW139838   3.981   1.404   6.594
12799SOL    HW239839   4.117   1.493   6.590
12800SOL     OW39840   5.184   1.505   6.925
12800SOL    HW139841   5.208   1.599   6.951
12800SOL    HW239842   5.168   1.451   7.007
12801SOL     OW39843   4.162   0.392   7.085
12801SOL    HW139844   4.244   0.336   7.094
12801SOL    HW239845   4.081   0.334   7.089
12802SOL     OW39846   5.327   0.447   6.323
12802SOL    HW139847   5.253   0.493   6.273
12802SOL    HW239848   5.378   0.515   6.376
12803SOL     OW39849   3.955   1.713   6.069
12803SOL    HW139850   3.989   1.790   6.123
12803SOL    HW239851   3.999   1.713   5.979
12804SOL     OW39852   4.851   1.341   7.276
12804SOL    HW139853   4.898   1.341   7.364
12804SOL    HW239854   4.803   1.254   7.265
12805SOL     OW39855   3.954   1.434   6.124
12805SOL    HW139856   3.928   1.530   6.124
12805SOL    HW239857   3.883   1.380   6.169
12806SOL     OW39858   3.964   1.091   6.472
12806SOL    HW139859   3.978   1.007   6.524
12806SOL    HW239860   3.909   1.155   6.527
12807SOL     OW39861   4.344   1.786   7.025
12807SOL    HW139862   4.252   1.769   7.060
12807SOL    HW239863   4.372   1.878   7.051
12808SOL     OW39864   4.330   0.964   5.709
12808SOL    HW139865   4.337   1.048   5.655
12808SOL    HW239866   4.376   0.977   5.797
12809SOL     OW39867   5.318   0.114   7.066
12809SOL    HW139868   5.300   0.181   6.994
12809SOL    HW239869   5.315   0.160   7.155
12810SOL     OW39870   3.846   0.643   6.149
12810SOL    HW139871   3.801   0.555   6.166
12810SOL    HW239872   3.845   0.697   6.233
12811SOL     OW39873   5.566   1.767   5.945
12811SOL    HW139874   5.620   1.738   6.025
12811SOL    HW239875   5.596   1.857   5.916
12812SOL     OW39876   3.751   1.596   5.703
12812SOL    HW139877   3.732   1.500   5.724
12812SOL    HW239878   3.718   1.654   5.778
12813SOL     OW39879   5.413   0.922   6.198
12813SOL    HW139880   5.508   0.893   6.206
12813SOL    HW239881   5.405   0.987   6.123
12814SOL     OW39882   5.365   1.108   6.018
12814SOL    HW139883   5.451   1.110   5.966
12814SOL    HW239884   5.379   1.155   6.106
12815SOL     OW39885   3.837   0.737   7.183
12815SOL    HW139886   3.925   0.724   7.228
12815SOL    HW239887   3.824   0.834   7.161
12816SOL     OW39888   4.337   1.365   6.312
12816SOL    HW139889   4.288   1.278   6.321
12816SOL    HW239890   4.314   1.408   6.225
12817SOL     OW39891   5.017   1.228   7.009
12817SOL    HW139892   5.054   1.155   6.951
12817SOL    HW239893   5.069   1.233   7.094
12818SOL     OW39894   4.533   0.004   6.088
12818SOL    HW139895   4.573   0.095   6.079
12818SOL    HW239896   4.433   0.012   6.094
12819SOL     OW39897   3.921   0.976   6.850
12819SOL    HW139898   4.010   0.931   6.836
12819SOL    HW239899   3.848   0.911   6.831
12820SOL     OW39900   5.249   0.999   5.776
12820SOL    HW139901   5.186   0.923   5.789
12820SOL    HW239902   5.297   1.017   5.862
12821SOL     OW39903   4.911   1.792   7.202
12821SOL    HW139904   4.935   1.852   7.126
12821SOL    HW239905   4.918   1.697   7.172
12822SOL     OW39906   4.041   0.251   7.387
12822SOL    HW139907   4.112   0.322   7.393
12822SOL    HW239908   3.953   0.290   7.415
12823SOL     OW39909   5.190   1.417   6.539
12823SOL    HW139910   5.131   1.423   6.619
12823SOL    HW239911   5.175   1.329   6.493
12824SOL     OW39912   5.391   1.714   6.158
12824SOL    HW139913   5.350   1.691   6.070
12824SOL    HW239914   5.373   1.640   6.223
12825SOL     OW39915   4.322   0.729   5.856
12825SOL    HW139916   4.346   0.798   5.788
12825SOL    HW239917   4.244   0.762   5.910
12826SOL     OW39918   5.005   0.345   6.530
12826SOL    HW139919   4.919   0.295   6.517
12826SOL    HW239920   5.067   0.291   6.586
12827SOL     OW39921   5.300   1.662   5.893
12827SOL    HW139922   5.389   1.708   5.896
12827SOL    HW239923   5.279   1.638   5.798
12828SOL     OW39924   4.531   0.605   7.051
12828SOL    HW139925   4.484   0.602   7.140
12828SOL    HW239926   4.480   0.550   6.985
12829SOL     OW39927   5.118   0.469   7.260
12829SOL    HW139928   5.098   0.512   7.348
12829SOL    HW239929   5.196   0.407   7.269
12830SOL     OW39930   4.697   0.890   7.158
12830SOL    HW139931   4.743   0.806   7.129
12830SOL    HW239932   4.641   0.924   7.083
12831SOL     OW39933   4.715   0.410   6.828
12831SOL    HW139934   4.638   0.444   6.882
12831SOL    HW239935   4.681   0.359   6.749
12832SOL     OW39936   4.765   0.701   6.015
12832SOL    HW139937   4.791   0.697   6.111
12832SOL    HW239938   4.680   0.650   6.001
12833SOL     OW39939   3.800   0.811   6.375
12833SOL    HW139940   3.899   0.799   6.384
12833SOL    HW239941   3.776   0.906   6.396
12834SOL     OW39942   3.854   1.821   7.157
12834SOL    HW139943   3.844   1.806   7.256
12834SOL    HW239944   3.768   1.857   7.121
12835SOL     OW39945   4.589   0.348   5.781
12835SOL    HW139946   4.648   0.411   5.732
12835SOL    HW239947   4.608   0.254   5.752
12836SOL     OW39948   5.443   0.585   7.417
12836SOL    HW139949   5.417   0.674   7.381
12836SOL    HW239950   5.441   0.517   7.344
12837SOL     OW39951   5.086   1.144   6.131
12837SOL    HW139952   5.169   1.115   6.083
12837SOL    HW239953   5.037   1.211   6.075
12838SOL     OW39954   4.274   0.196   6.471
12838SOL    HW139955   4.269   0.191   6.571
12838SOL    HW239956   4.276   0.292   6.442
12839SOL     OW39957   4.732   1.456   6.063
12839SOL    HW139958   4.686   1.528   6.011
12839SOL    HW239959   4.728   1.476   6.161
12840SOL     OW39960   4.075   1.801   6.439
12840SOL    HW139961   4.125   1.715   6.445
12840SOL    HW239962   4.140   1.878   6.436
12841SOL     OW39963   5.519   1.066   6.459
12841SOL    HW139964   5.457   1.051   6.383
12841SOL    HW239965   5.467   1.077   6.544
12842SOL     OW39966   4.951   1.550   7.092
12842SOL    HW139967   4.957   1.473   7.156
12842SOL    HW239968   4.899   1.524   7.012
12843SOL     OW39969   4.045   0.943   5.828
12843SOL    HW139970   4.127   0.982   5.786
12843SOL    HW239971   4.018   0.861   5.779
12844SOL     OW39972   5.182   0.735   6.314
12844SOL    HW139973   5.177   0.670   6.389
12844SOL    HW239974   5.262   0.794   6.327
12845SOL     OW39975   4.185   1.266   7.313
12845SOL    HW139976   4.135   1.267   7.227
12845SOL    HW239977   4.122   1.248   7.389
12846SOL     OW39978   4.835   1.776   5.823
12846SOL    HW139979   4.775   1.714   5.873
12846SOL    HW239980   4.866   1.732   5.738
12847SOL     OW39981   3.926   0.285   7.084
12847SOL    HW139982   3.846   0.345   7.071
12847SOL    HW239983   3.916   0.236   7.170
12848SOL     OW39984   5.356   1.377   5.667
12848SOL    HW139985   5.324   1.471   5.657
12848SOL    HW239986   5.280   1.314   5.655
12849SOL     OW39987   4.188   1.743   5.909
12849SOL    HW139988   4.221   1.782   5.995
12849SOL    HW239989   4.264   1.736   5.844
12850SOL     OW39990   5.124   0.107   6.012
12850SOL    HW139991   5.100   0.070   5.922
12850SOL    HW239992   5.223   0.123   6.016
12851SOL     OW39993   3.973   1.785   6.827
12851SOL    HW139994   4.030   1.720   6.877
12851SOL    HW239995   3.957   1.752   6.734
12852SOL     OW39996   4.664   1.698   6.490
12852SOL    HW139997   4.744   1.641   6.511
12852SOL    HW239998   4.615   1.658   6.413
12853SOL     OW39999   4.106   0.700   6.066
12853SOL    HW140000   4.151   0.610   6.063
12853SOL    HW240001   4.012   0.689   6.099
12854SOL     OW40002   5.271   0.222   7.315
12854SOL    HW140003   5.266   0.259   7.407
12854SOL    HW240004   5.199   0.153   7.303
12855SOL     OW40005   4.338   0.122   5.703
12855SOL    HW140006   4.436   0.100   5.710
12855SOL    HW240007   4.307   0.105   5.610
12856SOL     OW40008   4.505   0.264   7.335
12856SOL    HW140009   4.572   0.203   7.378
12856SOL    HW240010   4.432   0.283   7.400
12857SOL     OW40011   4.612   1.514   6.781
12857SOL    HW140012   4.589   1.489   6.687
12857SOL    HW240013   4.673   1.445   6.820
12858SOL     OW40014   5.075   0.590   7.019
12858SOL    HW140015   5.103   0.547   7.104
12858SOL    HW240016   5.100   0.686   7.020
12859SOL     OW40017   4.527   1.402   6.510
12859SOL    HW140018   4.617   1.416   6.468
12859SOL    HW240019   4.456   1.404   6.439
12860SOL     OW40020   4.646   0.503   6.485
12860SOL    HW140021   4.621   0.494   6.389
12860SOL    HW240022   4.694   0.421   6.516
12861SOL     OW40023   4.263   0.064   6.098
12861SOL    HW140024   4.182   0.065   6.156
12861SOL    HW240025   4.266   0.147   6.043
12862SOL     OW40026   5.158   1.188   5.627
12862SOL    HW140027   5.190   1.112   5.684
12862SOL    HW240028   5.066   1.215   5.657
12863SOL     OW40029   4.021   0.035   5.757
12863SOL    HW140030   4.070   0.119   5.736
12863SOL    HW240031   4.083  -0.030   5.802
12864SOL     OW40032   4.659   0.236   6.066
12864SOL    HW140033   4.611   0.277   5.988
12864SOL    HW240034   4.758   0.234   6.047
12865SOL     OW40035   4.800   0.683   7.050
12865SOL    HW140036   4.720   0.622   7.053
12865SOL    HW240037   4.881   0.630   7.026
12866SOL     OW40038   4.951   1.570   6.379
12866SOL    HW140039   4.972   1.644   6.314
12866SOL    HW240040   5.019   1.570   6.452
12867SOL     OW40041   4.183   1.152   6.327
12867SOL    HW140042   4.112   1.125   6.392
12867SOL    HW240043   4.157   1.124   6.234
12868SOL     OW40044   4.995   1.797   6.177
12868SOL    HW140045   5.039   1.861   6.113
12868SOL    HW240046   4.945   1.849   6.247
12869SOL     OW40047   4.756   0.549   5.602
12869SOL    HW140048   4.715   0.631   5.563
12869SOL    HW240049   4.820   0.575   5.675
12870SOL     OW40050   3.802   0.556   6.972
12870SOL    HW140051   3.894   0.555   6.931
12870SOL    HW240052   3.796   0.630   7.039
12871SOL     OW40053   4.285   0.222   6.733
12871SOL    HW140054   4.323   0.138   6.770
12871SOL    HW240055   4.197   0.241   6.777
12872SOL     OW40056   4.590   0.454   6.228
12872SOL    HW140057   4.558   0.526   6.166
12872SOL    HW240058   4.614   0.373   6.175
12873SOL     OW40059   4.741   0.039   6.339
12873SOL    HW140060   4.669   0.044   6.270
12873SOL    HW240061   4.717  -0.030   6.408
12874SOL     OW40062   5.153   1.173   6.453
12874SOL    HW140063   5.098   1.089   6.446
12874SOL    HW240064   5.179   1.202   6.361
12875SOL     OW40065   5.190   0.590   6.578
12875SOL    HW140066   5.160   0.495   6.585
12875SOL    HW240067   5.263   0.606   6.644
12876SOL     OW40068   5.581   0.833   5.963
12876SOL    HW140069   5.623   0.769   6.027
12876SOL    HW240070   5.543   0.782   5.885
12877SOL     OW40071   4.212   1.385   5.760
12877SOL    HW140072   4.125   1.370   5.807
12877SOL    HW240073   4.195   1.411   5.665
12878SOL     OW40074   5.388   1.280   6.243
12878SOL    HW140075   5.487   1.288   6.257
12878SOL    HW240076   5.343   1.364   6.274
12879SOL     OW40077   5.114   0.575   5.664
12879SOL    HW140078   5.060   0.554   5.745
12879SOL    HW240079   5.205   0.534   5.673
12880SOL     OW40080   4.251   0.256   5.914
12880SOL    HW140081   4.278   0.197   5.839
12880SOL    HW240082   4.251   0.351   5.883
12881SOL     OW40083   5.478   1.223   7.174
12881SOL    HW140084   5.569   1.184   7.161
12881SOL    HW240085   5.486   1.319   7.198
12882SOL     OW40086   4.788   1.347   6.926
12882SOL    HW140087   4.708   1.324   6.981
12882SOL    HW240088   4.871   1.321   6.975
12883SOL     OW40089   5.316   1.629   7.211
12883SOL    HW140090   5.343   1.663   7.121
12883SOL    HW240091   5.395   1.591   7.257
12884SOL     OW40092   4.835   1.195   6.686
12884SOL    HW140093   4.795   1.239   6.767
12884SOL    HW240094   4.794   1.232   6.603
12885SOL     OW40095   5.362   1.099   6.665
12885SOL    HW140096   5.367   1.180   6.724
12885SOL    HW240097   5.276   1.101   6.614
12886SOL     OW40098   4.639   0.089   6.988
12886SOL    HW140099   4.664   0.069   6.893
12886SOL    HW240100   4.711   0.145   7.030
12887SOL     OW40101   4.704   1.116   7.305
12887SOL    HW140102   4.605   1.122   7.315
12887SOL    HW240103   4.727   1.036   7.249
12888SOL     OW40104   4.429   1.050   5.954
12888SOL    HW140105   4.415   1.057   6.053
12888SOL    HW240106   4.513   0.999   5.936
12889SOL     OW40107   4.134   0.813   6.837
12889SOL    HW140108   4.220   0.825   6.887
12889SOL    HW240109   4.092   0.726   6.864
12890SOL     OW40110   4.998   0.386   6.848
12890SOL    HW140111   5.019   0.460   6.912
12890SOL    HW240112   4.909   0.403   6.805
12891SOL     OW40113   3.788   1.564   6.917
12891SOL    HW140114   3.742   1.646   6.883
12891SOL    HW240115   3.886   1.583   6.926
12892SOL     OW40116   4.091   1.100   6.087
12892SOL    HW140117   4.084   1.183   6.031
12892SOL    HW240118   4.095   1.020   6.027
12893SOL     OW40119   4.290   0.537   6.451
12893SOL    HW140120   4.302   0.603   6.377
12893SOL    HW240121   4.336   0.571   6.534
12894SOL     OW40122   4.976   1.348   5.974
12894SOL    HW140123   5.026   1.425   6.014
12894SOL    HW240124   4.881   1.350   6.006
12895SOL     OW40125   4.996   1.445   6.728
12895SOL    HW140126   5.043   1.458   6.815
12895SOL    HW240127   4.930   1.371   6.737
12896SOL     OW40128   5.306   0.639   6.058
12896SOL    HW140129   5.275   0.700   6.131
12896SOL    HW240130   5.356   0.691   5.989
12897SOL     OW40131   4.078   1.510   6.915
12897SOL    HW140132   4.057   1.466   6.828
12897SOL    HW240133   4.175   1.536   6.918
12898SOL     OW40134   4.126   0.751   7.184
12898SOL    HW140135   4.194   0.806   7.137
12898SOL    HW240136   4.166   0.663   7.211
12899SOL     OW40137   5.311   0.779   7.256
12899SOL    HW140138   5.219   0.817   7.251
12899SOL    HW240139   5.371   0.826   7.191
12900SOL     OW40140   4.737   0.105   7.356
12900SOL    HW140141   4.743   0.190   7.304
12900SOL    HW240142   4.769   0.029   7.299
12901SOL     OW40143   4.228   0.050   7.326
12901SOL    HW140144   4.186  -0.007   7.256
12901SOL    HW240145   4.162   0.119   7.358
12902SOL     OW40146   4.297   0.870   6.615
12902SOL    HW140147   4.341   0.959   6.606
12902SOL    HW240148   4.234   0.870   6.692
12903SOL     OW40149   5.084   0.862   6.631
12903SOL    HW140150   5.009   0.862   6.565
12903SOL    HW240151   5.121   0.770   6.640
12904SOL     OW40152   4.933   0.525   5.861
12904SOL    HW140153   4.946   0.441   5.915
12904SOL    HW240154   4.904   0.599   5.921
12905SOL     OW40155   4.031   0.213   6.817
12905SOL    HW140156   4.008   0.250   6.907
12905SOL    HW240157   4.001   0.118   6.811
12906SOL     OW40158   3.761   1.310   6.868
12906SOL    HW140159   3.814   1.261   6.936
12906SOL    HW240160   3.783   1.408   6.873
12907SOL     OW40161   4.456   0.634   6.650
12907SOL    HW140162   4.515   0.608   6.574
12907SOL    HW240163   4.428   0.730   6.639
12908SOL     OW40164   5.452   0.935   7.440
12908SOL    HW140165   5.406   0.928   7.351
12908SOL    HW240166   5.390   0.979   7.506
12909SOL     OW40167   4.031   0.063   6.204
12909SOL    HW140168   4.020   0.157   6.237
12909SOL    HW240169   4.026   0.000   6.281
12910SOL     OW40170   5.346   0.367   5.960
12910SOL    HW140171   5.348   0.291   6.024
12910SOL    HW240172   5.298   0.444   6.000
12911SOL     OW40173   4.747   0.766   6.552
12911SOL    HW140174   4.762   0.787   6.648
12911SOL    HW240175   4.717   0.671   6.543
12912SOL     OW40176   4.704   1.573   7.286
12912SOL    HW140177   4.684   1.617   7.198
12912SOL    HW240178   4.743   1.482   7.270
12913SOL     OW40179   5.583   1.518   7.191
12913SOL    HW140180   5.597   1.545   7.096
12913SOL    HW240181   5.666   1.540   7.244
12914SOL     OW40182   4.074   0.898   7.390
12914SOL    HW140183   4.150   0.942   7.438
12914SOL    HW240184   4.109   0.851   7.308
12915SOL     OW40185   5.264   0.274   5.711
12915SOL    HW140186   5.203   0.199   5.734
12915SOL    HW240187   5.286   0.326   5.794
12916SOL     OW40188   5.027   0.838   5.628
12916SOL    HW140189   5.061   0.745   5.643
12916SOL    HW240190   5.045   0.865   5.533
12917SOL     OW40191   4.792   1.333   6.435
12917SOL    HW140192   4.799   1.249   6.380
12917SOL    HW240193   4.854   1.402   6.399
12918SOL     OW40194   4.043   0.810   6.535
12918SOL    HW140195   4.136   0.846   6.540
12918SOL    HW240196   4.037   0.725   6.587
12919SOL     OW40197   4.063   0.509   6.592
12919SOL    HW140198   4.011   0.426   6.575
12919SOL    HW240199   4.140   0.514   6.528
12920SOL     OW40200   4.862   0.380   7.264
12920SOL    HW140201   4.817   0.443   7.328
12920SOL    HW240202   4.955   0.411   7.247
12921SOL     OW40203   4.884   0.207   7.063
12921SOL    HW140204   4.884   0.271   7.140
12921SOL    HW240205   4.912   0.255   6.980
12922SOL     OW40206   3.732   1.326   5.786
12922SOL    HW140207   3.639   1.347   5.755
12922SOL    HW240208   3.742   1.227   5.799
12923SOL     OW40209   3.812   1.801   6.513
12923SOL    HW140210   3.770   1.715   6.486
12923SOL    HW240211   3.906   1.804   6.479
12924SOL     OW40212   4.228   1.568   6.496
12924SOL    HW140213   4.294   1.642   6.505
12924SOL    HW240214   4.272   1.489   6.454
12925SOL     OW40215   4.726   0.796   6.824
12925SOL    HW140216   4.767   0.764   6.910
12925SOL    HW240217   4.630   0.769   6.821
12926SOL     OW40218   3.764   0.544   6.700
12926SOL    HW140219   3.849   0.511   6.659
12926SOL    HW240220   3.777   0.559   6.798
12927SOL     OW40221   3.913   0.520   7.308
12927SOL    HW140222   3.972   0.480   7.238
12927SOL    HW240223   3.855   0.591   7.267
12928SOL     OW40224   5.093   0.950   7.246
12928SOL    HW140225   5.132   1.039   7.266
12928SOL    HW240226   5.103   0.930   7.149
12929SOL     OW40227   4.539   0.572   5.911
12929SOL    HW140228   4.546   0.483   5.865
12929SOL    HW240229   4.445   0.606   5.903
12930SOL     OW40230   5.381   0.604   6.792
12930SOL    HW140231   5.343   0.535   6.854
12930SOL    HW240232   5.463   0.568   6.748
12931SOL     OW40233   3.976   1.564   7.330
12931SOL    HW140234   3.946   1.621   7.406
12931SOL    HW240235   3.969   1.467   7.356
12932SOL     OW40236   4.395   0.464   6.855
12932SOL    HW140237   4.361   0.375   6.825
12932SOL    HW240238   4.421   0.518   6.775
12933SOL     OW40239   4.654   1.678   7.051
12933SOL    HW140240   4.630   1.660   6.956
12933SOL    HW240241   4.684   1.772   7.061
12934SOL     OW40242   4.197   0.500   5.777
12934SOL    HW140243   4.258   0.580   5.781
12934SOL    HW240244   4.102   0.531   5.784
12935SOL     OW40245   3.883   1.137   7.052
12935SOL    HW140246   3.905   1.076   7.128
12935SOL    HW240247   3.893   1.088   6.966
12936SOL     OW40248   5.071   1.059   6.820
12936SOL    HW140249   5.095   0.996   6.746
12936SOL    HW240250   4.981   1.099   6.802
12937SOL     OW40251   5.026   0.855   5.895
12937SOL    HW140252   4.940   0.824   5.937
12937SOL    HW240253   5.022   0.841   5.796
12938SOL     OW40254   5.483   1.747   6.740
12938SOL    HW140255   5.544   1.777   6.667
12938SOL    HW240256   5.445   1.658   6.718
12939SOL     OW40257   4.976   1.731   6.714
12939SOL    HW140258   5.060   1.736   6.660
12939SOL    HW240259   4.953   1.635   6.732
12940SOL     OW40260   3.807   1.258   6.608
12940SOL    HW140261   3.802   1.257   6.708
12940SOL    HW240262   3.724   1.217   6.570
12941SOL     OW40263   4.412   1.662   7.302
12941SOL    HW140264   4.356   1.743   7.311
12941SOL    HW240265   4.464   1.666   7.216
12942SOL     OW40266   5.450   0.135   6.109
12942SOL    HW140267   5.523   0.118   6.042
12942SOL    HW240268   5.419   0.048   6.147
12943SOL     OW40269   5.112   1.573   6.063
12943SOL    HW140270   5.179   1.585   5.989
12943SOL    HW240271   5.072   1.662   6.086
12944SOL     OW40272   3.854   1.794   7.437
12944SOL    HW140273   3.813   1.720   7.490
12944SOL    HW240274   3.918   1.845   7.495
12945SOL     OW40275   5.004   0.927   6.258
12945SOL    HW140276   5.064   0.846   6.260
12945SOL    HW240277   5.044   0.996   6.198
12946SOL     OW40278   4.554   1.273   7.008
12946SOL    HW140279   4.549   1.306   7.103
12946SOL    HW240280   4.468   1.292   6.962
12947SOL     OW40281   4.396   1.616   5.740
12947SOL    HW140282   4.405   1.626   5.641
12947SOL    HW240283   4.356   1.527   5.761
12948SOL     OW40284   5.374   1.720   6.980
12948SOL    HW140285   5.427   1.730   6.896
12948SOL    HW240286   5.347   1.810   7.014
12949SOL     OW40287   5.565   0.175   6.549
12949SOL    HW140288   5.604   0.090   6.513
12949SOL    HW240289   5.467   0.177   6.530
12950SOL     OW40290   3.987   0.326   6.306
12950SOL    HW140291   3.908   0.377   6.272
12950SOL    HW240292   3.978   0.311   6.404
12951SOL     OW40293   4.918   1.612   5.617
12951SOL    HW140294   4.924   1.519   5.654
12951SOL    HW240295   4.859   1.612   5.537
12952SOL     OW40296   4.546   1.002   6.958
12952SOL    HW140297   4.586   1.001   6.866
12952SOL    HW240298   4.556   1.094   6.998
12953SOL     OW40299   4.640   0.910   5.877
12953SOL    HW140300   4.703   0.948   5.809
12953SOL    HW240301   4.680   0.827   5.916
12954SOL     OW40302   5.228   1.607   5.630
12954SOL    HW140303   5.136   1.644   5.637
12954SOL    HW240304   5.266   1.627   5.540
12955SOL     OW40305   4.096   1.288   7.076
12955SOL    HW140306   4.083   1.381   7.042
12955SOL    HW240307   4.012   1.236   7.063
12956SOL     OW40308   5.338   1.292   6.875
12956SOL    HW140309   5.398   1.295   6.955
12956SOL    HW240310   5.263   1.356   6.888
12957SOL     OW40311   4.763   1.098   6.282
12957SOL    HW140312   4.693   1.051   6.336
12957SOL    HW240313   4.822   1.030   6.239
12958SOL     OW40314   4.738   0.236   6.557
12958SOL    HW140315   4.730   0.200   6.464
12958SOL    HW240316   4.736   0.160   6.622
12959SOL     OW40317   4.314   1.487   6.077
12959SOL    HW140318   4.356   1.429   6.007
12959SOL    HW240319   4.270   1.566   6.033
12960SOL     OW40320   5.433   0.385   6.967
12960SOL    HW140321   5.506   0.454   6.971
12960SOL    HW240322   5.461   0.310   6.908
12961SOL     OW40323   3.979   1.348   5.876
12961SOL    HW140324   3.883   1.349   5.849
12961SOL    HW240325   3.991   1.401   5.960
12962SOL     OW40326   3.829   1.013   7.312
12962SOL    HW140327   3.752   0.980   7.366
12962SOL    HW240328   3.914   0.983   7.354
12963SOL     OW40329   4.396   0.203   7.075
12963SOL    HW140330   4.486   0.187   7.035
12963SOL    HW240331   4.404   0.208   7.174
12964SOL     OW40332   3.799   0.345   5.619
12964SOL    HW140333   3.707   0.317   5.590
12964SOL    HW240334   3.830   0.422   5.563
12965SOL     OW40335   5.164   0.856   6.984
12965SOL    HW140336   5.107   0.908   6.921
12965SOL    HW240337   5.260   0.868   6.960
12966SOL     OW40338   3.796   0.166   5.904
12966SOL    HW140339   3.779   0.249   5.850
12966SOL    HW240340   3.886   0.129   5.882
12967SOL     OW40341   4.907   1.335   5.705
12967SOL    HW140342   4.808   1.324   5.707
12967SOL    HW240343   4.941   1.350   5.798
12968SOL     OW40344   4.337   0.842   7.017
12968SOL    HW140345   4.393   0.923   7.000
12968SOL    HW240346   4.396   0.762   7.020
12969SOL     OW40347   5.217   1.767   6.545
12969SOL    HW140348   5.250   1.831   6.476
12969SOL    HW240349   5.283   1.761   6.620
12970SOL     OW40350   4.440   0.565   7.294
12970SOL    HW140351   4.459   0.630   7.368
12970SOL    HW240352   4.500   0.485   7.303
12971SOL     OW40353   5.174   1.220   7.219
12971SOL    HW140354   5.165   1.210   7.318
12971SOL    HW240355   5.270   1.213   7.193
12972SOL     OW40356   4.114   1.741   7.146
12972SOL    HW140357   4.023   1.782   7.144
12972SOL    HW240358   4.107   1.647   7.178
12973SOL     OW40359   5.398   0.883   6.840
12973SOL    HW140360   5.371   0.794   6.803
12973SOL    HW240361   5.399   0.951   6.767
12974SOL     OW40362   4.949   0.325   6.035
12974SOL    HW140363   5.014   0.251   6.024
12974SOL    HW240364   4.969   0.375   6.119
12975SOL     OW40365   4.318   0.745   6.238
12975SOL    HW140366   4.368   0.830   6.219
12975SOL    HW240367   4.230   0.747   6.190
12976SOL     OW40368   5.501   0.342   7.228
12976SOL    HW140369   5.484   0.373   7.134
12976SOL    HW240370   5.417   0.305   7.266
12977SOL     OW40371   5.454   0.934   7.103
12977SOL    HW140372   5.492   1.025   7.118
12977SOL    HW240373   5.446   0.917   7.004
12978SOL     OW40374   4.583   1.374   5.602
12978SOL    HW140375   4.537   1.389   5.690
12978SOL    HW240376   4.627   1.459   5.572
12979SOL     OW40377   4.385   1.790   6.539
12979SOL    HW140378   4.339   1.878   6.526
12979SOL    HW240379   4.484   1.802   6.532
12980SOL     OW40380   4.583   0.956   6.447
12980SOL    HW140381   4.637   0.887   6.495
12980SOL    HW240382   4.551   1.025   6.513
12981SOL     OW40383   4.807   0.984   5.673
12981SOL    HW140384   4.784   1.037   5.591
12981SOL    HW240385   4.888   0.928   5.654
12982SOL     OW40386   5.585   1.569   6.437
12982SOL    HW140387   5.514   1.557   6.367
12982SOL    HW240388   5.586   1.490   6.497
12983SOL     OW40389   3.945   1.314   7.430
12983SOL    HW140390   3.880   1.241   7.409
12983SOL    HW240391   3.949   1.328   7.528
12984SOL     OW40392   3.803   1.240   6.239
12984SOL    HW140393   3.802   1.193   6.327
12984SOL    HW240394   3.885   1.212   6.188
12985SOL     OW40395   4.396   1.391   7.210
12985SOL    HW140396   4.318   1.341   7.248
12985SOL    HW240397   4.393   1.486   7.241
12986SOL     OW40398   5.548   0.192   6.813
12986SOL    HW140399   5.544   0.102   6.857
12986SOL    HW240400   5.551   0.181   6.714
12987SOL     OW40401   4.152   0.424   6.106
12987SOL    HW140402   4.182   0.352   6.044
12987SOL    HW240403   4.113   0.384   6.189
12988SOL     OW40404   5.429   1.487   6.690
12988SOL    HW140405   5.336   1.462   6.663
12988SOL    HW240406   5.455   1.437   6.772
12989SOL     OW40407   4.041   0.547   6.866
12989SOL    HW140408   4.079   0.488   6.938
12989SOL    HW240409   4.081   0.521   6.778
12990SOL     OW40410   4.536   1.586   6.273
12990SOL    HW140411   4.568   1.596   6.179
12990SOL    HW240412   4.457   1.524   6.275
12991SOL     OW40413   5.148   0.214   6.698
12991SOL    HW140414   5.200   0.149   6.753
12991SOL    HW240415   5.099   0.277   6.759
12992SOL     OW40416   4.725   0.034   6.740
12992SOL    HW140417   4.662  -0.038   6.709
12992SOL    HW240418   4.818  -0.002   6.740
12993SOL     OW40419   4.494   1.330   5.887
12993SOL    HW140420   4.448   1.243   5.904
12993SOL    HW240421   4.585   1.327   5.928
12994SOL     OW40422   4.342   1.567   6.870
12994SOL    HW140423   4.337   1.649   6.927
12994SOL    HW240424   4.431   1.564   6.825
12995SOL     OW40425   5.076   0.052   5.754
12995SOL    HW140426   5.111   0.011   5.670
12995SOL    HW240427   4.986   0.014   5.774
12996SOL     OW40428   5.024   0.453   6.277
12996SOL    HW140429   4.965   0.533   6.281
12996SOL    HW240430   5.039   0.418   6.370
12997SOL     OW40431   5.317   0.221   6.468
12997SOL    HW140432   5.233   0.220   6.522
12997SOL    HW240433   5.319   0.304   6.412
12998SOL     OW40434   3.763   1.077   5.886
12998SOL    HW140435   3.862   1.066   5.877
12998SOL    HW240436   3.723   0.991   5.918
12999SOL     OW40437   4.599   1.646   5.923
12999SOL    HW140438   4.522   1.611   5.869
12999SOL    HW240439   4.567   1.717   5.985
13000SOL     OW40440   3.954   0.628   7.561
13000SOL    HW140441   3.861   0.626   7.598
13000SOL    HW240442   3.955   0.589   7.469
13001SOL     OW40443   3.949   0.275   8.444
13001SOL    HW140444   3.984   0.258   8.536
13001SOL    HW240445   3.861   0.230   8.432
13002SOL     OW40446   3.743   0.368   8.095
13002SOL    HW140447   3.661   0.411   8.134
13002SOL    HW240448   3.715   0.295   8.032
13003SOL     OW40449   4.293   1.275   8.613
13003SOL    HW140450   4.200   1.268   8.576
13003SOL    HW240451   4.304   1.364   8.657
13004SOL     OW40452   5.279   1.511   8.151
13004SOL    HW140453   5.222   1.495   8.232
13004SOL    HW240454   5.220   1.521   8.071
13005SOL     OW40455   4.859   0.703   8.165
13005SOL    HW140456   4.916   0.781   8.140
13005SOL    HW240457   4.799   0.729   8.241
13006SOL     OW40458   5.479   0.607   7.679
13006SOL    HW140459   5.467   0.594   7.580
13006SOL    HW240460   5.449   0.526   7.728
13007SOL     OW40461   4.492   1.144   8.471
13007SOL    HW140462   4.414   1.161   8.531
13007SOL    HW240463   4.526   1.231   8.435
13008SOL     OW40464   4.574   0.798   9.271
13008SOL    HW140465   4.570   0.874   9.336
13008SOL    HW240466   4.596   0.834   9.180
13009SOL     OW40467   4.409   1.012   8.113
13009SOL    HW140468   4.478   0.996   8.183
13009SOL    HW240469   4.336   1.069   8.151
13010SOL     OW40470   4.410   1.161   9.251
13010SOL    HW140471   4.470   1.240   9.265
13010SOL    HW240472   4.324   1.192   9.210
13011SOL     OW40473   4.059   1.435   8.509
13011SOL    HW140474   3.981   1.404   8.456
13011SOL    HW240475   4.117   1.493   8.452
13012SOL     OW40476   5.184   1.505   8.787
13012SOL    HW140477   5.208   1.599   8.813
13012SOL    HW240478   5.168   1.451   8.869
13013SOL     OW40479   4.162   0.392   8.947
13013SOL    HW140480   4.244   0.336   8.956
13013SOL    HW240481   4.081   0.334   8.951
13014SOL     OW40482   5.327   0.447   8.185
13014SOL    HW140483   5.253   0.493   8.135
13014SOL    HW240484   5.378   0.515   8.238
13015SOL     OW40485   3.955   1.713   7.931
13015SOL    HW140486   3.989   1.790   7.985
13015SOL    HW240487   3.999   1.713   7.841
13016SOL     OW40488   4.851   1.341   9.138
13016SOL    HW140489   4.898   1.341   9.226
13016SOL    HW240490   4.803   1.254   9.127
13017SOL     OW40491   3.954   1.434   7.986
13017SOL    HW140492   3.928   1.530   7.986
13017SOL    HW240493   3.883   1.380   8.031
13018SOL     OW40494   3.964   1.091   8.334
13018SOL    HW140495   3.978   1.007   8.386
13018SOL    HW240496   3.909   1.155   8.389
13019SOL     OW40497   4.344   1.786   8.887
13019SOL    HW140498   4.252   1.769   8.922
13019SOL    HW240499   4.372   1.878   8.913
13020SOL     OW40500   4.330   0.964   7.571
13020SOL    HW140501   4.337   1.048   7.517
13020SOL    HW240502   4.376   0.977   7.659
13021SOL     OW40503   5.318   0.114   8.928
13021SOL    HW140504   5.300   0.181   8.856
13021SOL    HW240505   5.315   0.160   9.017
13022SOL     OW40506   3.846   0.643   8.011
13022SOL    HW140507   3.801   0.555   8.028
13022SOL    HW240508   3.845   0.697   8.095
13023SOL     OW40509   5.566   1.767   7.807
13023SOL    HW140510   5.620   1.738   7.887
13023SOL    HW240511   5.596   1.857   7.778
13024SOL     OW40512   3.751   1.596   7.565
13024SOL    HW140513   3.732   1.500   7.586
13024SOL    HW240514   3.718   1.654   7.640
13025SOL     OW40515   5.413   0.922   8.060
13025SOL    HW140516   5.508   0.893   8.068
13025SOL    HW240517   5.405   0.987   7.985
13026SOL     OW40518   5.365   1.108   7.880
13026SOL    HW140519   5.451   1.110   7.828
13026SOL    HW240520   5.379   1.155   7.968
13027SOL     OW40521   3.837   0.737   9.045
13027SOL    HW140522   3.925   0.724   9.090
13027SOL    HW240523   3.824   0.834   9.023
13028SOL     OW40524   4.337   1.365   8.174
13028SOL    HW140525   4.288   1.278   8.183
13028SOL    HW240526   4.314   1.408   8.087
13029SOL     OW40527   5.017   1.228   8.871
13029SOL    HW140528   5.054   1.155   8.813
13029SOL    HW240529   5.069   1.233   8.956
13030SOL     OW40530   4.533   0.004   7.950
13030SOL    HW140531   4.573   0.095   7.941
13030SOL    HW240532   4.433   0.012   7.956
13031SOL     OW40533   3.921   0.976   8.712
13031SOL    HW140534   4.010   0.931   8.698
13031SOL    HW240535   3.848   0.911   8.693
13032SOL     OW40536   5.249   0.999   7.638
13032SOL    HW140537   5.186   0.923   7.651
13032SOL    HW240538   5.297   1.017   7.724
13033SOL     OW40539   4.911   1.792   9.064
13033SOL    HW140540   4.935   1.852   8.988
13033SOL    HW240541   4.918   1.697   9.034
13034SOL     OW40542   4.041   0.251   9.249
13034SOL    HW140543   4.112   0.322   9.255
13034SOL    HW240544   3.953   0.290   9.277
13035SOL     OW40545   5.190   1.417   8.401
13035SOL    HW140546   5.131   1.423   8.481
13035SOL    HW240547   5.175   1.329   8.355
13036SOL     OW40548   5.391   1.714   8.020
13036SOL    HW140549   5.350   1.691   7.932
13036SOL    HW240550   5.373   1.640   8.085
13037SOL     OW40551   4.322   0.729   7.718
13037SOL    HW140552   4.346   0.798   7.650
13037SOL    HW240553   4.244   0.762   7.772
13038SOL     OW40554   5.005   0.345   8.392
13038SOL    HW140555   4.919   0.295   8.379
13038SOL    HW240556   5.067   0.291   8.448
13039SOL     OW40557   5.300   1.662   7.755
13039SOL    HW140558   5.389   1.708   7.758
13039SOL    HW240559   5.279   1.638   7.660
13040SOL     OW40560   4.531   0.605   8.913
13040SOL    HW140561   4.484   0.602   9.002
13040SOL    HW240562   4.480   0.550   8.847
13041SOL     OW40563   5.118   0.469   9.122
13041SOL    HW140564   5.098   0.512   9.210
13041SOL    HW240565   5.196   0.407   9.131
13042SOL     OW40566   4.697   0.890   9.020
13042SOL    HW140567   4.743   0.806   8.991
13042SOL    HW240568   4.641   0.924   8.945
13043SOL     OW40569   4.715   0.410   8.690
13043SOL    HW140570   4.638   0.444   8.744
13043SOL    HW240571   4.681   0.359   8.611
13044SOL     OW40572   4.765   0.701   7.877
13044SOL    HW140573   4.791   0.697   7.973
13044SOL    HW240574   4.680   0.650   7.863
13045SOL     OW40575   3.800   0.811   8.237
13045SOL    HW140576   3.899   0.799   8.246
13045SOL    HW240577   3.776   0.906   8.258
13046SOL     OW40578   3.854   1.821   9.019
13046SOL    HW140579   3.844   1.806   9.118
13046SOL    HW240580   3.768   1.857   8.983
13047SOL     OW40581   4.589   0.348   7.643
13047SOL    HW140582   4.648   0.411   7.594
13047SOL    HW240583   4.608   0.254   7.614
13048SOL     OW40584   5.443   0.585   9.279
13048SOL    HW140585   5.417   0.674   9.243
13048SOL    HW240586   5.441   0.517   9.206
13049SOL     OW40587   5.086   1.144   7.993
13049SOL    HW140588   5.169   1.115   7.945
13049SOL    HW240589   5.037   1.211   7.937
13050SOL     OW40590   4.274   0.196   8.333
13050SOL    HW140591   4.269   0.191   8.433
13050SOL    HW240592   4.276   0.292   8.304
13051SOL     OW40593   4.732   1.456   7.925
13051SOL    HW140594   4.686   1.528   7.873
13051SOL    HW240595   4.728   1.476   8.023
13052SOL     OW40596   4.075   1.801   8.301
13052SOL    HW140597   4.125   1.715   8.307
13052SOL    HW240598   4.140   1.878   8.298
13053SOL     OW40599   5.519   1.066   8.321
13053SOL    HW140600   5.457   1.051   8.245
13053SOL    HW240601   5.467   1.077   8.406
13054SOL     OW40602   4.951   1.550   8.954
13054SOL    HW140603   4.957   1.473   9.018
13054SOL    HW240604   4.899   1.524   8.874
13055SOL     OW40605   4.045   0.943   7.690
13055SOL    HW140606   4.127   0.982   7.648
13055SOL    HW240607   4.018   0.861   7.641
13056SOL     OW40608   5.182   0.735   8.176
13056SOL    HW140609   5.177   0.670   8.251
13056SOL    HW240610   5.262   0.794   8.189
13057SOL     OW40611   4.185   1.266   9.175
13057SOL    HW140612   4.135   1.267   9.089
13057SOL    HW240613   4.122   1.248   9.251
13058SOL     OW40614   4.835   1.776   7.685
13058SOL    HW140615   4.775   1.714   7.735
13058SOL    HW240616   4.866   1.732   7.600
13059SOL     OW40617   3.926   0.285   8.946
13059SOL    HW140618   3.846   0.345   8.933
13059SOL    HW240619   3.916   0.236   9.032
13060SOL     OW40620   5.356   1.377   7.529
13060SOL    HW140621   5.324   1.471   7.519
13060SOL    HW240622   5.280   1.314   7.517
13061SOL     OW40623   4.188   1.743   7.771
13061SOL    HW140624   4.221   1.782   7.857
13061SOL    HW240625   4.264   1.736   7.706
13062SOL     OW40626   5.124   0.107   7.874
13062SOL    HW140627   5.100   0.070   7.784
13062SOL    HW240628   5.223   0.123   7.878
13063SOL     OW40629   3.973   1.785   8.689
13063SOL    HW140630   4.030   1.720   8.739
13063SOL    HW240631   3.957   1.752   8.596
13064SOL     OW40632   4.664   1.698   8.352
13064SOL    HW140633   4.744   1.641   8.373
13064SOL    HW240634   4.615   1.658   8.275
13065SOL     OW40635   4.106   0.700   7.928
13065SOL    HW140636   4.151   0.610   7.925
13065SOL    HW240637   4.012   0.689   7.961
13066SOL     OW40638   5.271   0.222   9.177
13066SOL    HW140639   5.266   0.259   9.269
13066SOL    HW240640   5.199   0.153   9.165
13067SOL     OW40641   4.338   0.122   7.565
13067SOL    HW140642   4.436   0.100   7.572
13067SOL    HW240643   4.307   0.105   7.472
13068SOL     OW40644   4.505   0.264   9.197
13068SOL    HW140645   4.572   0.203   9.240
13068SOL    HW240646   4.432   0.283   9.262
13069SOL     OW40647   4.612   1.514   8.643
13069SOL    HW140648   4.589   1.489   8.549
13069SOL    HW240649   4.673   1.445   8.682
13070SOL     OW40650   5.075   0.590   8.881
13070SOL    HW140651   5.103   0.547   8.966
13070SOL    HW240652   5.100   0.686   8.882
13071SOL     OW40653   4.527   1.402   8.372
13071SOL    HW140654   4.617   1.416   8.330
13071SOL    HW240655   4.456   1.404   8.301
13072SOL     OW40656   4.646   0.503   8.347
13072SOL    HW140657   4.621   0.494   8.251
13072SOL    HW240658   4.694   0.421   8.378
13073SOL     OW40659   4.263   0.064   7.960
13073SOL    HW140660   4.182   0.065   8.018
13073SOL    HW240661   4.266   0.147   7.905
13074SOL     OW40662   5.158   1.188   7.489
13074SOL    HW140663   5.190   1.112   7.546
13074SOL    HW240664   5.066   1.215   7.519
13075SOL     OW40665   4.021   0.035   7.619
13075SOL    HW140666   4.070   0.119   7.598
13075SOL    HW240667   4.083  -0.030   7.664
13076SOL     OW40668   4.659   0.236   7.928
13076SOL    HW140669   4.611   0.277   7.850
13076SOL    HW240670   4.758   0.234   7.909
13077SOL     OW40671   4.800   0.683   8.912
13077SOL    HW140672   4.720   0.622   8.915
13077SOL    HW240673   4.881   0.630   8.888
13078SOL     OW40674   4.951   1.570   8.241
13078SOL    HW140675   4.972   1.644   8.176
13078SOL    HW240676   5.019   1.570   8.314
13079SOL     OW40677   4.183   1.152   8.189
13079SOL    HW140678   4.112   1.125   8.254
13079SOL    HW240679   4.157   1.124   8.096
13080SOL     OW40680   4.995   1.797   8.039
13080SOL    HW140681   5.039   1.861   7.975
13080SOL    HW240682   4.945   1.849   8.109
13081SOL     OW40683   4.756   0.549   7.464
13081SOL    HW140684   4.715   0.631   7.425
13081SOL    HW240685   4.820   0.575   7.537
13082SOL     OW40686   3.802   0.556   8.834
13082SOL    HW140687   3.894   0.555   8.793
13082SOL    HW240688   3.796   0.630   8.901
13083SOL     OW40689   4.285   0.222   8.595
13083SOL    HW140690   4.323   0.138   8.632
13083SOL    HW240691   4.197   0.241   8.639
13084SOL     OW40692   4.590   0.454   8.090
13084SOL    HW140693   4.558   0.526   8.028
13084SOL    HW240694   4.614   0.373   8.037
13085SOL     OW40695   4.741   0.039   8.201
13085SOL    HW140696   4.669   0.044   8.132
13085SOL    HW240697   4.717  -0.030   8.270
13086SOL     OW40698   5.153   1.173   8.315
13086SOL    HW140699   5.098   1.089   8.308
13086SOL    HW240700   5.179   1.202   8.223
13087SOL     OW40701   5.190   0.590   8.440
13087SOL    HW140702   5.160   0.495   8.447
13087SOL    HW240703   5.263   0.606   8.506
13088SOL     OW40704   5.581   0.833   7.825
13088SOL    HW140705   5.623   0.769   7.889
13088SOL    HW240706   5.543   0.782   7.747
13089SOL     OW40707   4.212   1.385   7.622
13089SOL    HW140708   4.125   1.370   7.669
13089SOL    HW240709   4.195   1.411   7.527
13090SOL     OW40710   5.388   1.280   8.105
13090SOL    HW140711   5.487   1.288   8.119
13090SOL    HW240712   5.343   1.364   8.136
13091SOL     OW40713   5.114   0.575   7.526
13091SOL    HW140714   5.060   0.554   7.607
13091SOL    HW240715   5.205   0.534   7.535
13092SOL     OW40716   4.251   0.256   7.776
13092SOL    HW140717   4.278   0.197   7.701
13092SOL    HW240718   4.251   0.351   7.745
13093SOL     OW40719   5.478   1.223   9.036
13093SOL    HW140720   5.569   1.184   9.023
13093SOL    HW240721   5.486   1.319   9.060
13094SOL     OW40722   4.788   1.347   8.788
13094SOL    HW140723   4.708   1.324   8.843
13094SOL    HW240724   4.871   1.321   8.837
13095SOL     OW40725   5.316   1.629   9.073
13095SOL    HW140726   5.343   1.663   8.983
13095SOL    HW240727   5.395   1.591   9.119
13096SOL     OW40728   4.835   1.195   8.548
13096SOL    HW140729   4.795   1.239   8.629
13096SOL    HW240730   4.794   1.232   8.465
13097SOL     OW40731   5.362   1.099   8.527
13097SOL    HW140732   5.367   1.180   8.586
13097SOL    HW240733   5.276   1.101   8.476
13098SOL     OW40734   4.639   0.089   8.850
13098SOL    HW140735   4.664   0.069   8.755
13098SOL    HW240736   4.711   0.145   8.892
13099SOL     OW40737   4.704   1.116   9.167
13099SOL    HW140738   4.605   1.122   9.177
13099SOL    HW240739   4.727   1.036   9.111
13100SOL     OW40740   4.429   1.050   7.816
13100SOL    HW140741   4.415   1.057   7.915
13100SOL    HW240742   4.513   0.999   7.798
13101SOL     OW40743   4.134   0.813   8.699
13101SOL    HW140744   4.220   0.825   8.749
13101SOL    HW240745   4.092   0.726   8.726
13102SOL     OW40746   4.998   0.386   8.710
13102SOL    HW140747   5.019   0.460   8.774
13102SOL    HW240748   4.909   0.403   8.667
13103SOL     OW40749   3.788   1.564   8.779
13103SOL    HW140750   3.742   1.646   8.745
13103SOL    HW240751   3.886   1.583   8.788
13104SOL     OW40752   4.091   1.100   7.949
13104SOL    HW140753   4.084   1.183   7.893
13104SOL    HW240754   4.095   1.020   7.889
13105SOL     OW40755   4.290   0.537   8.313
13105SOL    HW140756   4.302   0.603   8.239
13105SOL    HW240757   4.336   0.571   8.396
13106SOL     OW40758   4.976   1.348   7.836
13106SOL    HW140759   5.026   1.425   7.876
13106SOL    HW240760   4.881   1.350   7.868
13107SOL     OW40761   4.996   1.445   8.590
13107SOL    HW140762   5.043   1.458   8.677
13107SOL    HW240763   4.930   1.371   8.599
13108SOL     OW40764   5.306   0.639   7.920
13108SOL    HW140765   5.275   0.700   7.993
13108SOL    HW240766   5.356   0.691   7.851
13109SOL     OW40767   4.078   1.510   8.777
13109SOL    HW140768   4.057   1.466   8.690
13109SOL    HW240769   4.175   1.536   8.780
13110SOL     OW40770   4.126   0.751   9.046
13110SOL    HW140771   4.194   0.806   8.999
13110SOL    HW240772   4.166   0.663   9.073
13111SOL     OW40773   5.311   0.779   9.118
13111SOL    HW140774   5.219   0.817   9.113
13111SOL    HW240775   5.371   0.826   9.053
13112SOL     OW40776   4.737   0.105   9.218
13112SOL    HW140777   4.743   0.190   9.166
13112SOL    HW240778   4.769   0.029   9.161
13113SOL     OW40779   4.228   0.050   9.188
13113SOL    HW140780   4.186  -0.007   9.118
13113SOL    HW240781   4.162   0.119   9.220
13114SOL     OW40782   4.297   0.870   8.477
13114SOL    HW140783   4.341   0.959   8.468
13114SOL    HW240784   4.234   0.870   8.554
13115SOL     OW40785   5.084   0.862   8.493
13115SOL    HW140786   5.009   0.862   8.427
13115SOL    HW240787   5.121   0.770   8.502
13116SOL     OW40788   4.933   0.525   7.723
13116SOL    HW140789   4.946   0.441   7.777
13116SOL    HW240790   4.904   0.599   7.783
13117SOL     OW40791   4.031   0.213   8.679
13117SOL    HW140792   4.008   0.250   8.769
13117SOL    HW240793   4.001   0.118   8.673
13118SOL     OW40794   3.761   1.310   8.730
13118SOL    HW140795   3.814   1.261   8.798
13118SOL    HW240796   3.783   1.408   8.735
13119SOL     OW40797   4.456   0.634   8.512
13119SOL    HW140798   4.515   0.608   8.436
13119SOL    HW240799   4.428   0.730   8.501
13120SOL     OW40800   5.452   0.935   9.302
13120SOL    HW140801   5.406   0.928   9.213
13120SOL    HW240802   5.390   0.979   9.368
13121SOL     OW40803   4.031   0.063   8.066
13121SOL    HW140804   4.020   0.157   8.099
13121SOL    HW240805   4.026   0.000   8.143
13122SOL     OW40806   5.346   0.367   7.822
13122SOL    HW140807   5.348   0.291   7.886
13122SOL    HW240808   5.298   0.444   7.862
13123SOL     OW40809   4.747   0.766   8.414
13123SOL    HW140810   4.762   0.787   8.510
13123SOL    HW240811   4.717   0.671   8.405
13124SOL     OW40812   4.704   1.573   9.148
13124SOL    HW140813   4.684   1.617   9.060
13124SOL    HW240814   4.743   1.482   9.132
13125SOL     OW40815   5.583   1.518   9.053
13125SOL    HW140816   5.597   1.545   8.958
13125SOL    HW240817   5.666   1.540   9.106
13126SOL     OW40818   4.074   0.898   9.252
13126SOL    HW140819   4.150   0.942   9.300
13126SOL    HW240820   4.109   0.851   9.170
13127SOL     OW40821   5.264   0.274   7.573
13127SOL    HW140822   5.203   0.199   7.596
13127SOL    HW240823   5.286   0.326   7.656
13128SOL     OW40824   5.027   0.838   7.490
13128SOL    HW140825   5.061   0.745   7.505
13128SOL    HW240826   5.045   0.865   7.395
13129SOL     OW40827   4.792   1.333   8.297
13129SOL    HW140828   4.799   1.249   8.242
13129SOL    HW240829   4.854   1.402   8.261
13130SOL     OW40830   4.043   0.810   8.397
13130SOL    HW140831   4.136   0.846   8.402
13130SOL    HW240832   4.037   0.725   8.449
13131SOL     OW40833   4.063   0.509   8.454
13131SOL    HW140834   4.011   0.426   8.437
13131SOL    HW240835   4.140   0.514   8.390
13132SOL     OW40836   4.862   0.380   9.126
13132SOL    HW140837   4.817   0.443   9.190
13132SOL    HW240838   4.955   0.411   9.109
13133SOL     OW40839   4.884   0.207   8.925
13133SOL    HW140840   4.884   0.271   9.002
13133SOL    HW240841   4.912   0.255   8.842
13134SOL     OW40842   3.732   1.326   7.648
13134SOL    HW140843   3.639   1.347   7.617
13134SOL    HW240844   3.742   1.227   7.661
13135SOL     OW40845   3.812   1.801   8.375
13135SOL    HW140846   3.770   1.715   8.348
13135SOL    HW240847   3.906   1.804   8.341
13136SOL     OW40848   4.228   1.568   8.358
13136SOL    HW140849   4.294   1.642   8.367
13136SOL    HW240850   4.272   1.489   8.316
13137SOL     OW40851   4.726   0.796   8.686
13137SOL    HW140852   4.767   0.764   8.772
13137SOL    HW240853   4.630   0.769   8.683
13138SOL     OW40854   3.764   0.544   8.562
13138SOL    HW140855   3.849   0.511   8.521
13138SOL    HW240856   3.777   0.559   8.660
13139SOL     OW40857   3.913   0.520   9.170
13139SOL    HW140858   3.972   0.480   9.100
13139SOL    HW240859   3.855   0.591   9.129
13140SOL     OW40860   5.093   0.950   9.108
13140SOL    HW140861   5.132   1.039   9.128
13140SOL    HW240862   5.103   0.930   9.011
13141SOL     OW40863   4.539   0.572   7.773
13141SOL    HW140864   4.546   0.483   7.727
13141SOL    HW240865   4.445   0.606   7.765
13142SOL     OW40866   5.381   0.604   8.654
13142SOL    HW140867   5.343   0.535   8.716
13142SOL    HW240868   5.463   0.568   8.610
13143SOL     OW40869   3.976   1.564   9.192
13143SOL    HW140870   3.946   1.621   9.268
13143SOL    HW240871   3.969   1.467   9.218
13144SOL     OW40872   4.395   0.464   8.717
13144SOL    HW140873   4.361   0.375   8.687
13144SOL    HW240874   4.421   0.518   8.637
13145SOL     OW40875   4.654   1.678   8.913
13145SOL    HW140876   4.630   1.660   8.818
13145SOL    HW240877   4.684   1.772   8.923
13146SOL     OW40878   4.197   0.500   7.639
13146SOL    HW140879   4.258   0.580   7.643
13146SOL    HW240880   4.102   0.531   7.646
13147SOL     OW40881   3.883   1.137   8.914
13147SOL    HW140882   3.905   1.076   8.990
13147SOL    HW240883   3.893   1.088   8.828
13148SOL     OW40884   5.071   1.059   8.682
13148SOL    HW140885   5.095   0.996   8.608
13148SOL    HW240886   4.981   1.099   8.664
13149SOL     OW40887   5.026   0.855   7.757
13149SOL    HW140888   4.940   0.824   7.799
13149SOL    HW240889   5.022   0.841   7.658
13150SOL     OW40890   5.483   1.747   8.602
13150SOL    HW140891   5.544   1.777   8.529
13150SOL    HW240892   5.445   1.658   8.580
13151SOL     OW40893   4.976   1.731   8.576
13151SOL    HW140894   5.060   1.736   8.522
13151SOL    HW240895   4.953   1.635   8.594
13152SOL     OW40896   3.807   1.258   8.470
13152SOL    HW140897   3.802   1.257   8.570
13152SOL    HW240898   3.724   1.217   8.432
13153SOL     OW40899   4.412   1.662   9.164
13153SOL    HW140900   4.356   1.743   9.173
13153SOL    HW240901   4.464   1.666   9.078
13154SOL     OW40902   5.450   0.135   7.971
13154SOL    HW140903   5.523   0.118   7.904
13154SOL    HW240904   5.419   0.048   8.009
13155SOL     OW40905   5.112   1.573   7.925
13155SOL    HW140906   5.179   1.585   7.851
13155SOL    HW240907   5.072   1.662   7.948
13156SOL     OW40908   3.854   1.794   9.299
13156SOL    HW140909   3.813   1.720   9.352
13156SOL    HW240910   3.918   1.845   9.357
13157SOL     OW40911   5.004   0.927   8.120
13157SOL    HW140912   5.064   0.846   8.122
13157SOL    HW240913   5.044   0.996   8.060
13158SOL     OW40914   4.554   1.273   8.870
13158SOL    HW140915   4.549   1.306   8.965
13158SOL    HW240916   4.468   1.292   8.824
13159SOL     OW40917   4.396   1.616   7.602
13159SOL    HW140918   4.405   1.626   7.503
13159SOL    HW240919   4.356   1.527   7.623
13160SOL     OW40920   5.374   1.720   8.842
13160SOL    HW140921   5.427   1.730   8.758
13160SOL    HW240922   5.347   1.810   8.876
13161SOL     OW40923   5.565   0.175   8.411
13161SOL    HW140924   5.604   0.090   8.375
13161SOL    HW240925   5.467   0.177   8.392
13162SOL     OW40926   3.987   0.326   8.168
13162SOL    HW140927   3.908   0.377   8.134
13162SOL    HW240928   3.978   0.311   8.266
13163SOL     OW40929   4.918   1.612   7.479
13163SOL    HW140930   4.924   1.519   7.516
13163SOL    HW240931   4.859   1.612   7.399
13164SOL     OW40932   4.546   1.002   8.820
13164SOL    HW140933   4.586   1.001   8.728
13164SOL    HW240934   4.556   1.094   8.860
13165SOL     OW40935   4.640   0.910   7.739
13165SOL    HW140936   4.703   0.948   7.671
13165SOL    HW240937   4.680   0.827   7.778
13166SOL     OW40938   5.228   1.607   7.492
13166SOL    HW140939   5.136   1.644   7.499
13166SOL    HW240940   5.266   1.627   7.402
13167SOL     OW40941   4.096   1.288   8.938
13167SOL    HW140942   4.083   1.381   8.904
13167SOL    HW240943   4.012   1.236   8.925
13168SOL     OW40944   5.338   1.292   8.737
13168SOL    HW140945   5.398   1.295   8.817
13168SOL    HW240946   5.263   1.356   8.750
13169SOL     OW40947   4.763   1.098   8.144
13169SOL    HW140948   4.693   1.051   8.198
13169SOL    HW240949   4.822   1.030   8.101
13170SOL     OW40950   4.738   0.236   8.419
13170SOL    HW140951   4.730   0.200   8.326
13170SOL    HW240952   4.736   0.160   8.484
13171SOL     OW40953   4.314   1.487   7.939
13171SOL    HW140954   4.356   1.429   7.869
13171SOL    HW240955   4.270   1.566   7.895
13172SOL     OW40956   5.433   0.385   8.829
13172SOL    HW140957   5.506   0.454   8.833
13172SOL    HW240958   5.461   0.310   8.770
13173SOL     OW40959   3.979   1.348   7.738
13173SOL    HW140960   3.883   1.349   7.711
13173SOL    HW240961   3.991   1.401   7.822
13174SOL     OW40962   3.829   1.013   9.174
13174SOL    HW140963   3.752   0.980   9.228
13174SOL    HW240964   3.914   0.983   9.216
13175SOL     OW40965   4.396   0.203   8.937
13175SOL    HW140966   4.486   0.187   8.897
13175SOL    HW240967   4.404   0.208   9.036
13176SOL     OW40968   3.799   0.345   7.481
13176SOL    HW140969   3.707   0.317   7.452
13176SOL    HW240970   3.830   0.422   7.425
13177SOL     OW40971   5.164   0.856   8.846
13177SOL    HW140972   5.107   0.908   8.783
13177SOL    HW240973   5.260   0.868   8.822
13178SOL     OW40974   3.796   0.166   7.766
13178SOL    HW140975   3.779   0.249   7.712
13178SOL    HW240976   3.886   0.129   7.744
13179SOL     OW40977   4.907   1.335   7.567
13179SOL    HW140978   4.808   1.324   7.569
13179SOL    HW240979   4.941   1.350   7.660
13180SOL     OW40980   4.337   0.842   8.879
13180SOL    HW140981   4.393   0.923   8.862
13180SOL    HW240982   4.396   0.762   8.882
13181SOL     OW40983   5.217   1.767   8.407
13181SOL    HW140984   5.250   1.831   8.338
13181SOL    HW240985   5.283   1.761   8.482
13182SOL     OW40986   4.440   0.565   9.156
13182SOL    HW140987   4.459   0.630   9.230
13182SOL    HW240988   4.500   0.485   9.165
13183SOL     OW40989   5.174   1.220   9.081
13183SOL    HW140990   5.165   1.210   9.180
13183SOL    HW240991   5.270   1.213   9.055
13184SOL     OW40992   4.114   1.741   9.008
13184SOL    HW140993   4.023   1.782   9.006
13184SOL    HW240994   4.107   1.647   9.040
13185SOL     OW40995   5.398   0.883   8.702
13185SOL    HW140996   5.371   0.794   8.665
13185SOL    HW240997   5.399   0.951   8.629
13186SOL     OW40998   4.949   0.325   7.897
13186SOL    HW140999   5.014   0.251   7.886
13186SOL    HW241000   4.969   0.375   7.981
13187SOL     OW41001   4.318   0.745   8.100
13187SOL    HW141002   4.368   0.830   8.081
13187SOL    HW241003   4.230   0.747   8.052
13188SOL     OW41004   5.501   0.342   9.090
13188SOL    HW141005   5.484   0.373   8.996
13188SOL    HW241006   5.417   0.305   9.128
13189SOL     OW41007   5.454   0.934   8.965
13189SOL    HW141008   5.492   1.025   8.980
13189SOL    HW241009   5.446   0.917   8.866
13190SOL     OW41010   4.583   1.374   7.464
13190SOL    HW141011   4.537   1.389   7.552
13190SOL    HW241012   4.627   1.459   7.434
13191SOL     OW41013   4.385   1.790   8.401
13191SOL    HW141014   4.339   1.878   8.388
13191SOL    HW241015   4.484   1.802   8.394
13192SOL     OW41016   4.583   0.956   8.309
13192SOL    HW141017   4.637   0.887   8.357
13192SOL    HW241018   4.551   1.025   8.375
13193SOL     OW41019   4.807   0.984   7.535
13193SOL    HW141020   4.784   1.037   7.453
13193SOL    HW241021   4.888   0.928   7.516
13194SOL     OW41022   5.585   1.569   8.299
13194SOL    HW141023   5.514   1.557   8.229
13194SOL    HW241024   5.586   1.490   8.359
13195SOL     OW41025   3.945   1.314   9.292
13195SOL    HW141026   3.880   1.241   9.271
13195SOL    HW241027   3.949   1.328   9.390
13196SOL     OW41028   3.803   1.240   8.101
13196SOL    HW141029   3.802   1.193   8.189
13196SOL    HW241030   3.885   1.212   8.050
13197SOL     OW41031   4.396   1.391   9.072
13197SOL    HW141032   4.318   1.341   9.110
13197SOL    HW241033   4.393   1.486   9.103
13198SOL     OW41034   5.548   0.192   8.675
13198SOL    HW141035   5.544   0.102   8.719
13198SOL    HW241036   5.551   0.181   8.576
13199SOL     OW41037   4.152   0.424   7.968
13199SOL    HW141038   4.182   0.352   7.906
13199SOL    HW241039   4.113   0.384   8.051
13200SOL     OW41040   5.429   1.487   8.552
13200SOL    HW141041   5.336   1.462   8.525
13200SOL    HW241042   5.455   1.437   8.634
13201SOL     OW41043   4.041   0.547   8.728
13201SOL    HW141044   4.079   0.488   8.800
13201SOL    HW241045   4.081   0.521   8.640
13202SOL     OW41046   4.536   1.586   8.135
13202SOL    HW141047   4.568   1.596   8.041
13202SOL    HW241048   4.457   1.524   8.137
13203SOL     OW41049   5.148   0.214   8.560
13203SOL    HW141050   5.200   0.149   8.615
13203SOL    HW241051   5.099   0.277   8.621
13204SOL     OW41052   4.725   0.034   8.602
13204SOL    HW141053   4.662  -0.038   8.571
13204SOL    HW241054   4.818  -0.002   8.602
13205SOL     OW41055   4.494   1.330   7.749
13205SOL    HW141056   4.448   1.243   7.766
13205SOL    HW241057   4.585   1.327   7.790
13206SOL     OW41058   4.342   1.567   8.732
13206SOL    HW141059   4.337   1.649   8.789
13206SOL    HW241060   4.431   1.564   8.687
13207SOL     OW41061   5.076   0.052   7.616
13207SOL    HW141062   5.111   0.011   7.532
13207SOL    HW241063   4.986   0.014   7.636
13208SOL     OW41064   5.024   0.453   8.139
13208SOL    HW141065   4.965   0.533   8.143
13208SOL    HW241066   5.039   0.418   8.232
13209SOL     OW41067   5.317   0.221   8.330
13209SOL    HW141068   5.233   0.220   8.384
13209SOL    HW241069   5.319   0.304   8.274
13210SOL     OW41070   3.763   1.077   7.748
13210SOL    HW141071   3.862   1.066   7.739
13210SOL    HW241072   3.723   0.991   7.780
13211SOL     OW41073   4.599   1.646   7.785
13211SOL    HW141074   4.522   1.611   7.731
13211SOL    HW241075   4.567   1.717   7.847
13212SOL     OW41076   3.954   0.628   9.423
13212SOL    HW141077   3.861   0.626   9.460
13212SOL    HW241078   3.955   0.589   9.331
13213SOL     OW41079   3.949   0.275  10.306
13213SOL    HW141080   3.984   0.258  10.398
13213SOL    HW241081   3.861   0.230  10.294
13214SOL     OW41082   3.743   0.368   9.957
13214SOL    HW141083   3.661   0.411   9.996
13214SOL    HW241084   3.715   0.295   9.894
13215SOL     OW41085   4.293   1.275  10.475
13215SOL    HW141086   4.200   1.268  10.438
13215SOL    HW241087   4.304   1.364  10.519
13216SOL     OW41088   5.279   1.511  10.013
13216SOL    HW141089   5.222   1.495  10.094
13216SOL    HW241090   5.220   1.521   9.933
13217SOL     OW41091   4.859   0.703  10.027
13217SOL    HW141092   4.916   0.781  10.002
13217SOL    HW241093   4.799   0.729  10.103
13218SOL     OW41094   5.479   0.607   9.541
13218SOL    HW141095   5.467   0.594   9.442
13218SOL    HW241096   5.449   0.526   9.590
13219SOL     OW41097   4.492   1.144  10.333
13219SOL    HW141098   4.414   1.161  10.393
13219SOL    HW241099   4.526   1.231  10.297
13220SOL     OW41100   4.574   0.798  11.133
13220SOL    HW141101   4.570   0.874  11.198
13220SOL    HW241102   4.596   0.834  11.042
13221SOL     OW41103   4.409   1.012   9.975
13221SOL    HW141104   4.478   0.996  10.045
13221SOL    HW241105   4.336   1.069  10.013
13222SOL     OW41106   4.410   1.161  11.113
13222SOL    HW141107   4.470   1.240  11.127
13222SOL    HW241108   4.324   1.192  11.072
13223SOL     OW41109   4.059   1.435  10.371
13223SOL    HW141110   3.981   1.404  10.318
13223SOL    HW241111   4.117   1.493  10.314
13224SOL     OW41112   5.184   1.505  10.649
13224SOL    HW141113   5.208   1.599  10.675
13224SOL    HW241114   5.168   1.451  10.731
13225SOL     OW41115   4.162   0.392  10.809
13225SOL    HW141116   4.244   0.336  10.818
13225SOL    HW241117   4.081   0.334  10.813
13226SOL     OW41118   5.327   0.447  10.047
13226SOL    HW141119   5.253   0.493   9.997
13226SOL    HW241120   5.378   0.515  10.100
13227SOL     OW41121   3.955   1.713   9.793
13227SOL    HW141122   3.989   1.790   9.847
13227SOL    HW241123   3.999   1.713   9.703
13228SOL     OW41124   4.851   1.341  11.000
13228SOL    HW141125   4.898   1.341  11.088
13228SOL    HW241126   4.803   1.254  10.989
13229SOL     OW41127   3.954   1.434   9.848
13229SOL    HW141128   3.928   1.530   9.848
13229SOL    HW241129   3.883   1.380   9.893
13230SOL     OW41130   3.964   1.091  10.196
13230SOL    HW141131   3.978   1.007  10.248
13230SOL    HW241132   3.909   1.155  10.251
13231SOL     OW41133   4.344   1.786  10.749
13231SOL    HW141134   4.252   1.769  10.784
13231SOL    HW241135   4.372   1.878  10.775
13232SOL     OW41136   4.330   0.964   9.433
13232SOL    HW141137   4.337   1.048   9.379
13232SOL    HW241138   4.376   0.977   9.521
13233SOL     OW41139   5.318   0.114  10.790
13233SOL    HW141140   5.300   0.181  10.718
13233SOL    HW241141   5.315   0.160  10.879
13234SOL     OW41142   3.846   0.643   9.873
13234SOL    HW141143   3.801   0.555   9.890
13234SOL    HW241144   3.845   0.697   9.957
13235SOL     OW41145   5.566   1.767   9.669
13235SOL    HW141146   5.620   1.738   9.749
13235SOL    HW241147   5.596   1.857   9.640
13236SOL     OW41148   3.751   1.596   9.427
13236SOL    HW141149   3.732   1.500   9.448
13236SOL    HW241150   3.718   1.654   9.502
13237SOL     OW41151   5.413   0.922   9.922
13237SOL    HW141152   5.508   0.893   9.930
13237SOL    HW241153   5.405   0.987   9.847
13238SOL     OW41154   5.365   1.108   9.742
13238SOL    HW141155   5.451   1.110   9.690
13238SOL    HW241156   5.379   1.155   9.830
13239SOL     OW41157   3.837   0.737  10.907
13239SOL    HW141158   3.925   0.724  10.952
13239SOL    HW241159   3.824   0.834  10.885
13240SOL     OW41160   4.337   1.365  10.036
13240SOL    HW141161   4.288   1.278  10.045
13240SOL    HW241162   4.314   1.408   9.949
13241SOL     OW41163   5.017   1.228  10.733
13241SOL    HW141164   5.054   1.155  10.675
13241SOL    HW241165   5.069   1.233  10.818
13242SOL     OW41166   4.533   0.004   9.812
13242SOL    HW141167   4.573   0.095   9.803
13242SOL    HW241168   4.433   0.012   9.818
13243SOL     OW41169   3.921   0.976  10.574
13243SOL    HW141170   4.010   0.931  10.560
13243SOL    HW241171   3.848   0.911  10.555
13244SOL     OW41172   5.249   0.999   9.500
13244SOL    HW141173   5.186   0.923   9.513
13244SOL    HW241174   5.297   1.017   9.586
13245SOL     OW41175   4.911   1.792  10.926
13245SOL    HW141176   4.935   1.852  10.850
13245SOL    HW241177   4.918   1.697  10.896
13246SOL     OW41178   4.041   0.251  11.111
13246SOL    HW141179   4.112   0.322  11.117
13246SOL    HW241180   3.953   0.290  11.139
13247SOL     OW41181   5.190   1.417  10.263
13247SOL    HW141182   5.131   1.423  10.343
13247SOL    HW241183   5.175   1.329  10.217
13248SOL     OW41184   5.391   1.714   9.882
13248SOL    HW141185   5.350   1.691   9.794
13248SOL    HW241186   5.373   1.640   9.947
13249SOL     OW41187   4.322   0.729   9.580
13249SOL    HW141188   4.346   0.798   9.512
13249SOL    HW241189   4.244   0.762   9.634
13250SOL     OW41190   5.005   0.345  10.254
13250SOL    HW141191   4.919   0.295  10.241
13250SOL    HW241192   5.067   0.291  10.310
13251SOL     OW41193   5.300   1.662   9.617
13251SOL    HW141194   5.389   1.708   9.620
13251SOL    HW241195   5.279   1.638   9.522
13252SOL     OW41196   4.531   0.605  10.775
13252SOL    HW141197   4.484   0.602  10.864
13252SOL    HW241198   4.480   0.550  10.709
13253SOL     OW41199   5.118   0.469  10.984
13253SOL    HW141200   5.098   0.512  11.072
13253SOL    HW241201   5.196   0.407  10.993
13254SOL     OW41202   4.697   0.890  10.882
13254SOL    HW141203   4.743   0.806  10.853
13254SOL    HW241204   4.641   0.924  10.807
13255SOL     OW41205   4.715   0.410  10.552
13255SOL    HW141206   4.638   0.444  10.606
13255SOL    HW241207   4.681   0.359  10.473
13256SOL     OW41208   4.765   0.701   9.739
13256SOL    HW141209   4.791   0.697   9.835
13256SOL    HW241210   4.680   0.650   9.725
13257SOL     OW41211   3.800   0.811  10.099
13257SOL    HW141212   3.899   0.799  10.108
13257SOL    HW241213   3.776   0.906  10.120
13258SOL     OW41214   3.854   1.821  10.881
13258SOL    HW141215   3.844   1.806  10.980
13258SOL    HW241216   3.768   1.857  10.845
13259SOL     OW41217   4.589   0.348   9.505
13259SOL    HW141218   4.648   0.411   9.456
13259SOL    HW241219   4.608   0.254   9.476
13260SOL     OW41220   5.443   0.585  11.141
13260SOL    HW141221   5.417   0.674  11.105
13260SOL    HW241222   5.441   0.517  11.068
13261SOL     OW41223   5.086   1.144   9.855
13261SOL    HW141224   5.169   1.115   9.807
13261SOL    HW241225   5.037   1.211   9.799
13262SOL     OW41226   4.274   0.196  10.195
13262SOL    HW141227   4.269   0.191  10.295
13262SOL    HW241228   4.276   0.292  10.166
13263SOL     OW41229   4.732   1.456   9.787
13263SOL    HW141230   4.686   1.528   9.735
13263SOL    HW241231   4.728   1.476   9.885
13264SOL     OW41232   4.075   1.801  10.163
13264SOL    HW141233   4.125   1.715  10.169
13264SOL    HW241234   4.140   1.878  10.160
13265SOL     OW41235   5.519   1.066  10.183
13265SOL    HW141236   5.457   1.051  10.107
13265SOL    HW241237   5.467   1.077  10.268
13266SOL     OW41238   4.951   1.550  10.816
13266SOL    HW141239   4.957   1.473  10.880
13266SOL    HW241240   4.899   1.524  10.736
13267SOL     OW41241   4.045   0.943   9.552
13267SOL    HW141242   4.127   0.982   9.510
13267SOL    HW241243   4.018   0.861   9.503
13268SOL     OW41244   5.182   0.735  10.038
13268SOL    HW141245   5.177   0.670  10.113
13268SOL    HW241246   5.262   0.794  10.051
13269SOL     OW41247   4.185   1.266  11.037
13269SOL    HW141248   4.135   1.267  10.951
13269SOL    HW241249   4.122   1.248  11.113
13270SOL     OW41250   4.835   1.776   9.547
13270SOL    HW141251   4.775   1.714   9.597
13270SOL    HW241252   4.866   1.732   9.462
13271SOL     OW41253   3.926   0.285  10.808
13271SOL    HW141254   3.846   0.345  10.795
13271SOL    HW241255   3.916   0.236  10.894
13272SOL     OW41256   5.356   1.377   9.391
13272SOL    HW141257   5.324   1.471   9.381
13272SOL    HW241258   5.280   1.314   9.379
13273SOL     OW41259   4.188   1.743   9.633
13273SOL    HW141260   4.221   1.782   9.719
13273SOL    HW241261   4.264   1.736   9.568
13274SOL     OW41262   5.124   0.107   9.736
13274SOL    HW141263   5.100   0.070   9.646
13274SOL    HW241264   5.223   0.123   9.740
13275SOL     OW41265   3.973   1.785  10.551
13275SOL    HW141266   4.030   1.720  10.601
13275SOL    HW241267   3.957   1.752  10.458
13276SOL     OW41268   4.664   1.698  10.214
13276SOL    HW141269   4.744   1.641  10.235
13276SOL    HW241270   4.615   1.658  10.137
13277SOL     OW41271   4.106   0.700   9.790
13277SOL    HW141272   4.151   0.610   9.787
13277SOL    HW241273   4.012   0.689   9.823
13278SOL     OW41274   5.271   0.222  11.039
13278SOL    HW141275   5.266   0.259  11.131
13278SOL    HW241276   5.199   0.153  11.027
13279SOL     OW41277   4.338   0.122   9.427
13279SOL    HW141278   4.436   0.100   9.434
13279SOL    HW241279   4.307   0.105   9.334
13280SOL     OW41280   4.505   0.264  11.059
13280SOL    HW141281   4.572   0.203  11.102
13280SOL    HW241282   4.432   0.283  11.124
13281SOL     OW41283   4.612   1.514  10.505
13281SOL    HW141284   4.589   1.489  10.411
13281SOL    HW241285   4.673   1.445  10.544
13282SOL     OW41286   5.075   0.590  10.743
13282SOL    HW141287   5.103   0.547  10.828
13282SOL    HW241288   5.100   0.686  10.744
13283SOL     OW41289   4.527   1.402  10.234
13283SOL    HW141290   4.617   1.416  10.192
13283SOL    HW241291   4.456   1.404  10.163
13284SOL     OW41292   4.646   0.503  10.209
13284SOL    HW141293   4.621   0.494  10.113
13284SOL    HW241294   4.694   0.421  10.240
13285SOL     OW41295   4.263   0.064   9.822
13285SOL    HW141296   4.182   0.065   9.880
13285SOL    HW241297   4.266   0.147   9.767
13286SOL     OW41298   5.158   1.188   9.351
13286SOL    HW141299   5.190   1.112   9.408
13286SOL    HW241300   5.066   1.215   9.381
13287SOL     OW41301   4.021   0.035   9.481
13287SOL    HW141302   4.070   0.119   9.460
13287SOL    HW241303   4.083  -0.030   9.526
13288SOL     OW41304   4.659   0.236   9.790
13288SOL    HW141305   4.611   0.277   9.712
13288SOL    HW241306   4.758   0.234   9.771
13289SOL     OW41307   4.800   0.683  10.774
13289SOL    HW141308   4.720   0.622  10.777
13289SOL    HW241309   4.881   0.630  10.750
13290SOL     OW41310   4.951   1.570  10.103
13290SOL    HW141311   4.972   1.644  10.038
13290SOL    HW241312   5.019   1.570  10.176
13291SOL     OW41313   4.183   1.152  10.051
13291SOL    HW141314   4.112   1.125  10.116
13291SOL    HW241315   4.157   1.124   9.958
13292SOL     OW41316   4.995   1.797   9.901
13292SOL    HW141317   5.039   1.861   9.837
13292SOL    HW241318   4.945   1.849   9.971
13293SOL     OW41319   4.756   0.549   9.326
13293SOL    HW141320   4.715   0.631   9.287
13293SOL    HW241321   4.820   0.575   9.399
13294SOL     OW41322   3.802   0.556  10.696
13294SOL    HW141323   3.894   0.555  10.655
13294SOL    HW241324   3.796   0.630  10.763
13295SOL     OW41325   4.285   0.222  10.457
13295SOL    HW141326   4.323   0.138  10.494
13295SOL    HW241327   4.197   0.241  10.501
13296SOL     OW41328   4.590   0.454   9.952
13296SOL    HW141329   4.558   0.526   9.890
13296SOL    HW241330   4.614   0.373   9.899
13297SOL     OW41331   4.741   0.039  10.063
13297SOL    HW141332   4.669   0.044   9.994
13297SOL    HW241333   4.717  -0.030  10.132
13298SOL     OW41334   5.153   1.173  10.177
13298SOL    HW141335   5.098   1.089  10.170
13298SOL    HW241336   5.179   1.202  10.085
13299SOL     OW41337   5.190   0.590  10.302
13299SOL    HW141338   5.160   0.495  10.309
13299SOL    HW241339   5.263   0.606  10.368
13300SOL     OW41340   5.581   0.833   9.687
13300SOL    HW141341   5.623   0.769   9.751
13300SOL    HW241342   5.543   0.782   9.609
13301SOL     OW41343   4.212   1.385   9.484
13301SOL    HW141344   4.125   1.370   9.531
13301SOL    HW241345   4.195   1.411   9.389
13302SOL     OW41346   5.388   1.280   9.967
13302SOL    HW141347   5.487   1.288   9.981
13302SOL    HW241348   5.343   1.364   9.998
13303SOL     OW41349   5.114   0.575   9.388
13303SOL    HW141350   5.060   0.554   9.469
13303SOL    HW241351   5.205   0.534   9.397
13304SOL     OW41352   4.251   0.256   9.638
13304SOL    HW141353   4.278   0.197   9.563
13304SOL    HW241354   4.251   0.351   9.607
13305SOL     OW41355   5.478   1.223  10.898
13305SOL    HW141356   5.569   1.184  10.885
13305SOL    HW241357   5.486   1.319  10.922
13306SOL     OW41358   4.788   1.347  10.650
13306SOL    HW141359   4.708   1.324  10.705
13306SOL    HW241360   4.871   1.321  10.699
13307SOL     OW41361   5.316   1.629  10.935
13307SOL    HW141362   5.343   1.663  10.845
13307SOL    HW241363   5.395   1.591  10.981
13308SOL     OW41364   4.835   1.195  10.410
13308SOL    HW141365   4.795   1.239  10.491
13308SOL    HW241366   4.794   1.232  10.327
13309SOL     OW41367   5.362   1.099  10.389
13309SOL    HW141368   5.367   1.180  10.448
13309SOL    HW241369   5.276   1.101  10.338
13310SOL     OW41370   4.639   0.089  10.712
13310SOL    HW141371   4.664   0.069  10.617
13310SOL    HW241372   4.711   0.145  10.754
13311SOL     OW41373   4.704   1.116  11.029
13311SOL    HW141374   4.605   1.122  11.039
13311SOL    HW241375   4.727   1.036  10.973
13312SOL     OW41376   4.429   1.050   9.678
13312SOL    HW141377   4.415   1.057   9.777
13312SOL    HW241378   4.513   0.999   9.660
13313SOL     OW41379   4.134   0.813  10.561
13313SOL    HW141380   4.220   0.825  10.611
13313SOL    HW241381   4.092   0.726  10.588
13314SOL     OW41382   4.998   0.386  10.572
13314SOL    HW141383   5.019   0.460  10.636
13314SOL    HW241384   4.909   0.403  10.529
13315SOL     OW41385   3.788   1.564  10.641
13315SOL    HW141386   3.742   1.646  10.607
13315SOL    HW241387   3.886   1.583  10.650
13316SOL     OW41388   4.091   1.100   9.811
13316SOL    HW141389   4.084   1.183   9.755
13316SOL    HW241390   4.095   1.020   9.751
13317SOL     OW41391   4.290   0.537  10.175
13317SOL    HW141392   4.302   0.603  10.101
13317SOL    HW241393   4.336   0.571  10.258
13318SOL     OW41394   4.976   1.348   9.698
13318SOL    HW141395   5.026   1.425   9.738
13318SOL    HW241396   4.881   1.350   9.730
13319SOL     OW41397   4.996   1.445  10.452
13319SOL    HW141398   5.043   1.458  10.539
13319SOL    HW241399   4.930   1.371  10.461
13320SOL     OW41400   5.306   0.639   9.782
13320SOL    HW141401   5.275   0.700   9.855
13320SOL    HW241402   5.356   0.691   9.713
13321SOL     OW41403   4.078   1.510  10.639
13321SOL    HW141404   4.057   1.466  10.552
13321SOL    HW241405   4.175   1.536  10.642
13322SOL     OW41406   4.126   0.751  10.908
13322SOL    HW141407   4.194   0.806  10.861
13322SOL    HW241408   4.166   0.663  10.935
13323SOL     OW41409   5.311   0.779  10.980
13323SOL    HW141410   5.219   0.817  10.975
13323SOL    HW241411   5.371   0.826  10.915
13324SOL     OW41412   4.737   0.105  11.080
13324SOL    HW141413   4.743   0.190  11.028
13324SOL    HW241414   4.769   0.029  11.023
13325SOL     OW41415   4.228   0.050  11.050
13325SOL    HW141416   4.186  -0.007  10.980
13325SOL    HW241417   4.162   0.119  11.082
13326SOL     OW41418   4.297   0.870  10.339
13326SOL    HW141419   4.341   0.959  10.330
13326SOL    HW241420   4.234   0.870  10.416
13327SOL     OW41421   5.084   0.862  10.355
13327SOL    HW141422   5.009   0.862  10.289
13327SOL    HW241423   5.121   0.770  10.364
13328SOL     OW41424   4.933   0.525   9.585
13328SOL    HW141425   4.946   0.441   9.639
13328SOL    HW241426   4.904   0.599   9.645
13329SOL     OW41427   4.031   0.213  10.541
13329SOL    HW141428   4.008   0.250  10.631
13329SOL    HW241429   4.001   0.118  10.535
13330SOL     OW41430   3.761   1.310  10.592
13330SOL    HW141431   3.814   1.261  10.660
13330SOL    HW241432   3.783   1.408  10.597
13331SOL     OW41433   4.456   0.634  10.374
13331SOL    HW141434   4.515   0.608  10.298
13331SOL    HW241435   4.428   0.730  10.363
13332SOL     OW41436   5.452   0.935  11.164
13332SOL    HW141437   5.406   0.928  11.075
13332SOL    HW241438   5.390   0.979  11.230
13333SOL     OW41439   4.031   0.063   9.928
13333SOL    HW141440   4.020   0.157   9.961
13333SOL    HW241441   4.026   0.000  10.005
13334SOL     OW41442   5.346   0.367   9.684
13334SOL    HW141443   5.348   0.291   9.748
13334SOL    HW241444   5.298   0.444   9.724
13335SOL     OW41445   4.747   0.766  10.276
13335SOL    HW141446   4.762   0.787  10.372
13335SOL    HW241447   4.717   0.671  10.267
13336SOL     OW41448   4.704   1.573  11.010
13336SOL    HW141449   4.684   1.617  10.922
13336SOL    HW241450   4.743   1.482  10.994
13337SOL     OW41451   5.583   1.518  10.915
13337SOL    HW141452   5.597   1.545  10.820
13337SOL    HW241453   5.666   1.540  10.968
13338SOL     OW41454   4.074   0.898  11.114
13338SOL    HW141455   4.150   0.942  11.162
13338SOL    HW241456   4.109   0.851  11.032
13339SOL     OW41457   5.264   0.274   9.435
13339SOL    HW141458   5.203   0.199   9.458
13339SOL    HW241459   5.286   0.326   9.518
13340SOL     OW41460   5.027   0.838   9.352
13340SOL    HW141461   5.061   0.745   9.367
13340SOL    HW241462   5.045   0.865   9.257
13341SOL     OW41463   4.792   1.333  10.159
13341SOL    HW141464   4.799   1.249  10.104
13341SOL    HW241465   4.854   1.402  10.123
13342SOL     OW41466   4.043   0.810  10.259
13342SOL    HW141467   4.136   0.846  10.264
13342SOL    HW241468   4.037   0.725  10.311
13343SOL     OW41469   4.063   0.509  10.316
13343SOL    HW141470   4.011   0.426  10.299
13343SOL    HW241471   4.140   0.514  10.252
13344SOL     OW41472   4.862   0.380  10.988
13344SOL    HW141473   4.817   0.443  11.052
13344SOL    HW241474   4.955   0.411  10.971
13345SOL     OW41475   4.884   0.207  10.787
13345SOL    HW141476   4.884   0.271  10.864
13345SOL    HW241477   4.912   0.255  10.704
13346SOL     OW41478   3.732   1.326   9.510
13346SOL    HW141479   3.639   1.347   9.479
13346SOL    HW241480   3.742   1.227   9.523
13347SOL     OW41481   3.812   1.801  10.237
13347SOL    HW141482   3.770   1.715  10.210
13347SOL    HW241483   3.906   1.804  10.203
13348SOL     OW41484   4.228   1.568  10.220
13348SOL    HW141485   4.294   1.642  10.229
13348SOL    HW241486   4.272   1.489  10.178
13349SOL     OW41487   4.726   0.796  10.548
13349SOL    HW141488   4.767   0.764  10.634
13349SOL    HW241489   4.630   0.769  10.545
13350SOL     OW41490   3.764   0.544  10.424
13350SOL    HW141491   3.849   0.511  10.383
13350SOL    HW241492   3.777   0.559  10.522
13351SOL     OW41493   3.913   0.520  11.032
13351SOL    HW141494   3.972   0.480  10.962
13351SOL    HW241495   3.855   0.591  10.991
13352SOL     OW41496   5.093   0.950  10.970
13352SOL    HW141497   5.132   1.039  10.990
13352SOL    HW241498   5.103   0.930  10.873
13353SOL     OW41499   4.539   0.572   9.635
13353SOL    HW141500   4.546   0.483   9.589
13353SOL    HW241501   4.445   0.606   9.627
13354SOL     OW41502   5.381   0.604  10.516
13354SOL    HW141503   5.343   0.535  10.578
13354SOL    HW241504   5.463   0.568  10.472
13355SOL     OW41505   3.976   1.564  11.054
13355SOL    HW141506   3.946   1.621  11.130
13355SOL    HW241507   3.969   1.467  11.080
13356SOL     OW41508   4.395   0.464  10.579
13356SOL    HW141509   4.361   0.375  10.549
13356SOL    HW241510   4.421   0.518  10.499
13357SOL     OW41511   4.654   1.678  10.775
13357SOL    HW141512   4.630   1.660  10.680
13357SOL    HW241513   4.684   1.772  10.785
13358SOL     OW41514   4.197   0.500   9.501
13358SOL    HW141515   4.258   0.580   9.505
13358SOL    HW241516   4.102   0.531   9.508
13359SOL     OW41517   3.883   1.137  10.776
13359SOL    HW141518   3.905   1.076  10.852
13359SOL    HW241519   3.893   1.088  10.690
13360SOL     OW41520   5.071   1.059  10.544
13360SOL    HW141521   5.095   0.996  10.470
13360SOL    HW241522   4.981   1.099  10.526
13361SOL     OW41523   5.026   0.855   9.619
13361SOL    HW141524   4.940   0.824   9.661
13361SOL    HW241525   5.022   0.841   9.520
13362SOL     OW41526   5.483   1.747  10.464
13362SOL    HW141527   5.544   1.777  10.391
13362SOL    HW241528   5.445   1.658  10.442
13363SOL     OW41529   4.976   1.731  10.438
13363SOL    HW141530   5.060   1.736  10.384
13363SOL    HW241531   4.953   1.635  10.456
13364SOL     OW41532   3.807   1.258  10.332
13364SOL    HW141533   3.802   1.257  10.432
13364SOL    HW241534   3.724   1.217  10.294
13365SOL     OW41535   4.412   1.662  11.026
13365SOL    HW141536   4.356   1.743  11.035
13365SOL    HW241537   4.464   1.666  10.940
13366SOL     OW41538   5.450   0.135   9.833
13366SOL    HW141539   5.523   0.118   9.766
13366SOL    HW241540   5.419   0.048   9.871
13367SOL     OW41541   5.112   1.573   9.787
13367SOL    HW141542   5.179   1.585   9.713
13367SOL    HW241543   5.072   1.662   9.810
13368SOL     OW41544   3.854   1.794  11.161
13368SOL    HW141545   3.813   1.720  11.214
13368SOL    HW241546   3.918   1.845  11.219
13369SOL     OW41547   5.004   0.927   9.982
13369SOL    HW141548   5.064   0.846   9.984
13369SOL    HW241549   5.044   0.996   9.922
13370SOL     OW41550   4.554   1.273  10.732
13370SOL    HW141551   4.549   1.306  10.827
13370SOL    HW241552   4.468   1.292  10.686
13371SOL     OW41553   4.396   1.616   9.464
13371SOL    HW141554   4.405   1.626   9.365
13371SOL    HW241555   4.356   1.527   9.485
13372SOL     OW41556   5.374   1.720  10.704
13372SOL    HW141557   5.427   1.730  10.620
13372SOL    HW241558   5.347   1.810  10.738
13373SOL     OW41559   5.565   0.175  10.273
13373SOL    HW141560   5.604   0.090  10.237
13373SOL    HW241561   5.467   0.177  10.254
13374SOL     OW41562   3.987   0.326  10.030
13374SOL    HW141563   3.908   0.377   9.996
13374SOL    HW241564   3.978   0.311  10.128
13375SOL     OW41565   4.918   1.612   9.341
13375SOL    HW141566   4.924   1.519   9.378
13375SOL    HW241567   4.859   1.612   9.261
13376SOL     OW41568   4.546   1.002  10.682
13376SOL    HW141569   4.586   1.001  10.590
13376SOL    HW241570   4.556   1.094  10.722
13377SOL     OW41571   4.640   0.910   9.601
13377SOL    HW141572   4.703   0.948   9.533
13377SOL    HW241573   4.680   0.827   9.640
13378SOL     OW41574   5.228   1.607   9.354
13378SOL    HW141575   5.136   1.644   9.361
13378SOL    HW241576   5.266   1.627   9.264
13379SOL     OW41577   4.096   1.288  10.800
13379SOL    HW141578   4.083   1.381  10.766
13379SOL    HW241579   4.012   1.236  10.787
13380SOL     OW41580   5.338   1.292  10.599
13380SOL    HW141581   5.398   1.295  10.679
13380SOL    HW241582   5.263   1.356  10.612
13381SOL     OW41583   4.763   1.098  10.006
13381SOL    HW141584   4.693   1.051  10.060
13381SOL    HW241585   4.822   1.030   9.963
13382SOL     OW41586   4.738   0.236  10.281
13382SOL    HW141587   4.730   0.200  10.188
13382SOL    HW241588   4.736   0.160  10.346
13383SOL     OW41589   4.314   1.487   9.801
13383SOL    HW141590   4.356   1.429   9.731
13383SOL    HW241591   4.270   1.566   9.757
13384SOL     OW41592   5.433   0.385  10.691
13384SOL    HW141593   5.506   0.454  10.695
13384SOL    HW241594   5.461   0.310  10.632
13385SOL     OW41595   3.979   1.348   9.600
13385SOL    HW141596   3.883   1.349   9.573
13385SOL    HW241597   3.991   1.401   9.684
13386SOL     OW41598   3.829   1.013  11.036
13386SOL    HW141599   3.752   0.980  11.090
13386SOL    HW241600   3.914   0.983  11.078
13387SOL     OW41601   4.396   0.203  10.799
13387SOL    HW141602   4.486   0.187  10.759
13387SOL    HW241603   4.404   0.208  10.898
13388SOL     OW41604   3.799   0.345   9.343
13388SOL    HW141605   3.707   0.317   9.314
13388SOL    HW241606   3.830   0.422   9.287
13389SOL     OW41607   5.164   0.856  10.708
13389SOL    HW141608   5.107   0.908  10.645
13389SOL    HW241609   5.260   0.868  10.684
13390SOL     OW41610   3.796   0.166   9.628
13390SOL    HW141611   3.779   0.249   9.574
13390SOL    HW241612   3.886   0.129   9.606
13391SOL     OW41613   4.907   1.335   9.429
13391SOL    HW141614   4.808   1.324   9.431
13391SOL    HW241615   4.941   1.350   9.522
13392SOL     OW41616   4.337   0.842  10.741
13392SOL    HW141617   4.393   0.923  10.724
13392SOL    HW241618   4.396   0.762  10.744
13393SOL     OW41619   5.217   1.767  10.269
13393SOL    HW141620   5.250   1.831  10.200
13393SOL    HW241621   5.283   1.761  10.344
13394SOL     OW41622   4.440   0.565  11.018
13394SOL    HW141623   4.459   0.630  11.092
13394SOL    HW241624   4.500   0.485  11.027
13395SOL     OW41625   5.174   1.220  10.943
13395SOL    HW141626   5.165   1.210  11.042
13395SOL    HW241627   5.270   1.213  10.917
13396SOL     OW41628   4.114   1.741  10.870
13396SOL    HW141629   4.023   1.782  10.868
13396SOL    HW241630   4.107   1.647  10.902
13397SOL     OW41631   5.398   0.883  10.564
13397SOL    HW141632   5.371   0.794  10.527
13397SOL    HW241633   5.399   0.951  10.491
13398SOL     OW41634   4.949   0.325   9.759
13398SOL    HW141635   5.014   0.251   9.748
13398SOL    HW241636   4.969   0.375   9.843
13399SOL     OW41637   4.318   0.745   9.962
13399SOL    HW141638   4.368   0.830   9.943
13399SOL    HW241639   4.230   0.747   9.914
13400SOL     OW41640   5.501   0.342  10.952
13400SOL    HW141641   5.484   0.373  10.858
13400SOL    HW241642   5.417   0.305  10.990
13401SOL     OW41643   5.454   0.934  10.827
13401SOL    HW141644   5.492   1.025  10.842
13401SOL    HW241645   5.446   0.917  10.728
13402SOL     OW41646   4.583   1.374   9.326
13402SOL    HW141647   4.537   1.389   9.414
13402SOL    HW241648   4.627   1.459   9.296
13403SOL     OW41649   4.385   1.790  10.263
13403SOL    HW141650   4.339   1.878  10.250
13403SOL    HW241651   4.484   1.802  10.256
13404SOL     OW41652   4.583   0.956  10.171
13404SOL    HW141653   4.637   0.887  10.219
13404SOL    HW241654   4.551   1.025  10.237
13405SOL     OW41655   4.807   0.984   9.397
13405SOL    HW141656   4.784   1.037   9.315
13405SOL    HW241657   4.888   0.928   9.378
13406SOL     OW41658   5.585   1.569  10.161
13406SOL    HW141659   5.514   1.557  10.091
13406SOL    HW241660   5.586   1.490  10.221
13407SOL     OW41661   3.945   1.314  11.154
13407SOL    HW141662   3.880   1.241  11.133
13407SOL    HW241663   3.949   1.328  11.252
13408SOL     OW41664   3.803   1.240   9.963
13408SOL    HW141665   3.802   1.193  10.051
13408SOL    HW241666   3.885   1.212   9.912
13409SOL     OW41667   4.396   1.391  10.934
13409SOL    HW141668   4.318   1.341  10.972
13409SOL    HW241669   4.393   1.486  10.965
13410SOL     OW41670   5.548   0.192  10.537
13410SOL    HW141671   5.544   0.102  10.581
13410SOL    HW241672   5.551   0.181  10.438
13411SOL     OW41673   4.152   0.424   9.830
13411SOL    HW141674   4.182   0.352   9.768
13411SOL    HW241675   4.113   0.384   9.913
13412SOL     OW41676   5.429   1.487  10.414
13412SOL    HW141677   5.336   1.462  10.387
13412SOL    HW241678   5.455   1.437  10.496
13413SOL     OW41679   4.041   0.547  10.590
13413SOL    HW141680   4.079   0.488  10.662
13413SOL    HW241681   4.081   0.521  10.502
13414SOL     OW41682   4.536   1.586   9.997
13414SOL    HW141683   4.568   1.596   9.903
13414SOL    HW241684   4.457   1.524   9.999
13415SOL     OW41685   5.148   0.214  10.422
13415SOL    HW141686   5.200   0.149  10.477
13415SOL    HW241687   5.099   0.277  10.483
13416SOL     OW41688   4.725   0.034  10.464
13416SOL    HW141689   4.662  -0.038  10.433
13416SOL    HW241690   4.818  -0.002  10.464
13417SOL     OW41691   4.494   1.330   9.611
13417SOL    HW141692   4.448   1.243   9.628
13417SOL    HW241693   4.585   1.327   9.652
13418SOL     OW41694   4.342   1.567  10.594
13418SOL    HW141695   4.337   1.649  10.651
13418SOL    HW241696   4.431   1.564  10.549
13419SOL     OW41697   5.076   0.052   9.478
13419SOL    HW141698   5.111   0.011   9.394
13419SOL    HW241699   4.986   0.014   9.498
13420SOL     OW41700   5.024   0.453  10.001
13420SOL    HW141701   4.965   0.533  10.005
13420SOL    HW241702   5.039   0.418  10.094
13421SOL     OW41703   5.317   0.221  10.192
13421SOL    HW141704   5.233   0.220  10.246
13421SOL    HW241705   5.319   0.304  10.136
13422SOL     OW41706   3.763   1.077   9.610
13422SOL    HW141707   3.862   1.066   9.601
13422SOL    HW241708   3.723   0.991   9.642
13423SOL     OW41709   4.599   1.646   9.647
13423SOL    HW141710   4.522   1.611   9.593
13423SOL    HW241711   4.567   1.717   9.709
13424SOL     OW41712   3.954   0.628  11.285
13424SOL    HW141713   3.861   0.626  11.322
13424SOL    HW241714   3.955   0.589  11.193
13425SOL     OW41715   3.949   0.275  12.168
13425SOL    HW141716   3.984   0.258  12.260
13425SOL    HW241717   3.861   0.230  12.156
13426SOL     OW41718   3.743   0.368  11.819
13426SOL    HW141719   3.661   0.411  11.858
13426SOL    HW241720   3.715   0.295  11.756
13427SOL     OW41721   4.293   1.275  12.337
13427SOL    HW141722   4.200   1.268  12.300
13427SOL    HW241723   4.304   1.364  12.381
13428SOL     OW41724   5.279   1.511  11.875
13428SOL    HW141725   5.222   1.495  11.956
13428SOL    HW241726   5.220   1.521  11.795
13429SOL     OW41727   4.859   0.703  11.889
13429SOL    HW141728   4.916   0.781  11.864
13429SOL    HW241729   4.799   0.729  11.965
13430SOL     OW41730   5.479   0.607  11.403
13430SOL    HW141731   5.467   0.594  11.304
13430SOL    HW241732   5.449   0.526  11.452
13431SOL     OW41733   4.492   1.144  12.195
13431SOL    HW141734   4.414   1.161  12.255
13431SOL    HW241735   4.526   1.231  12.159
13432SOL     OW41736   4.409   1.012  11.837
13432SOL    HW141737   4.478   0.996  11.907
13432SOL    HW241738   4.336   1.069  11.875
13433SOL     OW41739   4.059   1.435  12.233
13433SOL    HW141740   3.981   1.404  12.180
13433SOL    HW241741   4.117   1.493  12.176
13434SOL     OW41742   5.327   0.447  11.909
13434SOL    HW141743   5.253   0.493  11.859
13434SOL    HW241744   5.378   0.515  11.962
13435SOL     OW41745   3.955   1.713  11.655
13435SOL    HW141746   3.989   1.790  11.709
13435SOL    HW241747   3.999   1.713  11.565
13436SOL     OW41748   3.954   1.434  11.710
13436SOL    HW141749   3.928   1.530  11.710
13436SOL    HW241750   3.883   1.380  11.755
13437SOL     OW41751   3.964   1.091  12.058
13437SOL    HW141752   3.978   1.007  12.110
13437SOL    HW241753   3.909   1.155  12.113
13438SOL     OW41754   4.330   0.964  11.295
13438SOL    HW141755   4.337   1.048  11.241
13438SOL    HW241756   4.376   0.977  11.383
13439SOL     OW41757   3.846   0.643  11.735
13439SOL    HW141758   3.801   0.555  11.752
13439SOL    HW241759   3.845   0.697  11.819
13440SOL     OW41760   5.566   1.767  11.531
13440SOL    HW141761   5.620   1.738  11.611
13440SOL    HW241762   5.596   1.857  11.502
13441SOL     OW41763   3.751   1.596  11.289
13441SOL    HW141764   3.732   1.500  11.310
13441SOL    HW241765   3.718   1.654  11.364
13442SOL     OW41766   5.413   0.922  11.784
13442SOL    HW141767   5.508   0.893  11.792
13442SOL    HW241768   5.405   0.987  11.709
13443SOL     OW41769   5.365   1.108  11.604
13443SOL    HW141770   5.451   1.110  11.552
13443SOL    HW241771   5.379   1.155  11.692
13444SOL     OW41772   3.837   0.737  12.769
13444SOL    HW141773   3.925   0.724  12.814
13444SOL    HW241774   3.824   0.834  12.747
13445SOL     OW41775   4.337   1.365  11.898
13445SOL    HW141776   4.288   1.278  11.907
13445SOL    HW241777   4.314   1.408  11.811
13446SOL     OW41778   4.533   0.004  11.674
13446SOL    HW141779   4.573   0.095  11.665
13446SOL    HW241780   4.433   0.012  11.680
13447SOL     OW41781   3.921   0.976  12.436
13447SOL    HW141782   4.010   0.931  12.422
13447SOL    HW241783   3.848   0.911  12.417
13448SOL     OW41784   5.249   0.999  11.362
13448SOL    HW141785   5.186   0.923  11.375
13448SOL    HW241786   5.297   1.017  11.448
13449SOL     OW41787   5.190   1.417  12.125
13449SOL    HW141788   5.131   1.423  12.205
13449SOL    HW241789   5.175   1.329  12.079
13450SOL     OW41790   5.391   1.714  11.744
13450SOL    HW141791   5.350   1.691  11.656
13450SOL    HW241792   5.373   1.640  11.809
13451SOL     OW41793   4.322   0.729  11.442
13451SOL    HW141794   4.346   0.798  11.374
13451SOL    HW241795   4.244   0.762  11.496
13452SOL     OW41796   5.005   0.345  12.116
13452SOL    HW141797   4.919   0.295  12.103
13452SOL    HW241798   5.067   0.291  12.172
13453SOL     OW41799   5.300   1.662  11.479
13453SOL    HW141800   5.389   1.708  11.482
13453SOL    HW241801   5.279   1.638  11.384
13454SOL     OW41802   4.715   0.410  12.414
13454SOL    HW141803   4.638   0.444  12.468
13454SOL    HW241804   4.681   0.359  12.335
13455SOL     OW41805   4.765   0.701  11.601
13455SOL    HW141806   4.791   0.697  11.697
13455SOL    HW241807   4.680   0.650  11.587
13456SOL     OW41808   3.800   0.811  11.961
13456SOL    HW141809   3.899   0.799  11.970
13456SOL    HW241810   3.776   0.906  11.982
13457SOL     OW41811   4.589   0.348  11.367
13457SOL    HW141812   4.648   0.411  11.318
13457SOL    HW241813   4.608   0.254  11.338
13458SOL     OW41814   5.086   1.144  11.717
13458SOL    HW141815   5.169   1.115  11.669
13458SOL    HW241816   5.037   1.211  11.661
13459SOL     OW41817   4.274   0.196  12.057
13459SOL    HW141818   4.269   0.191  12.157
13459SOL    HW241819   4.276   0.292  12.028
13460SOL     OW41820   4.732   1.456  11.649
13460SOL    HW141821   4.686   1.528  11.597
13460SOL    HW241822   4.728   1.476  11.747
13461SOL     OW41823   4.075   1.801  12.025
13461SOL    HW141824   4.125   1.715  12.031
13461SOL    HW241825   4.140   1.878  12.022
13462SOL     OW41826   5.519   1.066  12.045
13462SOL    HW141827   5.457   1.051  11.969
13462SOL    HW241828   5.467   1.077  12.130
13463SOL     OW41829   4.045   0.943  11.414
13463SOL    HW141830   4.127   0.982  11.372
13463SOL    HW241831   4.018   0.861  11.365
13464SOL     OW41832   5.182   0.735  11.900
13464SOL    HW141833   5.177   0.670  11.975
13464SOL    HW241834   5.262   0.794  11.913
13465SOL     OW41835   4.835   1.776  11.409
13465SOL    HW141836   4.775   1.714  11.459
13465SOL    HW241837   4.866   1.732  11.324
13466SOL     OW41838   5.356   1.377  11.253
13466SOL    HW141839   5.324   1.471  11.243
13466SOL    HW241840   5.280   1.314  11.241
13467SOL     OW41841   4.188   1.743  11.495
13467SOL    HW141842   4.221   1.782  11.581
13467SOL    HW241843   4.264   1.736  11.430
13468SOL     OW41844   5.124   0.107  11.598
13468SOL    HW141845   5.100   0.070  11.508
13468SOL    HW241846   5.223   0.123  11.602
13469SOL     OW41847   3.973   1.785  12.413
13469SOL    HW141848   4.030   1.720  12.463
13469SOL    HW241849   3.957   1.752  12.320
13470SOL     OW41850   4.664   1.698  12.076
13470SOL    HW141851   4.744   1.641  12.097
13470SOL    HW241852   4.615   1.658  11.999
13471SOL     OW41853   4.106   0.700  11.652
13471SOL    HW141854   4.151   0.610  11.649
13471SOL    HW241855   4.012   0.689  11.685
13472SOL     OW41856   4.338   0.122  11.289
13472SOL    HW141857   4.436   0.100  11.296
13472SOL    HW241858   4.307   0.105  11.196
13473SOL     OW41859   4.527   1.402  12.096
13473SOL    HW141860   4.617   1.416  12.054
13473SOL    HW241861   4.456   1.404  12.025
13474SOL     OW41862   4.646   0.503  12.071
13474SOL    HW141863   4.621   0.494  11.975
13474SOL    HW241864   4.694   0.421  12.102
13475SOL     OW41865   4.263   0.064  11.684
13475SOL    HW141866   4.182   0.065  11.742
13475SOL    HW241867   4.266   0.147  11.629
13476SOL     OW41868   5.158   1.188  11.213
13476SOL    HW141869   5.190   1.112  11.270
13476SOL    HW241870   5.066   1.215  11.243
13477SOL     OW41871   4.021   0.035  11.343
13477SOL    HW141872   4.070   0.119  11.322
13477SOL    HW241873   4.083  -0.030  11.388
13478SOL     OW41874   4.659   0.236  11.652
13478SOL    HW141875   4.611   0.277  11.574
13478SOL    HW241876   4.758   0.234  11.633
13479SOL     OW41877   4.951   1.570  11.965
13479SOL    HW141878   4.972   1.644  11.900
13479SOL    HW241879   5.019   1.570  12.038
13480SOL     OW41880   4.183   1.152  11.913
13480SOL    HW141881   4.112   1.125  11.978
13480SOL    HW241882   4.157   1.124  11.820
13481SOL     OW41883   4.995   1.797  11.763
13481SOL    HW141884   5.039   1.861  11.699
13481SOL    HW241885   4.945   1.849  11.833
13482SOL     OW41886   4.756   0.549  11.188
13482SOL    HW141887   4.715   0.631  11.149
13482SOL    HW241888   4.820   0.575  11.261
13483SOL     OW41889   4.285   0.222  12.319
13483SOL    HW141890   4.323   0.138  12.356
13483SOL    HW241891   4.197   0.241  12.363
13484SOL     OW41892   4.590   0.454  11.814
13484SOL    HW141893   4.558   0.526  11.752
13484SOL    HW241894   4.614   0.373  11.761
13485SOL     OW41895   4.741   0.039  11.925
13485SOL    HW141896   4.669   0.044  11.856
13485SOL    HW241897   4.717  -0.030  11.994
13486SOL     OW41898   5.153   1.173  12.039
13486SOL    HW141899   5.098   1.089  12.032
13486SOL    HW241900   5.179   1.202  11.947
13487SOL     OW41901   5.190   0.590  12.164
13487SOL    HW141902   5.160   0.495  12.171
13487SOL    HW241903   5.263   0.606  12.230
13488SOL     OW41904   5.581   0.833  11.549
13488SOL    HW141905   5.623   0.769  11.613
13488SOL    HW241906   5.543   0.782  11.471
13489SOL     OW41907   4.212   1.385  11.346
13489SOL    HW141908   4.125   1.370  11.393
13489SOL    HW241909   4.195   1.411  11.251
13490SOL     OW41910   5.388   1.280  11.829
13490SOL    HW141911   5.487   1.288  11.843
13490SOL    HW241912   5.343   1.364  11.860
13491SOL     OW41913   5.114   0.575  11.250
13491SOL    HW141914   5.060   0.554  11.331
13491SOL    HW241915   5.205   0.534  11.259
13492SOL     OW41916   4.251   0.256  11.500
13492SOL    HW141917   4.278   0.197  11.425
13492SOL    HW241918   4.251   0.351  11.469
13493SOL     OW41919   4.835   1.195  12.272
13493SOL    HW141920   4.795   1.239  12.353
13493SOL    HW241921   4.794   1.232  12.189
13494SOL     OW41922   5.362   1.099  12.251
13494SOL    HW141923   5.367   1.180  12.310
13494SOL    HW241924   5.276   1.101  12.200
13495SOL     OW41925   4.429   1.050  11.540
13495SOL    HW141926   4.415   1.057  11.639
13495SOL    HW241927   4.513   0.999  11.522
13496SOL     OW41928   4.134   0.813  12.423
13496SOL    HW141929   4.220   0.825  12.473
13496SOL    HW241930   4.092   0.726  12.450
13497SOL     OW41931   4.998   0.386  12.434
13497SOL    HW141932   5.019   0.460  12.498
13497SOL    HW241933   4.909   0.403  12.391
13498SOL     OW41934   4.091   1.100  11.673
13498SOL    HW141935   4.084   1.183  11.617
13498SOL    HW241936   4.095   1.020  11.613
13499SOL     OW41937   4.290   0.537  12.037
13499SOL    HW141938   4.302   0.603  11.963
13499SOL    HW241939   4.336   0.571  12.120
13500SOL     OW41940   4.976   1.348  11.560
13500SOL    HW141941   5.026   1.425  11.600
13500SOL    HW241942   4.881   1.350  11.592
13501SOL     OW41943   4.996   1.445  12.314
13501SOL    HW141944   5.043   1.458  12.401
13501SOL    HW241945   4.930   1.371  12.323
13502SOL     OW41946   5.306   0.639  11.644
13502SOL    HW141947   5.275   0.700  11.717
13502SOL    HW241948   5.356   0.691  11.575
13503SOL     OW41949   4.078   1.510  12.501
13503SOL    HW141950   4.057   1.466  12.414
13503SOL    HW241951   4.175   1.536  12.504
13504SOL     OW41952   4.297   0.870  12.201
13504SOL    HW141953   4.341   0.959  12.192
13504SOL    HW241954   4.234   0.870  12.278
13505SOL     OW41955   5.084   0.862  12.217
13505SOL    HW141956   5.009   0.862  12.151
13505SOL    HW241957   5.121   0.770  12.226
13506SOL     OW41958   4.933   0.525  11.447
13506SOL    HW141959   4.946   0.441  11.501
13506SOL    HW241960   4.904   0.599  11.507
13507SOL     OW41961   4.031   0.213  12.403
13507SOL    HW141962   4.008   0.250  12.493
13507SOL    HW241963   4.001   0.118  12.397
13508SOL     OW41964   3.761   1.310  12.454
13508SOL    HW141965   3.814   1.261  12.522
13508SOL    HW241966   3.783   1.408  12.459
13509SOL     OW41967   4.456   0.634  12.236
13509SOL    HW141968   4.515   0.608  12.160
13509SOL    HW241969   4.428   0.730  12.225
13510SOL     OW41970   4.031   0.063  11.790
13510SOL    HW141971   4.020   0.157  11.823
13510SOL    HW241972   4.026   0.000  11.867
13511SOL     OW41973   5.346   0.367  11.546
13511SOL    HW141974   5.348   0.291  11.610
13511SOL    HW241975   5.298   0.444  11.586
13512SOL     OW41976   4.747   0.766  12.138
13512SOL    HW141977   4.762   0.787  12.234
13512SOL    HW241978   4.717   0.671  12.129
13513SOL     OW41979   5.264   0.274  11.297
13513SOL    HW141980   5.203   0.199  11.320
13513SOL    HW241981   5.286   0.326  11.380
13514SOL     OW41982   5.027   0.838  11.214
13514SOL    HW141983   5.061   0.745  11.229
13514SOL    HW241984   5.045   0.865  11.119
13515SOL     OW41985   4.792   1.333  12.021
13515SOL    HW141986   4.799   1.249  11.966
13515SOL    HW241987   4.854   1.402  11.985
13516SOL     OW41988   4.043   0.810  12.121
13516SOL    HW141989   4.136   0.846  12.126
13516SOL    HW241990   4.037   0.725  12.173
13517SOL     OW41991   4.063   0.509  12.178
13517SOL    HW141992   4.011   0.426  12.161
13517SOL    HW241993   4.140   0.514  12.114
13518SOL     OW41994   4.884   0.207  12.649
13518SOL    HW141995   4.884   0.271  12.726
13518SOL    HW241996   4.912   0.255  12.566
13519SOL     OW41997   3.732   1.326  11.372
13519SOL    HW141998   3.639   1.347  11.341
13519SOL    HW241999   3.742   1.227  11.385
13520SOL     OW42000   3.812   1.801  12.099
13520SOL    HW142001   3.770   1.715  12.072
13520SOL    HW242002   3.906   1.804  12.065
13521SOL     OW42003   4.228   1.568  12.082
13521SOL    HW142004   4.294   1.642  12.091
13521SOL    HW242005   4.272   1.489  12.040
13522SOL     OW42006   4.726   0.796  12.410
13522SOL    HW142007   4.767   0.764  12.496
13522SOL    HW242008   4.630   0.769  12.407
13523SOL     OW42009   3.764   0.544  12.286
13523SOL    HW142010   3.849   0.511  12.245
13523SOL    HW242011   3.777   0.559  12.384
13524SOL     OW42012   4.539   0.572  11.497
13524SOL    HW142013   4.546   0.483  11.451
13524SOL    HW242014   4.445   0.606  11.489
13525SOL     OW42015   5.381   0.604  12.378
13525SOL    HW142016   5.343   0.535  12.440
13525SOL    HW242017   5.463   0.568  12.334
13526SOL     OW42018   4.395   0.464  12.441
13526SOL    HW142019   4.361   0.375  12.411
13526SOL    HW242020   4.421   0.518  12.361
13527SOL     OW42021   4.654   1.678  12.637
13527SOL    HW142022   4.630   1.660  12.542
13527SOL    HW242023   4.684   1.772  12.647
13528SOL     OW42024   4.197   0.500  11.363
13528SOL    HW142025   4.258   0.580  11.367
13528SOL    HW242026   4.102   0.531  11.370
13529SOL     OW42027   5.071   1.059  12.406
13529SOL    HW142028   5.095   0.996  12.332
13529SOL    HW242029   4.981   1.099  12.388
13530SOL     OW42030   5.026   0.855  11.481
13530SOL    HW142031   4.940   0.824  11.523
13530SOL    HW242032   5.022   0.841  11.382
13531SOL     OW42033   5.483   1.747  12.326
13531SOL    HW142034   5.544   1.777  12.253
13531SOL    HW242035   5.445   1.658  12.304
13532SOL     OW42036   4.976   1.731  12.300
13532SOL    HW142037   5.060   1.736  12.246
13532SOL    HW242038   4.953   1.635  12.318
13533SOL     OW42039   3.807   1.258  12.194
13533SOL    HW142040   3.802   1.257  12.294
13533SOL    HW242041   3.724   1.217  12.156
13534SOL     OW42042   5.450   0.135  11.695
13534SOL    HW142043   5.523   0.118  11.628
13534SOL    HW242044   5.419   0.048  11.733
13535SOL     OW42045   5.112   1.573  11.649
13535SOL    HW142046   5.179   1.585  11.575
13535SOL    HW242047   5.072   1.662  11.672
13536SOL     OW42048   5.004   0.927  11.844
13536SOL    HW142049   5.064   0.846  11.846
13536SOL    HW242050   5.044   0.996  11.784
13537SOL     OW42051   4.396   1.616  11.326
13537SOL    HW142052   4.405   1.626  11.227
13537SOL    HW242053   4.356   1.527  11.347
13538SOL     OW42054   5.374   1.720  12.566
13538SOL    HW142055   5.427   1.730  12.482
13538SOL    HW242056   5.347   1.810  12.600
13539SOL     OW42057   5.565   0.175  12.135
13539SOL    HW142058   5.604   0.090  12.099
13539SOL    HW242059   5.467   0.177  12.116
13540SOL     OW42060   3.987   0.326  11.892
13540SOL    HW142061   3.908   0.377  11.858
13540SOL    HW242062   3.978   0.311  11.990
13541SOL     OW42063   4.918   1.612  11.203
13541SOL    HW142064   4.924   1.519  11.240
13541SOL    HW242065   4.859   1.612  11.123
13542SOL     OW42066   4.546   1.002  12.544
13542SOL    HW142067   4.586   1.001  12.452
13542SOL    HW242068   4.556   1.094  12.584
13543SOL     OW42069   4.640   0.910  11.463
13543SOL    HW142070   4.703   0.948  11.395
13543SOL    HW242071   4.680   0.827  11.502
13544SOL     OW42072   5.228   1.607  11.216
13544SOL    HW142073   5.136   1.644  11.223
13544SOL    HW242074   5.266   1.627  11.126
13545SOL     OW42075   4.763   1.098  11.868
13545SOL    HW142076   4.693   1.051  11.922
13545SOL    HW242077   4.822   1.030  11.825
13546SOL     OW42078   4.738   0.236  12.143
13546SOL    HW142079   4.730   0.200  12.050
13546SOL    HW242080   4.736   0.160  12.208
13547SOL     OW42081   4.314   1.487  11.663
13547SOL    HW142082   4.356   1.429  11.593
13547SOL    HW242083   4.270   1.566  11.619
13548SOL     OW42084   5.433   0.385  12.553
13548SOL    HW142085   5.506   0.454  12.557
13548SOL    HW242086   5.461   0.310  12.494
13549SOL     OW42087   3.979   1.348  11.462
13549SOL    HW142088   3.883   1.349  11.435
13549SOL    HW242089   3.991   1.401  11.546
13550SOL     OW42090   3.799   0.345  11.205
13550SOL    HW142091   3.707   0.317  11.176
13550SOL    HW242092   3.830   0.422  11.149
13551SOL     OW42093   3.796   0.166  11.490
13551SOL    HW142094   3.779   0.249  11.436
13551SOL    HW242095   3.886   0.129  11.468
13552SOL     OW42096   4.907   1.335  11.291
13552SOL    HW142097   4.808   1.324  11.293
13552SOL    HW242098   4.941   1.350  11.384
13553SOL     OW42099   5.217   1.767  12.131
13553SOL    HW142100   5.250   1.831  12.062
13553SOL    HW242101   5.283   1.761  12.206
13554SOL     OW42102   5.398   0.883  12.426
13554SOL    HW142103   5.371   0.794  12.389
13554SOL    HW242104   5.399   0.951  12.353
13555SOL     OW42105   4.949   0.325  11.621
13555SOL    HW142106   5.014   0.251  11.610
13555SOL    HW242107   4.969   0.375  11.705
13556SOL     OW42108   4.318   0.745  11.824
13556SOL    HW142109   4.368   0.830  11.805
13556SOL    HW242110   4.230   0.747  11.776
13557SOL     OW42111   5.454   0.934  12.689
13557SOL    HW142112   5.492   1.025  12.704
13557SOL    HW242113   5.446   0.917  12.590
13558SOL     OW42114   4.583   1.374  11.188
13558SOL    HW142115   4.537   1.389  11.276
13558SOL    HW242116   4.627   1.459  11.158
13559SOL     OW42117   4.385   1.790  12.125
13559SOL    HW142118   4.339   1.878  12.112
13559SOL    HW242119   4.484   1.802  12.118
13560SOL     OW42120   4.583   0.956  12.033
13560SOL    HW142121   4.637   0.887  12.081
13560SOL    HW242122   4.551   1.025  12.099
13561SOL     OW42123   4.807   0.984  11.259
13561SOL    HW142124   4.784   1.037  11.177
13561SOL    HW242125   4.888   0.928  11.240
13562SOL     OW42126   5.585   1.569  12.023
13562SOL    HW142127   5.514   1.557  11.953
13562SOL    HW242128   5.586   1.490  12.083
13563SOL     OW42129   3.803   1.240  11.825
13563SOL    HW142130   3.802   1.193  11.913
13563SOL    HW242131   3.885   1.212  11.774
13564SOL     OW42132   5.548   0.192  12.399
13564SOL    HW142133   5.544   0.102  12.443
13564SOL    HW242134   5.551   0.181  12.300
13565SOL     OW42135   4.152   0.424  11.692
13565SOL    HW142136   4.182   0.352  11.630
13565SOL    HW242137   4.113   0.384  11.775
13566SOL     OW42138   5.429   1.487  12.276
13566SOL    HW142139   5.336   1.462  12.249
13566SOL    HW242140   5.455   1.437  12.358
13567SOL     OW42141   4.536   1.586  11.859
13567SOL    HW142142   4.568   1.596  11.765
13567SOL    HW242143   4.457   1.524  11.861
13568SOL     OW42144   5.148   0.214  12.284
13568SOL    HW142145   5.200   0.149  12.339
13568SOL    HW242146   5.099   0.277  12.345
13569SOL     OW42147   4.725   0.034  12.326
13569SOL    HW142148   4.662  -0.038  12.295
13569SOL    HW242149   4.818  -0.002  12.326
13570SOL     OW42150   4.494   1.330  11.473
13570SOL    HW142151   4.448   1.243  11.490
13570SOL    HW242152   4.585   1.327  11.514
13571SOL     OW42153   5.076   0.052  11.340
13571SOL    HW142154   5.111   0.011  11.256
13571SOL    HW242155   4.986   0.014  11.360
13572SOL     OW42156   5.024   0.453  11.863
13572SOL    HW142157   4.965   0.533  11.867
13572SOL    HW242158   5.039   0.418  11.956
13573SOL     OW42159   5.317   0.221  12.054
13573SOL    HW142160   5.233   0.220  12.108
13573SOL    HW242161   5.319   0.304  11.998
13574SOL     OW42162   3.763   1.077  11.472
13574SOL    HW142163   3.862   1.066  11.463
13574SOL    HW242164   3.723   0.991  11.504
13575SOL     OW42165   4.599   1.646  11.509
13575SOL    HW142166   4.522   1.611  11.455
13575SOL    HW242167   4.567   1.717  11.571
13576SOL     OW42168   3.954   2.490   0.113
13576SOL    HW142169   3.861   2.488   0.150
13576SOL    HW242170   3.955   2.451   0.021
13577SOL     OW42171   3.949   2.137   0.996
13577SOL    HW142172   3.984   2.120   1.088
13577SOL    HW242173   3.861   2.092   0.984
13578SOL     OW42174   3.743   2.230   0.647
13578SOL    HW142175   3.661   2.273   0.686
13578SOL    HW242176   3.715   2.157   0.584
13579SOL     OW42177   4.293   3.137   1.165
13579SOL    HW142178   4.200   3.130   1.128
13579SOL    HW242179   4.304   3.226   1.209
13580SOL     OW42180   5.279   3.373   0.703
13580SOL    HW142181   5.222   3.357   0.784
13580SOL    HW242182   5.220   3.383   0.623
13581SOL     OW42183   4.859   2.565   0.717
13581SOL    HW142184   4.916   2.643   0.692
13581SOL    HW242185   4.799   2.591   0.793
13582SOL     OW42186   5.479   2.469   0.231
13582SOL    HW142187   5.467   2.456   0.132
13582SOL    HW242188   5.449   2.388   0.280
13583SOL     OW42189   4.492   3.006   1.023
13583SOL    HW142190   4.414   3.023   1.083
13583SOL    HW242191   4.526   3.093   0.987
13584SOL     OW42192   4.574   2.660   1.823
13584SOL    HW142193   4.570   2.736   1.888
13584SOL    HW242194   4.596   2.696   1.732
13585SOL     OW42195   4.409   2.874   0.665
13585SOL    HW142196   4.478   2.858   0.735
13585SOL    HW242197   4.336   2.931   0.703
13586SOL     OW42198   4.410   3.023   1.803
13586SOL    HW142199   4.470   3.102   1.817
13586SOL    HW242200   4.324   3.054   1.762
13587SOL     OW42201   4.059   3.297   1.061
13587SOL    HW142202   3.981   3.266   1.008
13587SOL    HW242203   4.117   3.355   1.004
13588SOL     OW42204   5.184   3.367   1.339
13588SOL    HW142205   5.208   3.461   1.365
13588SOL    HW242206   5.168   3.313   1.421
13589SOL     OW42207   4.162   2.254   1.499
13589SOL    HW142208   4.244   2.198   1.508
13589SOL    HW242209   4.081   2.196   1.503
13590SOL     OW42210   5.327   2.309   0.737
13590SOL    HW142211   5.253   2.355   0.687
13590SOL    HW242212   5.378   2.377   0.790
13591SOL     OW42213   3.955   3.575   0.483
13591SOL    HW142214   3.989   3.652   0.537
13591SOL    HW242215   3.999   3.575   0.393
13592SOL     OW42216   4.851   3.203   1.690
13592SOL    HW142217   4.898   3.203   1.778
13592SOL    HW242218   4.803   3.116   1.679
13593SOL     OW42219   3.954   3.296   0.538
13593SOL    HW142220   3.928   3.392   0.538
13593SOL    HW242221   3.883   3.242   0.583
13594SOL     OW42222   3.964   2.953   0.886
13594SOL    HW142223   3.978   2.869   0.938
13594SOL    HW242224   3.909   3.017   0.941
13595SOL     OW42225   4.344   3.648   1.439
13595SOL    HW142226   4.252   3.631   1.474
13595SOL    HW242227   4.372   3.740   1.465
13596SOL     OW42228   4.330   2.826   0.123
13596SOL    HW142229   4.337   2.910   0.069
13596SOL    HW242230   4.376   2.839   0.211
13597SOL     OW42231   5.318   1.976   1.480
13597SOL    HW142232   5.300   2.043   1.408
13597SOL    HW242233   5.315   2.022   1.569
13598SOL     OW42234   3.846   2.505   0.563
13598SOL    HW142235   3.801   2.417   0.580
13598SOL    HW242236   3.845   2.559   0.647
13599SOL     OW42237   5.566   3.629   0.359
13599SOL    HW142238   5.620   3.600   0.439
13599SOL    HW242239   5.596   3.719   0.330
13600SOL     OW42240   3.751   3.458   0.117
13600SOL    HW142241   3.732   3.362   0.138
13600SOL    HW242242   3.718   3.516   0.192
13601SOL     OW42243   5.413   2.784   0.612
13601SOL    HW142244   5.508   2.755   0.620
13601SOL    HW242245   5.405   2.849   0.537
13602SOL     OW42246   5.365   2.970   0.432
13602SOL    HW142247   5.451   2.972   0.380
13602SOL    HW242248   5.379   3.017   0.520
13603SOL     OW42249   3.837   2.599   1.597
13603SOL    HW142250   3.925   2.586   1.642
13603SOL    HW242251   3.824   2.696   1.575
13604SOL     OW42252   4.337   3.227   0.726
13604SOL    HW142253   4.288   3.140   0.735
13604SOL    HW242254   4.314   3.270   0.639
13605SOL     OW42255   5.017   3.090   1.423
13605SOL    HW142256   5.054   3.017   1.365
13605SOL    HW242257   5.069   3.095   1.508
13606SOL     OW42258   4.533   1.866   0.502
13606SOL    HW142259   4.573   1.957   0.493
13606SOL    HW242260   4.433   1.874   0.508
13607SOL     OW42261   3.921   2.838   1.264
13607SOL    HW142262   4.010   2.793   1.250
13607SOL    HW242263   3.848   2.773   1.245
13608SOL     OW42264   5.249   2.861   0.190
13608SOL    HW142265   5.186   2.785   0.203
13608SOL    HW242266   5.297   2.879   0.276
13609SOL     OW42267   4.911   3.654   1.616
13609SOL    HW142268   4.935   3.714   1.540
13609SOL    HW242269   4.918   3.559   1.586
13610SOL     OW42270   4.041   2.113   1.801
13610SOL    HW142271   4.112   2.184   1.807
13610SOL    HW242272   3.953   2.152   1.829
13611SOL     OW42273   5.391   3.576   0.572
13611SOL    HW142274   5.350   3.553   0.484
13611SOL    HW242275   5.373   3.502   0.637
13612SOL     OW42276   4.322   2.591   0.270
13612SOL    HW142277   4.346   2.660   0.202
13612SOL    HW242278   4.244   2.624   0.324
13613SOL     OW42279   5.005   2.207   0.944
13613SOL    HW142280   4.919   2.157   0.931
13613SOL    HW242281   5.067   2.153   1.000
13614SOL     OW42282   5.300   3.524   0.307
13614SOL    HW142283   5.389   3.570   0.310
13614SOL    HW242284   5.279   3.500   0.212
13615SOL     OW42285   4.531   2.467   1.465
13615SOL    HW142286   4.484   2.464   1.554
13615SOL    HW242287   4.480   2.412   1.399
13616SOL     OW42288   5.118   2.331   1.674
13616SOL    HW142289   5.098   2.374   1.762
13616SOL    HW242290   5.196   2.269   1.683
13617SOL     OW42291   4.697   2.752   1.572
13617SOL    HW142292   4.743   2.668   1.543
13617SOL    HW242293   4.641   2.786   1.497
13618SOL     OW42294   4.715   2.272   1.242
13618SOL    HW142295   4.638   2.306   1.296
13618SOL    HW242296   4.681   2.221   1.163
13619SOL     OW42297   4.765   2.563   0.429
13619SOL    HW142298   4.791   2.559   0.525
13619SOL    HW242299   4.680   2.512   0.415
13620SOL     OW42300   3.800   2.673   0.789
13620SOL    HW142301   3.899   2.661   0.798
13620SOL    HW242302   3.776   2.768   0.810
13621SOL     OW42303   3.854   3.683   1.571
13621SOL    HW142304   3.844   3.668   1.670
13621SOL    HW242305   3.768   3.719   1.535
13622SOL     OW42306   4.589   2.210   0.195
13622SOL    HW142307   4.648   2.273   0.146
13622SOL    HW242308   4.608   2.116   0.166
13623SOL     OW42309   5.443   2.447   1.831
13623SOL    HW142310   5.417   2.536   1.795
13623SOL    HW242311   5.441   2.379   1.758
13624SOL     OW42312   5.086   3.006   0.545
13624SOL    HW142313   5.169   2.977   0.497
13624SOL    HW242314   5.037   3.073   0.489
13625SOL     OW42315   4.274   2.058   0.885
13625SOL    HW142316   4.269   2.053   0.985
13625SOL    HW242317   4.276   2.154   0.856
13626SOL     OW42318   4.732   3.318   0.477
13626SOL    HW142319   4.686   3.390   0.425
13626SOL    HW242320   4.728   3.338   0.575
13627SOL     OW42321   4.075   3.663   0.853
13627SOL    HW142322   4.125   3.577   0.859
13627SOL    HW242323   4.140   3.740   0.850
13628SOL     OW42324   5.519   2.928   0.873
13628SOL    HW142325   5.457   2.913   0.797
13628SOL    HW242326   5.467   2.939   0.958
13629SOL     OW42327   4.951   3.412   1.506
13629SOL    HW142328   4.957   3.335   1.570
13629SOL    HW242329   4.899   3.386   1.426
13630SOL     OW42330   4.045   2.805   0.242
13630SOL    HW142331   4.127   2.844   0.200
13630SOL    HW242332   4.018   2.723   0.193
13631SOL     OW42333   5.182   2.597   0.728
13631SOL    HW142334   5.177   2.532   0.803
13631SOL    HW242335   5.262   2.656   0.741
13632SOL     OW42336   4.185   3.128   1.727
13632SOL    HW142337   4.135   3.129   1.641
13632SOL    HW242338   4.122   3.110   1.803
13633SOL     OW42339   4.835   3.638   0.237
13633SOL    HW142340   4.775   3.576   0.287
13633SOL    HW242341   4.866   3.594   0.152
13634SOL     OW42342   3.926   2.147   1.498
13634SOL    HW142343   3.846   2.207   1.485
13634SOL    HW242344   3.916   2.098   1.584
13635SOL     OW42345   5.356   3.239   0.081
13635SOL    HW142346   5.324   3.333   0.071
13635SOL    HW242347   5.280   3.176   0.069
13636SOL     OW42348   4.188   3.605   0.323
13636SOL    HW142349   4.221   3.644   0.409
13636SOL    HW242350   4.264   3.598   0.258
13637SOL     OW42351   5.124   1.969   0.426
13637SOL    HW142352   5.100   1.932   0.336
13637SOL    HW242353   5.223   1.985   0.430
13638SOL     OW42354   3.973   3.647   1.241
13638SOL    HW142355   4.030   3.582   1.291
13638SOL    HW242356   3.957   3.614   1.148
13639SOL     OW42357   4.664   3.560   0.904
13639SOL    HW142358   4.744   3.503   0.925
13639SOL    HW242359   4.615   3.520   0.827
13640SOL     OW42360   4.106   2.562   0.480
13640SOL    HW142361   4.151   2.472   0.477
13640SOL    HW242362   4.012   2.551   0.513
13641SOL     OW42363   5.271   2.084   1.729
13641SOL    HW142364   5.266   2.121   1.821
13641SOL    HW242365   5.199   2.015   1.717
13642SOL     OW42366   4.338   1.984   0.117
13642SOL    HW142367   4.436   1.962   0.124
13642SOL    HW242368   4.307   1.967   0.024
13643SOL     OW42369   4.505   2.126   1.749
13643SOL    HW142370   4.572   2.065   1.792
13643SOL    HW242371   4.432   2.145   1.814
13644SOL     OW42372   4.612   3.376   1.195
13644SOL    HW142373   4.589   3.351   1.101
13644SOL    HW242374   4.673   3.307   1.234
13645SOL     OW42375   5.075   2.452   1.433
13645SOL    HW142376   5.103   2.409   1.518
13645SOL    HW242377   5.100   2.548   1.434
13646SOL     OW42378   4.527   3.264   0.924
13646SOL    HW142379   4.617   3.278   0.882
13646SOL    HW242380   4.456   3.266   0.853
13647SOL     OW42381   4.646   2.365   0.899
13647SOL    HW142382   4.621   2.356   0.803
13647SOL    HW242383   4.694   2.283   0.930
13648SOL     OW42384   4.263   1.926   0.512
13648SOL    HW142385   4.182   1.927   0.570
13648SOL    HW242386   4.266   2.009   0.457
13649SOL     OW42387   5.158   3.050   0.041
13649SOL    HW142388   5.190   2.974   0.098
13649SOL    HW242389   5.066   3.077   0.071
13650SOL     OW42390   4.021   1.897   0.171
13650SOL    HW142391   4.070   1.981   0.150
13650SOL    HW242392   4.083   1.832   0.216
13651SOL     OW42393   4.659   2.098   0.480
13651SOL    HW142394   4.611   2.139   0.402
13651SOL    HW242395   4.758   2.096   0.461
13652SOL     OW42396   4.800   2.545   1.464
13652SOL    HW142397   4.720   2.484   1.467
13652SOL    HW242398   4.881   2.492   1.440
13653SOL     OW42399   4.951   3.432   0.793
13653SOL    HW142400   4.972   3.506   0.728
13653SOL    HW242401   5.019   3.432   0.866
13654SOL     OW42402   4.183   3.014   0.741
13654SOL    HW142403   4.112   2.987   0.806
13654SOL    HW242404   4.157   2.986   0.648
13655SOL     OW42405   4.995   3.659   0.591
13655SOL    HW142406   5.039   3.723   0.527
13655SOL    HW242407   4.945   3.711   0.661
13656SOL     OW42408   4.756   2.411   0.016
13656SOL    HW142409   4.715   2.493  -0.023
13656SOL    HW242410   4.820   2.437   0.089
13657SOL     OW42411   3.802   2.418   1.386
13657SOL    HW142412   3.894   2.417   1.345
13657SOL    HW242413   3.796   2.492   1.453
13658SOL     OW42414   4.285   2.084   1.147
13658SOL    HW142415   4.323   2.000   1.184
13658SOL    HW242416   4.197   2.103   1.191
13659SOL     OW42417   4.590   2.316   0.642
13659SOL    HW142418   4.558   2.388   0.580
13659SOL    HW242419   4.614   2.235   0.589
13660SOL     OW42420   4.741   1.901   0.753
13660SOL    HW142421   4.669   1.906   0.684
13660SOL    HW242422   4.717   1.832   0.822
13661SOL     OW42423   5.153   3.035   0.867
13661SOL    HW142424   5.098   2.951   0.860
13661SOL    HW242425   5.179   3.064   0.775
13662SOL     OW42426   5.190   2.452   0.992
13662SOL    HW142427   5.160   2.357   0.999
13662SOL    HW242428   5.263   2.468   1.058
13663SOL     OW42429   5.581   2.695   0.377
13663SOL    HW142430   5.623   2.631   0.441
13663SOL    HW242431   5.543   2.644   0.299
13664SOL     OW42432   4.212   3.247   0.174
13664SOL    HW142433   4.125   3.232   0.221
13664SOL    HW242434   4.195   3.273   0.079
13665SOL     OW42435   5.388   3.142   0.657
13665SOL    HW142436   5.487   3.150   0.671
13665SOL    HW242437   5.343   3.226   0.688
13666SOL     OW42438   5.114   2.437   0.078
13666SOL    HW142439   5.060   2.416   0.159
13666SOL    HW242440   5.205   2.396   0.087
13667SOL     OW42441   4.251   2.118   0.328
13667SOL    HW142442   4.278   2.059   0.253
13667SOL    HW242443   4.251   2.213   0.297
13668SOL     OW42444   5.478   3.085   1.588
13668SOL    HW142445   5.569   3.046   1.575
13668SOL    HW242446   5.486   3.181   1.612
13669SOL     OW42447   4.788   3.209   1.340
13669SOL    HW142448   4.708   3.186   1.395
13669SOL    HW242449   4.871   3.183   1.389
13670SOL     OW42450   5.316   3.491   1.625
13670SOL    HW142451   5.343   3.525   1.535
13670SOL    HW242452   5.395   3.453   1.671
13671SOL     OW42453   4.835   3.057   1.100
13671SOL    HW142454   4.795   3.101   1.181
13671SOL    HW242455   4.794   3.094   1.017
13672SOL     OW42456   5.362   2.961   1.079
13672SOL    HW142457   5.367   3.042   1.138
13672SOL    HW242458   5.276   2.963   1.028
13673SOL     OW42459   4.639   1.951   1.402
13673SOL    HW142460   4.664   1.931   1.307
13673SOL    HW242461   4.711   2.007   1.444
13674SOL     OW42462   4.704   2.978   1.719
13674SOL    HW142463   4.605   2.984   1.729
13674SOL    HW242464   4.727   2.898   1.663
13675SOL     OW42465   4.429   2.912   0.368
13675SOL    HW142466   4.415   2.919   0.467
13675SOL    HW242467   4.513   2.861   0.350
13676SOL     OW42468   4.134   2.675   1.251
13676SOL    HW142469   4.220   2.687   1.301
13676SOL    HW242470   4.092   2.588   1.278
13677SOL     OW42471   4.998   2.248   1.262
13677SOL    HW142472   5.019   2.322   1.326
13677SOL    HW242473   4.909   2.265   1.219
13678SOL     OW42474   3.788   3.426   1.331
13678SOL    HW142475   3.742   3.508   1.297
13678SOL    HW242476   3.886   3.445   1.340
13679SOL     OW42477   4.091   2.962   0.501
13679SOL    HW142478   4.084   3.045   0.445
13679SOL    HW242479   4.095   2.882   0.441
13680SOL     OW42480   4.290   2.399   0.865
13680SOL    HW142481   4.302   2.465   0.791
13680SOL    HW242482   4.336   2.433   0.948
13681SOL     OW42483   4.976   3.210   0.388
13681SOL    HW142484   5.026   3.287   0.428
13681SOL    HW242485   4.881   3.212   0.420
13682SOL     OW42486   4.996   3.307   1.142
13682SOL    HW142487   5.043   3.320   1.229
13682SOL    HW242488   4.930   3.233   1.151
13683SOL     OW42489   5.306   2.501   0.472
13683SOL    HW142490   5.275   2.562   0.545
13683SOL    HW242491   5.356   2.553   0.403
13684SOL     OW42492   4.078   3.372   1.329
13684SOL    HW142493   4.057   3.328   1.242
13684SOL    HW242494   4.175   3.398   1.332
13685SOL     OW42495   4.126   2.613   1.598
13685SOL    HW142496   4.194   2.668   1.551
13685SOL    HW242497   4.166   2.525   1.625
13686SOL     OW42498   5.311   2.641   1.670
13686SOL    HW142499   5.219   2.679   1.665
13686SOL    HW242500   5.371   2.688   1.605
13687SOL     OW42501   4.737   1.967   1.770
13687SOL    HW142502   4.743   2.052   1.718
13687SOL    HW242503   4.769   1.891   1.713
13688SOL     OW42504   4.228   1.912   1.740
13688SOL    HW142505   4.186   1.855   1.670
13688SOL    HW242506   4.162   1.981   1.772
13689SOL     OW42507   4.297   2.732   1.029
13689SOL    HW142508   4.341   2.821   1.020
13689SOL    HW242509   4.234   2.732   1.106
13690SOL     OW42510   5.084   2.724   1.045
13690SOL    HW142511   5.009   2.724   0.979
13690SOL    HW242512   5.121   2.632   1.054
13691SOL     OW42513   4.933   2.387   0.275
13691SOL    HW142514   4.946   2.303   0.329
13691SOL    HW242515   4.904   2.461   0.335
13692SOL     OW42516   4.031   2.075   1.231
13692SOL    HW142517   4.008   2.112   1.321
13692SOL    HW242518   4.001   1.980   1.225
13693SOL     OW42519   3.761   3.172   1.282
13693SOL    HW142520   3.814   3.123   1.350
13693SOL    HW242521   3.783   3.270   1.287
13694SOL     OW42522   4.456   2.496   1.064
13694SOL    HW142523   4.515   2.470   0.988
13694SOL    HW242524   4.428   2.592   1.053
13695SOL     OW42525   5.452   2.797   1.854
13695SOL    HW142526   5.406   2.790   1.765
13695SOL    HW242527   5.390   2.841   1.920
13696SOL     OW42528   4.031   1.925   0.618
13696SOL    HW142529   4.020   2.019   0.651
13696SOL    HW242530   4.026   1.862   0.695
13697SOL     OW42531   5.346   2.229   0.374
13697SOL    HW142532   5.348   2.153   0.438
13697SOL    HW242533   5.298   2.306   0.414
13698SOL     OW42534   4.747   2.628   0.966
13698SOL    HW142535   4.762   2.649   1.062
13698SOL    HW242536   4.717   2.533   0.957
13699SOL     OW42537   4.704   3.435   1.700
13699SOL    HW142538   4.684   3.479   1.612
13699SOL    HW242539   4.743   3.344   1.684
13700SOL     OW42540   5.583   3.380   1.605
13700SOL    HW142541   5.597   3.407   1.510
13700SOL    HW242542   5.666   3.402   1.658
13701SOL     OW42543   4.074   2.760   1.804
13701SOL    HW142544   4.150   2.804   1.852
13701SOL    HW242545   4.109   2.713   1.722
13702SOL     OW42546   5.264   2.136   0.125
13702SOL    HW142547   5.203   2.061   0.148
13702SOL    HW242548   5.286   2.188   0.208
13703SOL     OW42549   5.027   2.700   0.042
13703SOL    HW142550   5.061   2.607   0.057
13703SOL    HW242551   5.045   2.727  -0.053
13704SOL     OW42552   4.792   3.195   0.849
13704SOL    HW142553   4.799   3.111   0.794
13704SOL    HW242554   4.854   3.264   0.813
13705SOL     OW42555   4.043   2.672   0.949
13705SOL    HW142556   4.136   2.708   0.954
13705SOL    HW242557   4.037   2.587   1.001
13706SOL     OW42558   4.063   2.371   1.006
13706SOL    HW142559   4.011   2.288   0.989
13706SOL    HW242560   4.140   2.376   0.942
13707SOL     OW42561   4.862   2.242   1.678
13707SOL    HW142562   4.817   2.305   1.742
13707SOL    HW242563   4.955   2.273   1.661
13708SOL     OW42564   4.884   2.069   1.477
13708SOL    HW142565   4.884   2.133   1.554
13708SOL    HW242566   4.912   2.117   1.394
13709SOL     OW42567   3.812   3.663   0.927
13709SOL    HW142568   3.770   3.577   0.900
13709SOL    HW242569   3.906   3.666   0.893
13710SOL     OW42570   4.228   3.430   0.910
13710SOL    HW142571   4.294   3.504   0.919
13710SOL    HW242572   4.272   3.351   0.868
13711SOL     OW42573   4.726   2.658   1.238
13711SOL    HW142574   4.767   2.626   1.324
13711SOL    HW242575   4.630   2.631   1.235
13712SOL     OW42576   3.764   2.406   1.114
13712SOL    HW142577   3.849   2.373   1.073
13712SOL    HW242578   3.777   2.421   1.212
13713SOL     OW42579   3.913   2.382   1.722
13713SOL    HW142580   3.972   2.342   1.652
13713SOL    HW242581   3.855   2.453   1.681
13714SOL     OW42582   5.093   2.812   1.660
13714SOL    HW142583   5.132   2.901   1.680
13714SOL    HW242584   5.103   2.792   1.563
13715SOL     OW42585   4.539   2.434   0.325
13715SOL    HW142586   4.546   2.345   0.279
13715SOL    HW242587   4.445   2.468   0.317
13716SOL     OW42588   5.381   2.466   1.206
13716SOL    HW142589   5.343   2.397   1.268
13716SOL    HW242590   5.463   2.430   1.162
13717SOL     OW42591   3.976   3.426   1.744
13717SOL    HW142592   3.946   3.483   1.820
13717SOL    HW242593   3.969   3.329   1.770
13718SOL     OW42594   4.395   2.326   1.269
13718SOL    HW142595   4.361   2.237   1.239
13718SOL    HW242596   4.421   2.380   1.189
13719SOL     OW42597   4.654   3.540   1.465
13719SOL    HW142598   4.630   3.522   1.370
13719SOL    HW242599   4.684   3.634   1.475
13720SOL     OW42600   4.197   2.362   0.191
13720SOL    HW142601   4.258   2.442   0.195
13720SOL    HW242602   4.102   2.393   0.198
13721SOL     OW42603   3.883   2.999   1.466
13721SOL    HW142604   3.905   2.938   1.542
13721SOL    HW242605   3.893   2.950   1.380
13722SOL     OW42606   5.071   2.921   1.234
13722SOL    HW142607   5.095   2.858   1.160
13722SOL    HW242608   4.981   2.961   1.216
13723SOL     OW42609   5.026   2.717   0.309
13723SOL    HW142610   4.940   2.686   0.351
13723SOL    HW242611   5.022   2.703   0.210
13724SOL     OW42612   5.483   3.609   1.154
13724SOL    HW142613   5.544   3.639   1.081
13724SOL    HW242614   5.445   3.520   1.132
13725SOL     OW42615   4.976   3.593   1.128
13725SOL    HW142616   5.060   3.598   1.074
13725SOL    HW242617   4.953   3.497   1.146
13726SOL     OW42618   3.807   3.120   1.022
13726SOL    HW142619   3.802   3.119   1.122
13726SOL    HW242620   3.724   3.079   0.984
13727SOL     OW42621   4.412   3.524   1.716
13727SOL    HW142622   4.356   3.605   1.725
13727SOL    HW242623   4.464   3.528   1.630
13728SOL     OW42624   4.627   1.948   0.133
13728SOL    HW142625   4.678   1.949   0.047
13728SOL    HW242626   4.683   1.906   0.204
13729SOL     OW42627   5.450   1.997   0.523
13729SOL    HW142628   5.523   1.980   0.456
13729SOL    HW242629   5.419   1.910   0.561
13730SOL     OW42630   5.112   3.435   0.477
13730SOL    HW142631   5.179   3.447   0.403
13730SOL    HW242632   5.072   3.524   0.500
13731SOL     OW42633   3.854   3.656   1.851
13731SOL    HW142634   3.813   3.582   1.904
13731SOL    HW242635   3.918   3.707   1.909
13732SOL     OW42636   5.004   2.789   0.672
13732SOL    HW142637   5.064   2.708   0.674
13732SOL    HW242638   5.044   2.858   0.612
13733SOL     OW42639   4.554   3.135   1.422
13733SOL    HW142640   4.549   3.168   1.517
13733SOL    HW242641   4.468   3.154   1.376
13734SOL     OW42642   4.396   3.478   0.154
13734SOL    HW142643   4.405   3.488   0.055
13734SOL    HW242644   4.356   3.389   0.175
13735SOL     OW42645   5.374   3.582   1.394
13735SOL    HW142646   5.427   3.592   1.310
13735SOL    HW242647   5.347   3.672   1.428
13736SOL     OW42648   5.565   2.037   0.963
13736SOL    HW142649   5.604   1.952   0.927
13736SOL    HW242650   5.467   2.039   0.944
13737SOL     OW42651   3.987   2.188   0.720
13737SOL    HW142652   3.908   2.239   0.686
13737SOL    HW242653   3.978   2.173   0.818
13738SOL     OW42654   4.918   3.474   0.031
13738SOL    HW142655   4.924   3.381   0.068
13738SOL    HW242656   4.859   3.474  -0.049
13739SOL     OW42657   4.546   2.864   1.372
13739SOL    HW142658   4.586   2.863   1.280
13739SOL    HW242659   4.556   2.956   1.412
13740SOL     OW42660   4.640   2.772   0.291
13740SOL    HW142661   4.703   2.810   0.223
13740SOL    HW242662   4.680   2.689   0.330
13741SOL     OW42663   5.228   3.469   0.044
13741SOL    HW142664   5.136   3.506   0.051
13741SOL    HW242665   5.266   3.489  -0.046
13742SOL     OW42666   4.096   3.150   1.490
13742SOL    HW142667   4.083   3.243   1.456
13742SOL    HW242668   4.012   3.098   1.477
13743SOL     OW42669   5.338   3.154   1.289
13743SOL    HW142670   5.398   3.157   1.369
13743SOL    HW242671   5.263   3.218   1.302
13744SOL     OW42672   4.763   2.960   0.696
13744SOL    HW142673   4.693   2.913   0.750
13744SOL    HW242674   4.822   2.892   0.653
13745SOL     OW42675   4.738   2.098   0.971
13745SOL    HW142676   4.730   2.062   0.878
13745SOL    HW242677   4.736   2.022   1.036
13746SOL     OW42678   4.314   3.349   0.491
13746SOL    HW142679   4.356   3.291   0.421
13746SOL    HW242680   4.270   3.428   0.447
13747SOL     OW42681   5.433   2.247   1.381
13747SOL    HW142682   5.506   2.316   1.385
13747SOL    HW242683   5.461   2.172   1.322
13748SOL     OW42684   3.979   3.210   0.290
13748SOL    HW142685   3.883   3.211   0.263
13748SOL    HW242686   3.991   3.263   0.374
13749SOL     OW42687   3.829   2.875   1.726
13749SOL    HW142688   3.752   2.842   1.780
13749SOL    HW242689   3.914   2.845   1.768
13750SOL     OW42690   4.396   2.065   1.489
13750SOL    HW142691   4.486   2.049   1.449
13750SOL    HW242692   4.404   2.070   1.588
13751SOL     OW42693   5.164   2.718   1.398
13751SOL    HW142694   5.107   2.770   1.335
13751SOL    HW242695   5.260   2.730   1.374
13752SOL     OW42696   3.796   2.028   0.318
13752SOL    HW142697   3.779   2.111   0.264
13752SOL    HW242698   3.886   1.991   0.296
13753SOL     OW42699   4.907   3.197   0.119
13753SOL    HW142700   4.808   3.186   0.121
13753SOL    HW242701   4.941   3.212   0.212
13754SOL     OW42702   4.337   2.704   1.431
13754SOL    HW142703   4.393   2.785   1.414
13754SOL    HW242704   4.396   2.624   1.434
13755SOL     OW42705   5.217   3.629   0.959
13755SOL    HW142706   5.250   3.693   0.890
13755SOL    HW242707   5.283   3.623   1.034
13756SOL     OW42708   4.440   2.427   1.708
13756SOL    HW142709   4.459   2.492   1.782
13756SOL    HW242710   4.500   2.347   1.717
13757SOL     OW42711   5.174   3.082   1.633
13757SOL    HW142712   5.165   3.072   1.732
13757SOL    HW242713   5.270   3.075   1.607
13758SOL     OW42714   4.114   3.603   1.560
13758SOL    HW142715   4.023   3.644   1.558
13758SOL    HW242716   4.107   3.509   1.592
13759SOL     OW42717   5.398   2.745   1.254
13759SOL    HW142718   5.371   2.656   1.217
13759SOL    HW242719   5.399   2.813   1.181
13760SOL     OW42720   4.949   2.187   0.449
13760SOL    HW142721   5.014   2.113   0.438
13760SOL    HW242722   4.969   2.237   0.533
13761SOL     OW42723   4.318   2.607   0.652
13761SOL    HW142724   4.368   2.692   0.633
13761SOL    HW242725   4.230   2.609   0.604
13762SOL     OW42726   5.501   2.204   1.642
13762SOL    HW142727   5.484   2.235   1.548
13762SOL    HW242728   5.417   2.167   1.680
13763SOL     OW42729   5.454   2.796   1.517
13763SOL    HW142730   5.492   2.887   1.532
13763SOL    HW242731   5.446   2.779   1.418
13764SOL     OW42732   4.583   3.236   0.016
13764SOL    HW142733   4.537   3.251   0.104
13764SOL    HW242734   4.627   3.321  -0.014
13765SOL     OW42735   4.385   3.652   0.953
13765SOL    HW142736   4.339   3.740   0.940
13765SOL    HW242737   4.484   3.664   0.946
13766SOL     OW42738   4.583   2.818   0.861
13766SOL    HW142739   4.637   2.749   0.909
13766SOL    HW242740   4.551   2.887   0.927
13767SOL     OW42741   4.807   2.846   0.087
13767SOL    HW142742   4.784   2.899   0.005
13767SOL    HW242743   4.888   2.790   0.068
13768SOL     OW42744   5.585   3.431   0.851
13768SOL    HW142745   5.514   3.419   0.781
13768SOL    HW242746   5.586   3.352   0.911
13769SOL     OW42747   3.945   3.176   1.844
13769SOL    HW142748   3.880   3.103   1.823
13769SOL    HW242749   3.949   3.190   1.942
13770SOL     OW42750   3.803   3.102   0.653
13770SOL    HW142751   3.802   3.055   0.741
13770SOL    HW242752   3.885   3.074   0.602
13771SOL     OW42753   4.396   3.253   1.624
13771SOL    HW142754   4.318   3.203   1.662
13771SOL    HW242755   4.393   3.348   1.655
13772SOL     OW42756   5.548   2.054   1.227
13772SOL    HW142757   5.544   1.964   1.271
13772SOL    HW242758   5.551   2.043   1.128
13773SOL     OW42759   4.152   2.286   0.520
13773SOL    HW142760   4.182   2.214   0.458
13773SOL    HW242761   4.113   2.246   0.603
13774SOL     OW42762   5.429   3.349   1.104
13774SOL    HW142763   5.336   3.324   1.077
13774SOL    HW242764   5.455   3.299   1.186
13775SOL     OW42765   4.041   2.409   1.280
13775SOL    HW142766   4.079   2.350   1.352
13775SOL    HW242767   4.081   2.383   1.192
13776SOL     OW42768   4.536   3.448   0.687
13776SOL    HW142769   4.568   3.458   0.593
13776SOL    HW242770   4.457   3.386   0.689
13777SOL     OW42771   5.148   2.076   1.112
13777SOL    HW142772   5.200   2.011   1.167
13777SOL    HW242773   5.099   2.139   1.173
13778SOL     OW42774   4.725   1.896   1.154
13778SOL    HW142775   4.662   1.824   1.123
13778SOL    HW242776   4.818   1.860   1.154
13779SOL     OW42777   4.494   3.192   0.301
13779SOL    HW142778   4.448   3.105   0.318
13779SOL    HW242779   4.585   3.189   0.342
13780SOL     OW42780   4.342   3.429   1.284
13780SOL    HW142781   4.337   3.511   1.341
13780SOL    HW242782   4.431   3.426   1.239
13781SOL     OW42783   5.076   1.914   0.168
13781SOL    HW142784   5.111   1.873   0.084
13781SOL    HW242785   4.986   1.876   0.188
13782SOL     OW42786   5.024   2.315   0.691
13782SOL    HW142787   4.965   2.395   0.695
13782SOL    HW242788   5.039   2.280   0.784
13783SOL     OW42789   5.317   2.083   0.882
13783SOL    HW142790   5.233   2.082   0.936
13783SOL    HW242791   5.319   2.166   0.826
13784SOL     OW42792   3.763   2.939   0.300
13784SOL    HW142793   3.862   2.928   0.291
13784SOL    HW242794   3.723   2.853   0.332
13785SOL     OW42795   4.599   3.508   0.337
13785SOL    HW142796   4.522   3.473   0.283
13785SOL    HW242797   4.567   3.579   0.399
13786SOL     OW42798   3.954   2.490   1.975
13786SOL    HW142799   3.861   2.488   2.012
13786SOL    HW242800   3.955   2.451   1.883
13787SOL     OW42801   3.949   2.137   2.858
13787SOL    HW142802   3.984   2.120   2.950
13787SOL    HW242803   3.861   2.092   2.846
13788SOL     OW42804   3.743   2.230   2.509
13788SOL    HW142805   3.661   2.273   2.548
13788SOL    HW242806   3.715   2.157   2.446
13789SOL     OW42807   5.279   3.373   2.565
13789SOL    HW142808   5.222   3.357   2.646
13789SOL    HW242809   5.220   3.383   2.485
13790SOL     OW42810   4.859   2.565   2.579
13790SOL    HW142811   4.916   2.643   2.554
13790SOL    HW242812   4.799   2.591   2.655
13791SOL     OW42813   5.479   2.469   2.093
13791SOL    HW142814   5.467   2.456   1.994
13791SOL    HW242815   5.449   2.388   2.142
13792SOL     OW42816   4.492   3.006   2.885
13792SOL    HW142817   4.414   3.023   2.945
13792SOL    HW242818   4.526   3.093   2.849
13793SOL     OW42819   4.574   2.660   3.685
13793SOL    HW142820   4.570   2.736   3.750
13793SOL    HW242821   4.596   2.696   3.594
13794SOL     OW42822   4.409   2.874   2.527
13794SOL    HW142823   4.478   2.858   2.597
13794SOL    HW242824   4.336   2.931   2.565
13795SOL     OW42825   4.410   3.023   3.665
13795SOL    HW142826   4.470   3.102   3.679
13795SOL    HW242827   4.324   3.054   3.624
13796SOL     OW42828   5.184   3.367   3.201
13796SOL    HW142829   5.208   3.461   3.227
13796SOL    HW242830   5.168   3.313   3.283
13797SOL     OW42831   4.162   2.254   3.361
13797SOL    HW142832   4.244   2.198   3.370
13797SOL    HW242833   4.081   2.196   3.365
13798SOL     OW42834   5.327   2.309   2.599
13798SOL    HW142835   5.253   2.355   2.549
13798SOL    HW242836   5.378   2.377   2.652
13799SOL     OW42837   3.955   3.575   2.345
13799SOL    HW142838   3.989   3.652   2.399
13799SOL    HW242839   3.999   3.575   2.255
13800SOL     OW42840   4.851   3.203   3.552
13800SOL    HW142841   4.898   3.203   3.640
13800SOL    HW242842   4.803   3.116   3.541
13801SOL     OW42843   3.954   3.296   2.400
13801SOL    HW142844   3.928   3.392   2.400
13801SOL    HW242845   3.883   3.242   2.445
13802SOL     OW42846   4.330   2.826   1.985
13802SOL    HW142847   4.337   2.910   1.931
13802SOL    HW242848   4.376   2.839   2.073
13803SOL     OW42849   5.318   1.976   3.342
13803SOL    HW142850   5.300   2.043   3.270
13803SOL    HW242851   5.315   2.022   3.431
13804SOL     OW42852   3.846   2.505   2.425
13804SOL    HW142853   3.801   2.417   2.442
13804SOL    HW242854   3.845   2.559   2.509
13805SOL     OW42855   5.566   3.629   2.221
13805SOL    HW142856   5.620   3.600   2.301
13805SOL    HW242857   5.596   3.719   2.192
13806SOL     OW42858   3.751   3.458   1.979
13806SOL    HW142859   3.732   3.362   2.000
13806SOL    HW242860   3.718   3.516   2.054
13807SOL     OW42861   5.413   2.784   2.474
13807SOL    HW142862   5.508   2.755   2.482
13807SOL    HW242863   5.405   2.849   2.399
13808SOL     OW42864   5.365   2.970   2.294
13808SOL    HW142865   5.451   2.972   2.242
13808SOL    HW242866   5.379   3.017   2.382
13809SOL     OW42867   3.837   2.599   3.459
13809SOL    HW142868   3.925   2.586   3.504
13809SOL    HW242869   3.824   2.696   3.437
13810SOL     OW42870   5.017   3.090   3.285
13810SOL    HW142871   5.054   3.017   3.227
13810SOL    HW242872   5.069   3.095   3.370
13811SOL     OW42873   4.533   1.866   2.364
13811SOL    HW142874   4.573   1.957   2.355
13811SOL    HW242875   4.433   1.874   2.370
13812SOL     OW42876   3.921   2.838   3.126
13812SOL    HW142877   4.010   2.793   3.112
13812SOL    HW242878   3.848   2.773   3.107
13813SOL     OW42879   5.249   2.861   2.052
13813SOL    HW142880   5.186   2.785   2.065
13813SOL    HW242881   5.297   2.879   2.138
13814SOL     OW42882   4.911   3.654   3.478
13814SOL    HW142883   4.935   3.714   3.402
13814SOL    HW242884   4.918   3.559   3.448
13815SOL     OW42885   4.041   2.113   3.663
13815SOL    HW142886   4.112   2.184   3.669
13815SOL    HW242887   3.953   2.152   3.691
13816SOL     OW42888   5.190   3.279   2.815
13816SOL    HW142889   5.131   3.285   2.895
13816SOL    HW242890   5.175   3.191   2.769
13817SOL     OW42891   5.391   3.576   2.434
13817SOL    HW142892   5.350   3.553   2.346
13817SOL    HW242893   5.373   3.502   2.499
13818SOL     OW42894   4.322   2.591   2.132
13818SOL    HW142895   4.346   2.660   2.064
13818SOL    HW242896   4.244   2.624   2.186
13819SOL     OW42897   5.005   2.207   2.806
13819SOL    HW142898   4.919   2.157   2.793
13819SOL    HW242899   5.067   2.153   2.862
13820SOL     OW42900   5.300   3.524   2.169
13820SOL    HW142901   5.389   3.570   2.172
13820SOL    HW242902   5.279   3.500   2.074
13821SOL     OW42903   4.531   2.467   3.327
13821SOL    HW142904   4.484   2.464   3.416
13821SOL    HW242905   4.480   2.412   3.261
13822SOL     OW42906   5.118   2.331   3.536
13822SOL    HW142907   5.098   2.374   3.624
13822SOL    HW242908   5.196   2.269   3.545
13823SOL     OW42909   4.697   2.752   3.434
13823SOL    HW142910   4.743   2.668   3.405
13823SOL    HW242911   4.641   2.786   3.359
13824SOL     OW42912   4.715   2.272   3.104
13824SOL    HW142913   4.638   2.306   3.158
13824SOL    HW242914   4.681   2.221   3.025
13825SOL     OW42915   4.765   2.563   2.291
13825SOL    HW142916   4.791   2.559   2.387
13825SOL    HW242917   4.680   2.512   2.277
13826SOL     OW42918   3.800   2.673   2.651
13826SOL    HW142919   3.899   2.661   2.660
13826SOL    HW242920   3.776   2.768   2.672
13827SOL     OW42921   4.589   2.210   2.057
13827SOL    HW142922   4.648   2.273   2.008
13827SOL    HW242923   4.608   2.116   2.028
13828SOL     OW42924   5.443   2.447   3.693
13828SOL    HW142925   5.417   2.536   3.657
13828SOL    HW242926   5.441   2.379   3.620
13829SOL     OW42927   5.086   3.006   2.407
13829SOL    HW142928   5.169   2.977   2.359
13829SOL    HW242929   5.037   3.073   2.351
13830SOL     OW42930   4.274   2.058   2.747
13830SOL    HW142931   4.269   2.053   2.847
13830SOL    HW242932   4.276   2.154   2.718
13831SOL     OW42933   4.732   3.318   2.339
13831SOL    HW142934   4.686   3.390   2.287
13831SOL    HW242935   4.728   3.338   2.437
13832SOL     OW42936   4.075   3.663   2.715
13832SOL    HW142937   4.125   3.577   2.721
13832SOL    HW242938   4.140   3.740   2.712
13833SOL     OW42939   5.519   2.928   2.735
13833SOL    HW142940   5.457   2.913   2.659
13833SOL    HW242941   5.467   2.939   2.820
13834SOL     OW42942   4.951   3.412   3.368
13834SOL    HW142943   4.957   3.335   3.432
13834SOL    HW242944   4.899   3.386   3.288
13835SOL     OW42945   4.045   2.805   2.104
13835SOL    HW142946   4.127   2.844   2.062
13835SOL    HW242947   4.018   2.723   2.055
13836SOL     OW42948   5.182   2.597   2.590
13836SOL    HW142949   5.177   2.532   2.665
13836SOL    HW242950   5.262   2.656   2.603
13837SOL     OW42951   4.185   3.128   3.589
13837SOL    HW142952   4.135   3.129   3.503
13837SOL    HW242953   4.122   3.110   3.665
13838SOL     OW42954   4.835   3.638   2.099
13838SOL    HW142955   4.775   3.576   2.149
13838SOL    HW242956   4.866   3.594   2.014
13839SOL     OW42957   3.926   2.147   3.360
13839SOL    HW142958   3.846   2.207   3.347
13839SOL    HW242959   3.916   2.098   3.446
13840SOL     OW42960   5.356   3.239   1.943
13840SOL    HW142961   5.324   3.333   1.933
13840SOL    HW242962   5.280   3.176   1.931
13841SOL     OW42963   4.188   3.605   2.185
13841SOL    HW142964   4.221   3.644   2.271
13841SOL    HW242965   4.264   3.598   2.120
13842SOL     OW42966   5.124   1.969   2.288
13842SOL    HW142967   5.100   1.932   2.198
13842SOL    HW242968   5.223   1.985   2.292
13843SOL     OW42969   4.106   2.562   2.342
13843SOL    HW142970   4.151   2.472   2.339
13843SOL    HW242971   4.012   2.551   2.375
13844SOL     OW42972   5.271   2.084   3.591
13844SOL    HW142973   5.266   2.121   3.683
13844SOL    HW242974   5.199   2.015   3.579
13845SOL     OW42975   4.338   1.984   1.979
13845SOL    HW142976   4.436   1.962   1.986
13845SOL    HW242977   4.307   1.967   1.886
13846SOL     OW42978   4.505   2.126   3.611
13846SOL    HW142979   4.572   2.065   3.654
13846SOL    HW242980   4.432   2.145   3.676
13847SOL     OW42981   5.075   2.452   3.295
13847SOL    HW142982   5.103   2.409   3.380
13847SOL    HW242983   5.100   2.548   3.296
13848SOL     OW42984   4.646   2.365   2.761
13848SOL    HW142985   4.621   2.356   2.665
13848SOL    HW242986   4.694   2.283   2.792
13849SOL     OW42987   4.263   1.926   2.374
13849SOL    HW142988   4.182   1.927   2.432
13849SOL    HW242989   4.266   2.009   2.319
13850SOL     OW42990   5.158   3.050   1.903
13850SOL    HW142991   5.190   2.974   1.960
13850SOL    HW242992   5.066   3.077   1.933
13851SOL     OW42993   4.021   1.897   2.033
13851SOL    HW142994   4.070   1.981   2.012
13851SOL    HW242995   4.083   1.832   2.078
13852SOL     OW42996   4.659   2.098   2.342
13852SOL    HW142997   4.611   2.139   2.264
13852SOL    HW242998   4.758   2.096   2.323
13853SOL     OW42999   4.800   2.545   3.326
13853SOL    HW143000   4.720   2.484   3.329
13853SOL    HW243001   4.881   2.492   3.302
13854SOL     OW43002   4.951   3.432   2.655
13854SOL    HW143003   4.972   3.506   2.590
13854SOL    HW243004   5.019   3.432   2.728
13855SOL     OW43005   4.995   3.659   2.453
13855SOL    HW143006   5.039   3.723   2.389
13855SOL    HW243007   4.945   3.711   2.523
13856SOL     OW43008   4.756   2.411   1.878
13856SOL    HW143009   4.715   2.493   1.839
13856SOL    HW243010   4.820   2.437   1.951
13857SOL     OW43011   3.802   2.418   3.248
13857SOL    HW143012   3.894   2.417   3.207
13857SOL    HW243013   3.796   2.492   3.315
13858SOL     OW43014   4.285   2.084   3.009
13858SOL    HW143015   4.323   2.000   3.046
13858SOL    HW243016   4.197   2.103   3.053
13859SOL     OW43017   4.590   2.316   2.504
13859SOL    HW143018   4.558   2.388   2.442
13859SOL    HW243019   4.614   2.235   2.451
13860SOL     OW43020   4.741   1.901   2.615
13860SOL    HW143021   4.669   1.906   2.546
13860SOL    HW243022   4.717   1.832   2.684
13861SOL     OW43023   5.153   3.035   2.729
13861SOL    HW143024   5.098   2.951   2.722
13861SOL    HW243025   5.179   3.064   2.637
13862SOL     OW43026   5.190   2.452   2.854
13862SOL    HW143027   5.160   2.357   2.861
13862SOL    HW243028   5.263   2.468   2.920
13863SOL     OW43029   5.581   2.695   2.239
13863SOL    HW143030   5.623   2.631   2.303
13863SOL    HW243031   5.543   2.644   2.161
13864SOL     OW43032   4.212   3.247   2.036
13864SOL    HW143033   4.125   3.232   2.083
13864SOL    HW243034   4.195   3.273   1.941
13865SOL     OW43035   5.388   3.142   2.519
13865SOL    HW143036   5.487   3.150   2.533
13865SOL    HW243037   5.343   3.226   2.550
13866SOL     OW43038   5.114   2.437   1.940
13866SOL    HW143039   5.060   2.416   2.021
13866SOL    HW243040   5.205   2.396   1.949
13867SOL     OW43041   4.251   2.118   2.190
13867SOL    HW143042   4.278   2.059   2.115
13867SOL    HW243043   4.251   2.213   2.159
13868SOL     OW43044   5.478   3.085   3.450
13868SOL    HW143045   5.569   3.046   3.437
13868SOL    HW243046   5.486   3.181   3.474
13869SOL     OW43047   4.788   3.209   3.202
13869SOL    HW143048   4.708   3.186   3.257
13869SOL    HW243049   4.871   3.183   3.251
13870SOL     OW43050   5.316   3.491   3.487
13870SOL    HW143051   5.343   3.525   3.397
13870SOL    HW243052   5.395   3.453   3.533
13871SOL     OW43053   4.835   3.057   2.962
13871SOL    HW143054   4.795   3.101   3.043
13871SOL    HW243055   4.794   3.094   2.879
13872SOL     OW43056   5.362   2.961   2.941
13872SOL    HW143057   5.367   3.042   3.000
13872SOL    HW243058   5.276   2.963   2.890
13873SOL     OW43059   4.639   1.951   3.264
13873SOL    HW143060   4.664   1.931   3.169
13873SOL    HW243061   4.711   2.007   3.306
13874SOL     OW43062   4.704   2.978   3.581
13874SOL    HW143063   4.605   2.984   3.591
13874SOL    HW243064   4.727   2.898   3.525
13875SOL     OW43065   4.429   2.912   2.230
13875SOL    HW143066   4.415   2.919   2.329
13875SOL    HW243067   4.513   2.861   2.212
13876SOL     OW43068   4.134   2.675   3.113
13876SOL    HW143069   4.220   2.687   3.163
13876SOL    HW243070   4.092   2.588   3.140
13877SOL     OW43071   4.998   2.248   3.124
13877SOL    HW143072   5.019   2.322   3.188
13877SOL    HW243073   4.909   2.265   3.081
13878SOL     OW43074   4.091   2.962   2.363
13878SOL    HW143075   4.084   3.045   2.307
13878SOL    HW243076   4.095   2.882   2.303
13879SOL     OW43077   4.290   2.399   2.727
13879SOL    HW143078   4.302   2.465   2.653
13879SOL    HW243079   4.336   2.433   2.810
13880SOL     OW43080   4.976   3.210   2.250
13880SOL    HW143081   5.026   3.287   2.290
13880SOL    HW243082   4.881   3.212   2.282
13881SOL     OW43083   4.996   3.307   3.004
13881SOL    HW143084   5.043   3.320   3.091
13881SOL    HW243085   4.930   3.233   3.013
13882SOL     OW43086   5.306   2.501   2.334
13882SOL    HW143087   5.275   2.562   2.407
13882SOL    HW243088   5.356   2.553   2.265
13883SOL     OW43089   4.126   2.613   3.460
13883SOL    HW143090   4.194   2.668   3.413
13883SOL    HW243091   4.166   2.525   3.487
13884SOL     OW43092   5.311   2.641   3.532
13884SOL    HW143093   5.219   2.679   3.527
13884SOL    HW243094   5.371   2.688   3.467
13885SOL     OW43095   4.737   1.967   3.632
13885SOL    HW143096   4.743   2.052   3.580
13885SOL    HW243097   4.769   1.891   3.575
13886SOL     OW43098   4.228   1.912   3.602
13886SOL    HW143099   4.186   1.855   3.532
13886SOL    HW243100   4.162   1.981   3.634
13887SOL     OW43101   4.297   2.732   2.891
13887SOL    HW143102   4.341   2.821   2.882
13887SOL    HW243103   4.234   2.732   2.968
13888SOL     OW43104   5.084   2.724   2.907
13888SOL    HW143105   5.009   2.724   2.841
13888SOL    HW243106   5.121   2.632   2.916
13889SOL     OW43107   4.933   2.387   2.137
13889SOL    HW143108   4.946   2.303   2.191
13889SOL    HW243109   4.904   2.461   2.197
13890SOL     OW43110   4.031   2.075   3.093
13890SOL    HW143111   4.008   2.112   3.183
13890SOL    HW243112   4.001   1.980   3.087
13891SOL     OW43113   3.761   3.172   3.144
13891SOL    HW143114   3.814   3.123   3.212
13891SOL    HW243115   3.783   3.270   3.149
13892SOL     OW43116   4.456   2.496   2.926
13892SOL    HW143117   4.515   2.470   2.850
13892SOL    HW243118   4.428   2.592   2.915
13893SOL     OW43119   5.452   2.797   3.716
13893SOL    HW143120   5.406   2.790   3.627
13893SOL    HW243121   5.390   2.841   3.782
13894SOL     OW43122   4.031   1.925   2.480
13894SOL    HW143123   4.020   2.019   2.513
13894SOL    HW243124   4.026   1.862   2.557
13895SOL     OW43125   5.346   2.229   2.236
13895SOL    HW143126   5.348   2.153   2.300
13895SOL    HW243127   5.298   2.306   2.276
13896SOL     OW43128   4.747   2.628   2.828
13896SOL    HW143129   4.762   2.649   2.924
13896SOL    HW243130   4.717   2.533   2.819
13897SOL     OW43131   4.704   3.435   3.562
13897SOL    HW143132   4.684   3.479   3.474
13897SOL    HW243133   4.743   3.344   3.546
13898SOL     OW43134   5.583   3.380   3.467
13898SOL    HW143135   5.597   3.407   3.372
13898SOL    HW243136   5.666   3.402   3.520
13899SOL     OW43137   4.074   2.760   3.666
13899SOL    HW143138   4.150   2.804   3.714
13899SOL    HW243139   4.109   2.713   3.584
13900SOL     OW43140   5.264   2.136   1.987
13900SOL    HW143141   5.203   2.061   2.010
13900SOL    HW243142   5.286   2.188   2.070
13901SOL     OW43143   5.027   2.700   1.904
13901SOL    HW143144   5.061   2.607   1.919
13901SOL    HW243145   5.045   2.727   1.809
13902SOL     OW43146   4.792   3.195   2.711
13902SOL    HW143147   4.799   3.111   2.656
13902SOL    HW243148   4.854   3.264   2.675
13903SOL     OW43149   4.043   2.672   2.811
13903SOL    HW143150   4.136   2.708   2.816
13903SOL    HW243151   4.037   2.587   2.863
13904SOL     OW43152   4.063   2.371   2.868
13904SOL    HW143153   4.011   2.288   2.851
13904SOL    HW243154   4.140   2.376   2.804
13905SOL     OW43155   4.862   2.242   3.540
13905SOL    HW143156   4.817   2.305   3.604
13905SOL    HW243157   4.955   2.273   3.523
13906SOL     OW43158   4.884   2.069   3.339
13906SOL    HW143159   4.884   2.133   3.416
13906SOL    HW243160   4.912   2.117   3.256
13907SOL     OW43161   3.732   3.188   2.062
13907SOL    HW143162   3.639   3.209   2.031
13907SOL    HW243163   3.742   3.089   2.075
13908SOL     OW43164   4.726   2.658   3.100
13908SOL    HW143165   4.767   2.626   3.186
13908SOL    HW243166   4.630   2.631   3.097
13909SOL     OW43167   3.764   2.406   2.976
13909SOL    HW143168   3.849   2.373   2.935
13909SOL    HW243169   3.777   2.421   3.074
13910SOL     OW43170   3.913   2.382   3.584
13910SOL    HW143171   3.972   2.342   3.514
13910SOL    HW243172   3.855   2.453   3.543
13911SOL     OW43173   5.093   2.812   3.522
13911SOL    HW143174   5.132   2.901   3.542
13911SOL    HW243175   5.103   2.792   3.425
13912SOL     OW43176   4.539   2.434   2.187
13912SOL    HW143177   4.546   2.345   2.141
13912SOL    HW243178   4.445   2.468   2.179
13913SOL     OW43179   5.381   2.466   3.068
13913SOL    HW143180   5.343   2.397   3.130
13913SOL    HW243181   5.463   2.430   3.024
13914SOL     OW43182   4.395   2.326   3.131
13914SOL    HW143183   4.361   2.237   3.101
13914SOL    HW243184   4.421   2.380   3.051
13915SOL     OW43185   4.197   2.362   2.053
13915SOL    HW143186   4.258   2.442   2.057
13915SOL    HW243187   4.102   2.393   2.060
13916SOL     OW43188   3.883   2.999   3.328
13916SOL    HW143189   3.905   2.938   3.404
13916SOL    HW243190   3.893   2.950   3.242
13917SOL     OW43191   5.071   2.921   3.096
13917SOL    HW143192   5.095   2.858   3.022
13917SOL    HW243193   4.981   2.961   3.078
13918SOL     OW43194   5.026   2.717   2.171
13918SOL    HW143195   4.940   2.686   2.213
13918SOL    HW243196   5.022   2.703   2.072
13919SOL     OW43197   5.483   3.609   3.016
13919SOL    HW143198   5.544   3.639   2.943
13919SOL    HW243199   5.445   3.520   2.994
13920SOL     OW43200   4.976   3.593   2.990
13920SOL    HW143201   5.060   3.598   2.936
13920SOL    HW243202   4.953   3.497   3.008
13921SOL     OW43203   5.450   1.997   2.385
13921SOL    HW143204   5.523   1.980   2.318
13921SOL    HW243205   5.419   1.910   2.423
13922SOL     OW43206   5.112   3.435   2.339
13922SOL    HW143207   5.179   3.447   2.265
13922SOL    HW243208   5.072   3.524   2.362
13923SOL     OW43209   5.004   2.789   2.534
13923SOL    HW143210   5.064   2.708   2.536
13923SOL    HW243211   5.044   2.858   2.474
13924SOL     OW43212   4.554   3.135   3.284
13924SOL    HW143213   4.549   3.168   3.379
13924SOL    HW243214   4.468   3.154   3.238
13925SOL     OW43215   4.396   3.478   2.016
13925SOL    HW143216   4.405   3.488   1.917
13925SOL    HW243217   4.356   3.389   2.037
13926SOL     OW43218   5.374   3.582   3.256
13926SOL    HW143219   5.427   3.592   3.172
13926SOL    HW243220   5.347   3.672   3.290
13927SOL     OW43221   5.565   2.037   2.825
13927SOL    HW143222   5.604   1.952   2.789
13927SOL    HW243223   5.467   2.039   2.806
13928SOL     OW43224   3.987   2.188   2.582
13928SOL    HW143225   3.908   2.239   2.548
13928SOL    HW243226   3.978   2.173   2.680
13929SOL     OW43227   4.918   3.474   1.893
13929SOL    HW143228   4.924   3.381   1.930
13929SOL    HW243229   4.859   3.474   1.813
13930SOL     OW43230   4.546   2.864   3.234
13930SOL    HW143231   4.586   2.863   3.142
13930SOL    HW243232   4.556   2.956   3.274
13931SOL     OW43233   4.640   2.772   2.153
13931SOL    HW143234   4.703   2.810   2.085
13931SOL    HW243235   4.680   2.689   2.192
13932SOL     OW43236   5.228   3.469   1.906
13932SOL    HW143237   5.136   3.506   1.913
13932SOL    HW243238   5.266   3.489   1.816
13933SOL     OW43239   4.096   3.150   3.352
13933SOL    HW143240   4.083   3.243   3.318
13933SOL    HW243241   4.012   3.098   3.339
13934SOL     OW43242   5.338   3.154   3.151
13934SOL    HW143243   5.398   3.157   3.231
13934SOL    HW243244   5.263   3.218   3.164
13935SOL     OW43245   4.763   2.960   2.558
13935SOL    HW143246   4.693   2.913   2.612
13935SOL    HW243247   4.822   2.892   2.515
13936SOL     OW43248   4.738   2.098   2.833
13936SOL    HW143249   4.730   2.062   2.740
13936SOL    HW243250   4.736   2.022   2.898
13937SOL     OW43251   4.314   3.349   2.353
13937SOL    HW143252   4.356   3.291   2.283
13937SOL    HW243253   4.270   3.428   2.309
13938SOL     OW43254   5.433   2.247   3.243
13938SOL    HW143255   5.506   2.316   3.247
13938SOL    HW243256   5.461   2.172   3.184
13939SOL     OW43257   3.979   3.210   2.152
13939SOL    HW143258   3.883   3.211   2.125
13939SOL    HW243259   3.991   3.263   2.236
13940SOL     OW43260   3.829   2.875   3.588
13940SOL    HW143261   3.752   2.842   3.642
13940SOL    HW243262   3.914   2.845   3.630
13941SOL     OW43263   4.396   2.065   3.351
13941SOL    HW143264   4.486   2.049   3.311
13941SOL    HW243265   4.404   2.070   3.450
13942SOL     OW43266   3.799   2.207   1.895
13942SOL    HW143267   3.707   2.179   1.866
13942SOL    HW243268   3.830   2.284   1.839
13943SOL     OW43269   5.164   2.718   3.260
13943SOL    HW143270   5.107   2.770   3.197
13943SOL    HW243271   5.260   2.730   3.236
13944SOL     OW43272   3.796   2.028   2.180
13944SOL    HW143273   3.779   2.111   2.126
13944SOL    HW243274   3.886   1.991   2.158
13945SOL     OW43275   4.907   3.197   1.981
13945SOL    HW143276   4.808   3.186   1.983
13945SOL    HW243277   4.941   3.212   2.074
13946SOL     OW43278   4.337   2.704   3.293
13946SOL    HW143279   4.393   2.785   3.276
13946SOL    HW243280   4.396   2.624   3.296
13947SOL     OW43281   5.217   3.629   2.821
13947SOL    HW143282   5.250   3.693   2.752
13947SOL    HW243283   5.283   3.623   2.896
13948SOL     OW43284   4.440   2.427   3.570
13948SOL    HW143285   4.459   2.492   3.644
13948SOL    HW243286   4.500   2.347   3.579
13949SOL     OW43287   5.174   3.082   3.495
13949SOL    HW143288   5.165   3.072   3.594
13949SOL    HW243289   5.270   3.075   3.469
13950SOL     OW43290   5.398   2.745   3.116
13950SOL    HW143291   5.371   2.656   3.079
13950SOL    HW243292   5.399   2.813   3.043
13951SOL     OW43293   4.949   2.187   2.311
13951SOL    HW143294   5.014   2.113   2.300
13951SOL    HW243295   4.969   2.237   2.395
13952SOL     OW43296   4.318   2.607   2.514
13952SOL    HW143297   4.368   2.692   2.495
13952SOL    HW243298   4.230   2.609   2.466
13953SOL     OW43299   5.501   2.204   3.504
13953SOL    HW143300   5.484   2.235   3.410
13953SOL    HW243301   5.417   2.167   3.542
13954SOL     OW43302   5.454   2.796   3.379
13954SOL    HW143303   5.492   2.887   3.394
13954SOL    HW243304   5.446   2.779   3.280
13955SOL     OW43305   4.583   3.236   1.878
13955SOL    HW143306   4.537   3.251   1.966
13955SOL    HW243307   4.627   3.321   1.848
13956SOL     OW43308   4.583   2.818   2.723
13956SOL    HW143309   4.637   2.749   2.771
13956SOL    HW243310   4.551   2.887   2.789
13957SOL     OW43311   4.807   2.846   1.949
13957SOL    HW143312   4.784   2.899   1.867
13957SOL    HW243313   4.888   2.790   1.930
13958SOL     OW43314   5.585   3.431   2.713
13958SOL    HW143315   5.514   3.419   2.643
13958SOL    HW243316   5.586   3.352   2.773
13959SOL     OW43317   4.396   3.253   3.486
13959SOL    HW143318   4.318   3.203   3.524
13959SOL    HW243319   4.393   3.348   3.517
13960SOL     OW43320   5.548   2.054   3.089
13960SOL    HW143321   5.544   1.964   3.133
13960SOL    HW243322   5.551   2.043   2.990
13961SOL     OW43323   4.152   2.286   2.382
13961SOL    HW143324   4.182   2.214   2.320
13961SOL    HW243325   4.113   2.246   2.465
13962SOL     OW43326   5.429   3.349   2.966
13962SOL    HW143327   5.336   3.324   2.939
13962SOL    HW243328   5.455   3.299   3.048
13963SOL     OW43329   4.041   2.409   3.142
13963SOL    HW143330   4.079   2.350   3.214
13963SOL    HW243331   4.081   2.383   3.054
13964SOL     OW43332   4.536   3.448   2.549
13964SOL    HW143333   4.568   3.458   2.455
13964SOL    HW243334   4.457   3.386   2.551
13965SOL     OW43335   5.148   2.076   2.974
13965SOL    HW143336   5.200   2.011   3.029
13965SOL    HW243337   5.099   2.139   3.035
13966SOL     OW43338   4.725   1.896   3.016
13966SOL    HW143339   4.662   1.824   2.985
13966SOL    HW243340   4.818   1.860   3.016
13967SOL     OW43341   4.494   3.192   2.163
13967SOL    HW143342   4.448   3.105   2.180
13967SOL    HW243343   4.585   3.189   2.204
13968SOL     OW43344   5.076   1.914   2.030
13968SOL    HW143345   5.111   1.873   1.946
13968SOL    HW243346   4.986   1.876   2.050
13969SOL     OW43347   5.024   2.315   2.553
13969SOL    HW143348   4.965   2.395   2.557
13969SOL    HW243349   5.039   2.280   2.646
13970SOL     OW43350   5.317   2.083   2.744
13970SOL    HW143351   5.233   2.082   2.798
13970SOL    HW243352   5.319   2.166   2.688
13971SOL     OW43353   3.763   2.939   2.162
13971SOL    HW143354   3.862   2.928   2.153
13971SOL    HW243355   3.723   2.853   2.194
13972SOL     OW43356   4.599   3.508   2.199
13972SOL    HW143357   4.522   3.473   2.145
13972SOL    HW243358   4.567   3.579   2.261
13973SOL     OW43359   3.954   2.490   3.837
13973SOL    HW143360   3.861   2.488   3.874
13973SOL    HW243361   3.955   2.451   3.745
13974SOL     OW43362   3.949   2.137   4.720
13974SOL    HW143363   3.984   2.120   4.812
13974SOL    HW243364   3.861   2.092   4.708
13975SOL     OW43365   3.743   2.230   4.371
13975SOL    HW143366   3.661   2.273   4.410
13975SOL    HW243367   3.715   2.157   4.308
13976SOL     OW43368   4.293   3.137   4.889
13976SOL    HW143369   4.200   3.130   4.852
13976SOL    HW243370   4.304   3.226   4.933
13977SOL     OW43371   5.279   3.373   4.427
13977SOL    HW143372   5.222   3.357   4.508
13977SOL    HW243373   5.220   3.383   4.347
13978SOL     OW43374   4.859   2.565   4.441
13978SOL    HW143375   4.916   2.643   4.416
13978SOL    HW243376   4.799   2.591   4.517
13979SOL     OW43377   5.479   2.469   3.955
13979SOL    HW143378   5.467   2.456   3.856
13979SOL    HW243379   5.449   2.388   4.004
13980SOL     OW43380   4.492   3.006   4.747
13980SOL    HW143381   4.414   3.023   4.807
13980SOL    HW243382   4.526   3.093   4.711
13981SOL     OW43383   4.574   2.660   5.547
13981SOL    HW143384   4.570   2.736   5.612
13981SOL    HW243385   4.596   2.696   5.456
13982SOL     OW43386   4.409   2.874   4.389
13982SOL    HW143387   4.478   2.858   4.459
13982SOL    HW243388   4.336   2.931   4.427
13983SOL     OW43389   4.059   3.297   4.785
13983SOL    HW143390   3.981   3.266   4.732
13983SOL    HW243391   4.117   3.355   4.728
13984SOL     OW43392   5.184   3.367   5.063
13984SOL    HW143393   5.208   3.461   5.089
13984SOL    HW243394   5.168   3.313   5.145
13985SOL     OW43395   4.162   2.254   5.223
13985SOL    HW143396   4.244   2.198   5.232
13985SOL    HW243397   4.081   2.196   5.227
13986SOL     OW43398   5.327   2.309   4.461
13986SOL    HW143399   5.253   2.355   4.411
13986SOL    HW243400   5.378   2.377   4.514
13987SOL     OW43401   4.851   3.203   5.414
13987SOL    HW143402   4.898   3.203   5.502
13987SOL    HW243403   4.803   3.116   5.403
13988SOL     OW43404   3.964   2.953   4.610
13988SOL    HW143405   3.978   2.869   4.662
13988SOL    HW243406   3.909   3.017   4.665
13989SOL     OW43407   4.344   3.648   5.163
13989SOL    HW143408   4.252   3.631   5.198
13989SOL    HW243409   4.372   3.740   5.189
13990SOL     OW43410   4.330   2.826   3.847
13990SOL    HW143411   4.337   2.910   3.793
13990SOL    HW243412   4.376   2.839   3.935
13991SOL     OW43413   5.318   1.976   5.204
13991SOL    HW143414   5.300   2.043   5.132
13991SOL    HW243415   5.315   2.022   5.293
13992SOL     OW43416   3.846   2.505   4.287
13992SOL    HW143417   3.801   2.417   4.304
13992SOL    HW243418   3.845   2.559   4.371
13993SOL     OW43419   5.566   3.629   4.083
13993SOL    HW143420   5.620   3.600   4.163
13993SOL    HW243421   5.596   3.719   4.054
13994SOL     OW43422   5.413   2.784   4.336
13994SOL    HW143423   5.508   2.755   4.344
13994SOL    HW243424   5.405   2.849   4.261
13995SOL     OW43425   5.365   2.970   4.156
13995SOL    HW143426   5.451   2.972   4.104
13995SOL    HW243427   5.379   3.017   4.244
13996SOL     OW43428   3.837   2.599   5.321
13996SOL    HW143429   3.925   2.586   5.366
13996SOL    HW243430   3.824   2.696   5.299
13997SOL     OW43431   5.017   3.090   5.147
13997SOL    HW143432   5.054   3.017   5.089
13997SOL    HW243433   5.069   3.095   5.232
13998SOL     OW43434   4.533   1.866   4.226
13998SOL    HW143435   4.573   1.957   4.217
13998SOL    HW243436   4.433   1.874   4.232
13999SOL     OW43437   3.921   2.838   4.988
13999SOL    HW143438   4.010   2.793   4.974
13999SOL    HW243439   3.848   2.773   4.969
14000SOL     OW43440   5.249   2.861   3.914
14000SOL    HW143441   5.186   2.785   3.927
14000SOL    HW243442   5.297   2.879   4.000
14001SOL     OW43443   4.911   3.654   5.340
14001SOL    HW143444   4.935   3.714   5.264
14001SOL    HW243445   4.918   3.559   5.310
14002SOL     OW43446   4.041   2.113   5.525
14002SOL    HW143447   4.112   2.184   5.531
14002SOL    HW243448   3.953   2.152   5.553
14003SOL     OW43449   5.190   3.279   4.677
14003SOL    HW143450   5.131   3.285   4.757
14003SOL    HW243451   5.175   3.191   4.631
14004SOL     OW43452   5.391   3.576   4.296
14004SOL    HW143453   5.350   3.553   4.208
14004SOL    HW243454   5.373   3.502   4.361
14005SOL     OW43455   4.322   2.591   3.994
14005SOL    HW143456   4.346   2.660   3.926
14005SOL    HW243457   4.244   2.624   4.048
14006SOL     OW43458   5.005   2.207   4.668
14006SOL    HW143459   4.919   2.157   4.655
14006SOL    HW243460   5.067   2.153   4.724
14007SOL     OW43461   5.300   3.524   4.031
14007SOL    HW143462   5.389   3.570   4.034
14007SOL    HW243463   5.279   3.500   3.936
14008SOL     OW43464   4.531   2.467   5.189
14008SOL    HW143465   4.484   2.464   5.278
14008SOL    HW243466   4.480   2.412   5.123
14009SOL     OW43467   5.118   2.331   5.398
14009SOL    HW143468   5.098   2.374   5.486
14009SOL    HW243469   5.196   2.269   5.407
14010SOL     OW43470   4.697   2.752   5.296
14010SOL    HW143471   4.743   2.668   5.267
14010SOL    HW243472   4.641   2.786   5.221
14011SOL     OW43473   4.715   2.272   4.966
14011SOL    HW143474   4.638   2.306   5.020
14011SOL    HW243475   4.681   2.221   4.887
14012SOL     OW43476   4.765   2.563   4.153
14012SOL    HW143477   4.791   2.559   4.249
14012SOL    HW243478   4.680   2.512   4.139
14013SOL     OW43479   3.800   2.673   4.513
14013SOL    HW143480   3.899   2.661   4.522
14013SOL    HW243481   3.776   2.768   4.534
14014SOL     OW43482   3.854   3.683   5.295
14014SOL    HW143483   3.844   3.668   5.394
14014SOL    HW243484   3.768   3.719   5.259
14015SOL     OW43485   4.589   2.210   3.919
14015SOL    HW143486   4.648   2.273   3.870
14015SOL    HW243487   4.608   2.116   3.890
14016SOL     OW43488   5.443   2.447   5.555
14016SOL    HW143489   5.417   2.536   5.519
14016SOL    HW243490   5.441   2.379   5.482
14017SOL     OW43491   5.086   3.006   4.269
14017SOL    HW143492   5.169   2.977   4.221
14017SOL    HW243493   5.037   3.073   4.213
14018SOL     OW43494   4.274   2.058   4.609
14018SOL    HW143495   4.269   2.053   4.709
14018SOL    HW243496   4.276   2.154   4.580
14019SOL     OW43497   4.075   3.663   4.577
14019SOL    HW143498   4.125   3.577   4.583
14019SOL    HW243499   4.140   3.740   4.574
14020SOL     OW43500   5.519   2.928   4.597
14020SOL    HW143501   5.457   2.913   4.521
14020SOL    HW243502   5.467   2.939   4.682
14021SOL     OW43503   4.951   3.412   5.230
14021SOL    HW143504   4.957   3.335   5.294
14021SOL    HW243505   4.899   3.386   5.150
14022SOL     OW43506   4.045   2.805   3.966
14022SOL    HW143507   4.127   2.844   3.924
14022SOL    HW243508   4.018   2.723   3.917
14023SOL     OW43509   5.182   2.597   4.452
14023SOL    HW143510   5.177   2.532   4.527
14023SOL    HW243511   5.262   2.656   4.465
14024SOL     OW43512   4.185   3.128   5.451
14024SOL    HW143513   4.135   3.129   5.365
14024SOL    HW243514   4.122   3.110   5.527
14025SOL     OW43515   4.835   3.638   3.961
14025SOL    HW143516   4.775   3.576   4.011
14025SOL    HW243517   4.866   3.594   3.876
14026SOL     OW43518   3.926   2.147   5.222
14026SOL    HW143519   3.846   2.207   5.209
14026SOL    HW243520   3.916   2.098   5.308
14027SOL     OW43521   5.356   3.239   3.805
14027SOL    HW143522   5.324   3.333   3.795
14027SOL    HW243523   5.280   3.176   3.793
14028SOL     OW43524   5.124   1.969   4.150
14028SOL    HW143525   5.100   1.932   4.060
14028SOL    HW243526   5.223   1.985   4.154
14029SOL     OW43527   3.973   3.647   4.965
14029SOL    HW143528   4.030   3.582   5.015
14029SOL    HW243529   3.957   3.614   4.872
14030SOL     OW43530   4.106   2.562   4.204
14030SOL    HW143531   4.151   2.472   4.201
14030SOL    HW243532   4.012   2.551   4.237
14031SOL     OW43533   5.271   2.084   5.453
14031SOL    HW143534   5.266   2.121   5.545
14031SOL    HW243535   5.199   2.015   5.441
14032SOL     OW43536   4.338   1.984   3.841
14032SOL    HW143537   4.436   1.962   3.848
14032SOL    HW243538   4.307   1.967   3.748
14033SOL     OW43539   4.505   2.126   5.473
14033SOL    HW143540   4.572   2.065   5.516
14033SOL    HW243541   4.432   2.145   5.538
14034SOL     OW43542   4.612   3.376   4.919
14034SOL    HW143543   4.589   3.351   4.825
14034SOL    HW243544   4.673   3.307   4.958
14035SOL     OW43545   5.075   2.452   5.157
14035SOL    HW143546   5.103   2.409   5.242
14035SOL    HW243547   5.100   2.548   5.158
14036SOL     OW43548   4.527   3.264   4.648
14036SOL    HW143549   4.617   3.278   4.606
14036SOL    HW243550   4.456   3.266   4.577
14037SOL     OW43551   4.646   2.365   4.623
14037SOL    HW143552   4.621   2.356   4.527
14037SOL    HW243553   4.694   2.283   4.654
14038SOL     OW43554   4.263   1.926   4.236
14038SOL    HW143555   4.182   1.927   4.294
14038SOL    HW243556   4.266   2.009   4.181
14039SOL     OW43557   5.158   3.050   3.765
14039SOL    HW143558   5.190   2.974   3.822
14039SOL    HW243559   5.066   3.077   3.795
14040SOL     OW43560   4.021   1.897   3.895
14040SOL    HW143561   4.070   1.981   3.874
14040SOL    HW243562   4.083   1.832   3.940
14041SOL     OW43563   4.659   2.098   4.204
14041SOL    HW143564   4.611   2.139   4.126
14041SOL    HW243565   4.758   2.096   4.185
14042SOL     OW43566   4.800   2.545   5.188
14042SOL    HW143567   4.720   2.484   5.191
14042SOL    HW243568   4.881   2.492   5.164
14043SOL     OW43569   4.951   3.432   4.517
14043SOL    HW143570   4.972   3.506   4.452
14043SOL    HW243571   5.019   3.432   4.590
14044SOL     OW43572   4.995   3.659   4.315
14044SOL    HW143573   5.039   3.723   4.251
14044SOL    HW243574   4.945   3.711   4.385
14045SOL     OW43575   4.756   2.411   3.740
14045SOL    HW143576   4.715   2.493   3.701
14045SOL    HW243577   4.820   2.437   3.813
14046SOL     OW43578   3.802   2.418   5.110
14046SOL    HW143579   3.894   2.417   5.069
14046SOL    HW243580   3.796   2.492   5.177
14047SOL     OW43581   4.285   2.084   4.871
14047SOL    HW143582   4.323   2.000   4.908
14047SOL    HW243583   4.197   2.103   4.915
14048SOL     OW43584   4.590   2.316   4.366
14048SOL    HW143585   4.558   2.388   4.304
14048SOL    HW243586   4.614   2.235   4.313
14049SOL     OW43587   4.741   1.901   4.477
14049SOL    HW143588   4.669   1.906   4.408
14049SOL    HW243589   4.717   1.832   4.546
14050SOL     OW43590   5.153   3.035   4.591
14050SOL    HW143591   5.098   2.951   4.584
14050SOL    HW243592   5.179   3.064   4.499
14051SOL     OW43593   5.190   2.452   4.716
14051SOL    HW143594   5.160   2.357   4.723
14051SOL    HW243595   5.263   2.468   4.782
14052SOL     OW43596   5.581   2.695   4.101
14052SOL    HW143597   5.623   2.631   4.165
14052SOL    HW243598   5.543   2.644   4.023
14053SOL     OW43599   5.388   3.142   4.381
14053SOL    HW143600   5.487   3.150   4.395
14053SOL    HW243601   5.343   3.226   4.412
14054SOL     OW43602   5.114   2.437   3.802
14054SOL    HW143603   5.060   2.416   3.883
14054SOL    HW243604   5.205   2.396   3.811
14055SOL     OW43605   4.251   2.118   4.052
14055SOL    HW143606   4.278   2.059   3.977
14055SOL    HW243607   4.251   2.213   4.021
14056SOL     OW43608   5.478   3.085   5.312
14056SOL    HW143609   5.569   3.046   5.299
14056SOL    HW243610   5.486   3.181   5.336
14057SOL     OW43611   4.788   3.209   5.064
14057SOL    HW143612   4.708   3.186   5.119
14057SOL    HW243613   4.871   3.183   5.113
14058SOL     OW43614   5.316   3.491   5.349
14058SOL    HW143615   5.343   3.525   5.259
14058SOL    HW243616   5.395   3.453   5.395
14059SOL     OW43617   4.835   3.057   4.824
14059SOL    HW143618   4.795   3.101   4.905
14059SOL    HW243619   4.794   3.094   4.741
14060SOL     OW43620   5.362   2.961   4.803
14060SOL    HW143621   5.367   3.042   4.862
14060SOL    HW243622   5.276   2.963   4.752
14061SOL     OW43623   4.639   1.951   5.126
14061SOL    HW143624   4.664   1.931   5.031
14061SOL    HW243625   4.711   2.007   5.168
14062SOL     OW43626   4.704   2.978   5.443
14062SOL    HW143627   4.605   2.984   5.453
14062SOL    HW243628   4.727   2.898   5.387
14063SOL     OW43629   4.429   2.912   4.092
14063SOL    HW143630   4.415   2.919   4.191
14063SOL    HW243631   4.513   2.861   4.074
14064SOL     OW43632   4.134   2.675   4.975
14064SOL    HW143633   4.220   2.687   5.025
14064SOL    HW243634   4.092   2.588   5.002
14065SOL     OW43635   4.998   2.248   4.986
14065SOL    HW143636   5.019   2.322   5.050
14065SOL    HW243637   4.909   2.265   4.943
14066SOL     OW43638   3.788   3.426   5.055
14066SOL    HW143639   3.742   3.508   5.021
14066SOL    HW243640   3.886   3.445   5.064
14067SOL     OW43641   4.290   2.399   4.589
14067SOL    HW143642   4.302   2.465   4.515
14067SOL    HW243643   4.336   2.433   4.672
14068SOL     OW43644   4.976   3.210   4.112
14068SOL    HW143645   5.026   3.287   4.152
14068SOL    HW243646   4.881   3.212   4.144
14069SOL     OW43647   4.996   3.307   4.866
14069SOL    HW143648   5.043   3.320   4.953
14069SOL    HW243649   4.930   3.233   4.875
14070SOL     OW43650   5.306   2.501   4.196
14070SOL    HW143651   5.275   2.562   4.269
14070SOL    HW243652   5.356   2.553   4.127
14071SOL     OW43653   4.078   3.372   5.053
14071SOL    HW143654   4.057   3.328   4.966
14071SOL    HW243655   4.175   3.398   5.056
14072SOL     OW43656   4.126   2.613   5.322
14072SOL    HW143657   4.194   2.668   5.275
14072SOL    HW243658   4.166   2.525   5.349
14073SOL     OW43659   5.311   2.641   5.394
14073SOL    HW143660   5.219   2.679   5.389
14073SOL    HW243661   5.371   2.688   5.329
14074SOL     OW43662   4.737   1.967   5.494
14074SOL    HW143663   4.743   2.052   5.442
14074SOL    HW243664   4.769   1.891   5.437
14075SOL     OW43665   4.228   1.912   5.464
14075SOL    HW143666   4.186   1.855   5.394
14075SOL    HW243667   4.162   1.981   5.496
14076SOL     OW43668   4.297   2.732   4.753
14076SOL    HW143669   4.341   2.821   4.744
14076SOL    HW243670   4.234   2.732   4.830
14077SOL     OW43671   5.084   2.724   4.769
14077SOL    HW143672   5.009   2.724   4.703
14077SOL    HW243673   5.121   2.632   4.778
14078SOL     OW43674   4.933   2.387   3.999
14078SOL    HW143675   4.946   2.303   4.053
14078SOL    HW243676   4.904   2.461   4.059
14079SOL     OW43677   4.031   2.075   4.955
14079SOL    HW143678   4.008   2.112   5.045
14079SOL    HW243679   4.001   1.980   4.949
14080SOL     OW43680   3.761   3.172   5.006
14080SOL    HW143681   3.814   3.123   5.074
14080SOL    HW243682   3.783   3.270   5.011
14081SOL     OW43683   4.456   2.496   4.788
14081SOL    HW143684   4.515   2.470   4.712
14081SOL    HW243685   4.428   2.592   4.777
14082SOL     OW43686   5.452   2.797   5.578
14082SOL    HW143687   5.406   2.790   5.489
14082SOL    HW243688   5.390   2.841   5.644
14083SOL     OW43689   4.031   1.925   4.342
14083SOL    HW143690   4.020   2.019   4.375
14083SOL    HW243691   4.026   1.862   4.419
14084SOL     OW43692   5.346   2.229   4.098
14084SOL    HW143693   5.348   2.153   4.162
14084SOL    HW243694   5.298   2.306   4.138
14085SOL     OW43695   4.747   2.628   4.690
14085SOL    HW143696   4.762   2.649   4.786
14085SOL    HW243697   4.717   2.533   4.681
14086SOL     OW43698   4.704   3.435   5.424
14086SOL    HW143699   4.684   3.479   5.336
14086SOL    HW243700   4.743   3.344   5.408
14087SOL     OW43701   5.583   3.380   5.329
14087SOL    HW143702   5.597   3.407   5.234
14087SOL    HW243703   5.666   3.402   5.382
14088SOL     OW43704   4.074   2.760   5.528
14088SOL    HW143705   4.150   2.804   5.576
14088SOL    HW243706   4.109   2.713   5.446
14089SOL     OW43707   5.264   2.136   3.849
14089SOL    HW143708   5.203   2.061   3.872
14089SOL    HW243709   5.286   2.188   3.932
14090SOL     OW43710   5.027   2.700   3.766
14090SOL    HW143711   5.061   2.607   3.781
14090SOL    HW243712   5.045   2.727   3.671
14091SOL     OW43713   4.792   3.195   4.573
14091SOL    HW143714   4.799   3.111   4.518
14091SOL    HW243715   4.854   3.264   4.537
14092SOL     OW43716   4.043   2.672   4.673
14092SOL    HW143717   4.136   2.708   4.678
14092SOL    HW243718   4.037   2.587   4.725
14093SOL     OW43719   4.063   2.371   4.730
14093SOL    HW143720   4.011   2.288   4.713
14093SOL    HW243721   4.140   2.376   4.666
14094SOL     OW43722   4.862   2.242   5.402
14094SOL    HW143723   4.817   2.305   5.466
14094SOL    HW243724   4.955   2.273   5.385
14095SOL     OW43725   4.884   2.069   5.201
14095SOL    HW143726   4.884   2.133   5.278
14095SOL    HW243727   4.912   2.117   5.118
14096SOL     OW43728   3.812   3.663   4.651
14096SOL    HW143729   3.770   3.577   4.624
14096SOL    HW243730   3.906   3.666   4.617
14097SOL     OW43731   4.228   3.430   4.634
14097SOL    HW143732   4.294   3.504   4.643
14097SOL    HW243733   4.272   3.351   4.592
14098SOL     OW43734   4.726   2.658   4.962
14098SOL    HW143735   4.767   2.626   5.048
14098SOL    HW243736   4.630   2.631   4.959
14099SOL     OW43737   3.764   2.406   4.838
14099SOL    HW143738   3.849   2.373   4.797
14099SOL    HW243739   3.777   2.421   4.936
14100SOL     OW43740   3.913   2.382   5.446
14100SOL    HW143741   3.972   2.342   5.376
14100SOL    HW243742   3.855   2.453   5.405
14101SOL     OW43743   5.093   2.812   5.384
14101SOL    HW143744   5.132   2.901   5.404
14101SOL    HW243745   5.103   2.792   5.287
14102SOL     OW43746   4.539   2.434   4.049
14102SOL    HW143747   4.546   2.345   4.003
14102SOL    HW243748   4.445   2.468   4.041
14103SOL     OW43749   5.381   2.466   4.930
14103SOL    HW143750   5.343   2.397   4.992
14103SOL    HW243751   5.463   2.430   4.886
14104SOL     OW43752   4.395   2.326   4.993
14104SOL    HW143753   4.361   2.237   4.963
14104SOL    HW243754   4.421   2.380   4.913
14105SOL     OW43755   4.654   3.540   5.189
14105SOL    HW143756   4.630   3.522   5.094
14105SOL    HW243757   4.684   3.634   5.199
14106SOL     OW43758   4.197   2.362   3.915
14106SOL    HW143759   4.258   2.442   3.919
14106SOL    HW243760   4.102   2.393   3.922
14107SOL     OW43761   5.071   2.921   4.958
14107SOL    HW143762   5.095   2.858   4.884
14107SOL    HW243763   4.981   2.961   4.940
14108SOL     OW43764   5.026   2.717   4.033
14108SOL    HW143765   4.940   2.686   4.075
14108SOL    HW243766   5.022   2.703   3.934
14109SOL     OW43767   5.483   3.609   4.878
14109SOL    HW143768   5.544   3.639   4.805
14109SOL    HW243769   5.445   3.520   4.856
14110SOL     OW43770   4.976   3.593   4.852
14110SOL    HW143771   5.060   3.598   4.798
14110SOL    HW243772   4.953   3.497   4.870
14111SOL     OW43773   3.807   3.120   4.746
14111SOL    HW143774   3.802   3.119   4.846
14111SOL    HW243775   3.724   3.079   4.708
14112SOL     OW43776   4.412   3.524   5.440
14112SOL    HW143777   4.356   3.605   5.449
14112SOL    HW243778   4.464   3.528   5.354
14113SOL     OW43779   5.450   1.997   4.247
14113SOL    HW143780   5.523   1.980   4.180
14113SOL    HW243781   5.419   1.910   4.285
14114SOL     OW43782   5.112   3.435   4.201
14114SOL    HW143783   5.179   3.447   4.127
14114SOL    HW243784   5.072   3.524   4.224
14115SOL     OW43785   5.004   2.789   4.396
14115SOL    HW143786   5.064   2.708   4.398
14115SOL    HW243787   5.044   2.858   4.336
14116SOL     OW43788   4.554   3.135   5.146
14116SOL    HW143789   4.549   3.168   5.241
14116SOL    HW243790   4.468   3.154   5.100
14117SOL     OW43791   5.374   3.582   5.118
14117SOL    HW143792   5.427   3.592   5.034
14117SOL    HW243793   5.347   3.672   5.152
14118SOL     OW43794   5.565   2.037   4.687
14118SOL    HW143795   5.604   1.952   4.651
14118SOL    HW243796   5.467   2.039   4.668
14119SOL     OW43797   3.987   2.188   4.444
14119SOL    HW143798   3.908   2.239   4.410
14119SOL    HW243799   3.978   2.173   4.542
14120SOL     OW43800   4.918   3.474   3.755
14120SOL    HW143801   4.924   3.381   3.792
14120SOL    HW243802   4.859   3.474   3.675
14121SOL     OW43803   4.546   2.864   5.096
14121SOL    HW143804   4.586   2.863   5.004
14121SOL    HW243805   4.556   2.956   5.136
14122SOL     OW43806   4.640   2.772   4.015
14122SOL    HW143807   4.703   2.810   3.947
14122SOL    HW243808   4.680   2.689   4.054
14123SOL     OW43809   5.228   3.469   3.768
14123SOL    HW143810   5.136   3.506   3.775
14123SOL    HW243811   5.266   3.489   3.678
14124SOL     OW43812   4.096   3.150   5.214
14124SOL    HW143813   4.083   3.243   5.180
14124SOL    HW243814   4.012   3.098   5.201
14125SOL     OW43815   5.338   3.154   5.013
14125SOL    HW143816   5.398   3.157   5.093
14125SOL    HW243817   5.263   3.218   5.026
14126SOL     OW43818   4.763   2.960   4.420
14126SOL    HW143819   4.693   2.913   4.474
14126SOL    HW243820   4.822   2.892   4.377
14127SOL     OW43821   4.738   2.098   4.695
14127SOL    HW143822   4.730   2.062   4.602
14127SOL    HW243823   4.736   2.022   4.760
14128SOL     OW43824   5.433   2.247   5.105
14128SOL    HW143825   5.506   2.316   5.109
14128SOL    HW243826   5.461   2.172   5.046
14129SOL     OW43827   3.829   2.875   5.450
14129SOL    HW143828   3.752   2.842   5.504
14129SOL    HW243829   3.914   2.845   5.492
14130SOL     OW43830   4.396   2.065   5.213
14130SOL    HW143831   4.486   2.049   5.173
14130SOL    HW243832   4.404   2.070   5.312
14131SOL     OW43833   3.799   2.207   3.757
14131SOL    HW143834   3.707   2.179   3.728
14131SOL    HW243835   3.830   2.284   3.701
14132SOL     OW43836   5.164   2.718   5.122
14132SOL    HW143837   5.107   2.770   5.059
14132SOL    HW243838   5.260   2.730   5.098
14133SOL     OW43839   3.796   2.028   4.042
14133SOL    HW143840   3.779   2.111   3.988
14133SOL    HW243841   3.886   1.991   4.020
14134SOL     OW43842   4.907   3.197   3.843
14134SOL    HW143843   4.808   3.186   3.845
14134SOL    HW243844   4.941   3.212   3.936
14135SOL     OW43845   4.337   2.704   5.155
14135SOL    HW143846   4.393   2.785   5.138
14135SOL    HW243847   4.396   2.624   5.158
14136SOL     OW43848   5.217   3.629   4.683
14136SOL    HW143849   5.250   3.693   4.614
14136SOL    HW243850   5.283   3.623   4.758
14137SOL     OW43851   4.440   2.427   5.432
14137SOL    HW143852   4.459   2.492   5.506
14137SOL    HW243853   4.500   2.347   5.441
14138SOL     OW43854   5.174   3.082   5.357
14138SOL    HW143855   5.165   3.072   5.456
14138SOL    HW243856   5.270   3.075   5.331
14139SOL     OW43857   4.114   3.603   5.284
14139SOL    HW143858   4.023   3.644   5.282
14139SOL    HW243859   4.107   3.509   5.316
14140SOL     OW43860   5.398   2.745   4.978
14140SOL    HW143861   5.371   2.656   4.941
14140SOL    HW243862   5.399   2.813   4.905
14141SOL     OW43863   4.949   2.187   4.173
14141SOL    HW143864   5.014   2.113   4.162
14141SOL    HW243865   4.969   2.237   4.257
14142SOL     OW43866   4.318   2.607   4.376
14142SOL    HW143867   4.368   2.692   4.357
14142SOL    HW243868   4.230   2.609   4.328
14143SOL     OW43869   5.501   2.204   5.366
14143SOL    HW143870   5.484   2.235   5.272
14143SOL    HW243871   5.417   2.167   5.404
14144SOL     OW43872   5.454   2.796   5.241
14144SOL    HW143873   5.492   2.887   5.256
14144SOL    HW243874   5.446   2.779   5.142
14145SOL     OW43875   4.583   3.236   3.740
14145SOL    HW143876   4.537   3.251   3.828
14145SOL    HW243877   4.627   3.321   3.710
14146SOL     OW43878   4.385   3.652   4.677
14146SOL    HW143879   4.339   3.740   4.664
14146SOL    HW243880   4.484   3.664   4.670
14147SOL     OW43881   4.583   2.818   4.585
14147SOL    HW143882   4.637   2.749   4.633
14147SOL    HW243883   4.551   2.887   4.651
14148SOL     OW43884   4.807   2.846   3.811
14148SOL    HW143885   4.784   2.899   3.729
14148SOL    HW243886   4.888   2.790   3.792
14149SOL     OW43887   5.585   3.431   4.575
14149SOL    HW143888   5.514   3.419   4.505
14149SOL    HW243889   5.586   3.352   4.635
14150SOL     OW43890   3.803   3.102   4.377
14150SOL    HW143891   3.802   3.055   4.465
14150SOL    HW243892   3.885   3.074   4.326
14151SOL     OW43893   4.396   3.253   5.348
14151SOL    HW143894   4.318   3.203   5.386
14151SOL    HW243895   4.393   3.348   5.379
14152SOL     OW43896   5.548   2.054   4.951
14152SOL    HW143897   5.544   1.964   4.995
14152SOL    HW243898   5.551   2.043   4.852
14153SOL     OW43899   4.152   2.286   4.244
14153SOL    HW143900   4.182   2.214   4.182
14153SOL    HW243901   4.113   2.246   4.327
14154SOL     OW43902   5.429   3.349   4.828
14154SOL    HW143903   5.336   3.324   4.801
14154SOL    HW243904   5.455   3.299   4.910
14155SOL     OW43905   4.041   2.409   5.004
14155SOL    HW143906   4.079   2.350   5.076
14155SOL    HW243907   4.081   2.383   4.916
14156SOL     OW43908   5.148   2.076   4.836
14156SOL    HW143909   5.200   2.011   4.891
14156SOL    HW243910   5.099   2.139   4.897
14157SOL     OW43911   4.725   1.896   4.878
14157SOL    HW143912   4.662   1.824   4.847
14157SOL    HW243913   4.818   1.860   4.878
14158SOL     OW43914   4.494   3.192   4.025
14158SOL    HW143915   4.448   3.105   4.042
14158SOL    HW243916   4.585   3.189   4.066
14159SOL     OW43917   4.342   3.429   5.008
14159SOL    HW143918   4.337   3.511   5.065
14159SOL    HW243919   4.431   3.426   4.963
14160SOL     OW43920   5.076   1.914   3.892
14160SOL    HW143921   5.111   1.873   3.808
14160SOL    HW243922   4.986   1.876   3.912
14161SOL     OW43923   5.024   2.315   4.415
14161SOL    HW143924   4.965   2.395   4.419
14161SOL    HW243925   5.039   2.280   4.508
14162SOL     OW43926   5.317   2.083   4.606
14162SOL    HW143927   5.233   2.082   4.660
14162SOL    HW243928   5.319   2.166   4.550
14163SOL     OW43929   3.954   2.490   5.699
14163SOL    HW143930   3.861   2.488   5.736
14163SOL    HW243931   3.955   2.451   5.607
14164SOL     OW43932   3.949   2.137   6.582
14164SOL    HW143933   3.984   2.120   6.674
14164SOL    HW243934   3.861   2.092   6.570
14165SOL     OW43935   3.743   2.230   6.233
14165SOL    HW143936   3.661   2.273   6.272
14165SOL    HW243937   3.715   2.157   6.170
14166SOL     OW43938   5.279   3.373   6.289
14166SOL    HW143939   5.222   3.357   6.370
14166SOL    HW243940   5.220   3.383   6.209
14167SOL     OW43941   4.859   2.565   6.303
14167SOL    HW143942   4.916   2.643   6.278
14167SOL    HW243943   4.799   2.591   6.379
14168SOL     OW43944   5.479   2.469   5.817
14168SOL    HW143945   5.467   2.456   5.718
14168SOL    HW243946   5.449   2.388   5.866
14169SOL     OW43947   4.492   3.006   6.609
14169SOL    HW143948   4.414   3.023   6.669
14169SOL    HW243949   4.526   3.093   6.573
14170SOL     OW43950   4.574   2.660   7.409
14170SOL    HW143951   4.570   2.736   7.474
14170SOL    HW243952   4.596   2.696   7.318
14171SOL     OW43953   4.409   2.874   6.251
14171SOL    HW143954   4.478   2.858   6.321
14171SOL    HW243955   4.336   2.931   6.289
14172SOL     OW43956   5.184   3.367   6.925
14172SOL    HW143957   5.208   3.461   6.951
14172SOL    HW243958   5.168   3.313   7.007
14173SOL     OW43959   4.162   2.254   7.085
14173SOL    HW143960   4.244   2.198   7.094
14173SOL    HW243961   4.081   2.196   7.089
14174SOL     OW43962   5.327   2.309   6.323
14174SOL    HW143963   5.253   2.355   6.273
14174SOL    HW243964   5.378   2.377   6.376
14175SOL     OW43965   3.954   3.296   6.124
14175SOL    HW143966   3.928   3.392   6.124
14175SOL    HW243967   3.883   3.242   6.169
14176SOL     OW43968   3.964   2.953   6.472
14176SOL    HW143969   3.978   2.869   6.524
14176SOL    HW243970   3.909   3.017   6.527
14177SOL     OW43971   4.330   2.826   5.709
14177SOL    HW143972   4.337   2.910   5.655
14177SOL    HW243973   4.376   2.839   5.797
14178SOL     OW43974   5.318   1.976   7.066
14178SOL    HW143975   5.300   2.043   6.994
14178SOL    HW243976   5.315   2.022   7.155
14179SOL     OW43977   3.846   2.505   6.149
14179SOL    HW143978   3.801   2.417   6.166
14179SOL    HW243979   3.845   2.559   6.233
14180SOL     OW43980   5.566   3.629   5.945
14180SOL    HW143981   5.620   3.600   6.025
14180SOL    HW243982   5.596   3.719   5.916
14181SOL     OW43983   5.413   2.784   6.198
14181SOL    HW143984   5.508   2.755   6.206
14181SOL    HW243985   5.405   2.849   6.123
14182SOL     OW43986   5.365   2.970   6.018
14182SOL    HW143987   5.451   2.972   5.966
14182SOL    HW243988   5.379   3.017   6.106
14183SOL     OW43989   3.837   2.599   7.183
14183SOL    HW143990   3.925   2.586   7.228
14183SOL    HW243991   3.824   2.696   7.161
14184SOL     OW43992   5.017   3.090   7.009
14184SOL    HW143993   5.054   3.017   6.951
14184SOL    HW243994   5.069   3.095   7.094
14185SOL     OW43995   4.533   1.866   6.088
14185SOL    HW143996   4.573   1.957   6.079
14185SOL    HW243997   4.433   1.874   6.094
14186SOL     OW43998   3.921   2.838   6.850
14186SOL    HW143999   4.010   2.793   6.836
14186SOL    HW244000   3.848   2.773   6.831
14187SOL     OW44001   5.249   2.861   5.776
14187SOL    HW144002   5.186   2.785   5.789
14187SOL    HW244003   5.297   2.879   5.862
14188SOL     OW44004   4.041   2.113   7.387
14188SOL    HW144005   4.112   2.184   7.393
14188SOL    HW244006   3.953   2.152   7.415
14189SOL     OW44007   5.190   3.279   6.539
14189SOL    HW144008   5.131   3.285   6.619
14189SOL    HW244009   5.175   3.191   6.493
14190SOL     OW44010   5.391   3.576   6.158
14190SOL    HW144011   5.350   3.553   6.070
14190SOL    HW244012   5.373   3.502   6.223
14191SOL     OW44013   4.322   2.591   5.856
14191SOL    HW144014   4.346   2.660   5.788
14191SOL    HW244015   4.244   2.624   5.910
14192SOL     OW44016   5.005   2.207   6.530
14192SOL    HW144017   4.919   2.157   6.517
14192SOL    HW244018   5.067   2.153   6.586
14193SOL     OW44019   5.300   3.524   5.893
14193SOL    HW144020   5.389   3.570   5.896
14193SOL    HW244021   5.279   3.500   5.798
14194SOL     OW44022   4.531   2.467   7.051
14194SOL    HW144023   4.484   2.464   7.140
14194SOL    HW244024   4.480   2.412   6.985
14195SOL     OW44025   5.118   2.331   7.260
14195SOL    HW144026   5.098   2.374   7.348
14195SOL    HW244027   5.196   2.269   7.269
14196SOL     OW44028   4.697   2.752   7.158
14196SOL    HW144029   4.743   2.668   7.129
14196SOL    HW244030   4.641   2.786   7.083
14197SOL     OW44031   4.715   2.272   6.828
14197SOL    HW144032   4.638   2.306   6.882
14197SOL    HW244033   4.681   2.221   6.749
14198SOL     OW44034   4.765   2.563   6.015
14198SOL    HW144035   4.791   2.559   6.111
14198SOL    HW244036   4.680   2.512   6.001
14199SOL     OW44037   3.800   2.673   6.375
14199SOL    HW144038   3.899   2.661   6.384
14199SOL    HW244039   3.776   2.768   6.396
14200SOL     OW44040   3.854   3.683   7.157
14200SOL    HW144041   3.844   3.668   7.256
14200SOL    HW244042   3.768   3.719   7.121
14201SOL     OW44043   4.589   2.210   5.781
14201SOL    HW144044   4.648   2.273   5.732
14201SOL    HW244045   4.608   2.116   5.752
14202SOL     OW44046   5.443   2.447   7.417
14202SOL    HW144047   5.417   2.536   7.381
14202SOL    HW244048   5.441   2.379   7.344
14203SOL     OW44049   5.086   3.006   6.131
14203SOL    HW144050   5.169   2.977   6.083
14203SOL    HW244051   5.037   3.073   6.075
14204SOL     OW44052   4.274   2.058   6.471
14204SOL    HW144053   4.269   2.053   6.571
14204SOL    HW244054   4.276   2.154   6.442
14205SOL     OW44055   5.519   2.928   6.459
14205SOL    HW144056   5.457   2.913   6.383
14205SOL    HW244057   5.467   2.939   6.544
14206SOL     OW44058   4.951   3.412   7.092
14206SOL    HW144059   4.957   3.335   7.156
14206SOL    HW244060   4.899   3.386   7.012
14207SOL     OW44061   4.045   2.805   5.828
14207SOL    HW144062   4.127   2.844   5.786
14207SOL    HW244063   4.018   2.723   5.779
14208SOL     OW44064   5.182   2.597   6.314
14208SOL    HW144065   5.177   2.532   6.389
14208SOL    HW244066   5.262   2.656   6.327
14209SOL     OW44067   3.926   2.147   7.084
14209SOL    HW144068   3.846   2.207   7.071
14209SOL    HW244069   3.916   2.098   7.170
14210SOL     OW44070   5.356   3.239   5.667
14210SOL    HW144071   5.324   3.333   5.657
14210SOL    HW244072   5.280   3.176   5.655
14211SOL     OW44073   5.124   1.969   6.012
14211SOL    HW144074   5.100   1.932   5.922
14211SOL    HW244075   5.223   1.985   6.016
14212SOL     OW44076   4.106   2.562   6.066
14212SOL    HW144077   4.151   2.472   6.063
14212SOL    HW244078   4.012   2.551   6.099
14213SOL     OW44079   5.271   2.084   7.315
14213SOL    HW144080   5.266   2.121   7.407
14213SOL    HW244081   5.199   2.015   7.303
14214SOL     OW44082   4.338   1.984   5.703
14214SOL    HW144083   4.436   1.962   5.710
14214SOL    HW244084   4.307   1.967   5.610
14215SOL     OW44085   4.505   2.126   7.335
14215SOL    HW144086   4.572   2.065   7.378
14215SOL    HW244087   4.432   2.145   7.400
14216SOL     OW44088   4.612   3.376   6.781
14216SOL    HW144089   4.589   3.351   6.687
14216SOL    HW244090   4.673   3.307   6.820
14217SOL     OW44091   5.075   2.452   7.019
14217SOL    HW144092   5.103   2.409   7.104
14217SOL    HW244093   5.100   2.548   7.020
14218SOL     OW44094   4.527   3.264   6.510
14218SOL    HW144095   4.617   3.278   6.468
14218SOL    HW244096   4.456   3.266   6.439
14219SOL     OW44097   4.646   2.365   6.485
14219SOL    HW144098   4.621   2.356   6.389
14219SOL    HW244099   4.694   2.283   6.516
14220SOL     OW44100   4.263   1.926   6.098
14220SOL    HW144101   4.182   1.927   6.156
14220SOL    HW244102   4.266   2.009   6.043
14221SOL     OW44103   5.158   3.050   5.627
14221SOL    HW144104   5.190   2.974   5.684
14221SOL    HW244105   5.066   3.077   5.657
14222SOL     OW44106   4.021   1.897   5.757
14222SOL    HW144107   4.070   1.981   5.736
14222SOL    HW244108   4.083   1.832   5.802
14223SOL     OW44109   4.659   2.098   6.066
14223SOL    HW144110   4.611   2.139   5.988
14223SOL    HW244111   4.758   2.096   6.047
14224SOL     OW44112   4.800   2.545   7.050
14224SOL    HW144113   4.720   2.484   7.053
14224SOL    HW244114   4.881   2.492   7.026
14225SOL     OW44115   4.951   3.432   6.379
14225SOL    HW144116   4.972   3.506   6.314
14225SOL    HW244117   5.019   3.432   6.452
14226SOL     OW44118   4.183   3.014   6.327
14226SOL    HW144119   4.112   2.987   6.392
14226SOL    HW244120   4.157   2.986   6.234
14227SOL     OW44121   4.756   2.411   5.602
14227SOL    HW144122   4.715   2.493   5.563
14227SOL    HW244123   4.820   2.437   5.675
14228SOL     OW44124   3.802   2.418   6.972
14228SOL    HW144125   3.894   2.417   6.931
14228SOL    HW244126   3.796   2.492   7.039
14229SOL     OW44127   4.285   2.084   6.733
14229SOL    HW144128   4.323   2.000   6.770
14229SOL    HW244129   4.197   2.103   6.777
14230SOL     OW44130   4.590   2.316   6.228
14230SOL    HW144131   4.558   2.388   6.166
14230SOL    HW244132   4.614   2.235   6.175
14231SOL     OW44133   4.741   1.901   6.339
14231SOL    HW144134   4.669   1.906   6.270
14231SOL    HW244135   4.717   1.832   6.408
14232SOL     OW44136   5.153   3.035   6.453
14232SOL    HW144137   5.098   2.951   6.446
14232SOL    HW244138   5.179   3.064   6.361
14233SOL     OW44139   5.190   2.452   6.578
14233SOL    HW144140   5.160   2.357   6.585
14233SOL    HW244141   5.263   2.468   6.644
14234SOL     OW44142   5.581   2.695   5.963
14234SOL    HW144143   5.623   2.631   6.027
14234SOL    HW244144   5.543   2.644   5.885
14235SOL     OW44145   5.388   3.142   6.243
14235SOL    HW144146   5.487   3.150   6.257
14235SOL    HW244147   5.343   3.226   6.274
14236SOL     OW44148   5.114   2.437   5.664
14236SOL    HW144149   5.060   2.416   5.745
14236SOL    HW244150   5.205   2.396   5.673
14237SOL     OW44151   4.251   2.118   5.914
14237SOL    HW144152   4.278   2.059   5.839
14237SOL    HW244153   4.251   2.213   5.883
14238SOL     OW44154   5.478   3.085   7.174
14238SOL    HW144155   5.569   3.046   7.161
14238SOL    HW244156   5.486   3.181   7.198
14239SOL     OW44157   4.788   3.209   6.926
14239SOL    HW144158   4.708   3.186   6.981
14239SOL    HW244159   4.871   3.183   6.975
14240SOL     OW44160   5.316   3.491   7.211
14240SOL    HW144161   5.343   3.525   7.121
14240SOL    HW244162   5.395   3.453   7.257
14241SOL     OW44163   4.835   3.057   6.686
14241SOL    HW144164   4.795   3.101   6.767
14241SOL    HW244165   4.794   3.094   6.603
14242SOL     OW44166   5.362   2.961   6.665
14242SOL    HW144167   5.367   3.042   6.724
14242SOL    HW244168   5.276   2.963   6.614
14243SOL     OW44169   4.704   2.978   7.305
14243SOL    HW144170   4.605   2.984   7.315
14243SOL    HW244171   4.727   2.898   7.249
14244SOL     OW44172   4.429   2.912   5.954
14244SOL    HW144173   4.415   2.919   6.053
14244SOL    HW244174   4.513   2.861   5.936
14245SOL     OW44175   4.134   2.675   6.837
14245SOL    HW144176   4.220   2.687   6.887
14245SOL    HW244177   4.092   2.588   6.864
14246SOL     OW44178   4.998   2.248   6.848
14246SOL    HW144179   5.019   2.322   6.912
14246SOL    HW244180   4.909   2.265   6.805
14247SOL     OW44181   3.788   3.426   6.917
14247SOL    HW144182   3.742   3.508   6.883
14247SOL    HW244183   3.886   3.445   6.926
14248SOL     OW44184   4.091   2.962   6.087
14248SOL    HW144185   4.084   3.045   6.031
14248SOL    HW244186   4.095   2.882   6.027
14249SOL     OW44187   4.290   2.399   6.451
14249SOL    HW144188   4.302   2.465   6.377
14249SOL    HW244189   4.336   2.433   6.534
14250SOL     OW44190   4.976   3.210   5.974
14250SOL    HW144191   5.026   3.287   6.014
14250SOL    HW244192   4.881   3.212   6.006
14251SOL     OW44193   4.996   3.307   6.728
14251SOL    HW144194   5.043   3.320   6.815
14251SOL    HW244195   4.930   3.233   6.737
14252SOL     OW44196   5.306   2.501   6.058
14252SOL    HW144197   5.275   2.562   6.131
14252SOL    HW244198   5.356   2.553   5.989
14253SOL     OW44199   4.126   2.613   7.184
14253SOL    HW144200   4.194   2.668   7.137
14253SOL    HW244201   4.166   2.525   7.211
14254SOL     OW44202   5.311   2.641   7.256
14254SOL    HW144203   5.219   2.679   7.251
14254SOL    HW244204   5.371   2.688   7.191
14255SOL     OW44205   4.737   1.967   7.356
14255SOL    HW144206   4.743   2.052   7.304
14255SOL    HW244207   4.769   1.891   7.299
14256SOL     OW44208   4.228   1.912   7.326
14256SOL    HW144209   4.186   1.855   7.256
14256SOL    HW244210   4.162   1.981   7.358
14257SOL     OW44211   4.297   2.732   6.615
14257SOL    HW144212   4.341   2.821   6.606
14257SOL    HW244213   4.234   2.732   6.692
14258SOL     OW44214   5.084   2.724   6.631
14258SOL    HW144215   5.009   2.724   6.565
14258SOL    HW244216   5.121   2.632   6.640
14259SOL     OW44217   4.933   2.387   5.861
14259SOL    HW144218   4.946   2.303   5.915
14259SOL    HW244219   4.904   2.461   5.921
14260SOL     OW44220   4.031   2.075   6.817
14260SOL    HW144221   4.008   2.112   6.907
14260SOL    HW244222   4.001   1.980   6.811
14261SOL     OW44223   4.456   2.496   6.650
14261SOL    HW144224   4.515   2.470   6.574
14261SOL    HW244225   4.428   2.592   6.639
14262SOL     OW44226   5.452   2.797   7.440
14262SOL    HW144227   5.406   2.790   7.351
14262SOL    HW244228   5.390   2.841   7.506
14263SOL     OW44229   4.031   1.925   6.204
14263SOL    HW144230   4.020   2.019   6.237
14263SOL    HW244231   4.026   1.862   6.281
14264SOL     OW44232   5.346   2.229   5.960
14264SOL    HW144233   5.348   2.153   6.024
14264SOL    HW244234   5.298   2.306   6.000
14265SOL     OW44235   4.747   2.628   6.552
14265SOL    HW144236   4.762   2.649   6.648
14265SOL    HW244237   4.717   2.533   6.543
14266SOL     OW44238   5.583   3.380   7.191
14266SOL    HW144239   5.597   3.407   7.096
14266SOL    HW244240   5.666   3.402   7.244
14267SOL     OW44241   4.074   2.760   7.390
14267SOL    HW144242   4.150   2.804   7.438
14267SOL    HW244243   4.109   2.713   7.308
14268SOL     OW44244   5.264   2.136   5.711
14268SOL    HW144245   5.203   2.061   5.734
14268SOL    HW244246   5.286   2.188   5.794
14269SOL     OW44247   5.027   2.700   5.628
14269SOL    HW144248   5.061   2.607   5.643
14269SOL    HW244249   5.045   2.727   5.533
14270SOL     OW44250   4.792   3.195   6.435
14270SOL    HW144251   4.799   3.111   6.380
14270SOL    HW244252   4.854   3.264   6.399
14271SOL     OW44253   4.043   2.672   6.535
14271SOL    HW144254   4.136   2.708   6.540
14271SOL    HW244255   4.037   2.587   6.587
14272SOL     OW44256   4.063   2.371   6.592
14272SOL    HW144257   4.011   2.288   6.575
14272SOL    HW244258   4.140   2.376   6.528
14273SOL     OW44259   4.862   2.242   7.264
14273SOL    HW144260   4.817   2.305   7.328
14273SOL    HW244261   4.955   2.273   7.247
14274SOL     OW44262   4.884   2.069   7.063
14274SOL    HW144263   4.884   2.133   7.140
14274SOL    HW244264   4.912   2.117   6.980
14275SOL     OW44265   4.726   2.658   6.824
14275SOL    HW144266   4.767   2.626   6.910
14275SOL    HW244267   4.630   2.631   6.821
14276SOL     OW44268   3.764   2.406   6.700
14276SOL    HW144269   3.849   2.373   6.659
14276SOL    HW244270   3.777   2.421   6.798
14277SOL     OW44271   3.913   2.382   7.308
14277SOL    HW144272   3.972   2.342   7.238
14277SOL    HW244273   3.855   2.453   7.267
14278SOL     OW44274   5.093   2.812   7.246
14278SOL    HW144275   5.132   2.901   7.266
14278SOL    HW244276   5.103   2.792   7.149
14279SOL     OW44277   4.539   2.434   5.911
14279SOL    HW144278   4.546   2.345   5.865
14279SOL    HW244279   4.445   2.468   5.903
14280SOL     OW44280   5.381   2.466   6.792
14280SOL    HW144281   5.343   2.397   6.854
14280SOL    HW244282   5.463   2.430   6.748
14281SOL     OW44283   3.976   3.426   7.330
14281SOL    HW144284   3.946   3.483   7.406
14281SOL    HW244285   3.969   3.329   7.356
14282SOL     OW44286   4.395   2.326   6.855
14282SOL    HW144287   4.361   2.237   6.825
14282SOL    HW244288   4.421   2.380   6.775
14283SOL     OW44289   4.197   2.362   5.777
14283SOL    HW144290   4.258   2.442   5.781
14283SOL    HW244291   4.102   2.393   5.784
14284SOL     OW44292   5.071   2.921   6.820
14284SOL    HW144293   5.095   2.858   6.746
14284SOL    HW244294   4.981   2.961   6.802
14285SOL     OW44295   5.026   2.717   5.895
14285SOL    HW144296   4.940   2.686   5.937
14285SOL    HW244297   5.022   2.703   5.796
14286SOL     OW44298   5.483   3.609   6.740
14286SOL    HW144299   5.544   3.639   6.667
14286SOL    HW244300   5.445   3.520   6.718
14287SOL     OW44301   4.976   3.593   6.714
14287SOL    HW144302   5.060   3.598   6.660
14287SOL    HW244303   4.953   3.497   6.732
14288SOL     OW44304   5.450   1.997   6.109
14288SOL    HW144305   5.523   1.980   6.042
14288SOL    HW244306   5.419   1.910   6.147
14289SOL     OW44307   5.112   3.435   6.063
14289SOL    HW144308   5.179   3.447   5.989
14289SOL    HW244309   5.072   3.524   6.086
14290SOL     OW44310   3.854   3.656   7.437
14290SOL    HW144311   3.813   3.582   7.490
14290SOL    HW244312   3.918   3.707   7.495
14291SOL     OW44313   5.004   2.789   6.258
14291SOL    HW144314   5.064   2.708   6.260
14291SOL    HW244315   5.044   2.858   6.198
14292SOL     OW44316   5.374   3.582   6.980
14292SOL    HW144317   5.427   3.592   6.896
14292SOL    HW244318   5.347   3.672   7.014
14293SOL     OW44319   5.565   2.037   6.549
14293SOL    HW144320   5.604   1.952   6.513
14293SOL    HW244321   5.467   2.039   6.530
14294SOL     OW44322   3.987   2.188   6.306
14294SOL    HW144323   3.908   2.239   6.272
14294SOL    HW244324   3.978   2.173   6.404
14295SOL     OW44325   4.918   3.474   5.617
14295SOL    HW144326   4.924   3.381   5.654
14295SOL    HW244327   4.859   3.474   5.537
14296SOL     OW44328   4.546   2.864   6.958
14296SOL    HW144329   4.586   2.863   6.866
14296SOL    HW244330   4.556   2.956   6.998
14297SOL     OW44331   4.640   2.772   5.877
14297SOL    HW144332   4.703   2.810   5.809
14297SOL    HW244333   4.680   2.689   5.916
14298SOL     OW44334   5.228   3.469   5.630
14298SOL    HW144335   5.136   3.506   5.637
14298SOL    HW244336   5.266   3.489   5.540
14299SOL     OW44337   5.338   3.154   6.875
14299SOL    HW144338   5.398   3.157   6.955
14299SOL    HW244339   5.263   3.218   6.888
14300SOL     OW44340   4.763   2.960   6.282
14300SOL    HW144341   4.693   2.913   6.336
14300SOL    HW244342   4.822   2.892   6.239
14301SOL     OW44343   4.738   2.098   6.557
14301SOL    HW144344   4.730   2.062   6.464
14301SOL    HW244345   4.736   2.022   6.622
14302SOL     OW44346   5.433   2.247   6.967
14302SOL    HW144347   5.506   2.316   6.971
14302SOL    HW244348   5.461   2.172   6.908
14303SOL     OW44349   3.829   2.875   7.312
14303SOL    HW144350   3.752   2.842   7.366
14303SOL    HW244351   3.914   2.845   7.354
14304SOL     OW44352   4.396   2.065   7.075
14304SOL    HW144353   4.486   2.049   7.035
14304SOL    HW244354   4.404   2.070   7.174
14305SOL     OW44355   3.799   2.207   5.619
14305SOL    HW144356   3.707   2.179   5.590
14305SOL    HW244357   3.830   2.284   5.563
14306SOL     OW44358   5.164   2.718   6.984
14306SOL    HW144359   5.107   2.770   6.921
14306SOL    HW244360   5.260   2.730   6.960
14307SOL     OW44361   3.796   2.028   5.904
14307SOL    HW144362   3.779   2.111   5.850
14307SOL    HW244363   3.886   1.991   5.882
14308SOL     OW44364   4.907   3.197   5.705
14308SOL    HW144365   4.808   3.186   5.707
14308SOL    HW244366   4.941   3.212   5.798
14309SOL     OW44367   4.337   2.704   7.017
14309SOL    HW144368   4.393   2.785   7.000
14309SOL    HW244369   4.396   2.624   7.020
14310SOL     OW44370   5.217   3.629   6.545
14310SOL    HW144371   5.250   3.693   6.476
14310SOL    HW244372   5.283   3.623   6.620
14311SOL     OW44373   4.440   2.427   7.294
14311SOL    HW144374   4.459   2.492   7.368
14311SOL    HW244375   4.500   2.347   7.303
14312SOL     OW44376   5.174   3.082   7.219
14312SOL    HW144377   5.165   3.072   7.318
14312SOL    HW244378   5.270   3.075   7.193
14313SOL     OW44379   4.114   3.603   7.146
14313SOL    HW144380   4.023   3.644   7.144
14313SOL    HW244381   4.107   3.509   7.178
14314SOL     OW44382   5.398   2.745   6.840
14314SOL    HW144383   5.371   2.656   6.803
14314SOL    HW244384   5.399   2.813   6.767
14315SOL     OW44385   4.949   2.187   6.035
14315SOL    HW144386   5.014   2.113   6.024
14315SOL    HW244387   4.969   2.237   6.119
14316SOL     OW44388   4.318   2.607   6.238
14316SOL    HW144389   4.368   2.692   6.219
14316SOL    HW244390   4.230   2.609   6.190
14317SOL     OW44391   5.501   2.204   7.228
14317SOL    HW144392   5.484   2.235   7.134
14317SOL    HW244393   5.417   2.167   7.266
14318SOL     OW44394   5.454   2.796   7.103
14318SOL    HW144395   5.492   2.887   7.118
14318SOL    HW244396   5.446   2.779   7.004
14319SOL     OW44397   4.583   2.818   6.447
14319SOL    HW144398   4.637   2.749   6.495
14319SOL    HW244399   4.551   2.887   6.513
14320SOL     OW44400   4.807   2.846   5.673
14320SOL    HW144401   4.784   2.899   5.591
14320SOL    HW244402   4.888   2.790   5.654
14321SOL     OW44403   5.585   3.431   6.437
14321SOL    HW144404   5.514   3.419   6.367
14321SOL    HW244405   5.586   3.352   6.497
14322SOL     OW44406   3.945   3.176   7.430
14322SOL    HW144407   3.880   3.103   7.409
14322SOL    HW244408   3.949   3.190   7.528
14323SOL     OW44409   3.803   3.102   6.239
14323SOL    HW144410   3.802   3.055   6.327
14323SOL    HW244411   3.885   3.074   6.188
14324SOL     OW44412   5.548   2.054   6.813
14324SOL    HW144413   5.544   1.964   6.857
14324SOL    HW244414   5.551   2.043   6.714
14325SOL     OW44415   4.152   2.286   6.106
14325SOL    HW144416   4.182   2.214   6.044
14325SOL    HW244417   4.113   2.246   6.189
14326SOL     OW44418   5.429   3.349   6.690
14326SOL    HW144419   5.336   3.324   6.663
14326SOL    HW244420   5.455   3.299   6.772
14327SOL     OW44421   4.041   2.409   6.866
14327SOL    HW144422   4.079   2.350   6.938
14327SOL    HW244423   4.081   2.383   6.778
14328SOL     OW44424   5.148   2.076   6.698
14328SOL    HW144425   5.200   2.011   6.753
14328SOL    HW244426   5.099   2.139   6.759
14329SOL     OW44427   4.725   1.896   6.740
14329SOL    HW144428   4.662   1.824   6.709
14329SOL    HW244429   4.818   1.860   6.740
14330SOL     OW44430   5.076   1.914   5.754
14330SOL    HW144431   5.111   1.873   5.670
14330SOL    HW244432   4.986   1.876   5.774
14331SOL     OW44433   5.024   2.315   6.277
14331SOL    HW144434   4.965   2.395   6.281
14331SOL    HW244435   5.039   2.280   6.370
14332SOL     OW44436   5.317   2.083   6.468
14332SOL    HW144437   5.233   2.082   6.522
14332SOL    HW244438   5.319   2.166   6.412
14333SOL     OW44439   3.763   2.939   5.886
14333SOL    HW144440   3.862   2.928   5.877
14333SOL    HW244441   3.723   2.853   5.918
14334SOL     OW44442   3.954   2.490   7.561
14334SOL    HW144443   3.861   2.488   7.598
14334SOL    HW244444   3.955   2.451   7.469
14335SOL     OW44445   3.949   2.137   8.444
14335SOL    HW144446   3.984   2.120   8.536
14335SOL    HW244447   3.861   2.092   8.432
14336SOL     OW44448   3.743   2.230   8.095
14336SOL    HW144449   3.661   2.273   8.134
14336SOL    HW244450   3.715   2.157   8.032
14337SOL     OW44451   5.279   3.373   8.151
14337SOL    HW144452   5.222   3.357   8.232
14337SOL    HW244453   5.220   3.383   8.071
14338SOL     OW44454   4.859   2.565   8.165
14338SOL    HW144455   4.916   2.643   8.140
14338SOL    HW244456   4.799   2.591   8.241
14339SOL     OW44457   5.479   2.469   7.679
14339SOL    HW144458   5.467   2.456   7.580
14339SOL    HW244459   5.449   2.388   7.728
14340SOL     OW44460   4.574   2.660   9.271
14340SOL    HW144461   4.570   2.736   9.336
14340SOL    HW244462   4.596   2.696   9.180
14341SOL     OW44463   4.409   2.874   8.113
14341SOL    HW144464   4.478   2.858   8.183
14341SOL    HW244465   4.336   2.931   8.151
14342SOL     OW44466   4.410   3.023   9.251
14342SOL    HW144467   4.470   3.102   9.265
14342SOL    HW244468   4.324   3.054   9.210
14343SOL     OW44469   5.184   3.367   8.787
14343SOL    HW144470   5.208   3.461   8.813
14343SOL    HW244471   5.168   3.313   8.869
14344SOL     OW44472   4.162   2.254   8.947
14344SOL    HW144473   4.244   2.198   8.956
14344SOL    HW244474   4.081   2.196   8.951
14345SOL     OW44475   5.327   2.309   8.185
14345SOL    HW144476   5.253   2.355   8.135
14345SOL    HW244477   5.378   2.377   8.238
14346SOL     OW44478   3.955   3.575   7.931
14346SOL    HW144479   3.989   3.652   7.985
14346SOL    HW244480   3.999   3.575   7.841
14347SOL     OW44481   4.851   3.203   9.138
14347SOL    HW144482   4.898   3.203   9.226
14347SOL    HW244483   4.803   3.116   9.127
14348SOL     OW44484   3.954   3.296   7.986
14348SOL    HW144485   3.928   3.392   7.986
14348SOL    HW244486   3.883   3.242   8.031
14349SOL     OW44487   4.330   2.826   7.571
14349SOL    HW144488   4.337   2.910   7.517
14349SOL    HW244489   4.376   2.839   7.659
14350SOL     OW44490   5.318   1.976   8.928
14350SOL    HW144491   5.300   2.043   8.856
14350SOL    HW244492   5.315   2.022   9.017
14351SOL     OW44493   3.846   2.505   8.011
14351SOL    HW144494   3.801   2.417   8.028
14351SOL    HW244495   3.845   2.559   8.095
14352SOL     OW44496   5.566   3.629   7.807
14352SOL    HW144497   5.620   3.600   7.887
14352SOL    HW244498   5.596   3.719   7.778
14353SOL     OW44499   3.751   3.458   7.565
14353SOL    HW144500   3.732   3.362   7.586
14353SOL    HW244501   3.718   3.516   7.640
14354SOL     OW44502   5.413   2.784   8.060
14354SOL    HW144503   5.508   2.755   8.068
14354SOL    HW244504   5.405   2.849   7.985
14355SOL     OW44505   5.365   2.970   7.880
14355SOL    HW144506   5.451   2.972   7.828
14355SOL    HW244507   5.379   3.017   7.968
14356SOL     OW44508   3.837   2.599   9.045
14356SOL    HW144509   3.925   2.586   9.090
14356SOL    HW244510   3.824   2.696   9.023
14357SOL     OW44511   4.337   3.227   8.174
14357SOL    HW144512   4.288   3.140   8.183
14357SOL    HW244513   4.314   3.270   8.087
14358SOL     OW44514   5.017   3.090   8.871
14358SOL    HW144515   5.054   3.017   8.813
14358SOL    HW244516   5.069   3.095   8.956
14359SOL     OW44517   4.533   1.866   7.950
14359SOL    HW144518   4.573   1.957   7.941
14359SOL    HW244519   4.433   1.874   7.956
14360SOL     OW44520   3.921   2.838   8.712
14360SOL    HW144521   4.010   2.793   8.698
14360SOL    HW244522   3.848   2.773   8.693
14361SOL     OW44523   5.249   2.861   7.638
14361SOL    HW144524   5.186   2.785   7.651
14361SOL    HW244525   5.297   2.879   7.724
14362SOL     OW44526   4.041   2.113   9.249
14362SOL    HW144527   4.112   2.184   9.255
14362SOL    HW244528   3.953   2.152   9.277
14363SOL     OW44529   5.190   3.279   8.401
14363SOL    HW144530   5.131   3.285   8.481
14363SOL    HW244531   5.175   3.191   8.355
14364SOL     OW44532   5.391   3.576   8.020
14364SOL    HW144533   5.350   3.553   7.932
14364SOL    HW244534   5.373   3.502   8.085
14365SOL     OW44535   4.322   2.591   7.718
14365SOL    HW144536   4.346   2.660   7.650
14365SOL    HW244537   4.244   2.624   7.772
14366SOL     OW44538   5.005   2.207   8.392
14366SOL    HW144539   4.919   2.157   8.379
14366SOL    HW244540   5.067   2.153   8.448
14367SOL     OW44541   5.300   3.524   7.755
14367SOL    HW144542   5.389   3.570   7.758
14367SOL    HW244543   5.279   3.500   7.660
14368SOL     OW44544   4.531   2.467   8.913
14368SOL    HW144545   4.484   2.464   9.002
14368SOL    HW244546   4.480   2.412   8.847
14369SOL     OW44547   5.118   2.331   9.122
14369SOL    HW144548   5.098   2.374   9.210
14369SOL    HW244549   5.196   2.269   9.131
14370SOL     OW44550   4.697   2.752   9.020
14370SOL    HW144551   4.743   2.668   8.991
14370SOL    HW244552   4.641   2.786   8.945
14371SOL     OW44553   4.715   2.272   8.690
14371SOL    HW144554   4.638   2.306   8.744
14371SOL    HW244555   4.681   2.221   8.611
14372SOL     OW44556   4.765   2.563   7.877
14372SOL    HW144557   4.791   2.559   7.973
14372SOL    HW244558   4.680   2.512   7.863
14373SOL     OW44559   3.800   2.673   8.237
14373SOL    HW144560   3.899   2.661   8.246
14373SOL    HW244561   3.776   2.768   8.258
14374SOL     OW44562   4.589   2.210   7.643
14374SOL    HW144563   4.648   2.273   7.594
14374SOL    HW244564   4.608   2.116   7.614
14375SOL     OW44565   5.443   2.447   9.279
14375SOL    HW144566   5.417   2.536   9.243
14375SOL    HW244567   5.441   2.379   9.206
14376SOL     OW44568   5.086   3.006   7.993
14376SOL    HW144569   5.169   2.977   7.945
14376SOL    HW244570   5.037   3.073   7.937
14377SOL     OW44571   4.274   2.058   8.333
14377SOL    HW144572   4.269   2.053   8.433
14377SOL    HW244573   4.276   2.154   8.304
14378SOL     OW44574   4.732   3.318   7.925
14378SOL    HW144575   4.686   3.390   7.873
14378SOL    HW244576   4.728   3.338   8.023
14379SOL     OW44577   4.075   3.663   8.301
14379SOL    HW144578   4.125   3.577   8.307
14379SOL    HW244579   4.140   3.740   8.298
14380SOL     OW44580   5.519   2.928   8.321
14380SOL    HW144581   5.457   2.913   8.245
14380SOL    HW244582   5.467   2.939   8.406
14381SOL     OW44583   4.045   2.805   7.690
14381SOL    HW144584   4.127   2.844   7.648
14381SOL    HW244585   4.018   2.723   7.641
14382SOL     OW44586   5.182   2.597   8.176
14382SOL    HW144587   5.177   2.532   8.251
14382SOL    HW244588   5.262   2.656   8.189
14383SOL     OW44589   4.185   3.128   9.175
14383SOL    HW144590   4.135   3.129   9.089
14383SOL    HW244591   4.122   3.110   9.251
14384SOL     OW44592   3.926   2.147   8.946
14384SOL    HW144593   3.846   2.207   8.933
14384SOL    HW244594   3.916   2.098   9.032
14385SOL     OW44595   5.356   3.239   7.529
14385SOL    HW144596   5.324   3.333   7.519
14385SOL    HW244597   5.280   3.176   7.517
14386SOL     OW44598   4.188   3.605   7.771
14386SOL    HW144599   4.221   3.644   7.857
14386SOL    HW244600   4.264   3.598   7.706
14387SOL     OW44601   5.124   1.969   7.874
14387SOL    HW144602   5.100   1.932   7.784
14387SOL    HW244603   5.223   1.985   7.878
14388SOL     OW44604   4.664   3.560   8.352
14388SOL    HW144605   4.744   3.503   8.373
14388SOL    HW244606   4.615   3.520   8.275
14389SOL     OW44607   4.106   2.562   7.928
14389SOL    HW144608   4.151   2.472   7.925
14389SOL    HW244609   4.012   2.551   7.961
14390SOL     OW44610   5.271   2.084   9.177
14390SOL    HW144611   5.266   2.121   9.269
14390SOL    HW244612   5.199   2.015   9.165
14391SOL     OW44613   4.338   1.984   7.565
14391SOL    HW144614   4.436   1.962   7.572
14391SOL    HW244615   4.307   1.967   7.472
14392SOL     OW44616   4.505   2.126   9.197
14392SOL    HW144617   4.572   2.065   9.240
14392SOL    HW244618   4.432   2.145   9.262
14393SOL     OW44619   5.075   2.452   8.881
14393SOL    HW144620   5.103   2.409   8.966
14393SOL    HW244621   5.100   2.548   8.882
14394SOL     OW44622   4.527   3.264   8.372
14394SOL    HW144623   4.617   3.278   8.330
14394SOL    HW244624   4.456   3.266   8.301
14395SOL     OW44625   4.646   2.365   8.347
14395SOL    HW144626   4.621   2.356   8.251
14395SOL    HW244627   4.694   2.283   8.378
14396SOL     OW44628   4.263   1.926   7.960
14396SOL    HW144629   4.182   1.927   8.018
14396SOL    HW244630   4.266   2.009   7.905
14397SOL     OW44631   5.158   3.050   7.489
14397SOL    HW144632   5.190   2.974   7.546
14397SOL    HW244633   5.066   3.077   7.519
14398SOL     OW44634   4.021   1.897   7.619
14398SOL    HW144635   4.070   1.981   7.598
14398SOL    HW244636   4.083   1.832   7.664
14399SOL     OW44637   4.800   2.545   8.912
14399SOL    HW144638   4.720   2.484   8.915
14399SOL    HW244639   4.881   2.492   8.888
14400SOL     OW44640   4.951   3.432   8.241
14400SOL    HW144641   4.972   3.506   8.176
14400SOL    HW244642   5.019   3.432   8.314
14401SOL     OW44643   4.995   3.659   8.039
14401SOL    HW144644   5.039   3.723   7.975
14401SOL    HW244645   4.945   3.711   8.109
14402SOL     OW44646   4.756   2.411   7.464
14402SOL    HW144647   4.715   2.493   7.425
14402SOL    HW244648   4.820   2.437   7.537
14403SOL     OW44649   3.802   2.418   8.834
14403SOL    HW144650   3.894   2.417   8.793
14403SOL    HW244651   3.796   2.492   8.901
14404SOL     OW44652   4.285   2.084   8.595
14404SOL    HW144653   4.323   2.000   8.632
14404SOL    HW244654   4.197   2.103   8.639
14405SOL     OW44655   4.590   2.316   8.090
14405SOL    HW144656   4.558   2.388   8.028
14405SOL    HW244657   4.614   2.235   8.037
14406SOL     OW44658   4.741   1.901   8.201
14406SOL    HW144659   4.669   1.906   8.132
14406SOL    HW244660   4.717   1.832   8.270
14407SOL     OW44661   5.153   3.035   8.315
14407SOL    HW144662   5.098   2.951   8.308
14407SOL    HW244663   5.179   3.064   8.223
14408SOL     OW44664   5.190   2.452   8.440
14408SOL    HW144665   5.160   2.357   8.447
14408SOL    HW244666   5.263   2.468   8.506
14409SOL     OW44667   5.581   2.695   7.825
14409SOL    HW144668   5.623   2.631   7.889
14409SOL    HW244669   5.543   2.644   7.747
14410SOL     OW44670   5.388   3.142   8.105
14410SOL    HW144671   5.487   3.150   8.119
14410SOL    HW244672   5.343   3.226   8.136
14411SOL     OW44673   5.114   2.437   7.526
14411SOL    HW144674   5.060   2.416   7.607
14411SOL    HW244675   5.205   2.396   7.535
14412SOL     OW44676   4.251   2.118   7.776
14412SOL    HW144677   4.278   2.059   7.701
14412SOL    HW244678   4.251   2.213   7.745
14413SOL     OW44679   5.478   3.085   9.036
14413SOL    HW144680   5.569   3.046   9.023
14413SOL    HW244681   5.486   3.181   9.060
14414SOL     OW44682   5.316   3.491   9.073
14414SOL    HW144683   5.343   3.525   8.983
14414SOL    HW244684   5.395   3.453   9.119
14415SOL     OW44685   4.835   3.057   8.548
14415SOL    HW144686   4.795   3.101   8.629
14415SOL    HW244687   4.794   3.094   8.465
14416SOL     OW44688   5.362   2.961   8.527
14416SOL    HW144689   5.367   3.042   8.586
14416SOL    HW244690   5.276   2.963   8.476
14417SOL     OW44691   4.639   1.951   8.850
14417SOL    HW144692   4.664   1.931   8.755
14417SOL    HW244693   4.711   2.007   8.892
14418SOL     OW44694   4.704   2.978   9.167
14418SOL    HW144695   4.605   2.984   9.177
14418SOL    HW244696   4.727   2.898   9.111
14419SOL     OW44697   4.429   2.912   7.816
14419SOL    HW144698   4.415   2.919   7.915
14419SOL    HW244699   4.513   2.861   7.798
14420SOL     OW44700   4.134   2.675   8.699
14420SOL    HW144701   4.220   2.687   8.749
14420SOL    HW244702   4.092   2.588   8.726
14421SOL     OW44703   4.998   2.248   8.710
14421SOL    HW144704   5.019   2.322   8.774
14421SOL    HW244705   4.909   2.265   8.667
14422SOL     OW44706   4.091   2.962   7.949
14422SOL    HW144707   4.084   3.045   7.893
14422SOL    HW244708   4.095   2.882   7.889
14423SOL     OW44709   4.290   2.399   8.313
14423SOL    HW144710   4.302   2.465   8.239
14423SOL    HW244711   4.336   2.433   8.396
14424SOL     OW44712   4.976   3.210   7.836
14424SOL    HW144713   5.026   3.287   7.876
14424SOL    HW244714   4.881   3.212   7.868
14425SOL     OW44715   4.996   3.307   8.590
14425SOL    HW144716   5.043   3.320   8.677
14425SOL    HW244717   4.930   3.233   8.599
14426SOL     OW44718   5.306   2.501   7.920
14426SOL    HW144719   5.275   2.562   7.993
14426SOL    HW244720   5.356   2.553   7.851
14427SOL     OW44721   4.126   2.613   9.046
14427SOL    HW144722   4.194   2.668   8.999
14427SOL    HW244723   4.166   2.525   9.073
14428SOL     OW44724   5.311   2.641   9.118
14428SOL    HW144725   5.219   2.679   9.113
14428SOL    HW244726   5.371   2.688   9.053
14429SOL     OW44727   4.737   1.967   9.218
14429SOL    HW144728   4.743   2.052   9.166
14429SOL    HW244729   4.769   1.891   9.161
14430SOL     OW44730   4.228   1.912   9.188
14430SOL    HW144731   4.186   1.855   9.118
14430SOL    HW244732   4.162   1.981   9.220
14431SOL     OW44733   4.297   2.732   8.477
14431SOL    HW144734   4.341   2.821   8.468
14431SOL    HW244735   4.234   2.732   8.554
14432SOL     OW44736   5.084   2.724   8.493
14432SOL    HW144737   5.009   2.724   8.427
14432SOL    HW244738   5.121   2.632   8.502
14433SOL     OW44739   4.933   2.387   7.723
14433SOL    HW144740   4.946   2.303   7.777
14433SOL    HW244741   4.904   2.461   7.783
14434SOL     OW44742   4.031   2.075   8.679
14434SOL    HW144743   4.008   2.112   8.769
14434SOL    HW244744   4.001   1.980   8.673
14435SOL     OW44745   4.456   2.496   8.512
14435SOL    HW144746   4.515   2.470   8.436
14435SOL    HW244747   4.428   2.592   8.501
14436SOL     OW44748   5.452   2.797   9.302
14436SOL    HW144749   5.406   2.790   9.213
14436SOL    HW244750   5.390   2.841   9.368
14437SOL     OW44751   4.031   1.925   8.066
14437SOL    HW144752   4.020   2.019   8.099
14437SOL    HW244753   4.026   1.862   8.143
14438SOL     OW44754   5.346   2.229   7.822
14438SOL    HW144755   5.348   2.153   7.886
14438SOL    HW244756   5.298   2.306   7.862
14439SOL     OW44757   4.747   2.628   8.414
14439SOL    HW144758   4.762   2.649   8.510
14439SOL    HW244759   4.717   2.533   8.405
14440SOL     OW44760   5.583   3.380   9.053
14440SOL    HW144761   5.597   3.407   8.958
14440SOL    HW244762   5.666   3.402   9.106
14441SOL     OW44763   4.074   2.760   9.252
14441SOL    HW144764   4.150   2.804   9.300
14441SOL    HW244765   4.109   2.713   9.170
14442SOL     OW44766   5.264   2.136   7.573
14442SOL    HW144767   5.203   2.061   7.596
14442SOL    HW244768   5.286   2.188   7.656
14443SOL     OW44769   5.027   2.700   7.490
14443SOL    HW144770   5.061   2.607   7.505
14443SOL    HW244771   5.045   2.727   7.395
14444SOL     OW44772   4.792   3.195   8.297
14444SOL    HW144773   4.799   3.111   8.242
14444SOL    HW244774   4.854   3.264   8.261
14445SOL     OW44775   4.043   2.672   8.397
14445SOL    HW144776   4.136   2.708   8.402
14445SOL    HW244777   4.037   2.587   8.449
14446SOL     OW44778   4.063   2.371   8.454
14446SOL    HW144779   4.011   2.288   8.437
14446SOL    HW244780   4.140   2.376   8.390
14447SOL     OW44781   4.862   2.242   9.126
14447SOL    HW144782   4.817   2.305   9.190
14447SOL    HW244783   4.955   2.273   9.109
14448SOL     OW44784   4.884   2.069   8.925
14448SOL    HW144785   4.884   2.133   9.002
14448SOL    HW244786   4.912   2.117   8.842
14449SOL     OW44787   3.732   3.188   7.648
14449SOL    HW144788   3.639   3.209   7.617
14449SOL    HW244789   3.742   3.089   7.661
14450SOL     OW44790   3.812   3.663   8.375
14450SOL    HW144791   3.770   3.577   8.348
14450SOL    HW244792   3.906   3.666   8.341
14451SOL     OW44793   4.228   3.430   8.358
14451SOL    HW144794   4.294   3.504   8.367
14451SOL    HW244795   4.272   3.351   8.316
14452SOL     OW44796   4.726   2.658   8.686
14452SOL    HW144797   4.767   2.626   8.772
14452SOL    HW244798   4.630   2.631   8.683
14453SOL     OW44799   3.764   2.406   8.562
14453SOL    HW144800   3.849   2.373   8.521
14453SOL    HW244801   3.777   2.421   8.660
14454SOL     OW44802   3.913   2.382   9.170
14454SOL    HW144803   3.972   2.342   9.100
14454SOL    HW244804   3.855   2.453   9.129
14455SOL     OW44805   5.093   2.812   9.108
14455SOL    HW144806   5.132   2.901   9.128
14455SOL    HW244807   5.103   2.792   9.011
14456SOL     OW44808   4.539   2.434   7.773
14456SOL    HW144809   4.546   2.345   7.727
14456SOL    HW244810   4.445   2.468   7.765
14457SOL     OW44811   5.381   2.466   8.654
14457SOL    HW144812   5.343   2.397   8.716
14457SOL    HW244813   5.463   2.430   8.610
14458SOL     OW44814   4.395   2.326   8.717
14458SOL    HW144815   4.361   2.237   8.687
14458SOL    HW244816   4.421   2.380   8.637
14459SOL     OW44817   4.197   2.362   7.639
14459SOL    HW144818   4.258   2.442   7.643
14459SOL    HW244819   4.102   2.393   7.646
14460SOL     OW44820   3.883   2.999   8.914
14460SOL    HW144821   3.905   2.938   8.990
14460SOL    HW244822   3.893   2.950   8.828
14461SOL     OW44823   5.071   2.921   8.682
14461SOL    HW144824   5.095   2.858   8.608
14461SOL    HW244825   4.981   2.961   8.664
14462SOL     OW44826   5.026   2.717   7.757
14462SOL    HW144827   4.940   2.686   7.799
14462SOL    HW244828   5.022   2.703   7.658
14463SOL     OW44829   5.483   3.609   8.602
14463SOL    HW144830   5.544   3.639   8.529
14463SOL    HW244831   5.445   3.520   8.580
14464SOL     OW44832   4.976   3.593   8.576
14464SOL    HW144833   5.060   3.598   8.522
14464SOL    HW244834   4.953   3.497   8.594
14465SOL     OW44835   5.450   1.997   7.971
14465SOL    HW144836   5.523   1.980   7.904
14465SOL    HW244837   5.419   1.910   8.009
14466SOL     OW44838   5.112   3.435   7.925
14466SOL    HW144839   5.179   3.447   7.851
14466SOL    HW244840   5.072   3.524   7.948
14467SOL     OW44841   5.004   2.789   8.120
14467SOL    HW144842   5.064   2.708   8.122
14467SOL    HW244843   5.044   2.858   8.060
14468SOL     OW44844   4.396   3.478   7.602
14468SOL    HW144845   4.405   3.488   7.503
14468SOL    HW244846   4.356   3.389   7.623
14469SOL     OW44847   5.374   3.582   8.842
14469SOL    HW144848   5.427   3.592   8.758
14469SOL    HW244849   5.347   3.672   8.876
14470SOL     OW44850   5.565   2.037   8.411
14470SOL    HW144851   5.604   1.952   8.375
14470SOL    HW244852   5.467   2.039   8.392
14471SOL     OW44853   3.987   2.188   8.168
14471SOL    HW144854   3.908   2.239   8.134
14471SOL    HW244855   3.978   2.173   8.266
14472SOL     OW44856   4.546   2.864   8.820
14472SOL    HW144857   4.586   2.863   8.728
14472SOL    HW244858   4.556   2.956   8.860
14473SOL     OW44859   4.640   2.772   7.739
14473SOL    HW144860   4.703   2.810   7.671
14473SOL    HW244861   4.680   2.689   7.778
14474SOL     OW44862   5.228   3.469   7.492
14474SOL    HW144863   5.136   3.506   7.499
14474SOL    HW244864   5.266   3.489   7.402
14475SOL     OW44865   5.338   3.154   8.737
14475SOL    HW144866   5.398   3.157   8.817
14475SOL    HW244867   5.263   3.218   8.750
14476SOL     OW44868   4.763   2.960   8.144
14476SOL    HW144869   4.693   2.913   8.198
14476SOL    HW244870   4.822   2.892   8.101
14477SOL     OW44871   4.738   2.098   8.419
14477SOL    HW144872   4.730   2.062   8.326
14477SOL    HW244873   4.736   2.022   8.484
14478SOL     OW44874   4.314   3.349   7.939
14478SOL    HW144875   4.356   3.291   7.869
14478SOL    HW244876   4.270   3.428   7.895
14479SOL     OW44877   5.433   2.247   8.829
14479SOL    HW144878   5.506   2.316   8.833
14479SOL    HW244879   5.461   2.172   8.770
14480SOL     OW44880   3.979   3.210   7.738
14480SOL    HW144881   3.883   3.211   7.711
14480SOL    HW244882   3.991   3.263   7.822
14481SOL     OW44883   3.829   2.875   9.174
14481SOL    HW144884   3.752   2.842   9.228
14481SOL    HW244885   3.914   2.845   9.216
14482SOL     OW44886   4.396   2.065   8.937
14482SOL    HW144887   4.486   2.049   8.897
14482SOL    HW244888   4.404   2.070   9.036
14483SOL     OW44889   3.799   2.207   7.481
14483SOL    HW144890   3.707   2.179   7.452
14483SOL    HW244891   3.830   2.284   7.425
14484SOL     OW44892   5.164   2.718   8.846
14484SOL    HW144893   5.107   2.770   8.783
14484SOL    HW244894   5.260   2.730   8.822
14485SOL     OW44895   3.796   2.028   7.766
14485SOL    HW144896   3.779   2.111   7.712
14485SOL    HW244897   3.886   1.991   7.744
14486SOL     OW44898   4.907   3.197   7.567
14486SOL    HW144899   4.808   3.186   7.569
14486SOL    HW244900   4.941   3.212   7.660
14487SOL     OW44901   4.337   2.704   8.879
14487SOL    HW144902   4.393   2.785   8.862
14487SOL    HW244903   4.396   2.624   8.882
14488SOL     OW44904   5.217   3.629   8.407
14488SOL    HW144905   5.250   3.693   8.338
14488SOL    HW244906   5.283   3.623   8.482
14489SOL     OW44907   4.440   2.427   9.156
14489SOL    HW144908   4.459   2.492   9.230
14489SOL    HW244909   4.500   2.347   9.165
14490SOL     OW44910   5.174   3.082   9.081
14490SOL    HW144911   5.165   3.072   9.180
14490SOL    HW244912   5.270   3.075   9.055
14491SOL     OW44913   5.398   2.745   8.702
14491SOL    HW144914   5.371   2.656   8.665
14491SOL    HW244915   5.399   2.813   8.629
14492SOL     OW44916   4.949   2.187   7.897
14492SOL    HW144917   5.014   2.113   7.886
14492SOL    HW244918   4.969   2.237   7.981
14493SOL     OW44919   4.318   2.607   8.100
14493SOL    HW144920   4.368   2.692   8.081
14493SOL    HW244921   4.230   2.609   8.052
14494SOL     OW44922   5.501   2.204   9.090
14494SOL    HW144923   5.484   2.235   8.996
14494SOL    HW244924   5.417   2.167   9.128
14495SOL     OW44925   5.454   2.796   8.965
14495SOL    HW144926   5.492   2.887   8.980
14495SOL    HW244927   5.446   2.779   8.866
14496SOL     OW44928   4.385   3.652   8.401
14496SOL    HW144929   4.339   3.740   8.388
14496SOL    HW244930   4.484   3.664   8.394
14497SOL     OW44931   4.583   2.818   8.309
14497SOL    HW144932   4.637   2.749   8.357
14497SOL    HW244933   4.551   2.887   8.375
14498SOL     OW44934   4.807   2.846   7.535
14498SOL    HW144935   4.784   2.899   7.453
14498SOL    HW244936   4.888   2.790   7.516
14499SOL     OW44937   5.585   3.431   8.299
14499SOL    HW144938   5.514   3.419   8.229
14499SOL    HW244939   5.586   3.352   8.359
14500SOL     OW44940   3.803   3.102   8.101
14500SOL    HW144941   3.802   3.055   8.189
14500SOL    HW244942   3.885   3.074   8.050
14501SOL     OW44943   5.548   2.054   8.675
14501SOL    HW144944   5.544   1.964   8.719
14501SOL    HW244945   5.551   2.043   8.576
14502SOL     OW44946   4.152   2.286   7.968
14502SOL    HW144947   4.182   2.214   7.906
14502SOL    HW244948   4.113   2.246   8.051
14503SOL     OW44949   5.429   3.349   8.552
14503SOL    HW144950   5.336   3.324   8.525
14503SOL    HW244951   5.455   3.299   8.634
14504SOL     OW44952   4.041   2.409   8.728
14504SOL    HW144953   4.079   2.350   8.800
14504SOL    HW244954   4.081   2.383   8.640
14505SOL     OW44955   4.536   3.448   8.135
14505SOL    HW144956   4.568   3.458   8.041
14505SOL    HW244957   4.457   3.386   8.137
14506SOL     OW44958   5.148   2.076   8.560
14506SOL    HW144959   5.200   2.011   8.615
14506SOL    HW244960   5.099   2.139   8.621
14507SOL     OW44961   4.725   1.896   8.602
14507SOL    HW144962   4.662   1.824   8.571
14507SOL    HW244963   4.818   1.860   8.602
14508SOL     OW44964   4.494   3.192   7.749
14508SOL    HW144965   4.448   3.105   7.766
14508SOL    HW244966   4.585   3.189   7.790
14509SOL     OW44967   5.076   1.914   7.616
14509SOL    HW144968   5.111   1.873   7.532
14509SOL    HW244969   4.986   1.876   7.636
14510SOL     OW44970   5.024   2.315   8.139
14510SOL    HW144971   4.965   2.395   8.143
14510SOL    HW244972   5.039   2.280   8.232
14511SOL     OW44973   5.317   2.083   8.330
14511SOL    HW144974   5.233   2.082   8.384
14511SOL    HW244975   5.319   2.166   8.274
14512SOL     OW44976   3.763   2.939   7.748
14512SOL    HW144977   3.862   2.928   7.739
14512SOL    HW244978   3.723   2.853   7.780
14513SOL     OW44979   3.954   2.490   9.423
14513SOL    HW144980   3.861   2.488   9.460
14513SOL    HW244981   3.955   2.451   9.331
14514SOL     OW44982   3.949   2.137  10.306
14514SOL    HW144983   3.984   2.120  10.398
14514SOL    HW244984   3.861   2.092  10.294
14515SOL     OW44985   3.743   2.230   9.957
14515SOL    HW144986   3.661   2.273   9.996
14515SOL    HW244987   3.715   2.157   9.894
14516SOL     OW44988   4.293   3.137  10.475
14516SOL    HW144989   4.200   3.130  10.438
14516SOL    HW244990   4.304   3.226  10.519
14517SOL     OW44991   5.279   3.373  10.013
14517SOL    HW144992   5.222   3.357  10.094
14517SOL    HW244993   5.220   3.383   9.933
14518SOL     OW44994   4.859   2.565  10.027
14518SOL    HW144995   4.916   2.643  10.002
14518SOL    HW244996   4.799   2.591  10.103
14519SOL     OW44997   5.479   2.469   9.541
14519SOL    HW144998   5.467   2.456   9.442
14519SOL    HW244999   5.449   2.388   9.590
14520SOL     OW45000   4.492   3.006  10.333
14520SOL    HW145001   4.414   3.023  10.393
14520SOL    HW245002   4.526   3.093  10.297
14521SOL     OW45003   4.574   2.660  11.133
14521SOL    HW145004   4.570   2.736  11.198
14521SOL    HW245005   4.596   2.696  11.042
14522SOL     OW45006   4.409   2.874   9.975
14522SOL    HW145007   4.478   2.858  10.045
14522SOL    HW245008   4.336   2.931  10.013
14523SOL     OW45009   4.410   3.023  11.113
14523SOL    HW145010   4.470   3.102  11.127
14523SOL    HW245011   4.324   3.054  11.072
14524SOL     OW45012   4.059   3.297  10.371
14524SOL    HW145013   3.981   3.266  10.318
14524SOL    HW245014   4.117   3.355  10.314
14525SOL     OW45015   5.184   3.367  10.649
14525SOL    HW145016   5.208   3.461  10.675
14525SOL    HW245017   5.168   3.313  10.731
14526SOL     OW45018   4.162   2.254  10.809
14526SOL    HW145019   4.244   2.198  10.818
14526SOL    HW245020   4.081   2.196  10.813
14527SOL     OW45021   5.327   2.309  10.047
14527SOL    HW145022   5.253   2.355   9.997
14527SOL    HW245023   5.378   2.377  10.100
14528SOL     OW45024   4.851   3.203  11.000
14528SOL    HW145025   4.898   3.203  11.088
14528SOL    HW245026   4.803   3.116  10.989
14529SOL     OW45027   3.964   2.953  10.196
14529SOL    HW145028   3.978   2.869  10.248
14529SOL    HW245029   3.909   3.017  10.251
14530SOL     OW45030   4.344   3.648  10.749
14530SOL    HW145031   4.252   3.631  10.784
14530SOL    HW245032   4.372   3.740  10.775
14531SOL     OW45033   4.330   2.826   9.433
14531SOL    HW145034   4.337   2.910   9.379
14531SOL    HW245035   4.376   2.839   9.521
14532SOL     OW45036   5.318   1.976  10.790
14532SOL    HW145037   5.300   2.043  10.718
14532SOL    HW245038   5.315   2.022  10.879
14533SOL     OW45039   3.846   2.505   9.873
14533SOL    HW145040   3.801   2.417   9.890
14533SOL    HW245041   3.845   2.559   9.957
14534SOL     OW45042   5.566   3.629   9.669
14534SOL    HW145043   5.620   3.600   9.749
14534SOL    HW245044   5.596   3.719   9.640
14535SOL     OW45045   5.413   2.784   9.922
14535SOL    HW145046   5.508   2.755   9.930
14535SOL    HW245047   5.405   2.849   9.847
14536SOL     OW45048   5.365   2.970   9.742
14536SOL    HW145049   5.451   2.972   9.690
14536SOL    HW245050   5.379   3.017   9.830
14537SOL     OW45051   3.837   2.599  10.907
14537SOL    HW145052   3.925   2.586  10.952
14537SOL    HW245053   3.824   2.696  10.885
14538SOL     OW45054   4.337   3.227  10.036
14538SOL    HW145055   4.288   3.140  10.045
14538SOL    HW245056   4.314   3.270   9.949
14539SOL     OW45057   5.017   3.090  10.733
14539SOL    HW145058   5.054   3.017  10.675
14539SOL    HW245059   5.069   3.095  10.818
14540SOL     OW45060   4.533   1.866   9.812
14540SOL    HW145061   4.573   1.957   9.803
14540SOL    HW245062   4.433   1.874   9.818
14541SOL     OW45063   3.921   2.838  10.574
14541SOL    HW145064   4.010   2.793  10.560
14541SOL    HW245065   3.848   2.773  10.555
14542SOL     OW45066   5.249   2.861   9.500
14542SOL    HW145067   5.186   2.785   9.513
14542SOL    HW245068   5.297   2.879   9.586
14543SOL     OW45069   4.911   3.654  10.926
14543SOL    HW145070   4.935   3.714  10.850
14543SOL    HW245071   4.918   3.559  10.896
14544SOL     OW45072   4.041   2.113  11.111
14544SOL    HW145073   4.112   2.184  11.117
14544SOL    HW245074   3.953   2.152  11.139
14545SOL     OW45075   5.190   3.279  10.263
14545SOL    HW145076   5.131   3.285  10.343
14545SOL    HW245077   5.175   3.191  10.217
14546SOL     OW45078   5.391   3.576   9.882
14546SOL    HW145079   5.350   3.553   9.794
14546SOL    HW245080   5.373   3.502   9.947
14547SOL     OW45081   4.322   2.591   9.580
14547SOL    HW145082   4.346   2.660   9.512
14547SOL    HW245083   4.244   2.624   9.634
14548SOL     OW45084   5.005   2.207  10.254
14548SOL    HW145085   4.919   2.157  10.241
14548SOL    HW245086   5.067   2.153  10.310
14549SOL     OW45087   5.300   3.524   9.617
14549SOL    HW145088   5.389   3.570   9.620
14549SOL    HW245089   5.279   3.500   9.522
14550SOL     OW45090   4.531   2.467  10.775
14550SOL    HW145091   4.484   2.464  10.864
14550SOL    HW245092   4.480   2.412  10.709
14551SOL     OW45093   5.118   2.331  10.984
14551SOL    HW145094   5.098   2.374  11.072
14551SOL    HW245095   5.196   2.269  10.993
14552SOL     OW45096   4.697   2.752  10.882
14552SOL    HW145097   4.743   2.668  10.853
14552SOL    HW245098   4.641   2.786  10.807
14553SOL     OW45099   4.715   2.272  10.552
14553SOL    HW145100   4.638   2.306  10.606
14553SOL    HW245101   4.681   2.221  10.473
14554SOL     OW45102   4.765   2.563   9.739
14554SOL    HW145103   4.791   2.559   9.835
14554SOL    HW245104   4.680   2.512   9.725
14555SOL     OW45105   3.800   2.673  10.099
14555SOL    HW145106   3.899   2.661  10.108
14555SOL    HW245107   3.776   2.768  10.120
14556SOL     OW45108   3.854   3.683  10.881
14556SOL    HW145109   3.844   3.668  10.980
14556SOL    HW245110   3.768   3.719  10.845
14557SOL     OW45111   4.589   2.210   9.505
14557SOL    HW145112   4.648   2.273   9.456
14557SOL    HW245113   4.608   2.116   9.476
14558SOL     OW45114   5.443   2.447  11.141
14558SOL    HW145115   5.417   2.536  11.105
14558SOL    HW245116   5.441   2.379  11.068
14559SOL     OW45117   5.086   3.006   9.855
14559SOL    HW145118   5.169   2.977   9.807
14559SOL    HW245119   5.037   3.073   9.799
14560SOL     OW45120   4.274   2.058  10.195
14560SOL    HW145121   4.269   2.053  10.295
14560SOL    HW245122   4.276   2.154  10.166
14561SOL     OW45123   4.732   3.318   9.787
14561SOL    HW145124   4.686   3.390   9.735
14561SOL    HW245125   4.728   3.338   9.885
14562SOL     OW45126   4.075   3.663  10.163
14562SOL    HW145127   4.125   3.577  10.169
14562SOL    HW245128   4.140   3.740  10.160
14563SOL     OW45129   5.519   2.928  10.183
14563SOL    HW145130   5.457   2.913  10.107
14563SOL    HW245131   5.467   2.939  10.268
14564SOL     OW45132   4.951   3.412  10.816
14564SOL    HW145133   4.957   3.335  10.880
14564SOL    HW245134   4.899   3.386  10.736
14565SOL     OW45135   4.045   2.805   9.552
14565SOL    HW145136   4.127   2.844   9.510
14565SOL    HW245137   4.018   2.723   9.503
14566SOL     OW45138   5.182   2.597  10.038
14566SOL    HW145139   5.177   2.532  10.113
14566SOL    HW245140   5.262   2.656  10.051
14567SOL     OW45141   4.185   3.128  11.037
14567SOL    HW145142   4.135   3.129  10.951
14567SOL    HW245143   4.122   3.110  11.113
14568SOL     OW45144   3.926   2.147  10.808
14568SOL    HW145145   3.846   2.207  10.795
14568SOL    HW245146   3.916   2.098  10.894
14569SOL     OW45147   5.356   3.239   9.391
14569SOL    HW145148   5.324   3.333   9.381
14569SOL    HW245149   5.280   3.176   9.379
14570SOL     OW45150   5.124   1.969   9.736
14570SOL    HW145151   5.100   1.932   9.646
14570SOL    HW245152   5.223   1.985   9.740
14571SOL     OW45153   3.973   3.647  10.551
14571SOL    HW145154   4.030   3.582  10.601
14571SOL    HW245155   3.957   3.614  10.458
14572SOL     OW45156   4.664   3.560  10.214
14572SOL    HW145157   4.744   3.503  10.235
14572SOL    HW245158   4.615   3.520  10.137
14573SOL     OW45159   4.106   2.562   9.790
14573SOL    HW145160   4.151   2.472   9.787
14573SOL    HW245161   4.012   2.551   9.823
14574SOL     OW45162   5.271   2.084  11.039
14574SOL    HW145163   5.266   2.121  11.131
14574SOL    HW245164   5.199   2.015  11.027
14575SOL     OW45165   4.338   1.984   9.427
14575SOL    HW145166   4.436   1.962   9.434
14575SOL    HW245167   4.307   1.967   9.334
14576SOL     OW45168   4.505   2.126  11.059
14576SOL    HW145169   4.572   2.065  11.102
14576SOL    HW245170   4.432   2.145  11.124
14577SOL     OW45171   4.612   3.376  10.505
14577SOL    HW145172   4.589   3.351  10.411
14577SOL    HW245173   4.673   3.307  10.544
14578SOL     OW45174   5.075   2.452  10.743
14578SOL    HW145175   5.103   2.409  10.828
14578SOL    HW245176   5.100   2.548  10.744
14579SOL     OW45177   4.527   3.264  10.234
14579SOL    HW145178   4.617   3.278  10.192
14579SOL    HW245179   4.456   3.266  10.163
14580SOL     OW45180   4.646   2.365  10.209
14580SOL    HW145181   4.621   2.356  10.113
14580SOL    HW245182   4.694   2.283  10.240
14581SOL     OW45183   4.263   1.926   9.822
14581SOL    HW145184   4.182   1.927   9.880
14581SOL    HW245185   4.266   2.009   9.767
14582SOL     OW45186   5.158   3.050   9.351
14582SOL    HW145187   5.190   2.974   9.408
14582SOL    HW245188   5.066   3.077   9.381
14583SOL     OW45189   4.021   1.897   9.481
14583SOL    HW145190   4.070   1.981   9.460
14583SOL    HW245191   4.083   1.832   9.526
14584SOL     OW45192   4.659   2.098   9.790
14584SOL    HW145193   4.611   2.139   9.712
14584SOL    HW245194   4.758   2.096   9.771
14585SOL     OW45195   4.800   2.545  10.774
14585SOL    HW145196   4.720   2.484  10.777
14585SOL    HW245197   4.881   2.492  10.750
14586SOL     OW45198   4.951   3.432  10.103
14586SOL    HW145199   4.972   3.506  10.038
14586SOL    HW245200   5.019   3.432  10.176
14587SOL     OW45201   4.183   3.014  10.051
14587SOL    HW145202   4.112   2.987  10.116
14587SOL    HW245203   4.157   2.986   9.958
14588SOL     OW45204   4.995   3.659   9.901
14588SOL    HW145205   5.039   3.723   9.837
14588SOL    HW245206   4.945   3.711   9.971
14589SOL     OW45207   4.756   2.411   9.326
14589SOL    HW145208   4.715   2.493   9.287
14589SOL    HW245209   4.820   2.437   9.399
14590SOL     OW45210   3.802   2.418  10.696
14590SOL    HW145211   3.894   2.417  10.655
14590SOL    HW245212   3.796   2.492  10.763
14591SOL     OW45213   4.285   2.084  10.457
14591SOL    HW145214   4.323   2.000  10.494
14591SOL    HW245215   4.197   2.103  10.501
14592SOL     OW45216   4.590   2.316   9.952
14592SOL    HW145217   4.558   2.388   9.890
14592SOL    HW245218   4.614   2.235   9.899
14593SOL     OW45219   4.741   1.901  10.063
14593SOL    HW145220   4.669   1.906   9.994
14593SOL    HW245221   4.717   1.832  10.132
14594SOL     OW45222   5.153   3.035  10.177
14594SOL    HW145223   5.098   2.951  10.170
14594SOL    HW245224   5.179   3.064  10.085
14595SOL     OW45225   5.190   2.452  10.302
14595SOL    HW145226   5.160   2.357  10.309
14595SOL    HW245227   5.263   2.468  10.368
14596SOL     OW45228   5.581   2.695   9.687
14596SOL    HW145229   5.623   2.631   9.751
14596SOL    HW245230   5.543   2.644   9.609
14597SOL     OW45231   5.388   3.142   9.967
14597SOL    HW145232   5.487   3.150   9.981
14597SOL    HW245233   5.343   3.226   9.998
14598SOL     OW45234   5.114   2.437   9.388
14598SOL    HW145235   5.060   2.416   9.469
14598SOL    HW245236   5.205   2.396   9.397
14599SOL     OW45237   4.251   2.118   9.638
14599SOL    HW145238   4.278   2.059   9.563
14599SOL    HW245239   4.251   2.213   9.607
14600SOL     OW45240   5.478   3.085  10.898
14600SOL    HW145241   5.569   3.046  10.885
14600SOL    HW245242   5.486   3.181  10.922
14601SOL     OW45243   4.788   3.209  10.650
14601SOL    HW145244   4.708   3.186  10.705
14601SOL    HW245245   4.871   3.183  10.699
14602SOL     OW45246   5.316   3.491  10.935
14602SOL    HW145247   5.343   3.525  10.845
14602SOL    HW245248   5.395   3.453  10.981
14603SOL     OW45249   4.835   3.057  10.410
14603SOL    HW145250   4.795   3.101  10.491
14603SOL    HW245251   4.794   3.094  10.327
14604SOL     OW45252   5.362   2.961  10.389
14604SOL    HW145253   5.367   3.042  10.448
14604SOL    HW245254   5.276   2.963  10.338
14605SOL     OW45255   4.639   1.951  10.712
14605SOL    HW145256   4.664   1.931  10.617
14605SOL    HW245257   4.711   2.007  10.754
14606SOL     OW45258   4.704   2.978  11.029
14606SOL    HW145259   4.605   2.984  11.039
14606SOL    HW245260   4.727   2.898  10.973
14607SOL     OW45261   4.429   2.912   9.678
14607SOL    HW145262   4.415   2.919   9.777
14607SOL    HW245263   4.513   2.861   9.660
14608SOL     OW45264   4.134   2.675  10.561
14608SOL    HW145265   4.220   2.687  10.611
14608SOL    HW245266   4.092   2.588  10.588
14609SOL     OW45267   4.998   2.248  10.572
14609SOL    HW145268   5.019   2.322  10.636
14609SOL    HW245269   4.909   2.265  10.529
14610SOL     OW45270   3.788   3.426  10.641
14610SOL    HW145271   3.742   3.508  10.607
14610SOL    HW245272   3.886   3.445  10.650
14611SOL     OW45273   4.290   2.399  10.175
14611SOL    HW145274   4.302   2.465  10.101
14611SOL    HW245275   4.336   2.433  10.258
14612SOL     OW45276   4.976   3.210   9.698
14612SOL    HW145277   5.026   3.287   9.738
14612SOL    HW245278   4.881   3.212   9.730
14613SOL     OW45279   4.996   3.307  10.452
14613SOL    HW145280   5.043   3.320  10.539
14613SOL    HW245281   4.930   3.233  10.461
14614SOL     OW45282   5.306   2.501   9.782
14614SOL    HW145283   5.275   2.562   9.855
14614SOL    HW245284   5.356   2.553   9.713
14615SOL     OW45285   4.078   3.372  10.639
14615SOL    HW145286   4.057   3.328  10.552
14615SOL    HW245287   4.175   3.398  10.642
14616SOL     OW45288   4.126   2.613  10.908
14616SOL    HW145289   4.194   2.668  10.861
14616SOL    HW245290   4.166   2.525  10.935
14617SOL     OW45291   5.311   2.641  10.980
14617SOL    HW145292   5.219   2.679  10.975
14617SOL    HW245293   5.371   2.688  10.915
14618SOL     OW45294   4.737   1.967  11.080
14618SOL    HW145295   4.743   2.052  11.028
14618SOL    HW245296   4.769   1.891  11.023
14619SOL     OW45297   4.228   1.912  11.050
14619SOL    HW145298   4.186   1.855  10.980
14619SOL    HW245299   4.162   1.981  11.082
14620SOL     OW45300   4.297   2.732  10.339
14620SOL    HW145301   4.341   2.821  10.330
14620SOL    HW245302   4.234   2.732  10.416
14621SOL     OW45303   5.084   2.724  10.355
14621SOL    HW145304   5.009   2.724  10.289
14621SOL    HW245305   5.121   2.632  10.364
14622SOL     OW45306   4.933   2.387   9.585
14622SOL    HW145307   4.946   2.303   9.639
14622SOL    HW245308   4.904   2.461   9.645
14623SOL     OW45309   4.031   2.075  10.541
14623SOL    HW145310   4.008   2.112  10.631
14623SOL    HW245311   4.001   1.980  10.535
14624SOL     OW45312   3.761   3.172  10.592
14624SOL    HW145313   3.814   3.123  10.660
14624SOL    HW245314   3.783   3.270  10.597
14625SOL     OW45315   4.456   2.496  10.374
14625SOL    HW145316   4.515   2.470  10.298
14625SOL    HW245317   4.428   2.592  10.363
14626SOL     OW45318   5.452   2.797  11.164
14626SOL    HW145319   5.406   2.790  11.075
14626SOL    HW245320   5.390   2.841  11.230
14627SOL     OW45321   4.031   1.925   9.928
14627SOL    HW145322   4.020   2.019   9.961
14627SOL    HW245323   4.026   1.862  10.005
14628SOL     OW45324   5.346   2.229   9.684
14628SOL    HW145325   5.348   2.153   9.748
14628SOL    HW245326   5.298   2.306   9.724
14629SOL     OW45327   4.747   2.628  10.276
14629SOL    HW145328   4.762   2.649  10.372
14629SOL    HW245329   4.717   2.533  10.267
14630SOL     OW45330   4.704   3.435  11.010
14630SOL    HW145331   4.684   3.479  10.922
14630SOL    HW245332   4.743   3.344  10.994
14631SOL     OW45333   5.583   3.380  10.915
14631SOL    HW145334   5.597   3.407  10.820
14631SOL    HW245335   5.666   3.402  10.968
14632SOL     OW45336   4.074   2.760  11.114
14632SOL    HW145337   4.150   2.804  11.162
14632SOL    HW245338   4.109   2.713  11.032
14633SOL     OW45339   5.264   2.136   9.435
14633SOL    HW145340   5.203   2.061   9.458
14633SOL    HW245341   5.286   2.188   9.518
14634SOL     OW45342   5.027   2.700   9.352
14634SOL    HW145343   5.061   2.607   9.367
14634SOL    HW245344   5.045   2.727   9.257
14635SOL     OW45345   4.792   3.195  10.159
14635SOL    HW145346   4.799   3.111  10.104
14635SOL    HW245347   4.854   3.264  10.123
14636SOL     OW45348   4.043   2.672  10.259
14636SOL    HW145349   4.136   2.708  10.264
14636SOL    HW245350   4.037   2.587  10.311
14637SOL     OW45351   4.063   2.371  10.316
14637SOL    HW145352   4.011   2.288  10.299
14637SOL    HW245353   4.140   2.376  10.252
14638SOL     OW45354   4.862   2.242  10.988
14638SOL    HW145355   4.817   2.305  11.052
14638SOL    HW245356   4.955   2.273  10.971
14639SOL     OW45357   4.884   2.069  10.787
14639SOL    HW145358   4.884   2.133  10.864
14639SOL    HW245359   4.912   2.117  10.704
14640SOL     OW45360   3.812   3.663  10.237
14640SOL    HW145361   3.770   3.577  10.210
14640SOL    HW245362   3.906   3.666  10.203
14641SOL     OW45363   4.228   3.430  10.220
14641SOL    HW145364   4.294   3.504  10.229
14641SOL    HW245365   4.272   3.351  10.178
14642SOL     OW45366   4.726   2.658  10.548
14642SOL    HW145367   4.767   2.626  10.634
14642SOL    HW245368   4.630   2.631  10.545
14643SOL     OW45369   3.764   2.406  10.424
14643SOL    HW145370   3.849   2.373  10.383
14643SOL    HW245371   3.777   2.421  10.522
14644SOL     OW45372   3.913   2.382  11.032
14644SOL    HW145373   3.972   2.342  10.962
14644SOL    HW245374   3.855   2.453  10.991
14645SOL     OW45375   5.093   2.812  10.970
14645SOL    HW145376   5.132   2.901  10.990
14645SOL    HW245377   5.103   2.792  10.873
14646SOL     OW45378   4.539   2.434   9.635
14646SOL    HW145379   4.546   2.345   9.589
14646SOL    HW245380   4.445   2.468   9.627
14647SOL     OW45381   5.381   2.466  10.516
14647SOL    HW145382   5.343   2.397  10.578
14647SOL    HW245383   5.463   2.430  10.472
14648SOL     OW45384   3.976   3.426  11.054
14648SOL    HW145385   3.946   3.483  11.130
14648SOL    HW245386   3.969   3.329  11.080
14649SOL     OW45387   4.395   2.326  10.579
14649SOL    HW145388   4.361   2.237  10.549
14649SOL    HW245389   4.421   2.380  10.499
14650SOL     OW45390   4.654   3.540  10.775
14650SOL    HW145391   4.630   3.522  10.680
14650SOL    HW245392   4.684   3.634  10.785
14651SOL     OW45393   4.197   2.362   9.501
14651SOL    HW145394   4.258   2.442   9.505
14651SOL    HW245395   4.102   2.393   9.508
14652SOL     OW45396   3.883   2.999  10.776
14652SOL    HW145397   3.905   2.938  10.852
14652SOL    HW245398   3.893   2.950  10.690
14653SOL     OW45399   5.071   2.921  10.544
14653SOL    HW145400   5.095   2.858  10.470
14653SOL    HW245401   4.981   2.961  10.526
14654SOL     OW45402   5.026   2.717   9.619
14654SOL    HW145403   4.940   2.686   9.661
14654SOL    HW245404   5.022   2.703   9.520
14655SOL     OW45405   5.483   3.609  10.464
14655SOL    HW145406   5.544   3.639  10.391
14655SOL    HW245407   5.445   3.520  10.442
14656SOL     OW45408   4.976   3.593  10.438
14656SOL    HW145409   5.060   3.598  10.384
14656SOL    HW245410   4.953   3.497  10.456
14657SOL     OW45411   3.807   3.120  10.332
14657SOL    HW145412   3.802   3.119  10.432
14657SOL    HW245413   3.724   3.079  10.294
14658SOL     OW45414   4.412   3.524  11.026
14658SOL    HW145415   4.356   3.605  11.035
14658SOL    HW245416   4.464   3.528  10.940
14659SOL     OW45417   5.450   1.997   9.833
14659SOL    HW145418   5.523   1.980   9.766
14659SOL    HW245419   5.419   1.910   9.871
14660SOL     OW45420   5.112   3.435   9.787
14660SOL    HW145421   5.179   3.447   9.713
14660SOL    HW245422   5.072   3.524   9.810
14661SOL     OW45423   3.854   3.656  11.161
14661SOL    HW145424   3.813   3.582  11.214
14661SOL    HW245425   3.918   3.707  11.219
14662SOL     OW45426   5.004   2.789   9.982
14662SOL    HW145427   5.064   2.708   9.984
14662SOL    HW245428   5.044   2.858   9.922
14663SOL     OW45429   4.554   3.135  10.732
14663SOL    HW145430   4.549   3.168  10.827
14663SOL    HW245431   4.468   3.154  10.686
14664SOL     OW45432   5.374   3.582  10.704
14664SOL    HW145433   5.427   3.592  10.620
14664SOL    HW245434   5.347   3.672  10.738
14665SOL     OW45435   5.565   2.037  10.273
14665SOL    HW145436   5.604   1.952  10.237
14665SOL    HW245437   5.467   2.039  10.254
14666SOL     OW45438   3.987   2.188  10.030
14666SOL    HW145439   3.908   2.239   9.996
14666SOL    HW245440   3.978   2.173  10.128
14667SOL     OW45441   4.546   2.864  10.682
14667SOL    HW145442   4.586   2.863  10.590
14667SOL    HW245443   4.556   2.956  10.722
14668SOL     OW45444   4.640   2.772   9.601
14668SOL    HW145445   4.703   2.810   9.533
14668SOL    HW245446   4.680   2.689   9.640
14669SOL     OW45447   5.228   3.469   9.354
14669SOL    HW145448   5.136   3.506   9.361
14669SOL    HW245449   5.266   3.489   9.264
14670SOL     OW45450   4.096   3.150  10.800
14670SOL    HW145451   4.083   3.243  10.766
14670SOL    HW245452   4.012   3.098  10.787
14671SOL     OW45453   5.338   3.154  10.599
14671SOL    HW145454   5.398   3.157  10.679
14671SOL    HW245455   5.263   3.218  10.612
14672SOL     OW45456   4.763   2.960  10.006
14672SOL    HW145457   4.693   2.913  10.060
14672SOL    HW245458   4.822   2.892   9.963
14673SOL     OW45459   4.738   2.098  10.281
14673SOL    HW145460   4.730   2.062  10.188
14673SOL    HW245461   4.736   2.022  10.346
14674SOL     OW45462   4.314   3.349   9.801
14674SOL    HW145463   4.356   3.291   9.731
14674SOL    HW245464   4.270   3.428   9.757
14675SOL     OW45465   5.433   2.247  10.691
14675SOL    HW145466   5.506   2.316  10.695
14675SOL    HW245467   5.461   2.172  10.632
14676SOL     OW45468   3.829   2.875  11.036
14676SOL    HW145469   3.752   2.842  11.090
14676SOL    HW245470   3.914   2.845  11.078
14677SOL     OW45471   4.396   2.065  10.799
14677SOL    HW145472   4.486   2.049  10.759
14677SOL    HW245473   4.404   2.070  10.898
14678SOL     OW45474   3.799   2.207   9.343
14678SOL    HW145475   3.707   2.179   9.314
14678SOL    HW245476   3.830   2.284   9.287
14679SOL     OW45477   5.164   2.718  10.708
14679SOL    HW145478   5.107   2.770  10.645
14679SOL    HW245479   5.260   2.730  10.684
14680SOL     OW45480   3.796   2.028   9.628
14680SOL    HW145481   3.779   2.111   9.574
14680SOL    HW245482   3.886   1.991   9.606
14681SOL     OW45483   4.907   3.197   9.429
14681SOL    HW145484   4.808   3.186   9.431
14681SOL    HW245485   4.941   3.212   9.522
14682SOL     OW45486   4.337   2.704  10.741
14682SOL    HW145487   4.393   2.785  10.724
14682SOL    HW245488   4.396   2.624  10.744
14683SOL     OW45489   5.217   3.629  10.269
14683SOL    HW145490   5.250   3.693  10.200
14683SOL    HW245491   5.283   3.623  10.344
14684SOL     OW45492   4.440   2.427  11.018
14684SOL    HW145493   4.459   2.492  11.092
14684SOL    HW245494   4.500   2.347  11.027
14685SOL     OW45495   5.174   3.082  10.943
14685SOL    HW145496   5.165   3.072  11.042
14685SOL    HW245497   5.270   3.075  10.917
14686SOL     OW45498   4.114   3.603  10.870
14686SOL    HW145499   4.023   3.644  10.868
14686SOL    HW245500   4.107   3.509  10.902
14687SOL     OW45501   5.398   2.745  10.564
14687SOL    HW145502   5.371   2.656  10.527
14687SOL    HW245503   5.399   2.813  10.491
14688SOL     OW45504   4.949   2.187   9.759
14688SOL    HW145505   5.014   2.113   9.748
14688SOL    HW245506   4.969   2.237   9.843
14689SOL     OW45507   4.318   2.607   9.962
14689SOL    HW145508   4.368   2.692   9.943
14689SOL    HW245509   4.230   2.609   9.914
14690SOL     OW45510   5.501   2.204  10.952
14690SOL    HW145511   5.484   2.235  10.858
14690SOL    HW245512   5.417   2.167  10.990
14691SOL     OW45513   5.454   2.796  10.827
14691SOL    HW145514   5.492   2.887  10.842
14691SOL    HW245515   5.446   2.779  10.728
14692SOL     OW45516   4.385   3.652  10.263
14692SOL    HW145517   4.339   3.740  10.250
14692SOL    HW245518   4.484   3.664  10.256
14693SOL     OW45519   4.583   2.818  10.171
14693SOL    HW145520   4.637   2.749  10.219
14693SOL    HW245521   4.551   2.887  10.237
14694SOL     OW45522   4.807   2.846   9.397
14694SOL    HW145523   4.784   2.899   9.315
14694SOL    HW245524   4.888   2.790   9.378
14695SOL     OW45525   5.585   3.431  10.161
14695SOL    HW145526   5.514   3.419  10.091
14695SOL    HW245527   5.586   3.352  10.221
14696SOL     OW45528   3.945   3.176  11.154
14696SOL    HW145529   3.880   3.103  11.133
14696SOL    HW245530   3.949   3.190  11.252
14697SOL     OW45531   4.396   3.253  10.934
14697SOL    HW145532   4.318   3.203  10.972
14697SOL    HW245533   4.393   3.348  10.965
14698SOL     OW45534   5.548   2.054  10.537
14698SOL    HW145535   5.544   1.964  10.581
14698SOL    HW245536   5.551   2.043  10.438
14699SOL     OW45537   4.152   2.286   9.830
14699SOL    HW145538   4.182   2.214   9.768
14699SOL    HW245539   4.113   2.246   9.913
14700SOL     OW45540   5.429   3.349  10.414
14700SOL    HW145541   5.336   3.324  10.387
14700SOL    HW245542   5.455   3.299  10.496
14701SOL     OW45543   4.041   2.409  10.590
14701SOL    HW145544   4.079   2.350  10.662
14701SOL    HW245545   4.081   2.383  10.502
14702SOL     OW45546   4.536   3.448   9.997
14702SOL    HW145547   4.568   3.458   9.903
14702SOL    HW245548   4.457   3.386   9.999
14703SOL     OW45549   5.148   2.076  10.422
14703SOL    HW145550   5.200   2.011  10.477
14703SOL    HW245551   5.099   2.139  10.483
14704SOL     OW45552   4.725   1.896  10.464
14704SOL    HW145553   4.662   1.824  10.433
14704SOL    HW245554   4.818   1.860  10.464
14705SOL     OW45555   4.494   3.192   9.611
14705SOL    HW145556   4.448   3.105   9.628
14705SOL    HW245557   4.585   3.189   9.652
14706SOL     OW45558   4.342   3.429  10.594
14706SOL    HW145559   4.337   3.511  10.651
14706SOL    HW245560   4.431   3.426  10.549
14707SOL     OW45561   5.076   1.914   9.478
14707SOL    HW145562   5.111   1.873   9.394
14707SOL    HW245563   4.986   1.876   9.498
14708SOL     OW45564   5.024   2.315  10.001
14708SOL    HW145565   4.965   2.395  10.005
14708SOL    HW245566   5.039   2.280  10.094
14709SOL     OW45567   5.317   2.083  10.192
14709SOL    HW145568   5.233   2.082  10.246
14709SOL    HW245569   5.319   2.166  10.136
14710SOL     OW45570   3.954   2.490  11.285
14710SOL    HW145571   3.861   2.488  11.322
14710SOL    HW245572   3.955   2.451  11.193
14711SOL     OW45573   3.949   2.137  12.168
14711SOL    HW145574   3.984   2.120  12.260
14711SOL    HW245575   3.861   2.092  12.156
14712SOL     OW45576   3.743   2.230  11.819
14712SOL    HW145577   3.661   2.273  11.858
14712SOL    HW245578   3.715   2.157  11.756
14713SOL     OW45579   4.293   3.137  12.337
14713SOL    HW145580   4.200   3.130  12.300
14713SOL    HW245581   4.304   3.226  12.381
14714SOL     OW45582   5.279   3.373  11.875
14714SOL    HW145583   5.222   3.357  11.956
14714SOL    HW245584   5.220   3.383  11.795
14715SOL     OW45585   4.859   2.565  11.889
14715SOL    HW145586   4.916   2.643  11.864
14715SOL    HW245587   4.799   2.591  11.965
14716SOL     OW45588   5.479   2.469  11.403
14716SOL    HW145589   5.467   2.456  11.304
14716SOL    HW245590   5.449   2.388  11.452
14717SOL     OW45591   4.492   3.006  12.195
14717SOL    HW145592   4.414   3.023  12.255
14717SOL    HW245593   4.526   3.093  12.159
14718SOL     OW45594   4.409   2.874  11.837
14718SOL    HW145595   4.478   2.858  11.907
14718SOL    HW245596   4.336   2.931  11.875
14719SOL     OW45597   4.059   3.297  12.233
14719SOL    HW145598   3.981   3.266  12.180
14719SOL    HW245599   4.117   3.355  12.176
14720SOL     OW45600   5.327   2.309  11.909
14720SOL    HW145601   5.253   2.355  11.859
14720SOL    HW245602   5.378   2.377  11.962
14721SOL     OW45603   3.955   3.575  11.655
14721SOL    HW145604   3.989   3.652  11.709
14721SOL    HW245605   3.999   3.575  11.565
14722SOL     OW45606   3.954   3.296  11.710
14722SOL    HW145607   3.928   3.392  11.710
14722SOL    HW245608   3.883   3.242  11.755
14723SOL     OW45609   3.964   2.953  12.058
14723SOL    HW145610   3.978   2.869  12.110
14723SOL    HW245611   3.909   3.017  12.113
14724SOL     OW45612   4.330   2.826  11.295
14724SOL    HW145613   4.337   2.910  11.241
14724SOL    HW245614   4.376   2.839  11.383
14725SOL     OW45615   3.846   2.505  11.735
14725SOL    HW145616   3.801   2.417  11.752
14725SOL    HW245617   3.845   2.559  11.819
14726SOL     OW45618   5.566   3.629  11.531
14726SOL    HW145619   5.620   3.600  11.611
14726SOL    HW245620   5.596   3.719  11.502
14727SOL     OW45621   3.751   3.458  11.289
14727SOL    HW145622   3.732   3.362  11.310
14727SOL    HW245623   3.718   3.516  11.364
14728SOL     OW45624   5.413   2.784  11.784
14728SOL    HW145625   5.508   2.755  11.792
14728SOL    HW245626   5.405   2.849  11.709
14729SOL     OW45627   5.365   2.970  11.604
14729SOL    HW145628   5.451   2.972  11.552
14729SOL    HW245629   5.379   3.017  11.692
14730SOL     OW45630   3.837   2.599  12.769
14730SOL    HW145631   3.925   2.586  12.814
14730SOL    HW245632   3.824   2.696  12.747
14731SOL     OW45633   4.337   3.227  11.898
14731SOL    HW145634   4.288   3.140  11.907
14731SOL    HW245635   4.314   3.270  11.811
14732SOL     OW45636   4.533   1.866  11.674
14732SOL    HW145637   4.573   1.957  11.665
14732SOL    HW245638   4.433   1.874  11.680
14733SOL     OW45639   3.921   2.838  12.436
14733SOL    HW145640   4.010   2.793  12.422
14733SOL    HW245641   3.848   2.773  12.417
14734SOL     OW45642   5.249   2.861  11.362
14734SOL    HW145643   5.186   2.785  11.375
14734SOL    HW245644   5.297   2.879  11.448
14735SOL     OW45645   5.190   3.279  12.125
14735SOL    HW145646   5.131   3.285  12.205
14735SOL    HW245647   5.175   3.191  12.079
14736SOL     OW45648   5.391   3.576  11.744
14736SOL    HW145649   5.350   3.553  11.656
14736SOL    HW245650   5.373   3.502  11.809
14737SOL     OW45651   4.322   2.591  11.442
14737SOL    HW145652   4.346   2.660  11.374
14737SOL    HW245653   4.244   2.624  11.496
14738SOL     OW45654   5.005   2.207  12.116
14738SOL    HW145655   4.919   2.157  12.103
14738SOL    HW245656   5.067   2.153  12.172
14739SOL     OW45657   5.300   3.524  11.479
14739SOL    HW145658   5.389   3.570  11.482
14739SOL    HW245659   5.279   3.500  11.384
14740SOL     OW45660   4.715   2.272  12.414
14740SOL    HW145661   4.638   2.306  12.468
14740SOL    HW245662   4.681   2.221  12.335
14741SOL     OW45663   4.765   2.563  11.601
14741SOL    HW145664   4.791   2.559  11.697
14741SOL    HW245665   4.680   2.512  11.587
14742SOL     OW45666   3.800   2.673  11.961
14742SOL    HW145667   3.899   2.661  11.970
14742SOL    HW245668   3.776   2.768  11.982
14743SOL     OW45669   4.589   2.210  11.367
14743SOL    HW145670   4.648   2.273  11.318
14743SOL    HW245671   4.608   2.116  11.338
14744SOL     OW45672   5.086   3.006  11.717
14744SOL    HW145673   5.169   2.977  11.669
14744SOL    HW245674   5.037   3.073  11.661
14745SOL     OW45675   4.274   2.058  12.057
14745SOL    HW145676   4.269   2.053  12.157
14745SOL    HW245677   4.276   2.154  12.028
14746SOL     OW45678   4.732   3.318  11.649
14746SOL    HW145679   4.686   3.390  11.597
14746SOL    HW245680   4.728   3.338  11.747
14747SOL     OW45681   4.075   3.663  12.025
14747SOL    HW145682   4.125   3.577  12.031
14747SOL    HW245683   4.140   3.740  12.022
14748SOL     OW45684   5.519   2.928  12.045
14748SOL    HW145685   5.457   2.913  11.969
14748SOL    HW245686   5.467   2.939  12.130
14749SOL     OW45687   4.045   2.805  11.414
14749SOL    HW145688   4.127   2.844  11.372
14749SOL    HW245689   4.018   2.723  11.365
14750SOL     OW45690   5.182   2.597  11.900
14750SOL    HW145691   5.177   2.532  11.975
14750SOL    HW245692   5.262   2.656  11.913
14751SOL     OW45693   4.835   3.638  11.409
14751SOL    HW145694   4.775   3.576  11.459
14751SOL    HW245695   4.866   3.594  11.324
14752SOL     OW45696   5.356   3.239  11.253
14752SOL    HW145697   5.324   3.333  11.243
14752SOL    HW245698   5.280   3.176  11.241
14753SOL     OW45699   4.188   3.605  11.495
14753SOL    HW145700   4.221   3.644  11.581
14753SOL    HW245701   4.264   3.598  11.430
14754SOL     OW45702   5.124   1.969  11.598
14754SOL    HW145703   5.100   1.932  11.508
14754SOL    HW245704   5.223   1.985  11.602
14755SOL     OW45705   3.973   3.647  12.413
14755SOL    HW145706   4.030   3.582  12.463
14755SOL    HW245707   3.957   3.614  12.320
14756SOL     OW45708   4.664   3.560  12.076
14756SOL    HW145709   4.744   3.503  12.097
14756SOL    HW245710   4.615   3.520  11.999
14757SOL     OW45711   4.106   2.562  11.652
14757SOL    HW145712   4.151   2.472  11.649
14757SOL    HW245713   4.012   2.551  11.685
14758SOL     OW45714   4.338   1.984  11.289
14758SOL    HW145715   4.436   1.962  11.296
14758SOL    HW245716   4.307   1.967  11.196
14759SOL     OW45717   4.527   3.264  12.096
14759SOL    HW145718   4.617   3.278  12.054
14759SOL    HW245719   4.456   3.266  12.025
14760SOL     OW45720   4.646   2.365  12.071
14760SOL    HW145721   4.621   2.356  11.975
14760SOL    HW245722   4.694   2.283  12.102
14761SOL     OW45723   4.263   1.926  11.684
14761SOL    HW145724   4.182   1.927  11.742
14761SOL    HW245725   4.266   2.009  11.629
14762SOL     OW45726   5.158   3.050  11.213
14762SOL    HW145727   5.190   2.974  11.270
14762SOL    HW245728   5.066   3.077  11.243
14763SOL     OW45729   4.021   1.897  11.343
14763SOL    HW145730   4.070   1.981  11.322
14763SOL    HW245731   4.083   1.832  11.388
14764SOL     OW45732   4.659   2.098  11.652
14764SOL    HW145733   4.611   2.139  11.574
14764SOL    HW245734   4.758   2.096  11.633
14765SOL     OW45735   4.951   3.432  11.965
14765SOL    HW145736   4.972   3.506  11.900
14765SOL    HW245737   5.019   3.432  12.038
14766SOL     OW45738   4.183   3.014  11.913
14766SOL    HW145739   4.112   2.987  11.978
14766SOL    HW245740   4.157   2.986  11.820
14767SOL     OW45741   4.995   3.659  11.763
14767SOL    HW145742   5.039   3.723  11.699
14767SOL    HW245743   4.945   3.711  11.833
14768SOL     OW45744   4.756   2.411  11.188
14768SOL    HW145745   4.715   2.493  11.149
14768SOL    HW245746   4.820   2.437  11.261
14769SOL     OW45747   4.285   2.084  12.319
14769SOL    HW145748   4.323   2.000  12.356
14769SOL    HW245749   4.197   2.103  12.363
14770SOL     OW45750   4.590   2.316  11.814
14770SOL    HW145751   4.558   2.388  11.752
14770SOL    HW245752   4.614   2.235  11.761
14771SOL     OW45753   4.741   1.901  11.925
14771SOL    HW145754   4.669   1.906  11.856
14771SOL    HW245755   4.717   1.832  11.994
14772SOL     OW45756   5.153   3.035  12.039
14772SOL    HW145757   5.098   2.951  12.032
14772SOL    HW245758   5.179   3.064  11.947
14773SOL     OW45759   5.190   2.452  12.164
14773SOL    HW145760   5.160   2.357  12.171
14773SOL    HW245761   5.263   2.468  12.230
14774SOL     OW45762   5.581   2.695  11.549
14774SOL    HW145763   5.623   2.631  11.613
14774SOL    HW245764   5.543   2.644  11.471
14775SOL     OW45765   4.212   3.247  11.346
14775SOL    HW145766   4.125   3.232  11.393
14775SOL    HW245767   4.195   3.273  11.251
14776SOL     OW45768   5.388   3.142  11.829
14776SOL    HW145769   5.487   3.150  11.843
14776SOL    HW245770   5.343   3.226  11.860
14777SOL     OW45771   5.114   2.437  11.250
14777SOL    HW145772   5.060   2.416  11.331
14777SOL    HW245773   5.205   2.396  11.259
14778SOL     OW45774   4.251   2.118  11.500
14778SOL    HW145775   4.278   2.059  11.425
14778SOL    HW245776   4.251   2.213  11.469
14779SOL     OW45777   4.835   3.057  12.272
14779SOL    HW145778   4.795   3.101  12.353
14779SOL    HW245779   4.794   3.094  12.189
14780SOL     OW45780   5.362   2.961  12.251
14780SOL    HW145781   5.367   3.042  12.310
14780SOL    HW245782   5.276   2.963  12.200
14781SOL     OW45783   4.429   2.912  11.540
14781SOL    HW145784   4.415   2.919  11.639
14781SOL    HW245785   4.513   2.861  11.522
14782SOL     OW45786   4.134   2.675  12.423
14782SOL    HW145787   4.220   2.687  12.473
14782SOL    HW245788   4.092   2.588  12.450
14783SOL     OW45789   4.998   2.248  12.434
14783SOL    HW145790   5.019   2.322  12.498
14783SOL    HW245791   4.909   2.265  12.391
14784SOL     OW45792   4.091   2.962  11.673
14784SOL    HW145793   4.084   3.045  11.617
14784SOL    HW245794   4.095   2.882  11.613
14785SOL     OW45795   4.290   2.399  12.037
14785SOL    HW145796   4.302   2.465  11.963
14785SOL    HW245797   4.336   2.433  12.120
14786SOL     OW45798   4.976   3.210  11.560
14786SOL    HW145799   5.026   3.287  11.600
14786SOL    HW245800   4.881   3.212  11.592
14787SOL     OW45801   4.996   3.307  12.314
14787SOL    HW145802   5.043   3.320  12.401
14787SOL    HW245803   4.930   3.233  12.323
14788SOL     OW45804   5.306   2.501  11.644
14788SOL    HW145805   5.275   2.562  11.717
14788SOL    HW245806   5.356   2.553  11.575
14789SOL     OW45807   4.078   3.372  12.501
14789SOL    HW145808   4.057   3.328  12.414
14789SOL    HW245809   4.175   3.398  12.504
14790SOL     OW45810   4.297   2.732  12.201
14790SOL    HW145811   4.341   2.821  12.192
14790SOL    HW245812   4.234   2.732  12.278
14791SOL     OW45813   5.084   2.724  12.217
14791SOL    HW145814   5.009   2.724  12.151
14791SOL    HW245815   5.121   2.632  12.226
14792SOL     OW45816   4.933   2.387  11.447
14792SOL    HW145817   4.946   2.303  11.501
14792SOL    HW245818   4.904   2.461  11.507
14793SOL     OW45819   4.031   2.075  12.403
14793SOL    HW145820   4.008   2.112  12.493
14793SOL    HW245821   4.001   1.980  12.397
14794SOL     OW45822   3.761   3.172  12.454
14794SOL    HW145823   3.814   3.123  12.522
14794SOL    HW245824   3.783   3.270  12.459
14795SOL     OW45825   4.456   2.496  12.236
14795SOL    HW145826   4.515   2.470  12.160
14795SOL    HW245827   4.428   2.592  12.225
14796SOL     OW45828   4.031   1.925  11.790
14796SOL    HW145829   4.020   2.019  11.823
14796SOL    HW245830   4.026   1.862  11.867
14797SOL     OW45831   5.346   2.229  11.546
14797SOL    HW145832   5.348   2.153  11.610
14797SOL    HW245833   5.298   2.306  11.586
14798SOL     OW45834   4.747   2.628  12.138
14798SOL    HW145835   4.762   2.649  12.234
14798SOL    HW245836   4.717   2.533  12.129
14799SOL     OW45837   5.264   2.136  11.297
14799SOL    HW145838   5.203   2.061  11.320
14799SOL    HW245839   5.286   2.188  11.380
14800SOL     OW45840   5.027   2.700  11.214
14800SOL    HW145841   5.061   2.607  11.229
14800SOL    HW245842   5.045   2.727  11.119
14801SOL     OW45843   4.792   3.195  12.021
14801SOL    HW145844   4.799   3.111  11.966
14801SOL    HW245845   4.854   3.264  11.985
14802SOL     OW45846   4.043   2.672  12.121
14802SOL    HW145847   4.136   2.708  12.126
14802SOL    HW245848   4.037   2.587  12.173
14803SOL     OW45849   4.063   2.371  12.178
14803SOL    HW145850   4.011   2.288  12.161
14803SOL    HW245851   4.140   2.376  12.114
14804SOL     OW45852   4.884   2.069  12.649
14804SOL    HW145853   4.884   2.133  12.726
14804SOL    HW245854   4.912   2.117  12.566
14805SOL     OW45855   3.732   3.188  11.372
14805SOL    HW145856   3.639   3.209  11.341
14805SOL    HW245857   3.742   3.089  11.385
14806SOL     OW45858   3.812   3.663  12.099
14806SOL    HW145859   3.770   3.577  12.072
14806SOL    HW245860   3.906   3.666  12.065
14807SOL     OW45861   4.228   3.430  12.082
14807SOL    HW145862   4.294   3.504  12.091
14807SOL    HW245863   4.272   3.351  12.040
14808SOL     OW45864   4.726   2.658  12.410
14808SOL    HW145865   4.767   2.626  12.496
14808SOL    HW245866   4.630   2.631  12.407
14809SOL     OW45867   3.764   2.406  12.286
14809SOL    HW145868   3.849   2.373  12.245
14809SOL    HW245869   3.777   2.421  12.384
14810SOL     OW45870   4.539   2.434  11.497
14810SOL    HW145871   4.546   2.345  11.451
14810SOL    HW245872   4.445   2.468  11.489
14811SOL     OW45873   5.381   2.466  12.378
14811SOL    HW145874   5.343   2.397  12.440
14811SOL    HW245875   5.463   2.430  12.334
14812SOL     OW45876   4.395   2.326  12.441
14812SOL    HW145877   4.361   2.237  12.411
14812SOL    HW245878   4.421   2.380  12.361
14813SOL     OW45879   4.654   3.540  12.637
14813SOL    HW145880   4.630   3.522  12.542
14813SOL    HW245881   4.684   3.634  12.647
14814SOL     OW45882   4.197   2.362  11.363
14814SOL    HW145883   4.258   2.442  11.367
14814SOL    HW245884   4.102   2.393  11.370
14815SOL     OW45885   5.071   2.921  12.406
14815SOL    HW145886   5.095   2.858  12.332
14815SOL    HW245887   4.981   2.961  12.388
14816SOL     OW45888   5.026   2.717  11.481
14816SOL    HW145889   4.940   2.686  11.523
14816SOL    HW245890   5.022   2.703  11.382
14817SOL     OW45891   5.483   3.609  12.326
14817SOL    HW145892   5.544   3.639  12.253
14817SOL    HW245893   5.445   3.520  12.304
14818SOL     OW45894   4.976   3.593  12.300
14818SOL    HW145895   5.060   3.598  12.246
14818SOL    HW245896   4.953   3.497  12.318
14819SOL     OW45897   3.807   3.120  12.194
14819SOL    HW145898   3.802   3.119  12.294
14819SOL    HW245899   3.724   3.079  12.156
14820SOL     OW45900   5.450   1.997  11.695
14820SOL    HW145901   5.523   1.980  11.628
14820SOL    HW245902   5.419   1.910  11.733
14821SOL     OW45903   5.112   3.435  11.649
14821SOL    HW145904   5.179   3.447  11.575
14821SOL    HW245905   5.072   3.524  11.672
14822SOL     OW45906   5.004   2.789  11.844
14822SOL    HW145907   5.064   2.708  11.846
14822SOL    HW245908   5.044   2.858  11.784
14823SOL     OW45909   4.396   3.478  11.326
14823SOL    HW145910   4.405   3.488  11.227
14823SOL    HW245911   4.356   3.389  11.347
14824SOL     OW45912   5.374   3.582  12.566
14824SOL    HW145913   5.427   3.592  12.482
14824SOL    HW245914   5.347   3.672  12.600
14825SOL     OW45915   5.565   2.037  12.135
14825SOL    HW145916   5.604   1.952  12.099
14825SOL    HW245917   5.467   2.039  12.116
14826SOL     OW45918   3.987   2.188  11.892
14826SOL    HW145919   3.908   2.239  11.858
14826SOL    HW245920   3.978   2.173  11.990
14827SOL     OW45921   4.918   3.474  11.203
14827SOL    HW145922   4.924   3.381  11.240
14827SOL    HW245923   4.859   3.474  11.123
14828SOL     OW45924   4.546   2.864  12.544
14828SOL    HW145925   4.586   2.863  12.452
14828SOL    HW245926   4.556   2.956  12.584
14829SOL     OW45927   4.640   2.772  11.463
14829SOL    HW145928   4.703   2.810  11.395
14829SOL    HW245929   4.680   2.689  11.502
14830SOL     OW45930   5.228   3.469  11.216
14830SOL    HW145931   5.136   3.506  11.223
14830SOL    HW245932   5.266   3.489  11.126
14831SOL     OW45933   4.763   2.960  11.868
14831SOL    HW145934   4.693   2.913  11.922
14831SOL    HW245935   4.822   2.892  11.825
14832SOL     OW45936   4.738   2.098  12.143
14832SOL    HW145937   4.730   2.062  12.050
14832SOL    HW245938   4.736   2.022  12.208
14833SOL     OW45939   4.314   3.349  11.663
14833SOL    HW145940   4.356   3.291  11.593
14833SOL    HW245941   4.270   3.428  11.619
14834SOL     OW45942   5.433   2.247  12.553
14834SOL    HW145943   5.506   2.316  12.557
14834SOL    HW245944   5.461   2.172  12.494
14835SOL     OW45945   3.979   3.210  11.462
14835SOL    HW145946   3.883   3.211  11.435
14835SOL    HW245947   3.991   3.263  11.546
14836SOL     OW45948   3.799   2.207  11.205
14836SOL    HW145949   3.707   2.179  11.176
14836SOL    HW245950   3.830   2.284  11.149
14837SOL     OW45951   3.796   2.028  11.490
14837SOL    HW145952   3.779   2.111  11.436
14837SOL    HW245953   3.886   1.991  11.468
14838SOL     OW45954   4.907   3.197  11.291
14838SOL    HW145955   4.808   3.186  11.293
14838SOL    HW245956   4.941   3.212  11.384
14839SOL     OW45957   5.217   3.629  12.131
14839SOL    HW145958   5.250   3.693  12.062
14839SOL    HW245959   5.283   3.623  12.206
14840SOL     OW45960   5.398   2.745  12.426
14840SOL    HW145961   5.371   2.656  12.389
14840SOL    HW245962   5.399   2.813  12.353
14841SOL     OW45963   4.949   2.187  11.621
14841SOL    HW145964   5.014   2.113  11.610
14841SOL    HW245965   4.969   2.237  11.705
14842SOL     OW45966   4.318   2.607  11.824
14842SOL    HW145967   4.368   2.692  11.805
14842SOL    HW245968   4.230   2.609  11.776
14843SOL     OW45969   5.454   2.796  12.689
14843SOL    HW145970   5.492   2.887  12.704
14843SOL    HW245971   5.446   2.779  12.590
14844SOL     OW45972   4.583   3.236  11.188
14844SOL    HW145973   4.537   3.251  11.276
14844SOL    HW245974   4.627   3.321  11.158
14845SOL     OW45975   4.385   3.652  12.125
14845SOL    HW145976   4.339   3.740  12.112
14845SOL    HW245977   4.484   3.664  12.118
14846SOL     OW45978   4.583   2.818  12.033
14846SOL    HW145979   4.637   2.749  12.081
14846SOL    HW245980   4.551   2.887  12.099
14847SOL     OW45981   4.807   2.846  11.259
14847SOL    HW145982   4.784   2.899  11.177
14847SOL    HW245983   4.888   2.790  11.240
14848SOL     OW45984   5.585   3.431  12.023
14848SOL    HW145985   5.514   3.419  11.953
14848SOL    HW245986   5.586   3.352  12.083
14849SOL     OW45987   3.803   3.102  11.825
14849SOL    HW145988   3.802   3.055  11.913
14849SOL    HW245989   3.885   3.074  11.774
14850SOL     OW45990   5.548   2.054  12.399
14850SOL    HW145991   5.544   1.964  12.443
14850SOL    HW245992   5.551   2.043  12.300
14851SOL     OW45993   4.152   2.286  11.692
14851SOL    HW145994   4.182   2.214  11.630
14851SOL    HW245995   4.113   2.246  11.775
14852SOL     OW45996   5.429   3.349  12.276
14852SOL    HW145997   5.336   3.324  12.249
14852SOL    HW245998   5.455   3.299  12.358
14853SOL     OW45999   4.536   3.448  11.859
14853SOL    HW146000   4.568   3.458  11.765
14853SOL    HW246001   4.457   3.386  11.861
14854SOL     OW46002   5.148   2.076  12.284
14854SOL    HW146003   5.200   2.011  12.339
14854SOL    HW246004   5.099   2.139  12.345
14855SOL     OW46005   4.725   1.896  12.326
14855SOL    HW146006   4.662   1.824  12.295
14855SOL    HW246007   4.818   1.860  12.326
14856SOL     OW46008   4.494   3.192  11.473
14856SOL    HW146009   4.448   3.105  11.490
14856SOL    HW246010   4.585   3.189  11.514
14857SOL     OW46011   5.076   1.914  11.340
14857SOL    HW146012   5.111   1.873  11.256
14857SOL    HW246013   4.986   1.876  11.360
14858SOL     OW46014   5.024   2.315  11.863
14858SOL    HW146015   4.965   2.395  11.867
14858SOL    HW246016   5.039   2.280  11.956
14859SOL     OW46017   5.317   2.083  12.054
14859SOL    HW146018   5.233   2.082  12.108
14859SOL    HW246019   5.319   2.166  11.998
14860SOL     OW46020   3.763   2.939  11.472
14860SOL    HW146021   3.862   2.928  11.463
14860SOL    HW246022   3.723   2.853  11.504
14861SOL     OW46023   4.599   3.508  11.509
14861SOL    HW146024   4.522   3.473  11.455
14861SOL    HW246025   4.567   3.579  11.571
14862SOL     OW46026   3.954   4.352   0.113
14862SOL    HW146027   3.861   4.350   0.150
14862SOL    HW246028   3.955   4.313   0.021
14863SOL     OW46029   3.949   3.999   0.996
14863SOL    HW146030   3.984   3.982   1.088
14863SOL    HW246031   3.861   3.954   0.984
14864SOL     OW46032   3.743   4.092   0.647
14864SOL    HW146033   3.661   4.135   0.686
14864SOL    HW246034   3.715   4.019   0.584
14865SOL     OW46035   4.293   4.999   1.165
14865SOL    HW146036   4.200   4.992   1.128
14865SOL    HW246037   4.304   5.088   1.209
14866SOL     OW46038   5.279   5.235   0.703
14866SOL    HW146039   5.222   5.219   0.784
14866SOL    HW246040   5.220   5.245   0.623
14867SOL     OW46041   4.859   4.427   0.717
14867SOL    HW146042   4.916   4.505   0.692
14867SOL    HW246043   4.799   4.453   0.793
14868SOL     OW46044   5.479   4.331   0.231
14868SOL    HW146045   5.467   4.318   0.132
14868SOL    HW246046   5.449   4.250   0.280
14869SOL     OW46047   4.492   4.868   1.023
14869SOL    HW146048   4.414   4.885   1.083
14869SOL    HW246049   4.526   4.955   0.987
14870SOL     OW46050   4.574   4.522   1.823
14870SOL    HW146051   4.570   4.598   1.888
14870SOL    HW246052   4.596   4.558   1.732
14871SOL     OW46053   4.409   4.736   0.665
14871SOL    HW146054   4.478   4.720   0.735
14871SOL    HW246055   4.336   4.793   0.703
14872SOL     OW46056   4.410   4.885   1.803
14872SOL    HW146057   4.470   4.964   1.817
14872SOL    HW246058   4.324   4.916   1.762
14873SOL     OW46059   4.059   5.159   1.061
14873SOL    HW146060   3.981   5.128   1.008
14873SOL    HW246061   4.117   5.217   1.004
14874SOL     OW46062   5.184   5.229   1.339
14874SOL    HW146063   5.208   5.323   1.365
14874SOL    HW246064   5.168   5.175   1.421
14875SOL     OW46065   4.162   4.116   1.499
14875SOL    HW146066   4.244   4.060   1.508
14875SOL    HW246067   4.081   4.058   1.503
14876SOL     OW46068   5.327   4.171   0.737
14876SOL    HW146069   5.253   4.217   0.687
14876SOL    HW246070   5.378   4.239   0.790
14877SOL     OW46071   3.955   5.437   0.483
14877SOL    HW146072   3.989   5.514   0.537
14877SOL    HW246073   3.999   5.437   0.393
14878SOL     OW46074   4.851   5.065   1.690
14878SOL    HW146075   4.898   5.065   1.778
14878SOL    HW246076   4.803   4.978   1.679
14879SOL     OW46077   3.954   5.158   0.538
14879SOL    HW146078   3.928   5.254   0.538
14879SOL    HW246079   3.883   5.104   0.583
14880SOL     OW46080   3.964   4.815   0.886
14880SOL    HW146081   3.978   4.731   0.938
14880SOL    HW246082   3.909   4.879   0.941
14881SOL     OW46083   4.344   5.510   1.439
14881SOL    HW146084   4.252   5.493   1.474
14881SOL    HW246085   4.372   5.602   1.465
14882SOL     OW46086   4.330   4.688   0.123
14882SOL    HW146087   4.337   4.772   0.069
14882SOL    HW246088   4.376   4.701   0.211
14883SOL     OW46089   5.318   3.838   1.480
14883SOL    HW146090   5.300   3.905   1.408
14883SOL    HW246091   5.315   3.884   1.569
14884SOL     OW46092   3.846   4.367   0.563
14884SOL    HW146093   3.801   4.279   0.580
14884SOL    HW246094   3.845   4.421   0.647
14885SOL     OW46095   5.566   5.491   0.359
14885SOL    HW146096   5.620   5.462   0.439
14885SOL    HW246097   5.596   5.581   0.330
14886SOL     OW46098   3.751   5.320   0.117
14886SOL    HW146099   3.732   5.224   0.138
14886SOL    HW246100   3.718   5.378   0.192
14887SOL     OW46101   5.413   4.646   0.612
14887SOL    HW146102   5.508   4.617   0.620
14887SOL    HW246103   5.405   4.711   0.537
14888SOL     OW46104   5.365   4.832   0.432
14888SOL    HW146105   5.451   4.834   0.380
14888SOL    HW246106   5.379   4.879   0.520
14889SOL     OW46107   3.837   4.461   1.597
14889SOL    HW146108   3.925   4.448   1.642
14889SOL    HW246109   3.824   4.558   1.575
14890SOL     OW46110   4.337   5.089   0.726
14890SOL    HW146111   4.288   5.002   0.735
14890SOL    HW246112   4.314   5.132   0.639
14891SOL     OW46113   5.017   4.952   1.423
14891SOL    HW146114   5.054   4.879   1.365
14891SOL    HW246115   5.069   4.957   1.508
14892SOL     OW46116   4.533   3.728   0.502
14892SOL    HW146117   4.573   3.819   0.493
14892SOL    HW246118   4.433   3.736   0.508
14893SOL     OW46119   3.921   4.700   1.264
14893SOL    HW146120   4.010   4.655   1.250
14893SOL    HW246121   3.848   4.635   1.245
14894SOL     OW46122   5.249   4.723   0.190
14894SOL    HW146123   5.186   4.647   0.203
14894SOL    HW246124   5.297   4.741   0.276
14895SOL     OW46125   4.911   5.516   1.616
14895SOL    HW146126   4.935   5.576   1.540
14895SOL    HW246127   4.918   5.421   1.586
14896SOL     OW46128   4.041   3.975   1.801
14896SOL    HW146129   4.112   4.046   1.807
14896SOL    HW246130   3.953   4.014   1.829
14897SOL     OW46131   5.190   5.141   0.953
14897SOL    HW146132   5.131   5.147   1.033
14897SOL    HW246133   5.175   5.053   0.907
14898SOL     OW46134   5.391   5.438   0.572
14898SOL    HW146135   5.350   5.415   0.484
14898SOL    HW246136   5.373   5.364   0.637
14899SOL     OW46137   4.322   4.453   0.270
14899SOL    HW146138   4.346   4.522   0.202
14899SOL    HW246139   4.244   4.486   0.324
14900SOL     OW46140   5.005   4.069   0.944
14900SOL    HW146141   4.919   4.019   0.931
14900SOL    HW246142   5.067   4.015   1.000
14901SOL     OW46143   5.300   5.386   0.307
14901SOL    HW146144   5.389   5.432   0.310
14901SOL    HW246145   5.279   5.362   0.212
14902SOL     OW46146   4.531   4.329   1.465
14902SOL    HW146147   4.484   4.326   1.554
14902SOL    HW246148   4.480   4.274   1.399
14903SOL     OW46149   5.118   4.193   1.674
14903SOL    HW146150   5.098   4.236   1.762
14903SOL    HW246151   5.196   4.131   1.683
14904SOL     OW46152   4.697   4.614   1.572
14904SOL    HW146153   4.743   4.530   1.543
14904SOL    HW246154   4.641   4.648   1.497
14905SOL     OW46155   4.715   4.134   1.242
14905SOL    HW146156   4.638   4.168   1.296
14905SOL    HW246157   4.681   4.083   1.163
14906SOL     OW46158   4.765   4.425   0.429
14906SOL    HW146159   4.791   4.421   0.525
14906SOL    HW246160   4.680   4.374   0.415
14907SOL     OW46161   3.800   4.535   0.789
14907SOL    HW146162   3.899   4.523   0.798
14907SOL    HW246163   3.776   4.630   0.810
14908SOL     OW46164   3.854   5.545   1.571
14908SOL    HW146165   3.844   5.530   1.670
14908SOL    HW246166   3.768   5.581   1.535
14909SOL     OW46167   4.589   4.072   0.195
14909SOL    HW146168   4.648   4.135   0.146
14909SOL    HW246169   4.608   3.978   0.166
14910SOL     OW46170   5.443   4.309   1.831
14910SOL    HW146171   5.417   4.398   1.795
14910SOL    HW246172   5.441   4.241   1.758
14911SOL     OW46173   5.086   4.868   0.545
14911SOL    HW146174   5.169   4.839   0.497
14911SOL    HW246175   5.037   4.935   0.489
14912SOL     OW46176   4.274   3.920   0.885
14912SOL    HW146177   4.269   3.915   0.985
14912SOL    HW246178   4.276   4.016   0.856
14913SOL     OW46179   4.732   5.180   0.477
14913SOL    HW146180   4.686   5.252   0.425
14913SOL    HW246181   4.728   5.200   0.575
14914SOL     OW46182   4.075   5.525   0.853
14914SOL    HW146183   4.125   5.439   0.859
14914SOL    HW246184   4.140   5.602   0.850
14915SOL     OW46185   5.519   4.790   0.873
14915SOL    HW146186   5.457   4.775   0.797
14915SOL    HW246187   5.467   4.801   0.958
14916SOL     OW46188   4.951   5.274   1.506
14916SOL    HW146189   4.957   5.197   1.570
14916SOL    HW246190   4.899   5.248   1.426
14917SOL     OW46191   4.045   4.667   0.242
14917SOL    HW146192   4.127   4.706   0.200
14917SOL    HW246193   4.018   4.585   0.193
14918SOL     OW46194   5.182   4.459   0.728
14918SOL    HW146195   5.177   4.394   0.803
14918SOL    HW246196   5.262   4.518   0.741
14919SOL     OW46197   4.185   4.990   1.727
14919SOL    HW146198   4.135   4.991   1.641
14919SOL    HW246199   4.122   4.972   1.803
14920SOL     OW46200   4.835   5.500   0.237
14920SOL    HW146201   4.775   5.438   0.287
14920SOL    HW246202   4.866   5.456   0.152
14921SOL     OW46203   3.926   4.009   1.498
14921SOL    HW146204   3.846   4.069   1.485
14921SOL    HW246205   3.916   3.960   1.584
14922SOL     OW46206   5.356   5.101   0.081
14922SOL    HW146207   5.324   5.195   0.071
14922SOL    HW246208   5.280   5.038   0.069
14923SOL     OW46209   4.188   5.467   0.323
14923SOL    HW146210   4.221   5.506   0.409
14923SOL    HW246211   4.264   5.460   0.258
14924SOL     OW46212   5.124   3.831   0.426
14924SOL    HW146213   5.100   3.794   0.336
14924SOL    HW246214   5.223   3.847   0.430
14925SOL     OW46215   3.973   5.509   1.241
14925SOL    HW146216   4.030   5.444   1.291
14925SOL    HW246217   3.957   5.476   1.148
14926SOL     OW46218   4.664   5.422   0.904
14926SOL    HW146219   4.744   5.365   0.925
14926SOL    HW246220   4.615   5.382   0.827
14927SOL     OW46221   4.106   4.424   0.480
14927SOL    HW146222   4.151   4.334   0.477
14927SOL    HW246223   4.012   4.413   0.513
14928SOL     OW46224   5.271   3.946   1.729
14928SOL    HW146225   5.266   3.983   1.821
14928SOL    HW246226   5.199   3.877   1.717
14929SOL     OW46227   4.338   3.846   0.117
14929SOL    HW146228   4.436   3.824   0.124
14929SOL    HW246229   4.307   3.829   0.024
14930SOL     OW46230   4.505   3.988   1.749
14930SOL    HW146231   4.572   3.927   1.792
14930SOL    HW246232   4.432   4.007   1.814
14931SOL     OW46233   4.612   5.238   1.195
14931SOL    HW146234   4.589   5.213   1.101
14931SOL    HW246235   4.673   5.169   1.234
14932SOL     OW46236   5.075   4.314   1.433
14932SOL    HW146237   5.103   4.271   1.518
14932SOL    HW246238   5.100   4.410   1.434
14933SOL     OW46239   4.527   5.126   0.924
14933SOL    HW146240   4.617   5.140   0.882
14933SOL    HW246241   4.456   5.128   0.853
14934SOL     OW46242   4.646   4.227   0.899
14934SOL    HW146243   4.621   4.218   0.803
14934SOL    HW246244   4.694   4.145   0.930
14935SOL     OW46245   4.263   3.788   0.512
14935SOL    HW146246   4.182   3.789   0.570
14935SOL    HW246247   4.266   3.871   0.457
14936SOL     OW46248   5.158   4.912   0.041
14936SOL    HW146249   5.190   4.836   0.098
14936SOL    HW246250   5.066   4.939   0.071
14937SOL     OW46251   4.021   3.759   0.171
14937SOL    HW146252   4.070   3.843   0.150
14937SOL    HW246253   4.083   3.694   0.216
14938SOL     OW46254   4.659   3.960   0.480
14938SOL    HW146255   4.611   4.001   0.402
14938SOL    HW246256   4.758   3.958   0.461
14939SOL     OW46257   4.800   4.407   1.464
14939SOL    HW146258   4.720   4.346   1.467
14939SOL    HW246259   4.881   4.354   1.440
14940SOL     OW46260   4.951   5.294   0.793
14940SOL    HW146261   4.972   5.368   0.728
14940SOL    HW246262   5.019   5.294   0.866
14941SOL     OW46263   4.183   4.876   0.741
14941SOL    HW146264   4.112   4.849   0.806
14941SOL    HW246265   4.157   4.848   0.648
14942SOL     OW46266   4.995   5.521   0.591
14942SOL    HW146267   5.039   5.585   0.527
14942SOL    HW246268   4.945   5.573   0.661
14943SOL     OW46269   4.756   4.273   0.016
14943SOL    HW146270   4.715   4.355  -0.023
14943SOL    HW246271   4.820   4.299   0.089
14944SOL     OW46272   3.802   4.280   1.386
14944SOL    HW146273   3.894   4.279   1.345
14944SOL    HW246274   3.796   4.354   1.453
14945SOL     OW46275   4.285   3.946   1.147
14945SOL    HW146276   4.323   3.862   1.184
14945SOL    HW246277   4.197   3.965   1.191
14946SOL     OW46278   4.590   4.178   0.642
14946SOL    HW146279   4.558   4.250   0.580
14946SOL    HW246280   4.614   4.097   0.589
14947SOL     OW46281   4.741   3.763   0.753
14947SOL    HW146282   4.669   3.768   0.684
14947SOL    HW246283   4.717   3.694   0.822
14948SOL     OW46284   5.153   4.897   0.867
14948SOL    HW146285   5.098   4.813   0.860
14948SOL    HW246286   5.179   4.926   0.775
14949SOL     OW46287   5.190   4.314   0.992
14949SOL    HW146288   5.160   4.219   0.999
14949SOL    HW246289   5.263   4.330   1.058
14950SOL     OW46290   5.581   4.557   0.377
14950SOL    HW146291   5.623   4.493   0.441
14950SOL    HW246292   5.543   4.506   0.299
14951SOL     OW46293   4.212   5.109   0.174
14951SOL    HW146294   4.125   5.094   0.221
14951SOL    HW246295   4.195   5.135   0.079
14952SOL     OW46296   5.388   5.004   0.657
14952SOL    HW146297   5.487   5.012   0.671
14952SOL    HW246298   5.343   5.088   0.688
14953SOL     OW46299   5.114   4.299   0.078
14953SOL    HW146300   5.060   4.278   0.159
14953SOL    HW246301   5.205   4.258   0.087
14954SOL     OW46302   4.251   3.980   0.328
14954SOL    HW146303   4.278   3.921   0.253
14954SOL    HW246304   4.251   4.075   0.297
14955SOL     OW46305   5.478   4.947   1.588
14955SOL    HW146306   5.569   4.908   1.575
14955SOL    HW246307   5.486   5.043   1.612
14956SOL     OW46308   4.788   5.071   1.340
14956SOL    HW146309   4.708   5.048   1.395
14956SOL    HW246310   4.871   5.045   1.389
14957SOL     OW46311   5.316   5.353   1.625
14957SOL    HW146312   5.343   5.387   1.535
14957SOL    HW246313   5.395   5.315   1.671
14958SOL     OW46314   4.835   4.919   1.100
14958SOL    HW146315   4.795   4.963   1.181
14958SOL    HW246316   4.794   4.956   1.017
14959SOL     OW46317   5.362   4.823   1.079
14959SOL    HW146318   5.367   4.904   1.138
14959SOL    HW246319   5.276   4.825   1.028
14960SOL     OW46320   4.639   3.813   1.402
14960SOL    HW146321   4.664   3.793   1.307
14960SOL    HW246322   4.711   3.869   1.444
14961SOL     OW46323   4.704   4.840   1.719
14961SOL    HW146324   4.605   4.846   1.729
14961SOL    HW246325   4.727   4.760   1.663
14962SOL     OW46326   4.429   4.774   0.368
14962SOL    HW146327   4.415   4.781   0.467
14962SOL    HW246328   4.513   4.723   0.350
14963SOL     OW46329   4.134   4.537   1.251
14963SOL    HW146330   4.220   4.549   1.301
14963SOL    HW246331   4.092   4.450   1.278
14964SOL     OW46332   4.998   4.110   1.262
14964SOL    HW146333   5.019   4.184   1.326
14964SOL    HW246334   4.909   4.127   1.219
14965SOL     OW46335   3.788   5.288   1.331
14965SOL    HW146336   3.742   5.370   1.297
14965SOL    HW246337   3.886   5.307   1.340
14966SOL     OW46338   4.091   4.824   0.501
14966SOL    HW146339   4.084   4.907   0.445
14966SOL    HW246340   4.095   4.744   0.441
14967SOL     OW46341   4.290   4.261   0.865
14967SOL    HW146342   4.302   4.327   0.791
14967SOL    HW246343   4.336   4.295   0.948
14968SOL     OW46344   4.976   5.072   0.388
14968SOL    HW146345   5.026   5.149   0.428
14968SOL    HW246346   4.881   5.074   0.420
14969SOL     OW46347   4.996   5.169   1.142
14969SOL    HW146348   5.043   5.182   1.229
14969SOL    HW246349   4.930   5.095   1.151
14970SOL     OW46350   5.306   4.363   0.472
14970SOL    HW146351   5.275   4.424   0.545
14970SOL    HW246352   5.356   4.415   0.403
14971SOL     OW46353   4.078   5.234   1.329
14971SOL    HW146354   4.057   5.190   1.242
14971SOL    HW246355   4.175   5.260   1.332
14972SOL     OW46356   4.126   4.475   1.598
14972SOL    HW146357   4.194   4.530   1.551
14972SOL    HW246358   4.166   4.387   1.625
14973SOL     OW46359   5.311   4.503   1.670
14973SOL    HW146360   5.219   4.541   1.665
14973SOL    HW246361   5.371   4.550   1.605
14974SOL     OW46362   4.737   3.829   1.770
14974SOL    HW146363   4.743   3.914   1.718
14974SOL    HW246364   4.769   3.753   1.713
14975SOL     OW46365   4.228   3.774   1.740
14975SOL    HW146366   4.186   3.717   1.670
14975SOL    HW246367   4.162   3.843   1.772
14976SOL     OW46368   4.297   4.594   1.029
14976SOL    HW146369   4.341   4.683   1.020
14976SOL    HW246370   4.234   4.594   1.106
14977SOL     OW46371   5.084   4.586   1.045
14977SOL    HW146372   5.009   4.586   0.979
14977SOL    HW246373   5.121   4.494   1.054
14978SOL     OW46374   4.933   4.249   0.275
14978SOL    HW146375   4.946   4.165   0.329
14978SOL    HW246376   4.904   4.323   0.335
14979SOL     OW46377   4.031   3.937   1.231
14979SOL    HW146378   4.008   3.974   1.321
14979SOL    HW246379   4.001   3.842   1.225
14980SOL     OW46380   3.761   5.034   1.282
14980SOL    HW146381   3.814   4.985   1.350
14980SOL    HW246382   3.783   5.132   1.287
14981SOL     OW46383   4.456   4.358   1.064
14981SOL    HW146384   4.515   4.332   0.988
14981SOL    HW246385   4.428   4.454   1.053
14982SOL     OW46386   5.452   4.659   1.854
14982SOL    HW146387   5.406   4.652   1.765
14982SOL    HW246388   5.390   4.703   1.920
14983SOL     OW46389   4.031   3.787   0.618
14983SOL    HW146390   4.020   3.881   0.651
14983SOL    HW246391   4.026   3.724   0.695
14984SOL     OW46392   5.346   4.091   0.374
14984SOL    HW146393   5.348   4.015   0.438
14984SOL    HW246394   5.298   4.168   0.414
14985SOL     OW46395   4.747   4.490   0.966
14985SOL    HW146396   4.762   4.511   1.062
14985SOL    HW246397   4.717   4.395   0.957
14986SOL     OW46398   4.704   5.297   1.700
14986SOL    HW146399   4.684   5.341   1.612
14986SOL    HW246400   4.743   5.206   1.684
14987SOL     OW46401   5.583   5.242   1.605
14987SOL    HW146402   5.597   5.269   1.510
14987SOL    HW246403   5.666   5.264   1.658
14988SOL     OW46404   4.074   4.622   1.804
14988SOL    HW146405   4.150   4.666   1.852
14988SOL    HW246406   4.109   4.575   1.722
14989SOL     OW46407   5.264   3.998   0.125
14989SOL    HW146408   5.203   3.923   0.148
14989SOL    HW246409   5.286   4.050   0.208
14990SOL     OW46410   5.027   4.562   0.042
14990SOL    HW146411   5.061   4.469   0.057
14990SOL    HW246412   5.045   4.589  -0.053
14991SOL     OW46413   4.792   5.057   0.849
14991SOL    HW146414   4.799   4.973   0.794
14991SOL    HW246415   4.854   5.126   0.813
14992SOL     OW46416   4.043   4.534   0.949
14992SOL    HW146417   4.136   4.570   0.954
14992SOL    HW246418   4.037   4.449   1.001
14993SOL     OW46419   4.063   4.233   1.006
14993SOL    HW146420   4.011   4.150   0.989
14993SOL    HW246421   4.140   4.238   0.942
14994SOL     OW46422   4.862   4.104   1.678
14994SOL    HW146423   4.817   4.167   1.742
14994SOL    HW246424   4.955   4.135   1.661
14995SOL     OW46425   4.884   3.931   1.477
14995SOL    HW146426   4.884   3.995   1.554
14995SOL    HW246427   4.912   3.979   1.394
14996SOL     OW46428   3.812   5.525   0.927
14996SOL    HW146429   3.770   5.439   0.900
14996SOL    HW246430   3.906   5.528   0.893
14997SOL     OW46431   4.228   5.292   0.910
14997SOL    HW146432   4.294   5.366   0.919
14997SOL    HW246433   4.272   5.213   0.868
14998SOL     OW46434   4.726   4.520   1.238
14998SOL    HW146435   4.767   4.488   1.324
14998SOL    HW246436   4.630   4.493   1.235
14999SOL     OW46437   3.764   4.268   1.114
14999SOL    HW146438   3.849   4.235   1.073
14999SOL    HW246439   3.777   4.283   1.212
15000SOL     OW46440   3.913   4.244   1.722
15000SOL    HW146441   3.972   4.204   1.652
15000SOL    HW246442   3.855   4.315   1.681
15001SOL     OW46443   5.093   4.674   1.660
15001SOL    HW146444   5.132   4.763   1.680
15001SOL    HW246445   5.103   4.654   1.563
15002SOL     OW46446   4.539   4.296   0.325
15002SOL    HW146447   4.546   4.207   0.279
15002SOL    HW246448   4.445   4.330   0.317
15003SOL     OW46449   5.381   4.328   1.206
15003SOL    HW146450   5.343   4.259   1.268
15003SOL    HW246451   5.463   4.292   1.162
15004SOL     OW46452   3.976   5.288   1.744
15004SOL    HW146453   3.946   5.345   1.820
15004SOL    HW246454   3.969   5.191   1.770
15005SOL     OW46455   4.395   4.188   1.269
15005SOL    HW146456   4.361   4.099   1.239
15005SOL    HW246457   4.421   4.242   1.189
15006SOL     OW46458   4.654   5.402   1.465
15006SOL    HW146459   4.630   5.384   1.370
15006SOL    HW246460   4.684   5.496   1.475
15007SOL     OW46461   4.197   4.224   0.191
15007SOL    HW146462   4.258   4.304   0.195
15007SOL    HW246463   4.102   4.255   0.198
15008SOL     OW46464   3.883   4.861   1.466
15008SOL    HW146465   3.905   4.800   1.542
15008SOL    HW246466   3.893   4.812   1.380
15009SOL     OW46467   5.071   4.783   1.234
15009SOL    HW146468   5.095   4.720   1.160
15009SOL    HW246469   4.981   4.823   1.216
15010SOL     OW46470   5.026   4.579   0.309
15010SOL    HW146471   4.940   4.548   0.351
15010SOL    HW246472   5.022   4.565   0.210
15011SOL     OW46473   5.483   5.471   1.154
15011SOL    HW146474   5.544   5.501   1.081
15011SOL    HW246475   5.445   5.382   1.132
15012SOL     OW46476   4.976   5.455   1.128
15012SOL    HW146477   5.060   5.460   1.074
15012SOL    HW246478   4.953   5.359   1.146
15013SOL     OW46479   3.807   4.982   1.022
15013SOL    HW146480   3.802   4.981   1.122
15013SOL    HW246481   3.724   4.941   0.984
15014SOL     OW46482   4.412   5.386   1.716
15014SOL    HW146483   4.356   5.467   1.725
15014SOL    HW246484   4.464   5.390   1.630
15015SOL     OW46485   4.627   3.810   0.133
15015SOL    HW146486   4.678   3.811   0.047
15015SOL    HW246487   4.683   3.768   0.204
15016SOL     OW46488   5.450   3.859   0.523
15016SOL    HW146489   5.523   3.842   0.456
15016SOL    HW246490   5.419   3.772   0.561
15017SOL     OW46491   5.112   5.297   0.477
15017SOL    HW146492   5.179   5.309   0.403
15017SOL    HW246493   5.072   5.386   0.500
15018SOL     OW46494   3.854   5.518   1.851
15018SOL    HW146495   3.813   5.444   1.904
15018SOL    HW246496   3.918   5.569   1.909
15019SOL     OW46497   5.004   4.651   0.672
15019SOL    HW146498   5.064   4.570   0.674
15019SOL    HW246499   5.044   4.720   0.612
15020SOL     OW46500   4.554   4.997   1.422
15020SOL    HW146501   4.549   5.030   1.517
15020SOL    HW246502   4.468   5.016   1.376
15021SOL     OW46503   4.396   5.340   0.154
15021SOL    HW146504   4.405   5.350   0.055
15021SOL    HW246505   4.356   5.251   0.175
15022SOL     OW46506   5.374   5.444   1.394
15022SOL    HW146507   5.427   5.454   1.310
15022SOL    HW246508   5.347   5.534   1.428
15023SOL     OW46509   5.565   3.899   0.963
15023SOL    HW146510   5.604   3.814   0.927
15023SOL    HW246511   5.467   3.901   0.944
15024SOL     OW46512   3.987   4.050   0.720
15024SOL    HW146513   3.908   4.101   0.686
15024SOL    HW246514   3.978   4.035   0.818
15025SOL     OW46515   4.918   5.336   0.031
15025SOL    HW146516   4.924   5.243   0.068
15025SOL    HW246517   4.859   5.336  -0.049
15026SOL     OW46518   4.546   4.726   1.372
15026SOL    HW146519   4.586   4.725   1.280
15026SOL    HW246520   4.556   4.818   1.412
15027SOL     OW46521   4.640   4.634   0.291
15027SOL    HW146522   4.703   4.672   0.223
15027SOL    HW246523   4.680   4.551   0.330
15028SOL     OW46524   5.228   5.331   0.044
15028SOL    HW146525   5.136   5.368   0.051
15028SOL    HW246526   5.266   5.351  -0.046
15029SOL     OW46527   4.096   5.012   1.490
15029SOL    HW146528   4.083   5.105   1.456
15029SOL    HW246529   4.012   4.960   1.477
15030SOL     OW46530   5.338   5.016   1.289
15030SOL    HW146531   5.398   5.019   1.369
15030SOL    HW246532   5.263   5.080   1.302
15031SOL     OW46533   4.763   4.822   0.696
15031SOL    HW146534   4.693   4.775   0.750
15031SOL    HW246535   4.822   4.754   0.653
15032SOL     OW46536   4.738   3.960   0.971
15032SOL    HW146537   4.730   3.924   0.878
15032SOL    HW246538   4.736   3.884   1.036
15033SOL     OW46539   4.314   5.211   0.491
15033SOL    HW146540   4.356   5.153   0.421
15033SOL    HW246541   4.270   5.290   0.447
15034SOL     OW46542   5.433   4.109   1.381
15034SOL    HW146543   5.506   4.178   1.385
15034SOL    HW246544   5.461   4.034   1.322
15035SOL     OW46545   3.979   5.072   0.290
15035SOL    HW146546   3.883   5.073   0.263
15035SOL    HW246547   3.991   5.125   0.374
15036SOL     OW46548   3.829   4.737   1.726
15036SOL    HW146549   3.752   4.704   1.780
15036SOL    HW246550   3.914   4.707   1.768
15037SOL     OW46551   4.396   3.927   1.489
15037SOL    HW146552   4.486   3.911   1.449
15037SOL    HW246553   4.404   3.932   1.588
15038SOL     OW46554   5.164   4.580   1.398
15038SOL    HW146555   5.107   4.632   1.335
15038SOL    HW246556   5.260   4.592   1.374
15039SOL     OW46557   3.796   3.890   0.318
15039SOL    HW146558   3.779   3.973   0.264
15039SOL    HW246559   3.886   3.853   0.296
15040SOL     OW46560   4.907   5.059   0.119
15040SOL    HW146561   4.808   5.048   0.121
15040SOL    HW246562   4.941   5.074   0.212
15041SOL     OW46563   4.337   4.566   1.431
15041SOL    HW146564   4.393   4.647   1.414
15041SOL    HW246565   4.396   4.486   1.434
15042SOL     OW46566   5.217   5.491   0.959
15042SOL    HW146567   5.250   5.555   0.890
15042SOL    HW246568   5.283   5.485   1.034
15043SOL     OW46569   4.440   4.289   1.708
15043SOL    HW146570   4.459   4.354   1.782
15043SOL    HW246571   4.500   4.209   1.717
15044SOL     OW46572   5.174   4.944   1.633
15044SOL    HW146573   5.165   4.934   1.732
15044SOL    HW246574   5.270   4.937   1.607
15045SOL     OW46575   4.114   5.465   1.560
15045SOL    HW146576   4.023   5.506   1.558
15045SOL    HW246577   4.107   5.371   1.592
15046SOL     OW46578   5.398   4.607   1.254
15046SOL    HW146579   5.371   4.518   1.217
15046SOL    HW246580   5.399   4.675   1.181
15047SOL     OW46581   4.949   4.049   0.449
15047SOL    HW146582   5.014   3.975   0.438
15047SOL    HW246583   4.969   4.099   0.533
15048SOL     OW46584   4.318   4.469   0.652
15048SOL    HW146585   4.368   4.554   0.633
15048SOL    HW246586   4.230   4.471   0.604
15049SOL     OW46587   5.501   4.066   1.642
15049SOL    HW146588   5.484   4.097   1.548
15049SOL    HW246589   5.417   4.029   1.680
15050SOL     OW46590   5.454   4.658   1.517
15050SOL    HW146591   5.492   4.749   1.532
15050SOL    HW246592   5.446   4.641   1.418
15051SOL     OW46593   4.583   5.098   0.016
15051SOL    HW146594   4.537   5.113   0.104
15051SOL    HW246595   4.627   5.183  -0.014
15052SOL     OW46596   4.385   5.514   0.953
15052SOL    HW146597   4.339   5.602   0.940
15052SOL    HW246598   4.484   5.526   0.946
15053SOL     OW46599   4.583   4.680   0.861
15053SOL    HW146600   4.637   4.611   0.909
15053SOL    HW246601   4.551   4.749   0.927
15054SOL     OW46602   4.807   4.708   0.087
15054SOL    HW146603   4.784   4.761   0.005
15054SOL    HW246604   4.888   4.652   0.068
15055SOL     OW46605   5.585   5.293   0.851
15055SOL    HW146606   5.514   5.281   0.781
15055SOL    HW246607   5.586   5.214   0.911
15056SOL     OW46608   3.945   5.038   1.844
15056SOL    HW146609   3.880   4.965   1.823
15056SOL    HW246610   3.949   5.052   1.942
15057SOL     OW46611   3.803   4.964   0.653
15057SOL    HW146612   3.802   4.917   0.741
15057SOL    HW246613   3.885   4.936   0.602
15058SOL     OW46614   4.396   5.115   1.624
15058SOL    HW146615   4.318   5.065   1.662
15058SOL    HW246616   4.393   5.210   1.655
15059SOL     OW46617   5.548   3.916   1.227
15059SOL    HW146618   5.544   3.826   1.271
15059SOL    HW246619   5.551   3.905   1.128
15060SOL     OW46620   4.152   4.148   0.520
15060SOL    HW146621   4.182   4.076   0.458
15060SOL    HW246622   4.113   4.108   0.603
15061SOL     OW46623   5.429   5.211   1.104
15061SOL    HW146624   5.336   5.186   1.077
15061SOL    HW246625   5.455   5.161   1.186
15062SOL     OW46626   4.041   4.271   1.280
15062SOL    HW146627   4.079   4.212   1.352
15062SOL    HW246628   4.081   4.245   1.192
15063SOL     OW46629   4.536   5.310   0.687
15063SOL    HW146630   4.568   5.320   0.593
15063SOL    HW246631   4.457   5.248   0.689
15064SOL     OW46632   5.148   3.938   1.112
15064SOL    HW146633   5.200   3.873   1.167
15064SOL    HW246634   5.099   4.001   1.173
15065SOL     OW46635   4.725   3.758   1.154
15065SOL    HW146636   4.662   3.686   1.123
15065SOL    HW246637   4.818   3.722   1.154
15066SOL     OW46638   4.494   5.054   0.301
15066SOL    HW146639   4.448   4.967   0.318
15066SOL    HW246640   4.585   5.051   0.342
15067SOL     OW46641   4.342   5.291   1.284
15067SOL    HW146642   4.337   5.373   1.341
15067SOL    HW246643   4.431   5.288   1.239
15068SOL     OW46644   5.076   3.776   0.168
15068SOL    HW146645   5.111   3.735   0.084
15068SOL    HW246646   4.986   3.738   0.188
15069SOL     OW46647   5.024   4.177   0.691
15069SOL    HW146648   4.965   4.257   0.695
15069SOL    HW246649   5.039   4.142   0.784
15070SOL     OW46650   5.317   3.945   0.882
15070SOL    HW146651   5.233   3.944   0.936
15070SOL    HW246652   5.319   4.028   0.826
15071SOL     OW46653   3.763   4.801   0.300
15071SOL    HW146654   3.862   4.790   0.291
15071SOL    HW246655   3.723   4.715   0.332
15072SOL     OW46656   4.599   5.370   0.337
15072SOL    HW146657   4.522   5.335   0.283
15072SOL    HW246658   4.567   5.441   0.399
15073SOL     OW46659   3.954   4.352   1.975
15073SOL    HW146660   3.861   4.350   2.012
15073SOL    HW246661   3.955   4.313   1.883
15074SOL     OW46662   3.949   3.999   2.858
15074SOL    HW146663   3.984   3.982   2.950
15074SOL    HW246664   3.861   3.954   2.846
15075SOL     OW46665   3.743   4.092   2.509
15075SOL    HW146666   3.661   4.135   2.548
15075SOL    HW246667   3.715   4.019   2.446
15076SOL     OW46668   4.293   4.999   3.027
15076SOL    HW146669   4.200   4.992   2.990
15076SOL    HW246670   4.304   5.088   3.071
15077SOL     OW46671   5.279   5.235   2.565
15077SOL    HW146672   5.222   5.219   2.646
15077SOL    HW246673   5.220   5.245   2.485
15078SOL     OW46674   4.859   4.427   2.579
15078SOL    HW146675   4.916   4.505   2.554
15078SOL    HW246676   4.799   4.453   2.655
15079SOL     OW46677   5.479   4.331   2.093
15079SOL    HW146678   5.467   4.318   1.994
15079SOL    HW246679   5.449   4.250   2.142
15080SOL     OW46680   4.492   4.868   2.885
15080SOL    HW146681   4.414   4.885   2.945
15080SOL    HW246682   4.526   4.955   2.849
15081SOL     OW46683   4.409   4.736   2.527
15081SOL    HW146684   4.478   4.720   2.597
15081SOL    HW246685   4.336   4.793   2.565
15082SOL     OW46686   4.059   5.159   2.923
15082SOL    HW146687   3.981   5.128   2.870
15082SOL    HW246688   4.117   5.217   2.866
15083SOL     OW46689   5.184   5.229   3.201
15083SOL    HW146690   5.208   5.323   3.227
15083SOL    HW246691   5.168   5.175   3.283
15084SOL     OW46692   5.327   4.171   2.599
15084SOL    HW146693   5.253   4.217   2.549
15084SOL    HW246694   5.378   4.239   2.652
15085SOL     OW46695   3.955   5.437   2.345
15085SOL    HW146696   3.989   5.514   2.399
15085SOL    HW246697   3.999   5.437   2.255
15086SOL     OW46698   4.851   5.065   3.552
15086SOL    HW146699   4.898   5.065   3.640
15086SOL    HW246700   4.803   4.978   3.541
15087SOL     OW46701   3.954   5.158   2.400
15087SOL    HW146702   3.928   5.254   2.400
15087SOL    HW246703   3.883   5.104   2.445
15088SOL     OW46704   3.964   4.815   2.748
15088SOL    HW146705   3.978   4.731   2.800
15088SOL    HW246706   3.909   4.879   2.803
15089SOL     OW46707   4.344   5.510   3.301
15089SOL    HW146708   4.252   5.493   3.336
15089SOL    HW246709   4.372   5.602   3.327
15090SOL     OW46710   4.330   4.688   1.985
15090SOL    HW146711   4.337   4.772   1.931
15090SOL    HW246712   4.376   4.701   2.073
15091SOL     OW46713   5.318   3.838   3.342
15091SOL    HW146714   5.300   3.905   3.270
15091SOL    HW246715   5.315   3.884   3.431
15092SOL     OW46716   3.846   4.367   2.425
15092SOL    HW146717   3.801   4.279   2.442
15092SOL    HW246718   3.845   4.421   2.509
15093SOL     OW46719   5.566   5.491   2.221
15093SOL    HW146720   5.620   5.462   2.301
15093SOL    HW246721   5.596   5.581   2.192
15094SOL     OW46722   3.751   5.320   1.979
15094SOL    HW146723   3.732   5.224   2.000
15094SOL    HW246724   3.718   5.378   2.054
15095SOL     OW46725   5.413   4.646   2.474
15095SOL    HW146726   5.508   4.617   2.482
15095SOL    HW246727   5.405   4.711   2.399
15096SOL     OW46728   5.365   4.832   2.294
15096SOL    HW146729   5.451   4.834   2.242
15096SOL    HW246730   5.379   4.879   2.382
15097SOL     OW46731   3.837   4.461   3.459
15097SOL    HW146732   3.925   4.448   3.504
15097SOL    HW246733   3.824   4.558   3.437
15098SOL     OW46734   4.337   5.089   2.588
15098SOL    HW146735   4.288   5.002   2.597
15098SOL    HW246736   4.314   5.132   2.501
15099SOL     OW46737   5.017   4.952   3.285
15099SOL    HW146738   5.054   4.879   3.227
15099SOL    HW246739   5.069   4.957   3.370
15100SOL     OW46740   4.533   3.728   2.364
15100SOL    HW146741   4.573   3.819   2.355
15100SOL    HW246742   4.433   3.736   2.370
15101SOL     OW46743   3.921   4.700   3.126
15101SOL    HW146744   4.010   4.655   3.112
15101SOL    HW246745   3.848   4.635   3.107
15102SOL     OW46746   5.249   4.723   2.052
15102SOL    HW146747   5.186   4.647   2.065
15102SOL    HW246748   5.297   4.741   2.138
15103SOL     OW46749   4.911   5.516   3.478
15103SOL    HW146750   4.935   5.576   3.402
15103SOL    HW246751   4.918   5.421   3.448
15104SOL     OW46752   5.190   5.141   2.815
15104SOL    HW146753   5.131   5.147   2.895
15104SOL    HW246754   5.175   5.053   2.769
15105SOL     OW46755   5.391   5.438   2.434
15105SOL    HW146756   5.350   5.415   2.346
15105SOL    HW246757   5.373   5.364   2.499
15106SOL     OW46758   4.322   4.453   2.132
15106SOL    HW146759   4.346   4.522   2.064
15106SOL    HW246760   4.244   4.486   2.186
15107SOL     OW46761   5.005   4.069   2.806
15107SOL    HW146762   4.919   4.019   2.793
15107SOL    HW246763   5.067   4.015   2.862
15108SOL     OW46764   5.300   5.386   2.169
15108SOL    HW146765   5.389   5.432   2.172
15108SOL    HW246766   5.279   5.362   2.074
15109SOL     OW46767   4.531   4.329   3.327
15109SOL    HW146768   4.484   4.326   3.416
15109SOL    HW246769   4.480   4.274   3.261
15110SOL     OW46770   5.118   4.193   3.536
15110SOL    HW146771   5.098   4.236   3.624
15110SOL    HW246772   5.196   4.131   3.545
15111SOL     OW46773   4.765   4.425   2.291
15111SOL    HW146774   4.791   4.421   2.387
15111SOL    HW246775   4.680   4.374   2.277
15112SOL     OW46776   3.800   4.535   2.651
15112SOL    HW146777   3.899   4.523   2.660
15112SOL    HW246778   3.776   4.630   2.672
15113SOL     OW46779   3.854   5.545   3.433
15113SOL    HW146780   3.844   5.530   3.532
15113SOL    HW246781   3.768   5.581   3.397
15114SOL     OW46782   4.589   4.072   2.057
15114SOL    HW146783   4.648   4.135   2.008
15114SOL    HW246784   4.608   3.978   2.028
15115SOL     OW46785   5.443   4.309   3.693
15115SOL    HW146786   5.417   4.398   3.657
15115SOL    HW246787   5.441   4.241   3.620
15116SOL     OW46788   5.086   4.868   2.407
15116SOL    HW146789   5.169   4.839   2.359
15116SOL    HW246790   5.037   4.935   2.351
15117SOL     OW46791   4.274   3.920   2.747
15117SOL    HW146792   4.269   3.915   2.847
15117SOL    HW246793   4.276   4.016   2.718
15118SOL     OW46794   4.732   5.180   2.339
15118SOL    HW146795   4.686   5.252   2.287
15118SOL    HW246796   4.728   5.200   2.437
15119SOL     OW46797   4.075   5.525   2.715
15119SOL    HW146798   4.125   5.439   2.721
15119SOL    HW246799   4.140   5.602   2.712
15120SOL     OW46800   5.519   4.790   2.735
15120SOL    HW146801   5.457   4.775   2.659
15120SOL    HW246802   5.467   4.801   2.820
15121SOL     OW46803   4.951   5.274   3.368
15121SOL    HW146804   4.957   5.197   3.432
15121SOL    HW246805   4.899   5.248   3.288
15122SOL     OW46806   4.045   4.667   2.104
15122SOL    HW146807   4.127   4.706   2.062
15122SOL    HW246808   4.018   4.585   2.055
15123SOL     OW46809   5.182   4.459   2.590
15123SOL    HW146810   5.177   4.394   2.665
15123SOL    HW246811   5.262   4.518   2.603
15124SOL     OW46812   4.835   5.500   2.099
15124SOL    HW146813   4.775   5.438   2.149
15124SOL    HW246814   4.866   5.456   2.014
15125SOL     OW46815   3.926   4.009   3.360
15125SOL    HW146816   3.846   4.069   3.347
15125SOL    HW246817   3.916   3.960   3.446
15126SOL     OW46818   5.356   5.101   1.943
15126SOL    HW146819   5.324   5.195   1.933
15126SOL    HW246820   5.280   5.038   1.931
15127SOL     OW46821   4.188   5.467   2.185
15127SOL    HW146822   4.221   5.506   2.271
15127SOL    HW246823   4.264   5.460   2.120
15128SOL     OW46824   5.124   3.831   2.288
15128SOL    HW146825   5.100   3.794   2.198
15128SOL    HW246826   5.223   3.847   2.292
15129SOL     OW46827   3.973   5.509   3.103
15129SOL    HW146828   4.030   5.444   3.153
15129SOL    HW246829   3.957   5.476   3.010
15130SOL     OW46830   4.664   5.422   2.766
15130SOL    HW146831   4.744   5.365   2.787
15130SOL    HW246832   4.615   5.382   2.689
15131SOL     OW46833   4.106   4.424   2.342
15131SOL    HW146834   4.151   4.334   2.339
15131SOL    HW246835   4.012   4.413   2.375
15132SOL     OW46836   5.271   3.946   3.591
15132SOL    HW146837   5.266   3.983   3.683
15132SOL    HW246838   5.199   3.877   3.579
15133SOL     OW46839   4.338   3.846   1.979
15133SOL    HW146840   4.436   3.824   1.986
15133SOL    HW246841   4.307   3.829   1.886
15134SOL     OW46842   4.612   5.238   3.057
15134SOL    HW146843   4.589   5.213   2.963
15134SOL    HW246844   4.673   5.169   3.096
15135SOL     OW46845   5.075   4.314   3.295
15135SOL    HW146846   5.103   4.271   3.380
15135SOL    HW246847   5.100   4.410   3.296
15136SOL     OW46848   4.527   5.126   2.786
15136SOL    HW146849   4.617   5.140   2.744
15136SOL    HW246850   4.456   5.128   2.715
15137SOL     OW46851   4.646   4.227   2.761
15137SOL    HW146852   4.621   4.218   2.665
15137SOL    HW246853   4.694   4.145   2.792
15138SOL     OW46854   4.263   3.788   2.374
15138SOL    HW146855   4.182   3.789   2.432
15138SOL    HW246856   4.266   3.871   2.319
15139SOL     OW46857   5.158   4.912   1.903
15139SOL    HW146858   5.190   4.836   1.960
15139SOL    HW246859   5.066   4.939   1.933
15140SOL     OW46860   4.021   3.759   2.033
15140SOL    HW146861   4.070   3.843   2.012
15140SOL    HW246862   4.083   3.694   2.078
15141SOL     OW46863   4.659   3.960   2.342
15141SOL    HW146864   4.611   4.001   2.264
15141SOL    HW246865   4.758   3.958   2.323
15142SOL     OW46866   4.951   5.294   2.655
15142SOL    HW146867   4.972   5.368   2.590
15142SOL    HW246868   5.019   5.294   2.728
15143SOL     OW46869   4.183   4.876   2.603
15143SOL    HW146870   4.112   4.849   2.668
15143SOL    HW246871   4.157   4.848   2.510
15144SOL     OW46872   4.995   5.521   2.453
15144SOL    HW146873   5.039   5.585   2.389
15144SOL    HW246874   4.945   5.573   2.523
15145SOL     OW46875   4.756   4.273   1.878
15145SOL    HW146876   4.715   4.355   1.839
15145SOL    HW246877   4.820   4.299   1.951
15146SOL     OW46878   3.802   4.280   3.248
15146SOL    HW146879   3.894   4.279   3.207
15146SOL    HW246880   3.796   4.354   3.315
15147SOL     OW46881   4.590   4.178   2.504
15147SOL    HW146882   4.558   4.250   2.442
15147SOL    HW246883   4.614   4.097   2.451
15148SOL     OW46884   4.741   3.763   2.615
15148SOL    HW146885   4.669   3.768   2.546
15148SOL    HW246886   4.717   3.694   2.684
15149SOL     OW46887   5.153   4.897   2.729
15149SOL    HW146888   5.098   4.813   2.722
15149SOL    HW246889   5.179   4.926   2.637
15150SOL     OW46890   5.190   4.314   2.854
15150SOL    HW146891   5.160   4.219   2.861
15150SOL    HW246892   5.263   4.330   2.920
15151SOL     OW46893   5.581   4.557   2.239
15151SOL    HW146894   5.623   4.493   2.303
15151SOL    HW246895   5.543   4.506   2.161
15152SOL     OW46896   4.212   5.109   2.036
15152SOL    HW146897   4.125   5.094   2.083
15152SOL    HW246898   4.195   5.135   1.941
15153SOL     OW46899   5.388   5.004   2.519
15153SOL    HW146900   5.487   5.012   2.533
15153SOL    HW246901   5.343   5.088   2.550
15154SOL     OW46902   5.114   4.299   1.940
15154SOL    HW146903   5.060   4.278   2.021
15154SOL    HW246904   5.205   4.258   1.949
15155SOL     OW46905   4.251   3.980   2.190
15155SOL    HW146906   4.278   3.921   2.115
15155SOL    HW246907   4.251   4.075   2.159
15156SOL     OW46908   5.478   4.947   3.450
15156SOL    HW146909   5.569   4.908   3.437
15156SOL    HW246910   5.486   5.043   3.474
15157SOL     OW46911   4.788   5.071   3.202
15157SOL    HW146912   4.708   5.048   3.257
15157SOL    HW246913   4.871   5.045   3.251
15158SOL     OW46914   5.316   5.353   3.487
15158SOL    HW146915   5.343   5.387   3.397
15158SOL    HW246916   5.395   5.315   3.533
15159SOL     OW46917   4.835   4.919   2.962
15159SOL    HW146918   4.795   4.963   3.043
15159SOL    HW246919   4.794   4.956   2.879
15160SOL     OW46920   5.362   4.823   2.941
15160SOL    HW146921   5.367   4.904   3.000
15160SOL    HW246922   5.276   4.825   2.890
15161SOL     OW46923   4.429   4.774   2.230
15161SOL    HW146924   4.415   4.781   2.329
15161SOL    HW246925   4.513   4.723   2.212
15162SOL     OW46926   4.134   4.537   3.113
15162SOL    HW146927   4.220   4.549   3.163
15162SOL    HW246928   4.092   4.450   3.140
15163SOL     OW46929   3.788   5.288   3.193
15163SOL    HW146930   3.742   5.370   3.159
15163SOL    HW246931   3.886   5.307   3.202
15164SOL     OW46932   4.091   4.824   2.363
15164SOL    HW146933   4.084   4.907   2.307
15164SOL    HW246934   4.095   4.744   2.303
15165SOL     OW46935   4.290   4.261   2.727
15165SOL    HW146936   4.302   4.327   2.653
15165SOL    HW246937   4.336   4.295   2.810
15166SOL     OW46938   4.976   5.072   2.250
15166SOL    HW146939   5.026   5.149   2.290
15166SOL    HW246940   4.881   5.074   2.282
15167SOL     OW46941   4.996   5.169   3.004
15167SOL    HW146942   5.043   5.182   3.091
15167SOL    HW246943   4.930   5.095   3.013
15168SOL     OW46944   5.306   4.363   2.334
15168SOL    HW146945   5.275   4.424   2.407
15168SOL    HW246946   5.356   4.415   2.265
15169SOL     OW46947   4.078   5.234   3.191
15169SOL    HW146948   4.057   5.190   3.104
15169SOL    HW246949   4.175   5.260   3.194
15170SOL     OW46950   4.126   4.475   3.460
15170SOL    HW146951   4.194   4.530   3.413
15170SOL    HW246952   4.166   4.387   3.487
15171SOL     OW46953   5.311   4.503   3.532
15171SOL    HW146954   5.219   4.541   3.527
15171SOL    HW246955   5.371   4.550   3.467
15172SOL     OW46956   4.297   4.594   2.891
15172SOL    HW146957   4.341   4.683   2.882
15172SOL    HW246958   4.234   4.594   2.968
15173SOL     OW46959   5.084   4.586   2.907
15173SOL    HW146960   5.009   4.586   2.841
15173SOL    HW246961   5.121   4.494   2.916
15174SOL     OW46962   4.933   4.249   2.137
15174SOL    HW146963   4.946   4.165   2.191
15174SOL    HW246964   4.904   4.323   2.197
15175SOL     OW46965   3.761   5.034   3.144
15175SOL    HW146966   3.814   4.985   3.212
15175SOL    HW246967   3.783   5.132   3.149
15176SOL     OW46968   4.456   4.358   2.926
15176SOL    HW146969   4.515   4.332   2.850
15176SOL    HW246970   4.428   4.454   2.915
15177SOL     OW46971   5.452   4.659   3.716
15177SOL    HW146972   5.406   4.652   3.627
15177SOL    HW246973   5.390   4.703   3.782
15178SOL     OW46974   4.031   3.787   2.480
15178SOL    HW146975   4.020   3.881   2.513
15178SOL    HW246976   4.026   3.724   2.557
15179SOL     OW46977   5.346   4.091   2.236
15179SOL    HW146978   5.348   4.015   2.300
15179SOL    HW246979   5.298   4.168   2.276
15180SOL     OW46980   4.747   4.490   2.828
15180SOL    HW146981   4.762   4.511   2.924
15180SOL    HW246982   4.717   4.395   2.819
15181SOL     OW46983   4.704   5.297   3.562
15181SOL    HW146984   4.684   5.341   3.474
15181SOL    HW246985   4.743   5.206   3.546
15182SOL     OW46986   5.583   5.242   3.467
15182SOL    HW146987   5.597   5.269   3.372
15182SOL    HW246988   5.666   5.264   3.520
15183SOL     OW46989   4.074   4.622   3.666
15183SOL    HW146990   4.150   4.666   3.714
15183SOL    HW246991   4.109   4.575   3.584
15184SOL     OW46992   5.264   3.998   1.987
15184SOL    HW146993   5.203   3.923   2.010
15184SOL    HW246994   5.286   4.050   2.070
15185SOL     OW46995   5.027   4.562   1.904
15185SOL    HW146996   5.061   4.469   1.919
15185SOL    HW246997   5.045   4.589   1.809
15186SOL     OW46998   4.792   5.057   2.711
15186SOL    HW146999   4.799   4.973   2.656
15186SOL    HW247000   4.854   5.126   2.675
15187SOL     OW47001   4.043   4.534   2.811
15187SOL    HW147002   4.136   4.570   2.816
15187SOL    HW247003   4.037   4.449   2.863
15188SOL     OW47004   4.063   4.233   2.868
15188SOL    HW147005   4.011   4.150   2.851
15188SOL    HW247006   4.140   4.238   2.804
15189SOL     OW47007   3.732   5.050   2.062
15189SOL    HW147008   3.639   5.071   2.031
15189SOL    HW247009   3.742   4.951   2.075
15190SOL     OW47010   3.812   5.525   2.789
15190SOL    HW147011   3.770   5.439   2.762
15190SOL    HW247012   3.906   5.528   2.755
15191SOL     OW47013   4.228   5.292   2.772
15191SOL    HW147014   4.294   5.366   2.781
15191SOL    HW247015   4.272   5.213   2.730
15192SOL     OW47016   4.726   4.520   3.100
15192SOL    HW147017   4.767   4.488   3.186
15192SOL    HW247018   4.630   4.493   3.097
15193SOL     OW47019   3.764   4.268   2.976
15193SOL    HW147020   3.849   4.235   2.935
15193SOL    HW247021   3.777   4.283   3.074
15194SOL     OW47022   3.913   4.244   3.584
15194SOL    HW147023   3.972   4.204   3.514
15194SOL    HW247024   3.855   4.315   3.543
15195SOL     OW47025   5.093   4.674   3.522
15195SOL    HW147026   5.132   4.763   3.542
15195SOL    HW247027   5.103   4.654   3.425
15196SOL     OW47028   4.539   4.296   2.187
15196SOL    HW147029   4.546   4.207   2.141
15196SOL    HW247030   4.445   4.330   2.179
15197SOL     OW47031   5.381   4.328   3.068
15197SOL    HW147032   5.343   4.259   3.130
15197SOL    HW247033   5.463   4.292   3.024
15198SOL     OW47034   3.976   5.288   3.606
15198SOL    HW147035   3.946   5.345   3.682
15198SOL    HW247036   3.969   5.191   3.632
15199SOL     OW47037   4.395   4.188   3.131
15199SOL    HW147038   4.361   4.099   3.101
15199SOL    HW247039   4.421   4.242   3.051
15200SOL     OW47040   4.654   5.402   3.327
15200SOL    HW147041   4.630   5.384   3.232
15200SOL    HW247042   4.684   5.496   3.337
15201SOL     OW47043   4.197   4.224   2.053
15201SOL    HW147044   4.258   4.304   2.057
15201SOL    HW247045   4.102   4.255   2.060
15202SOL     OW47046   3.883   4.861   3.328
15202SOL    HW147047   3.905   4.800   3.404
15202SOL    HW247048   3.893   4.812   3.242
15203SOL     OW47049   5.071   4.783   3.096
15203SOL    HW147050   5.095   4.720   3.022
15203SOL    HW247051   4.981   4.823   3.078
15204SOL     OW47052   5.026   4.579   2.171
15204SOL    HW147053   4.940   4.548   2.213
15204SOL    HW247054   5.022   4.565   2.072
15205SOL     OW47055   5.483   5.471   3.016
15205SOL    HW147056   5.544   5.501   2.943
15205SOL    HW247057   5.445   5.382   2.994
15206SOL     OW47058   4.976   5.455   2.990
15206SOL    HW147059   5.060   5.460   2.936
15206SOL    HW247060   4.953   5.359   3.008
15207SOL     OW47061   3.807   4.982   2.884
15207SOL    HW147062   3.802   4.981   2.984
15207SOL    HW247063   3.724   4.941   2.846
15208SOL     OW47064   4.412   5.386   3.578
15208SOL    HW147065   4.356   5.467   3.587
15208SOL    HW247066   4.464   5.390   3.492
15209SOL     OW47067   5.450   3.859   2.385
15209SOL    HW147068   5.523   3.842   2.318
15209SOL    HW247069   5.419   3.772   2.423
15210SOL     OW47070   5.112   5.297   2.339
15210SOL    HW147071   5.179   5.309   2.265
15210SOL    HW247072   5.072   5.386   2.362
15211SOL     OW47073   3.854   5.518   3.713
15211SOL    HW147074   3.813   5.444   3.766
15211SOL    HW247075   3.918   5.569   3.771
15212SOL     OW47076   5.004   4.651   2.534
15212SOL    HW147077   5.064   4.570   2.536
15212SOL    HW247078   5.044   4.720   2.474
15213SOL     OW47079   4.554   4.997   3.284
15213SOL    HW147080   4.549   5.030   3.379
15213SOL    HW247081   4.468   5.016   3.238
15214SOL     OW47082   4.396   5.340   2.016
15214SOL    HW147083   4.405   5.350   1.917
15214SOL    HW247084   4.356   5.251   2.037
15215SOL     OW47085   5.374   5.444   3.256
15215SOL    HW147086   5.427   5.454   3.172
15215SOL    HW247087   5.347   5.534   3.290
15216SOL     OW47088   5.565   3.899   2.825
15216SOL    HW147089   5.604   3.814   2.789
15216SOL    HW247090   5.467   3.901   2.806
15217SOL     OW47091   3.987   4.050   2.582
15217SOL    HW147092   3.908   4.101   2.548
15217SOL    HW247093   3.978   4.035   2.680
15218SOL     OW47094   4.918   5.336   1.893
15218SOL    HW147095   4.924   5.243   1.930
15218SOL    HW247096   4.859   5.336   1.813
15219SOL     OW47097   4.546   4.726   3.234
15219SOL    HW147098   4.586   4.725   3.142
15219SOL    HW247099   4.556   4.818   3.274
15220SOL     OW47100   4.640   4.634   2.153
15220SOL    HW147101   4.703   4.672   2.085
15220SOL    HW247102   4.680   4.551   2.192
15221SOL     OW47103   5.228   5.331   1.906
15221SOL    HW147104   5.136   5.368   1.913
15221SOL    HW247105   5.266   5.351   1.816
15222SOL     OW47106   4.096   5.012   3.352
15222SOL    HW147107   4.083   5.105   3.318
15222SOL    HW247108   4.012   4.960   3.339
15223SOL     OW47109   5.338   5.016   3.151
15223SOL    HW147110   5.398   5.019   3.231
15223SOL    HW247111   5.263   5.080   3.164
15224SOL     OW47112   4.763   4.822   2.558
15224SOL    HW147113   4.693   4.775   2.612
15224SOL    HW247114   4.822   4.754   2.515
15225SOL     OW47115   4.738   3.960   2.833
15225SOL    HW147116   4.730   3.924   2.740
15225SOL    HW247117   4.736   3.884   2.898
15226SOL     OW47118   4.314   5.211   2.353
15226SOL    HW147119   4.356   5.153   2.283
15226SOL    HW247120   4.270   5.290   2.309
15227SOL     OW47121   5.433   4.109   3.243
15227SOL    HW147122   5.506   4.178   3.247
15227SOL    HW247123   5.461   4.034   3.184
15228SOL     OW47124   3.979   5.072   2.152
15228SOL    HW147125   3.883   5.073   2.125
15228SOL    HW247126   3.991   5.125   2.236
15229SOL     OW47127   3.829   4.737   3.588
15229SOL    HW147128   3.752   4.704   3.642
15229SOL    HW247129   3.914   4.707   3.630
15230SOL     OW47130   3.799   4.069   1.895
15230SOL    HW147131   3.707   4.041   1.866
15230SOL    HW247132   3.830   4.146   1.839
15231SOL     OW47133   5.164   4.580   3.260
15231SOL    HW147134   5.107   4.632   3.197
15231SOL    HW247135   5.260   4.592   3.236
15232SOL     OW47136   3.796   3.890   2.180
15232SOL    HW147137   3.779   3.973   2.126
15232SOL    HW247138   3.886   3.853   2.158
15233SOL     OW47139   4.907   5.059   1.981
15233SOL    HW147140   4.808   5.048   1.983
15233SOL    HW247141   4.941   5.074   2.074
15234SOL     OW47142   4.337   4.566   3.293
15234SOL    HW147143   4.393   4.647   3.276
15234SOL    HW247144   4.396   4.486   3.296
15235SOL     OW47145   5.217   5.491   2.821
15235SOL    HW147146   5.250   5.555   2.752
15235SOL    HW247147   5.283   5.485   2.896
15236SOL     OW47148   5.174   4.944   3.495
15236SOL    HW147149   5.165   4.934   3.594
15236SOL    HW247150   5.270   4.937   3.469
15237SOL     OW47151   4.114   5.465   3.422
15237SOL    HW147152   4.023   5.506   3.420
15237SOL    HW247153   4.107   5.371   3.454
15238SOL     OW47154   5.398   4.607   3.116
15238SOL    HW147155   5.371   4.518   3.079
15238SOL    HW247156   5.399   4.675   3.043
15239SOL     OW47157   4.949   4.049   2.311
15239SOL    HW147158   5.014   3.975   2.300
15239SOL    HW247159   4.969   4.099   2.395
15240SOL     OW47160   4.318   4.469   2.514
15240SOL    HW147161   4.368   4.554   2.495
15240SOL    HW247162   4.230   4.471   2.466
15241SOL     OW47163   5.501   4.066   3.504
15241SOL    HW147164   5.484   4.097   3.410
15241SOL    HW247165   5.417   4.029   3.542
15242SOL     OW47166   5.454   4.658   3.379
15242SOL    HW147167   5.492   4.749   3.394
15242SOL    HW247168   5.446   4.641   3.280
15243SOL     OW47169   4.583   5.098   1.878
15243SOL    HW147170   4.537   5.113   1.966
15243SOL    HW247171   4.627   5.183   1.848
15244SOL     OW47172   4.385   5.514   2.815
15244SOL    HW147173   4.339   5.602   2.802
15244SOL    HW247174   4.484   5.526   2.808
15245SOL     OW47175   4.583   4.680   2.723
15245SOL    HW147176   4.637   4.611   2.771
15245SOL    HW247177   4.551   4.749   2.789
15246SOL     OW47178   4.807   4.708   1.949
15246SOL    HW147179   4.784   4.761   1.867
15246SOL    HW247180   4.888   4.652   1.930
15247SOL     OW47181   5.585   5.293   2.713
15247SOL    HW147182   5.514   5.281   2.643
15247SOL    HW247183   5.586   5.214   2.773
15248SOL     OW47184   3.945   5.038   3.706
15248SOL    HW147185   3.880   4.965   3.685
15248SOL    HW247186   3.949   5.052   3.804
15249SOL     OW47187   3.803   4.964   2.515
15249SOL    HW147188   3.802   4.917   2.603
15249SOL    HW247189   3.885   4.936   2.464
15250SOL     OW47190   4.396   5.115   3.486
15250SOL    HW147191   4.318   5.065   3.524
15250SOL    HW247192   4.393   5.210   3.517
15251SOL     OW47193   5.548   3.916   3.089
15251SOL    HW147194   5.544   3.826   3.133
15251SOL    HW247195   5.551   3.905   2.990
15252SOL     OW47196   4.152   4.148   2.382
15252SOL    HW147197   4.182   4.076   2.320
15252SOL    HW247198   4.113   4.108   2.465
15253SOL     OW47199   5.429   5.211   2.966
15253SOL    HW147200   5.336   5.186   2.939
15253SOL    HW247201   5.455   5.161   3.048
15254SOL     OW47202   4.041   4.271   3.142
15254SOL    HW147203   4.079   4.212   3.214
15254SOL    HW247204   4.081   4.245   3.054
15255SOL     OW47205   4.536   5.310   2.549
15255SOL    HW147206   4.568   5.320   2.455
15255SOL    HW247207   4.457   5.248   2.551
15256SOL     OW47208   5.148   3.938   2.974
15256SOL    HW147209   5.200   3.873   3.029
15256SOL    HW247210   5.099   4.001   3.035
15257SOL     OW47211   4.494   5.054   2.163
15257SOL    HW147212   4.448   4.967   2.180
15257SOL    HW247213   4.585   5.051   2.204
15258SOL     OW47214   4.342   5.291   3.146
15258SOL    HW147215   4.337   5.373   3.203
15258SOL    HW247216   4.431   5.288   3.101
15259SOL     OW47217   5.076   3.776   2.030
15259SOL    HW147218   5.111   3.735   1.946
15259SOL    HW247219   4.986   3.738   2.050
15260SOL     OW47220   5.024   4.177   2.553
15260SOL    HW147221   4.965   4.257   2.557
15260SOL    HW247222   5.039   4.142   2.646
15261SOL     OW47223   5.317   3.945   2.744
15261SOL    HW147224   5.233   3.944   2.798
15261SOL    HW247225   5.319   4.028   2.688
15262SOL     OW47226   3.763   4.801   2.162
15262SOL    HW147227   3.862   4.790   2.153
15262SOL    HW247228   3.723   4.715   2.194
15263SOL     OW47229   4.599   5.370   2.199
15263SOL    HW147230   4.522   5.335   2.145
15263SOL    HW247231   4.567   5.441   2.261
15264SOL     OW47232   3.954   4.352   3.837
15264SOL    HW147233   3.861   4.350   3.874
15264SOL    HW247234   3.955   4.313   3.745
15265SOL     OW47235   3.949   3.999   4.720
15265SOL    HW147236   3.984   3.982   4.812
15265SOL    HW247237   3.861   3.954   4.708
15266SOL     OW47238   3.743   4.092   4.371
15266SOL    HW147239   3.661   4.135   4.410
15266SOL    HW247240   3.715   4.019   4.308
15267SOL     OW47241   4.293   4.999   4.889
15267SOL    HW147242   4.200   4.992   4.852
15267SOL    HW247243   4.304   5.088   4.933
15268SOL     OW47244   5.279   5.235   4.427
15268SOL    HW147245   5.222   5.219   4.508
15268SOL    HW247246   5.220   5.245   4.347
15269SOL     OW47247   4.859   4.427   4.441
15269SOL    HW147248   4.916   4.505   4.416
15269SOL    HW247249   4.799   4.453   4.517
15270SOL     OW47250   5.479   4.331   3.955
15270SOL    HW147251   5.467   4.318   3.856
15270SOL    HW247252   5.449   4.250   4.004
15271SOL     OW47253   4.574   4.522   5.547
15271SOL    HW147254   4.570   4.598   5.612
15271SOL    HW247255   4.596   4.558   5.456
15272SOL     OW47256   4.059   5.159   4.785
15272SOL    HW147257   3.981   5.128   4.732
15272SOL    HW247258   4.117   5.217   4.728
15273SOL     OW47259   5.184   5.229   5.063
15273SOL    HW147260   5.208   5.323   5.089
15273SOL    HW247261   5.168   5.175   5.145
15274SOL     OW47262   4.162   4.116   5.223
15274SOL    HW147263   4.244   4.060   5.232
15274SOL    HW247264   4.081   4.058   5.227
15275SOL     OW47265   5.327   4.171   4.461
15275SOL    HW147266   5.253   4.217   4.411
15275SOL    HW247267   5.378   4.239   4.514
15276SOL     OW47268   3.955   5.437   4.207
15276SOL    HW147269   3.989   5.514   4.261
15276SOL    HW247270   3.999   5.437   4.117
15277SOL     OW47271   4.851   5.065   5.414
15277SOL    HW147272   4.898   5.065   5.502
15277SOL    HW247273   4.803   4.978   5.403
15278SOL     OW47274   4.344   5.510   5.163
15278SOL    HW147275   4.252   5.493   5.198
15278SOL    HW247276   4.372   5.602   5.189
15279SOL     OW47277   5.318   3.838   5.204
15279SOL    HW147278   5.300   3.905   5.132
15279SOL    HW247279   5.315   3.884   5.293
15280SOL     OW47280   3.846   4.367   4.287
15280SOL    HW147281   3.801   4.279   4.304
15280SOL    HW247282   3.845   4.421   4.371
15281SOL     OW47283   5.566   5.491   4.083
15281SOL    HW147284   5.620   5.462   4.163
15281SOL    HW247285   5.596   5.581   4.054
15282SOL     OW47286   3.751   5.320   3.841
15282SOL    HW147287   3.732   5.224   3.862
15282SOL    HW247288   3.718   5.378   3.916
15283SOL     OW47289   5.413   4.646   4.336
15283SOL    HW147290   5.508   4.617   4.344
15283SOL    HW247291   5.405   4.711   4.261
15284SOL     OW47292   5.365   4.832   4.156
15284SOL    HW147293   5.451   4.834   4.104
15284SOL    HW247294   5.379   4.879   4.244
15285SOL     OW47295   4.337   5.089   4.450
15285SOL    HW147296   4.288   5.002   4.459
15285SOL    HW247297   4.314   5.132   4.363
15286SOL     OW47298   5.017   4.952   5.147
15286SOL    HW147299   5.054   4.879   5.089
15286SOL    HW247300   5.069   4.957   5.232
15287SOL     OW47301   5.249   4.723   3.914
15287SOL    HW147302   5.186   4.647   3.927
15287SOL    HW247303   5.297   4.741   4.000
15288SOL     OW47304   4.911   5.516   5.340
15288SOL    HW147305   4.935   5.576   5.264
15288SOL    HW247306   4.918   5.421   5.310
15289SOL     OW47307   4.041   3.975   5.525
15289SOL    HW147308   4.112   4.046   5.531
15289SOL    HW247309   3.953   4.014   5.553
15290SOL     OW47310   5.190   5.141   4.677
15290SOL    HW147311   5.131   5.147   4.757
15290SOL    HW247312   5.175   5.053   4.631
15291SOL     OW47313   5.391   5.438   4.296
15291SOL    HW147314   5.350   5.415   4.208
15291SOL    HW247315   5.373   5.364   4.361
15292SOL     OW47316   5.300   5.386   4.031
15292SOL    HW147317   5.389   5.432   4.034
15292SOL    HW247318   5.279   5.362   3.936
15293SOL     OW47319   4.531   4.329   5.189
15293SOL    HW147320   4.484   4.326   5.278
15293SOL    HW247321   4.480   4.274   5.123
15294SOL     OW47322   5.118   4.193   5.398
15294SOL    HW147323   5.098   4.236   5.486
15294SOL    HW247324   5.196   4.131   5.407
15295SOL     OW47325   4.765   4.425   4.153
15295SOL    HW147326   4.791   4.421   4.249
15295SOL    HW247327   4.680   4.374   4.139
15296SOL     OW47328   3.854   5.545   5.295
15296SOL    HW147329   3.844   5.530   5.394
15296SOL    HW247330   3.768   5.581   5.259
15297SOL     OW47331   5.443   4.309   5.555
15297SOL    HW147332   5.417   4.398   5.519
15297SOL    HW247333   5.441   4.241   5.482
15298SOL     OW47334   5.086   4.868   4.269
15298SOL    HW147335   5.169   4.839   4.221
15298SOL    HW247336   5.037   4.935   4.213
15299SOL     OW47337   4.732   5.180   4.201
15299SOL    HW147338   4.686   5.252   4.149
15299SOL    HW247339   4.728   5.200   4.299
15300SOL     OW47340   4.075   5.525   4.577
15300SOL    HW147341   4.125   5.439   4.583
15300SOL    HW247342   4.140   5.602   4.574
15301SOL     OW47343   5.519   4.790   4.597
15301SOL    HW147344   5.457   4.775   4.521
15301SOL    HW247345   5.467   4.801   4.682
15302SOL     OW47346   4.951   5.274   5.230
15302SOL    HW147347   4.957   5.197   5.294
15302SOL    HW247348   4.899   5.248   5.150
15303SOL     OW47349   4.045   4.667   3.966
15303SOL    HW147350   4.127   4.706   3.924
15303SOL    HW247351   4.018   4.585   3.917
15304SOL     OW47352   5.182   4.459   4.452
15304SOL    HW147353   5.177   4.394   4.527
15304SOL    HW247354   5.262   4.518   4.465
15305SOL     OW47355   4.835   5.500   3.961
15305SOL    HW147356   4.775   5.438   4.011
15305SOL    HW247357   4.866   5.456   3.876
15306SOL     OW47358   3.926   4.009   5.222
15306SOL    HW147359   3.846   4.069   5.209
15306SOL    HW247360   3.916   3.960   5.308
15307SOL     OW47361   5.356   5.101   3.805
15307SOL    HW147362   5.324   5.195   3.795
15307SOL    HW247363   5.280   5.038   3.793
15308SOL     OW47364   4.188   5.467   4.047
15308SOL    HW147365   4.221   5.506   4.133
15308SOL    HW247366   4.264   5.460   3.982
15309SOL     OW47367   5.124   3.831   4.150
15309SOL    HW147368   5.100   3.794   4.060
15309SOL    HW247369   5.223   3.847   4.154
15310SOL     OW47370   3.973   5.509   4.965
15310SOL    HW147371   4.030   5.444   5.015
15310SOL    HW247372   3.957   5.476   4.872
15311SOL     OW47373   4.664   5.422   4.628
15311SOL    HW147374   4.744   5.365   4.649
15311SOL    HW247375   4.615   5.382   4.551
15312SOL     OW47376   5.271   3.946   5.453
15312SOL    HW147377   5.266   3.983   5.545
15312SOL    HW247378   5.199   3.877   5.441
15313SOL     OW47379   4.505   3.988   5.473
15313SOL    HW147380   4.572   3.927   5.516
15313SOL    HW247381   4.432   4.007   5.538
15314SOL     OW47382   4.612   5.238   4.919
15314SOL    HW147383   4.589   5.213   4.825
15314SOL    HW247384   4.673   5.169   4.958
15315SOL     OW47385   5.075   4.314   5.157
15315SOL    HW147386   5.103   4.271   5.242
15315SOL    HW247387   5.100   4.410   5.158
15316SOL     OW47388   4.527   5.126   4.648
15316SOL    HW147389   4.617   5.140   4.606
15316SOL    HW247390   4.456   5.128   4.577
15317SOL     OW47391   5.158   4.912   3.765
15317SOL    HW147392   5.190   4.836   3.822
15317SOL    HW247393   5.066   4.939   3.795
15318SOL     OW47394   4.951   5.294   4.517
15318SOL    HW147395   4.972   5.368   4.452
15318SOL    HW247396   5.019   5.294   4.590
15319SOL     OW47397   4.995   5.521   4.315
15319SOL    HW147398   5.039   5.585   4.251
15319SOL    HW247399   4.945   5.573   4.385
15320SOL     OW47400   5.153   4.897   4.591
15320SOL    HW147401   5.098   4.813   4.584
15320SOL    HW247402   5.179   4.926   4.499
15321SOL     OW47403   5.190   4.314   4.716
15321SOL    HW147404   5.160   4.219   4.723
15321SOL    HW247405   5.263   4.330   4.782
15322SOL     OW47406   5.581   4.557   4.101
15322SOL    HW147407   5.623   4.493   4.165
15322SOL    HW247408   5.543   4.506   4.023
15323SOL     OW47409   5.388   5.004   4.381
15323SOL    HW147410   5.487   5.012   4.395
15323SOL    HW247411   5.343   5.088   4.412
15324SOL     OW47412   5.114   4.299   3.802
15324SOL    HW147413   5.060   4.278   3.883
15324SOL    HW247414   5.205   4.258   3.811
15325SOL     OW47415   5.478   4.947   5.312
15325SOL    HW147416   5.569   4.908   5.299
15325SOL    HW247417   5.486   5.043   5.336
15326SOL     OW47418   4.788   5.071   5.064
15326SOL    HW147419   4.708   5.048   5.119
15326SOL    HW247420   4.871   5.045   5.113
15327SOL     OW47421   5.316   5.353   5.349
15327SOL    HW147422   5.343   5.387   5.259
15327SOL    HW247423   5.395   5.315   5.395
15328SOL     OW47424   4.835   4.919   4.824
15328SOL    HW147425   4.795   4.963   4.905
15328SOL    HW247426   4.794   4.956   4.741
15329SOL     OW47427   5.362   4.823   4.803
15329SOL    HW147428   5.367   4.904   4.862
15329SOL    HW247429   5.276   4.825   4.752
15330SOL     OW47430   4.639   3.813   5.126
15330SOL    HW147431   4.664   3.793   5.031
15330SOL    HW247432   4.711   3.869   5.168
15331SOL     OW47433   3.788   5.288   5.055
15331SOL    HW147434   3.742   5.370   5.021
15331SOL    HW247435   3.886   5.307   5.064
15332SOL     OW47436   4.976   5.072   4.112
15332SOL    HW147437   5.026   5.149   4.152
15332SOL    HW247438   4.881   5.074   4.144
15333SOL     OW47439   4.996   5.169   4.866
15333SOL    HW147440   5.043   5.182   4.953
15333SOL    HW247441   4.930   5.095   4.875
15334SOL     OW47442   5.306   4.363   4.196
15334SOL    HW147443   5.275   4.424   4.269
15334SOL    HW247444   5.356   4.415   4.127
15335SOL     OW47445   4.078   5.234   5.053
15335SOL    HW147446   4.057   5.190   4.966
15335SOL    HW247447   4.175   5.260   5.056
15336SOL     OW47448   5.311   4.503   5.394
15336SOL    HW147449   5.219   4.541   5.389
15336SOL    HW247450   5.371   4.550   5.329
15337SOL     OW47451   4.737   3.829   5.494
15337SOL    HW147452   4.743   3.914   5.442
15337SOL    HW247453   4.769   3.753   5.437
15338SOL     OW47454   4.228   3.774   5.464
15338SOL    HW147455   4.186   3.717   5.394
15338SOL    HW247456   4.162   3.843   5.496
15339SOL     OW47457   5.084   4.586   4.769
15339SOL    HW147458   5.009   4.586   4.703
15339SOL    HW247459   5.121   4.494   4.778
15340SOL     OW47460   4.933   4.249   3.999
15340SOL    HW147461   4.946   4.165   4.053
15340SOL    HW247462   4.904   4.323   4.059
15341SOL     OW47463   4.031   3.937   4.955
15341SOL    HW147464   4.008   3.974   5.045
15341SOL    HW247465   4.001   3.842   4.949
15342SOL     OW47466   3.761   5.034   5.006
15342SOL    HW147467   3.814   4.985   5.074
15342SOL    HW247468   3.783   5.132   5.011
15343SOL     OW47469   5.452   4.659   5.578
15343SOL    HW147470   5.406   4.652   5.489
15343SOL    HW247471   5.390   4.703   5.644
15344SOL     OW47472   5.346   4.091   4.098
15344SOL    HW147473   5.348   4.015   4.162
15344SOL    HW247474   5.298   4.168   4.138
15345SOL     OW47475   4.704   5.297   5.424
15345SOL    HW147476   4.684   5.341   5.336
15345SOL    HW247477   4.743   5.206   5.408
15346SOL     OW47478   5.583   5.242   5.329
15346SOL    HW147479   5.597   5.269   5.234
15346SOL    HW247480   5.666   5.264   5.382
15347SOL     OW47481   5.264   3.998   3.849
15347SOL    HW147482   5.203   3.923   3.872
15347SOL    HW247483   5.286   4.050   3.932
15348SOL     OW47484   5.027   4.562   3.766
15348SOL    HW147485   5.061   4.469   3.781
15348SOL    HW247486   5.045   4.589   3.671
15349SOL     OW47487   4.792   5.057   4.573
15349SOL    HW147488   4.799   4.973   4.518
15349SOL    HW247489   4.854   5.126   4.537
15350SOL     OW47490   4.862   4.104   5.402
15350SOL    HW147491   4.817   4.167   5.466
15350SOL    HW247492   4.955   4.135   5.385
15351SOL     OW47493   4.884   3.931   5.201
15351SOL    HW147494   4.884   3.995   5.278
15351SOL    HW247495   4.912   3.979   5.118
15352SOL     OW47496   3.812   5.525   4.651
15352SOL    HW147497   3.770   5.439   4.624
15352SOL    HW247498   3.906   5.528   4.617
15353SOL     OW47499   4.228   5.292   4.634
15353SOL    HW147500   4.294   5.366   4.643
15353SOL    HW247501   4.272   5.213   4.592
15354SOL     OW47502   5.093   4.674   5.384
15354SOL    HW147503   5.132   4.763   5.404
15354SOL    HW247504   5.103   4.654   5.287
15355SOL     OW47505   5.381   4.328   4.930
15355SOL    HW147506   5.343   4.259   4.992
15355SOL    HW247507   5.463   4.292   4.886
15356SOL     OW47508   3.976   5.288   5.468
15356SOL    HW147509   3.946   5.345   5.544
15356SOL    HW247510   3.969   5.191   5.494
15357SOL     OW47511   4.395   4.188   4.993
15357SOL    HW147512   4.361   4.099   4.963
15357SOL    HW247513   4.421   4.242   4.913
15358SOL     OW47514   4.654   5.402   5.189
15358SOL    HW147515   4.630   5.384   5.094
15358SOL    HW247516   4.684   5.496   5.199
15359SOL     OW47517   5.071   4.783   4.958
15359SOL    HW147518   5.095   4.720   4.884
15359SOL    HW247519   4.981   4.823   4.940
15360SOL     OW47520   5.026   4.579   4.033
15360SOL    HW147521   4.940   4.548   4.075
15360SOL    HW247522   5.022   4.565   3.934
15361SOL     OW47523   5.483   5.471   4.878
15361SOL    HW147524   5.544   5.501   4.805
15361SOL    HW247525   5.445   5.382   4.856
15362SOL     OW47526   4.976   5.455   4.852
15362SOL    HW147527   5.060   5.460   4.798
15362SOL    HW247528   4.953   5.359   4.870
15363SOL     OW47529   4.412   5.386   5.440
15363SOL    HW147530   4.356   5.467   5.449
15363SOL    HW247531   4.464   5.390   5.354
15364SOL     OW47532   5.450   3.859   4.247
15364SOL    HW147533   5.523   3.842   4.180
15364SOL    HW247534   5.419   3.772   4.285
15365SOL     OW47535   5.112   5.297   4.201
15365SOL    HW147536   5.179   5.309   4.127
15365SOL    HW247537   5.072   5.386   4.224
15366SOL     OW47538   3.854   5.518   5.575
15366SOL    HW147539   3.813   5.444   5.628
15366SOL    HW247540   3.918   5.569   5.633
15367SOL     OW47541   5.004   4.651   4.396
15367SOL    HW147542   5.064   4.570   4.398
15367SOL    HW247543   5.044   4.720   4.336
15368SOL     OW47544   4.396   5.340   3.878
15368SOL    HW147545   4.405   5.350   3.779
15368SOL    HW247546   4.356   5.251   3.899
15369SOL     OW47547   5.374   5.444   5.118
15369SOL    HW147548   5.427   5.454   5.034
15369SOL    HW247549   5.347   5.534   5.152
15370SOL     OW47550   5.565   3.899   4.687
15370SOL    HW147551   5.604   3.814   4.651
15370SOL    HW247552   5.467   3.901   4.668
15371SOL     OW47553   3.987   4.050   4.444
15371SOL    HW147554   3.908   4.101   4.410
15371SOL    HW247555   3.978   4.035   4.542
15372SOL     OW47556   4.918   5.336   3.755
15372SOL    HW147557   4.924   5.243   3.792
15372SOL    HW247558   4.859   5.336   3.675
15373SOL     OW47559   5.228   5.331   3.768
15373SOL    HW147560   5.136   5.368   3.775
15373SOL    HW247561   5.266   5.351   3.678
15374SOL     OW47562   5.338   5.016   5.013
15374SOL    HW147563   5.398   5.019   5.093
15374SOL    HW247564   5.263   5.080   5.026
15375SOL     OW47565   4.763   4.822   4.420
15375SOL    HW147566   4.693   4.775   4.474
15375SOL    HW247567   4.822   4.754   4.377
15376SOL     OW47568   4.314   5.211   4.215
15376SOL    HW147569   4.356   5.153   4.145
15376SOL    HW247570   4.270   5.290   4.171
15377SOL     OW47571   5.433   4.109   5.105
15377SOL    HW147572   5.506   4.178   5.109
15377SOL    HW247573   5.461   4.034   5.046
15378SOL     OW47574   4.396   3.927   5.213
15378SOL    HW147575   4.486   3.911   5.173
15378SOL    HW247576   4.404   3.932   5.312
15379SOL     OW47577   3.799   4.069   3.757
15379SOL    HW147578   3.707   4.041   3.728
15379SOL    HW247579   3.830   4.146   3.701
15380SOL     OW47580   5.164   4.580   5.122
15380SOL    HW147581   5.107   4.632   5.059
15380SOL    HW247582   5.260   4.592   5.098
15381SOL     OW47583   4.907   5.059   3.843
15381SOL    HW147584   4.808   5.048   3.845
15381SOL    HW247585   4.941   5.074   3.936
15382SOL     OW47586   5.217   5.491   4.683
15382SOL    HW147587   5.250   5.555   4.614
15382SOL    HW247588   5.283   5.485   4.758
15383SOL     OW47589   4.440   4.289   5.432
15383SOL    HW147590   4.459   4.354   5.506
15383SOL    HW247591   4.500   4.209   5.441
15384SOL     OW47592   5.174   4.944   5.357
15384SOL    HW147593   5.165   4.934   5.456
15384SOL    HW247594   5.270   4.937   5.331
15385SOL     OW47595   4.114   5.465   5.284
15385SOL    HW147596   4.023   5.506   5.282
15385SOL    HW247597   4.107   5.371   5.316
15386SOL     OW47598   5.398   4.607   4.978
15386SOL    HW147599   5.371   4.518   4.941
15386SOL    HW247600   5.399   4.675   4.905
15387SOL     OW47601   4.949   4.049   4.173
15387SOL    HW147602   5.014   3.975   4.162
15387SOL    HW247603   4.969   4.099   4.257
15388SOL     OW47604   5.501   4.066   5.366
15388SOL    HW147605   5.484   4.097   5.272
15388SOL    HW247606   5.417   4.029   5.404
15389SOL     OW47607   5.454   4.658   5.241
15389SOL    HW147608   5.492   4.749   5.256
15389SOL    HW247609   5.446   4.641   5.142
15390SOL     OW47610   4.583   5.098   3.740
15390SOL    HW147611   4.537   5.113   3.828
15390SOL    HW247612   4.627   5.183   3.710
15391SOL     OW47613   4.385   5.514   4.677
15391SOL    HW147614   4.339   5.602   4.664
15391SOL    HW247615   4.484   5.526   4.670
15392SOL     OW47616   4.583   4.680   4.585
15392SOL    HW147617   4.637   4.611   4.633
15392SOL    HW247618   4.551   4.749   4.651
15393SOL     OW47619   5.585   5.293   4.575
15393SOL    HW147620   5.514   5.281   4.505
15393SOL    HW247621   5.586   5.214   4.635
15394SOL     OW47622   5.548   3.916   4.951
15394SOL    HW147623   5.544   3.826   4.995
15394SOL    HW247624   5.551   3.905   4.852
15395SOL     OW47625   5.429   5.211   4.828
15395SOL    HW147626   5.336   5.186   4.801
15395SOL    HW247627   5.455   5.161   4.910
15396SOL     OW47628   4.536   5.310   4.411
15396SOL    HW147629   4.568   5.320   4.317
15396SOL    HW247630   4.457   5.248   4.413
15397SOL     OW47631   5.148   3.938   4.836
15397SOL    HW147632   5.200   3.873   4.891
15397SOL    HW247633   5.099   4.001   4.897
15398SOL     OW47634   4.342   5.291   5.008
15398SOL    HW147635   4.337   5.373   5.065
15398SOL    HW247636   4.431   5.288   4.963
15399SOL     OW47637   5.076   3.776   3.892
15399SOL    HW147638   5.111   3.735   3.808
15399SOL    HW247639   4.986   3.738   3.912
15400SOL     OW47640   5.024   4.177   4.415
15400SOL    HW147641   4.965   4.257   4.419
15400SOL    HW247642   5.039   4.142   4.508
15401SOL     OW47643   5.317   3.945   4.606
15401SOL    HW147644   5.233   3.944   4.660
15401SOL    HW247645   5.319   4.028   4.550
15402SOL     OW47646   4.599   5.370   4.061
15402SOL    HW147647   4.522   5.335   4.007
15402SOL    HW247648   4.567   5.441   4.123
15403SOL     OW47649   3.954   4.352   5.699
15403SOL    HW147650   3.861   4.350   5.736
15403SOL    HW247651   3.955   4.313   5.607
15404SOL     OW47652   3.949   3.999   6.582
15404SOL    HW147653   3.984   3.982   6.674
15404SOL    HW247654   3.861   3.954   6.570
15405SOL     OW47655   3.743   4.092   6.233
15405SOL    HW147656   3.661   4.135   6.272
15405SOL    HW247657   3.715   4.019   6.170
15406SOL     OW47658   5.279   5.235   6.289
15406SOL    HW147659   5.222   5.219   6.370
15406SOL    HW247660   5.220   5.245   6.209
15407SOL     OW47661   5.479   4.331   5.817
15407SOL    HW147662   5.467   4.318   5.718
15407SOL    HW247663   5.449   4.250   5.866
15408SOL     OW47664   4.409   4.736   6.251
15408SOL    HW147665   4.478   4.720   6.321
15408SOL    HW247666   4.336   4.793   6.289
15409SOL     OW47667   4.059   5.159   6.647
15409SOL    HW147668   3.981   5.128   6.594
15409SOL    HW247669   4.117   5.217   6.590
15410SOL     OW47670   5.184   5.229   6.925
15410SOL    HW147671   5.208   5.323   6.951
15410SOL    HW247672   5.168   5.175   7.007
15411SOL     OW47673   5.327   4.171   6.323
15411SOL    HW147674   5.253   4.217   6.273
15411SOL    HW247675   5.378   4.239   6.376
15412SOL     OW47676   3.955   5.437   6.069
15412SOL    HW147677   3.989   5.514   6.123
15412SOL    HW247678   3.999   5.437   5.979
15413SOL     OW47679   4.851   5.065   7.276
15413SOL    HW147680   4.898   5.065   7.364
15413SOL    HW247681   4.803   4.978   7.265
15414SOL     OW47682   3.954   5.158   6.124
15414SOL    HW147683   3.928   5.254   6.124
15414SOL    HW247684   3.883   5.104   6.169
15415SOL     OW47685   3.964   4.815   6.472
15415SOL    HW147686   3.978   4.731   6.524
15415SOL    HW247687   3.909   4.879   6.527
15416SOL     OW47688   4.344   5.510   7.025
15416SOL    HW147689   4.252   5.493   7.060
15416SOL    HW247690   4.372   5.602   7.051
15417SOL     OW47691   4.330   4.688   5.709
15417SOL    HW147692   4.337   4.772   5.655
15417SOL    HW247693   4.376   4.701   5.797
15418SOL     OW47694   5.318   3.838   7.066
15418SOL    HW147695   5.300   3.905   6.994
15418SOL    HW247696   5.315   3.884   7.155
15419SOL     OW47697   3.846   4.367   6.149
15419SOL    HW147698   3.801   4.279   6.166
15419SOL    HW247699   3.845   4.421   6.233
15420SOL     OW47700   5.566   5.491   5.945
15420SOL    HW147701   5.620   5.462   6.025
15420SOL    HW247702   5.596   5.581   5.916
15421SOL     OW47703   3.751   5.320   5.703
15421SOL    HW147704   3.732   5.224   5.724
15421SOL    HW247705   3.718   5.378   5.778
15422SOL     OW47706   5.413   4.646   6.198
15422SOL    HW147707   5.508   4.617   6.206
15422SOL    HW247708   5.405   4.711   6.123
15423SOL     OW47709   5.365   4.832   6.018
15423SOL    HW147710   5.451   4.834   5.966
15423SOL    HW247711   5.379   4.879   6.106
15424SOL     OW47712   3.837   4.461   7.183
15424SOL    HW147713   3.925   4.448   7.228
15424SOL    HW247714   3.824   4.558   7.161
15425SOL     OW47715   4.337   5.089   6.312
15425SOL    HW147716   4.288   5.002   6.321
15425SOL    HW247717   4.314   5.132   6.225
15426SOL     OW47718   5.017   4.952   7.009
15426SOL    HW147719   5.054   4.879   6.951
15426SOL    HW247720   5.069   4.957   7.094
15427SOL     OW47721   3.921   4.700   6.850
15427SOL    HW147722   4.010   4.655   6.836
15427SOL    HW247723   3.848   4.635   6.831
15428SOL     OW47724   5.249   4.723   5.776
15428SOL    HW147725   5.186   4.647   5.789
15428SOL    HW247726   5.297   4.741   5.862
15429SOL     OW47727   4.911   5.516   7.202
15429SOL    HW147728   4.935   5.576   7.126
15429SOL    HW247729   4.918   5.421   7.172
15430SOL     OW47730   4.041   3.975   7.387
15430SOL    HW147731   4.112   4.046   7.393
15430SOL    HW247732   3.953   4.014   7.415
15431SOL     OW47733   5.190   5.141   6.539
15431SOL    HW147734   5.131   5.147   6.619
15431SOL    HW247735   5.175   5.053   6.493
15432SOL     OW47736   5.391   5.438   6.158
15432SOL    HW147737   5.350   5.415   6.070
15432SOL    HW247738   5.373   5.364   6.223
15433SOL     OW47739   4.322   4.453   5.856
15433SOL    HW147740   4.346   4.522   5.788
15433SOL    HW247741   4.244   4.486   5.910
15434SOL     OW47742   5.300   5.386   5.893
15434SOL    HW147743   5.389   5.432   5.896
15434SOL    HW247744   5.279   5.362   5.798
15435SOL     OW47745   5.118   4.193   7.260
15435SOL    HW147746   5.098   4.236   7.348
15435SOL    HW247747   5.196   4.131   7.269
15436SOL     OW47748   4.765   4.425   6.015
15436SOL    HW147749   4.791   4.421   6.111
15436SOL    HW247750   4.680   4.374   6.001
15437SOL     OW47751   3.800   4.535   6.375
15437SOL    HW147752   3.899   4.523   6.384
15437SOL    HW247753   3.776   4.630   6.396
15438SOL     OW47754   3.854   5.545   7.157
15438SOL    HW147755   3.844   5.530   7.256
15438SOL    HW247756   3.768   5.581   7.121
15439SOL     OW47757   4.589   4.072   5.781
15439SOL    HW147758   4.648   4.135   5.732
15439SOL    HW247759   4.608   3.978   5.752
15440SOL     OW47760   5.443   4.309   7.417
15440SOL    HW147761   5.417   4.398   7.381
15440SOL    HW247762   5.441   4.241   7.344
15441SOL     OW47763   5.086   4.868   6.131
15441SOL    HW147764   5.169   4.839   6.083
15441SOL    HW247765   5.037   4.935   6.075
15442SOL     OW47766   4.732   5.180   6.063
15442SOL    HW147767   4.686   5.252   6.011
15442SOL    HW247768   4.728   5.200   6.161
15443SOL     OW47769   4.075   5.525   6.439
15443SOL    HW147770   4.125   5.439   6.445
15443SOL    HW247771   4.140   5.602   6.436
15444SOL     OW47772   5.519   4.790   6.459
15444SOL    HW147773   5.457   4.775   6.383
15444SOL    HW247774   5.467   4.801   6.544
15445SOL     OW47775   4.951   5.274   7.092
15445SOL    HW147776   4.957   5.197   7.156
15445SOL    HW247777   4.899   5.248   7.012
15446SOL     OW47778   4.045   4.667   5.828
15446SOL    HW147779   4.127   4.706   5.786
15446SOL    HW247780   4.018   4.585   5.779
15447SOL     OW47781   5.182   4.459   6.314
15447SOL    HW147782   5.177   4.394   6.389
15447SOL    HW247783   5.262   4.518   6.327
15448SOL     OW47784   4.835   5.500   5.823
15448SOL    HW147785   4.775   5.438   5.873
15448SOL    HW247786   4.866   5.456   5.738
15449SOL     OW47787   3.926   4.009   7.084
15449SOL    HW147788   3.846   4.069   7.071
15449SOL    HW247789   3.916   3.960   7.170
15450SOL     OW47790   5.356   5.101   5.667
15450SOL    HW147791   5.324   5.195   5.657
15450SOL    HW247792   5.280   5.038   5.655
15451SOL     OW47793   4.188   5.467   5.909
15451SOL    HW147794   4.221   5.506   5.995
15451SOL    HW247795   4.264   5.460   5.844
15452SOL     OW47796   3.973   5.509   6.827
15452SOL    HW147797   4.030   5.444   6.877
15452SOL    HW247798   3.957   5.476   6.734
15453SOL     OW47799   4.664   5.422   6.490
15453SOL    HW147800   4.744   5.365   6.511
15453SOL    HW247801   4.615   5.382   6.413
15454SOL     OW47802   4.106   4.424   6.066
15454SOL    HW147803   4.151   4.334   6.063
15454SOL    HW247804   4.012   4.413   6.099
15455SOL     OW47805   5.271   3.946   7.315
15455SOL    HW147806   5.266   3.983   7.407
15455SOL    HW247807   5.199   3.877   7.303
15456SOL     OW47808   4.338   3.846   5.703
15456SOL    HW147809   4.436   3.824   5.710
15456SOL    HW247810   4.307   3.829   5.610
15457SOL     OW47811   4.612   5.238   6.781
15457SOL    HW147812   4.589   5.213   6.687
15457SOL    HW247813   4.673   5.169   6.820
15458SOL     OW47814   5.075   4.314   7.019
15458SOL    HW147815   5.103   4.271   7.104
15458SOL    HW247816   5.100   4.410   7.020
15459SOL     OW47817   4.527   5.126   6.510
15459SOL    HW147818   4.617   5.140   6.468
15459SOL    HW247819   4.456   5.128   6.439
15460SOL     OW47820   5.158   4.912   5.627
15460SOL    HW147821   5.190   4.836   5.684
15460SOL    HW247822   5.066   4.939   5.657
15461SOL     OW47823   4.659   3.960   6.066
15461SOL    HW147824   4.611   4.001   5.988
15461SOL    HW247825   4.758   3.958   6.047
15462SOL     OW47826   4.951   5.294   6.379
15462SOL    HW147827   4.972   5.368   6.314
15462SOL    HW247828   5.019   5.294   6.452
15463SOL     OW47829   4.183   4.876   6.327
15463SOL    HW147830   4.112   4.849   6.392
15463SOL    HW247831   4.157   4.848   6.234
15464SOL     OW47832   4.995   5.521   6.177
15464SOL    HW147833   5.039   5.585   6.113
15464SOL    HW247834   4.945   5.573   6.247
15465SOL     OW47835   4.756   4.273   5.602
15465SOL    HW147836   4.715   4.355   5.563
15465SOL    HW247837   4.820   4.299   5.675
15466SOL     OW47838   3.802   4.280   6.972
15466SOL    HW147839   3.894   4.279   6.931
15466SOL    HW247840   3.796   4.354   7.039
15467SOL     OW47841   4.590   4.178   6.228
15467SOL    HW147842   4.558   4.250   6.166
15467SOL    HW247843   4.614   4.097   6.175
15468SOL     OW47844   5.153   4.897   6.453
15468SOL    HW147845   5.098   4.813   6.446
15468SOL    HW247846   5.179   4.926   6.361
15469SOL     OW47847   5.581   4.557   5.963
15469SOL    HW147848   5.623   4.493   6.027
15469SOL    HW247849   5.543   4.506   5.885
15470SOL     OW47850   5.388   5.004   6.243
15470SOL    HW147851   5.487   5.012   6.257
15470SOL    HW247852   5.343   5.088   6.274
15471SOL     OW47853   5.114   4.299   5.664
15471SOL    HW147854   5.060   4.278   5.745
15471SOL    HW247855   5.205   4.258   5.673
15472SOL     OW47856   4.251   3.980   5.914
15472SOL    HW147857   4.278   3.921   5.839
15472SOL    HW247858   4.251   4.075   5.883
15473SOL     OW47859   5.478   4.947   7.174
15473SOL    HW147860   5.569   4.908   7.161
15473SOL    HW247861   5.486   5.043   7.198
15474SOL     OW47862   4.788   5.071   6.926
15474SOL    HW147863   4.708   5.048   6.981
15474SOL    HW247864   4.871   5.045   6.975
15475SOL     OW47865   5.316   5.353   7.211
15475SOL    HW147866   5.343   5.387   7.121
15475SOL    HW247867   5.395   5.315   7.257
15476SOL     OW47868   4.835   4.919   6.686
15476SOL    HW147869   4.795   4.963   6.767
15476SOL    HW247870   4.794   4.956   6.603
15477SOL     OW47871   5.362   4.823   6.665
15477SOL    HW147872   5.367   4.904   6.724
15477SOL    HW247873   5.276   4.825   6.614
15478SOL     OW47874   4.704   4.840   7.305
15478SOL    HW147875   4.605   4.846   7.315
15478SOL    HW247876   4.727   4.760   7.249
15479SOL     OW47877   4.429   4.774   5.954
15479SOL    HW147878   4.415   4.781   6.053
15479SOL    HW247879   4.513   4.723   5.936
15480SOL     OW47880   3.788   5.288   6.917
15480SOL    HW147881   3.742   5.370   6.883
15480SOL    HW247882   3.886   5.307   6.926
15481SOL     OW47883   4.091   4.824   6.087
15481SOL    HW147884   4.084   4.907   6.031
15481SOL    HW247885   4.095   4.744   6.027
15482SOL     OW47886   4.290   4.261   6.451
15482SOL    HW147887   4.302   4.327   6.377
15482SOL    HW247888   4.336   4.295   6.534
15483SOL     OW47889   4.976   5.072   5.974
15483SOL    HW147890   5.026   5.149   6.014
15483SOL    HW247891   4.881   5.074   6.006
15484SOL     OW47892   4.996   5.169   6.728
15484SOL    HW147893   5.043   5.182   6.815
15484SOL    HW247894   4.930   5.095   6.737
15485SOL     OW47895   5.306   4.363   6.058
15485SOL    HW147896   5.275   4.424   6.131
15485SOL    HW247897   5.356   4.415   5.989
15486SOL     OW47898   5.311   4.503   7.256
15486SOL    HW147899   5.219   4.541   7.251
15486SOL    HW247900   5.371   4.550   7.191
15487SOL     OW47901   4.228   3.774   7.326
15487SOL    HW147902   4.186   3.717   7.256
15487SOL    HW247903   4.162   3.843   7.358
15488SOL     OW47904   4.297   4.594   6.615
15488SOL    HW147905   4.341   4.683   6.606
15488SOL    HW247906   4.234   4.594   6.692
15489SOL     OW47907   4.933   4.249   5.861
15489SOL    HW147908   4.946   4.165   5.915
15489SOL    HW247909   4.904   4.323   5.921
15490SOL     OW47910   4.031   3.937   6.817
15490SOL    HW147911   4.008   3.974   6.907
15490SOL    HW247912   4.001   3.842   6.811
15491SOL     OW47913   5.452   4.659   7.440
15491SOL    HW147914   5.406   4.652   7.351
15491SOL    HW247915   5.390   4.703   7.506
15492SOL     OW47916   5.346   4.091   5.960
15492SOL    HW147917   5.348   4.015   6.024
15492SOL    HW247918   5.298   4.168   6.000
15493SOL     OW47919   4.704   5.297   7.286
15493SOL    HW147920   4.684   5.341   7.198
15493SOL    HW247921   4.743   5.206   7.270
15494SOL     OW47922   5.583   5.242   7.191
15494SOL    HW147923   5.597   5.269   7.096
15494SOL    HW247924   5.666   5.264   7.244
15495SOL     OW47925   5.264   3.998   5.711
15495SOL    HW147926   5.203   3.923   5.734
15495SOL    HW247927   5.286   4.050   5.794
15496SOL     OW47928   5.027   4.562   5.628
15496SOL    HW147929   5.061   4.469   5.643
15496SOL    HW247930   5.045   4.589   5.533
15497SOL     OW47931   4.792   5.057   6.435
15497SOL    HW147932   4.799   4.973   6.380
15497SOL    HW247933   4.854   5.126   6.399
15498SOL     OW47934   4.043   4.534   6.535
15498SOL    HW147935   4.136   4.570   6.540
15498SOL    HW247936   4.037   4.449   6.587
15499SOL     OW47937   4.063   4.233   6.592
15499SOL    HW147938   4.011   4.150   6.575
15499SOL    HW247939   4.140   4.238   6.528
15500SOL     OW47940   3.812   5.525   6.513
15500SOL    HW147941   3.770   5.439   6.486
15500SOL    HW247942   3.906   5.528   6.479
15501SOL     OW47943   4.228   5.292   6.496
15501SOL    HW147944   4.294   5.366   6.505
15501SOL    HW247945   4.272   5.213   6.454
15502SOL     OW47946   3.764   4.268   6.700
15502SOL    HW147947   3.849   4.235   6.659
15502SOL    HW247948   3.777   4.283   6.798
15503SOL     OW47949   3.913   4.244   7.308
15503SOL    HW147950   3.972   4.204   7.238
15503SOL    HW247951   3.855   4.315   7.267
15504SOL     OW47952   5.093   4.674   7.246
15504SOL    HW147953   5.132   4.763   7.266
15504SOL    HW247954   5.103   4.654   7.149
15505SOL     OW47955   4.539   4.296   5.911
15505SOL    HW147956   4.546   4.207   5.865
15505SOL    HW247957   4.445   4.330   5.903
15506SOL     OW47958   5.381   4.328   6.792
15506SOL    HW147959   5.343   4.259   6.854
15506SOL    HW247960   5.463   4.292   6.748
15507SOL     OW47961   4.654   5.402   7.051
15507SOL    HW147962   4.630   5.384   6.956
15507SOL    HW247963   4.684   5.496   7.061
15508SOL     OW47964   4.197   4.224   5.777
15508SOL    HW147965   4.258   4.304   5.781
15508SOL    HW247966   4.102   4.255   5.784
15509SOL     OW47967   5.071   4.783   6.820
15509SOL    HW147968   5.095   4.720   6.746
15509SOL    HW247969   4.981   4.823   6.802
15510SOL     OW47970   5.026   4.579   5.895
15510SOL    HW147971   4.940   4.548   5.937
15510SOL    HW247972   5.022   4.565   5.796
15511SOL     OW47973   5.483   5.471   6.740
15511SOL    HW147974   5.544   5.501   6.667
15511SOL    HW247975   5.445   5.382   6.718
15512SOL     OW47976   4.976   5.455   6.714
15512SOL    HW147977   5.060   5.460   6.660
15512SOL    HW247978   4.953   5.359   6.732
15513SOL     OW47979   3.807   4.982   6.608
15513SOL    HW147980   3.802   4.981   6.708
15513SOL    HW247981   3.724   4.941   6.570
15514SOL     OW47982   4.412   5.386   7.302
15514SOL    HW147983   4.356   5.467   7.311
15514SOL    HW247984   4.464   5.390   7.216
15515SOL     OW47985   5.450   3.859   6.109
15515SOL    HW147986   5.523   3.842   6.042
15515SOL    HW247987   5.419   3.772   6.147
15516SOL     OW47988   5.112   5.297   6.063
15516SOL    HW147989   5.179   5.309   5.989
15516SOL    HW247990   5.072   5.386   6.086
15517SOL     OW47991   3.854   5.518   7.437
15517SOL    HW147992   3.813   5.444   7.490
15517SOL    HW247993   3.918   5.569   7.495
15518SOL     OW47994   5.004   4.651   6.258
15518SOL    HW147995   5.064   4.570   6.260
15518SOL    HW247996   5.044   4.720   6.198
15519SOL     OW47997   4.396   5.340   5.740
15519SOL    HW147998   4.405   5.350   5.641
15519SOL    HW247999   4.356   5.251   5.761
15520SOL     OW48000   5.374   5.444   6.980
15520SOL    HW148001   5.427   5.454   6.896
15520SOL    HW248002   5.347   5.534   7.014
15521SOL     OW48003   5.565   3.899   6.549
15521SOL    HW148004   5.604   3.814   6.513
15521SOL    HW248005   5.467   3.901   6.530
15522SOL     OW48006   3.987   4.050   6.306
15522SOL    HW148007   3.908   4.101   6.272
15522SOL    HW248008   3.978   4.035   6.404
15523SOL     OW48009   4.918   5.336   5.617
15523SOL    HW148010   4.924   5.243   5.654
15523SOL    HW248011   4.859   5.336   5.537
15524SOL     OW48012   4.640   4.634   5.877
15524SOL    HW148013   4.703   4.672   5.809
15524SOL    HW248014   4.680   4.551   5.916
15525SOL     OW48015   5.228   5.331   5.630
15525SOL    HW148016   5.136   5.368   5.637
15525SOL    HW248017   5.266   5.351   5.540
15526SOL     OW48018   5.338   5.016   6.875
15526SOL    HW148019   5.398   5.019   6.955
15526SOL    HW248020   5.263   5.080   6.888
15527SOL     OW48021   4.314   5.211   6.077
15527SOL    HW148022   4.356   5.153   6.007
15527SOL    HW248023   4.270   5.290   6.033
15528SOL     OW48024   5.433   4.109   6.967
15528SOL    HW148025   5.506   4.178   6.971
15528SOL    HW248026   5.461   4.034   6.908
15529SOL     OW48027   5.164   4.580   6.984
15529SOL    HW148028   5.107   4.632   6.921
15529SOL    HW248029   5.260   4.592   6.960
15530SOL     OW48030   4.907   5.059   5.705
15530SOL    HW148031   4.808   5.048   5.707
15530SOL    HW248032   4.941   5.074   5.798
15531SOL     OW48033   5.217   5.491   6.545
15531SOL    HW148034   5.250   5.555   6.476
15531SOL    HW248035   5.283   5.485   6.620
15532SOL     OW48036   5.174   4.944   7.219
15532SOL    HW148037   5.165   4.934   7.318
15532SOL    HW248038   5.270   4.937   7.193
15533SOL     OW48039   4.114   5.465   7.146
15533SOL    HW148040   4.023   5.506   7.144
15533SOL    HW248041   4.107   5.371   7.178
15534SOL     OW48042   5.398   4.607   6.840
15534SOL    HW148043   5.371   4.518   6.803
15534SOL    HW248044   5.399   4.675   6.767
15535SOL     OW48045   4.318   4.469   6.238
15535SOL    HW148046   4.368   4.554   6.219
15535SOL    HW248047   4.230   4.471   6.190
15536SOL     OW48048   5.501   4.066   7.228
15536SOL    HW148049   5.484   4.097   7.134
15536SOL    HW248050   5.417   4.029   7.266
15537SOL     OW48051   5.454   4.658   7.103
15537SOL    HW148052   5.492   4.749   7.118
15537SOL    HW248053   5.446   4.641   7.004
15538SOL     OW48054   4.385   5.514   6.539
15538SOL    HW148055   4.339   5.602   6.526
15538SOL    HW248056   4.484   5.526   6.532
15539SOL     OW48057   4.807   4.708   5.673
15539SOL    HW148058   4.784   4.761   5.591
15539SOL    HW248059   4.888   4.652   5.654
15540SOL     OW48060   5.585   5.293   6.437
15540SOL    HW148061   5.514   5.281   6.367
15540SOL    HW248062   5.586   5.214   6.497
15541SOL     OW48063   3.803   4.964   6.239
15541SOL    HW148064   3.802   4.917   6.327
15541SOL    HW248065   3.885   4.936   6.188
15542SOL     OW48066   5.548   3.916   6.813
15542SOL    HW148067   5.544   3.826   6.857
15542SOL    HW248068   5.551   3.905   6.714
15543SOL     OW48069   4.152   4.148   6.106
15543SOL    HW148070   4.182   4.076   6.044
15543SOL    HW248071   4.113   4.108   6.189
15544SOL     OW48072   5.429   5.211   6.690
15544SOL    HW148073   5.336   5.186   6.663
15544SOL    HW248074   5.455   5.161   6.772
15545SOL     OW48075   4.536   5.310   6.273
15545SOL    HW148076   4.568   5.320   6.179
15545SOL    HW248077   4.457   5.248   6.275
15546SOL     OW48078   5.148   3.938   6.698
15546SOL    HW148079   5.200   3.873   6.753
15546SOL    HW248080   5.099   4.001   6.759
15547SOL     OW48081   4.494   5.054   5.887
15547SOL    HW148082   4.448   4.967   5.904
15547SOL    HW248083   4.585   5.051   5.928
15548SOL     OW48084   4.342   5.291   6.870
15548SOL    HW148085   4.337   5.373   6.927
15548SOL    HW248086   4.431   5.288   6.825
15549SOL     OW48087   5.076   3.776   5.754
15549SOL    HW148088   5.111   3.735   5.670
15549SOL    HW248089   4.986   3.738   5.774
15550SOL     OW48090   5.317   3.945   6.468
15550SOL    HW148091   5.233   3.944   6.522
15550SOL    HW248092   5.319   4.028   6.412
15551SOL     OW48093   4.599   5.370   5.923
15551SOL    HW148094   4.522   5.335   5.869
15551SOL    HW248095   4.567   5.441   5.985
15552SOL     OW48096   5.279   5.235   8.151
15552SOL    HW148097   5.222   5.219   8.232
15552SOL    HW248098   5.220   5.245   8.071
15553SOL     OW48099   5.479   4.331   7.679
15553SOL    HW148100   5.467   4.318   7.580
15553SOL    HW248101   5.449   4.250   7.728
15554SOL     OW48102   4.574   4.522   9.271
15554SOL    HW148103   4.570   4.598   9.336
15554SOL    HW248104   4.596   4.558   9.180
15555SOL     OW48105   4.410   4.885   9.251
15555SOL    HW148106   4.470   4.964   9.265
15555SOL    HW248107   4.324   4.916   9.210
15556SOL     OW48108   5.184   5.229   8.787
15556SOL    HW148109   5.208   5.323   8.813
15556SOL    HW248110   5.168   5.175   8.869
15557SOL     OW48111   4.162   4.116   8.947
15557SOL    HW148112   4.244   4.060   8.956
15557SOL    HW248113   4.081   4.058   8.951
15558SOL     OW48114   5.327   4.171   8.185
15558SOL    HW148115   5.253   4.217   8.135
15558SOL    HW248116   5.378   4.239   8.238
15559SOL     OW48117   3.955   5.437   7.931
15559SOL    HW148118   3.989   5.514   7.985
15559SOL    HW248119   3.999   5.437   7.841
15560SOL     OW48120   4.851   5.065   9.138
15560SOL    HW148121   4.898   5.065   9.226
15560SOL    HW248122   4.803   4.978   9.127
15561SOL     OW48123   3.954   5.158   7.986
15561SOL    HW148124   3.928   5.254   7.986
15561SOL    HW248125   3.883   5.104   8.031
15562SOL     OW48126   4.344   5.510   8.887
15562SOL    HW148127   4.252   5.493   8.922
15562SOL    HW248128   4.372   5.602   8.913
15563SOL     OW48129   5.318   3.838   8.928
15563SOL    HW148130   5.300   3.905   8.856
15563SOL    HW248131   5.315   3.884   9.017
15564SOL     OW48132   5.566   5.491   7.807
15564SOL    HW148133   5.620   5.462   7.887
15564SOL    HW248134   5.596   5.581   7.778
15565SOL     OW48135   3.751   5.320   7.565
15565SOL    HW148136   3.732   5.224   7.586
15565SOL    HW248137   3.718   5.378   7.640
15566SOL     OW48138   5.413   4.646   8.060
15566SOL    HW148139   5.508   4.617   8.068
15566SOL    HW248140   5.405   4.711   7.985
15567SOL     OW48141   5.365   4.832   7.880
15567SOL    HW148142   5.451   4.834   7.828
15567SOL    HW248143   5.379   4.879   7.968
15568SOL     OW48144   3.837   4.461   9.045
15568SOL    HW148145   3.925   4.448   9.090
15568SOL    HW248146   3.824   4.558   9.023
15569SOL     OW48147   5.017   4.952   8.871
15569SOL    HW148148   5.054   4.879   8.813
15569SOL    HW248149   5.069   4.957   8.956
15570SOL     OW48150   4.533   3.728   7.950
15570SOL    HW148151   4.573   3.819   7.941
15570SOL    HW248152   4.433   3.736   7.956
15571SOL     OW48153   5.249   4.723   7.638
15571SOL    HW148154   5.186   4.647   7.651
15571SOL    HW248155   5.297   4.741   7.724
15572SOL     OW48156   4.911   5.516   9.064
15572SOL    HW148157   4.935   5.576   8.988
15572SOL    HW248158   4.918   5.421   9.034
15573SOL     OW48159   4.041   3.975   9.249
15573SOL    HW148160   4.112   4.046   9.255
15573SOL    HW248161   3.953   4.014   9.277
15574SOL     OW48162   5.190   5.141   8.401
15574SOL    HW148163   5.131   5.147   8.481
15574SOL    HW248164   5.175   5.053   8.355
15575SOL     OW48165   5.391   5.438   8.020
15575SOL    HW148166   5.350   5.415   7.932
15575SOL    HW248167   5.373   5.364   8.085
15576SOL     OW48168   5.005   4.069   8.392
15576SOL    HW148169   4.919   4.019   8.379
15576SOL    HW248170   5.067   4.015   8.448
15577SOL     OW48171   5.300   5.386   7.755
15577SOL    HW148172   5.389   5.432   7.758
15577SOL    HW248173   5.279   5.362   7.660
15578SOL     OW48174   4.531   4.329   8.913
15578SOL    HW148175   4.484   4.326   9.002
15578SOL    HW248176   4.480   4.274   8.847
15579SOL     OW48177   5.118   4.193   9.122
15579SOL    HW148178   5.098   4.236   9.210
15579SOL    HW248179   5.196   4.131   9.131
15580SOL     OW48180   4.697   4.614   9.020
15580SOL    HW148181   4.743   4.530   8.991
15580SOL    HW248182   4.641   4.648   8.945
15581SOL     OW48183   4.715   4.134   8.690
15581SOL    HW148184   4.638   4.168   8.744
15581SOL    HW248185   4.681   4.083   8.611
15582SOL     OW48186   3.854   5.545   9.019
15582SOL    HW148187   3.844   5.530   9.118
15582SOL    HW248188   3.768   5.581   8.983
15583SOL     OW48189   5.443   4.309   9.279
15583SOL    HW148190   5.417   4.398   9.243
15583SOL    HW248191   5.441   4.241   9.206
15584SOL     OW48192   5.086   4.868   7.993
15584SOL    HW148193   5.169   4.839   7.945
15584SOL    HW248194   5.037   4.935   7.937
15585SOL     OW48195   4.274   3.920   8.333
15585SOL    HW148196   4.269   3.915   8.433
15585SOL    HW248197   4.276   4.016   8.304
15586SOL     OW48198   4.732   5.180   7.925
15586SOL    HW148199   4.686   5.252   7.873
15586SOL    HW248200   4.728   5.200   8.023
15587SOL     OW48201   4.075   5.525   8.301
15587SOL    HW148202   4.125   5.439   8.307
15587SOL    HW248203   4.140   5.602   8.298
15588SOL     OW48204   5.519   4.790   8.321
15588SOL    HW148205   5.457   4.775   8.245
15588SOL    HW248206   5.467   4.801   8.406
15589SOL     OW48207   4.951   5.274   8.954
15589SOL    HW148208   4.957   5.197   9.018
15589SOL    HW248209   4.899   5.248   8.874
15590SOL     OW48210   4.185   4.990   9.175
15590SOL    HW148211   4.135   4.991   9.089
15590SOL    HW248212   4.122   4.972   9.251
15591SOL     OW48213   4.835   5.500   7.685
15591SOL    HW148214   4.775   5.438   7.735
15591SOL    HW248215   4.866   5.456   7.600
15592SOL     OW48216   5.356   5.101   7.529
15592SOL    HW148217   5.324   5.195   7.519
15592SOL    HW248218   5.280   5.038   7.517
15593SOL     OW48219   4.188   5.467   7.771
15593SOL    HW148220   4.221   5.506   7.857
15593SOL    HW248221   4.264   5.460   7.706
15594SOL     OW48222   3.973   5.509   8.689
15594SOL    HW148223   4.030   5.444   8.739
15594SOL    HW248224   3.957   5.476   8.596
15595SOL     OW48225   4.664   5.422   8.352
15595SOL    HW148226   4.744   5.365   8.373
15595SOL    HW248227   4.615   5.382   8.275
15596SOL     OW48228   4.612   5.238   8.643
15596SOL    HW148229   4.589   5.213   8.549
15596SOL    HW248230   4.673   5.169   8.682
15597SOL     OW48231   5.075   4.314   8.881
15597SOL    HW148232   5.103   4.271   8.966
15597SOL    HW248233   5.100   4.410   8.882
15598SOL     OW48234   4.646   4.227   8.347
15598SOL    HW148235   4.621   4.218   8.251
15598SOL    HW248236   4.694   4.145   8.378
15599SOL     OW48237   4.263   3.788   7.960
15599SOL    HW148238   4.182   3.789   8.018
15599SOL    HW248239   4.266   3.871   7.905
15600SOL     OW48240   5.158   4.912   7.489
15600SOL    HW148241   5.190   4.836   7.546
15600SOL    HW248242   5.066   4.939   7.519
15601SOL     OW48243   4.021   3.759   7.619
15601SOL    HW148244   4.070   3.843   7.598
15601SOL    HW248245   4.083   3.694   7.664
15602SOL     OW48246   4.800   4.407   8.912
15602SOL    HW148247   4.720   4.346   8.915
15602SOL    HW248248   4.881   4.354   8.888
15603SOL     OW48249   4.951   5.294   8.241
15603SOL    HW148250   4.972   5.368   8.176
15603SOL    HW248251   5.019   5.294   8.314
15604SOL     OW48252   4.995   5.521   8.039
15604SOL    HW148253   5.039   5.585   7.975
15604SOL    HW248254   4.945   5.573   8.109
15605SOL     OW48255   4.285   3.946   8.595
15605SOL    HW148256   4.323   3.862   8.632
15605SOL    HW248257   4.197   3.965   8.639
15606SOL     OW48258   4.741   3.763   8.201
15606SOL    HW148259   4.669   3.768   8.132
15606SOL    HW248260   4.717   3.694   8.270
15607SOL     OW48261   5.153   4.897   8.315
15607SOL    HW148262   5.098   4.813   8.308
15607SOL    HW248263   5.179   4.926   8.223
15608SOL     OW48264   5.190   4.314   8.440
15608SOL    HW148265   5.160   4.219   8.447
15608SOL    HW248266   5.263   4.330   8.506
15609SOL     OW48267   5.581   4.557   7.825
15609SOL    HW148268   5.623   4.493   7.889
15609SOL    HW248269   5.543   4.506   7.747
15610SOL     OW48270   4.212   5.109   7.622
15610SOL    HW148271   4.125   5.094   7.669
15610SOL    HW248272   4.195   5.135   7.527
15611SOL     OW48273   5.388   5.004   8.105
15611SOL    HW148274   5.487   5.012   8.119
15611SOL    HW248275   5.343   5.088   8.136
15612SOL     OW48276   5.478   4.947   9.036
15612SOL    HW148277   5.569   4.908   9.023
15612SOL    HW248278   5.486   5.043   9.060
15613SOL     OW48279   4.788   5.071   8.788
15613SOL    HW148280   4.708   5.048   8.843
15613SOL    HW248281   4.871   5.045   8.837
15614SOL     OW48282   5.316   5.353   9.073
15614SOL    HW148283   5.343   5.387   8.983
15614SOL    HW248284   5.395   5.315   9.119
15615SOL     OW48285   4.835   4.919   8.548
15615SOL    HW148286   4.795   4.963   8.629
15615SOL    HW248287   4.794   4.956   8.465
15616SOL     OW48288   5.362   4.823   8.527
15616SOL    HW148289   5.367   4.904   8.586
15616SOL    HW248290   5.276   4.825   8.476
15617SOL     OW48291   4.639   3.813   8.850
15617SOL    HW148292   4.664   3.793   8.755
15617SOL    HW248293   4.711   3.869   8.892
15618SOL     OW48294   4.704   4.840   9.167
15618SOL    HW148295   4.605   4.846   9.177
15618SOL    HW248296   4.727   4.760   9.111
15619SOL     OW48297   4.998   4.110   8.710
15619SOL    HW148298   5.019   4.184   8.774
15619SOL    HW248299   4.909   4.127   8.667
15620SOL     OW48300   3.788   5.288   8.779
15620SOL    HW148301   3.742   5.370   8.745
15620SOL    HW248302   3.886   5.307   8.788
15621SOL     OW48303   4.976   5.072   7.836
15621SOL    HW148304   5.026   5.149   7.876
15621SOL    HW248305   4.881   5.074   7.868
15622SOL     OW48306   4.996   5.169   8.590
15622SOL    HW148307   5.043   5.182   8.677
15622SOL    HW248308   4.930   5.095   8.599
15623SOL     OW48309   5.306   4.363   7.920
15623SOL    HW148310   5.275   4.424   7.993
15623SOL    HW248311   5.356   4.415   7.851
15624SOL     OW48312   4.126   4.475   9.046
15624SOL    HW148313   4.194   4.530   8.999
15624SOL    HW248314   4.166   4.387   9.073
15625SOL     OW48315   5.311   4.503   9.118
15625SOL    HW148316   5.219   4.541   9.113
15625SOL    HW248317   5.371   4.550   9.053
15626SOL     OW48318   5.084   4.586   8.493
15626SOL    HW148319   5.009   4.586   8.427
15626SOL    HW248320   5.121   4.494   8.502
15627SOL     OW48321   4.456   4.358   8.512
15627SOL    HW148322   4.515   4.332   8.436
15627SOL    HW248323   4.428   4.454   8.501
15628SOL     OW48324   5.452   4.659   9.302
15628SOL    HW148325   5.406   4.652   9.213
15628SOL    HW248326   5.390   4.703   9.368
15629SOL     OW48327   4.031   3.787   8.066
15629SOL    HW148328   4.020   3.881   8.099
15629SOL    HW248329   4.026   3.724   8.143
15630SOL     OW48330   5.346   4.091   7.822
15630SOL    HW148331   5.348   4.015   7.886
15630SOL    HW248332   5.298   4.168   7.862
15631SOL     OW48333   4.747   4.490   8.414
15631SOL    HW148334   4.762   4.511   8.510
15631SOL    HW248335   4.717   4.395   8.405
15632SOL     OW48336   4.704   5.297   9.148
15632SOL    HW148337   4.684   5.341   9.060
15632SOL    HW248338   4.743   5.206   9.132
15633SOL     OW48339   5.583   5.242   9.053
15633SOL    HW148340   5.597   5.269   8.958
15633SOL    HW248341   5.666   5.264   9.106
15634SOL     OW48342   4.074   4.622   9.252
15634SOL    HW148343   4.150   4.666   9.300
15634SOL    HW248344   4.109   4.575   9.170
15635SOL     OW48345   5.264   3.998   7.573
15635SOL    HW148346   5.203   3.923   7.596
15635SOL    HW248347   5.286   4.050   7.656
15636SOL     OW48348   5.027   4.562   7.490
15636SOL    HW148349   5.061   4.469   7.505
15636SOL    HW248350   5.045   4.589   7.395
15637SOL     OW48351   4.792   5.057   8.297
15637SOL    HW148352   4.799   4.973   8.242
15637SOL    HW248353   4.854   5.126   8.261
15638SOL     OW48354   4.862   4.104   9.126
15638SOL    HW148355   4.817   4.167   9.190
15638SOL    HW248356   4.955   4.135   9.109
15639SOL     OW48357   4.884   3.931   8.925
15639SOL    HW148358   4.884   3.995   9.002
15639SOL    HW248359   4.912   3.979   8.842
15640SOL     OW48360   3.732   5.050   7.648
15640SOL    HW148361   3.639   5.071   7.617
15640SOL    HW248362   3.742   4.951   7.661
15641SOL     OW48363   3.812   5.525   8.375
15641SOL    HW148364   3.770   5.439   8.348
15641SOL    HW248365   3.906   5.528   8.341
15642SOL     OW48366   4.726   4.520   8.686
15642SOL    HW148367   4.767   4.488   8.772
15642SOL    HW248368   4.630   4.493   8.683
15643SOL     OW48369   3.913   4.244   9.170
15643SOL    HW148370   3.972   4.204   9.100
15643SOL    HW248371   3.855   4.315   9.129
15644SOL     OW48372   5.093   4.674   9.108
15644SOL    HW148373   5.132   4.763   9.128
15644SOL    HW248374   5.103   4.654   9.011
15645SOL     OW48375   5.381   4.328   8.654
15645SOL    HW148376   5.343   4.259   8.716
15645SOL    HW248377   5.463   4.292   8.610
15646SOL     OW48378   3.976   5.288   9.192
15646SOL    HW148379   3.946   5.345   9.268
15646SOL    HW248380   3.969   5.191   9.218
15647SOL     OW48381   4.395   4.188   8.717
15647SOL    HW148382   4.361   4.099   8.687
15647SOL    HW248383   4.421   4.242   8.637
15648SOL     OW48384   4.654   5.402   8.913
15648SOL    HW148385   4.630   5.384   8.818
15648SOL    HW248386   4.684   5.496   8.923
15649SOL     OW48387   3.883   4.861   8.914
15649SOL    HW148388   3.905   4.800   8.990
15649SOL    HW248389   3.893   4.812   8.828
15650SOL     OW48390   5.071   4.783   8.682
15650SOL    HW148391   5.095   4.720   8.608
15650SOL    HW248392   4.981   4.823   8.664
15651SOL     OW48393   5.483   5.471   8.602
15651SOL    HW148394   5.544   5.501   8.529
15651SOL    HW248395   5.445   5.382   8.580
15652SOL     OW48396   4.976   5.455   8.576
15652SOL    HW148397   5.060   5.460   8.522
15652SOL    HW248398   4.953   5.359   8.594
15653SOL     OW48399   4.412   5.386   9.164
15653SOL    HW148400   4.356   5.467   9.173
15653SOL    HW248401   4.464   5.390   9.078
15654SOL     OW48402   5.450   3.859   7.971
15654SOL    HW148403   5.523   3.842   7.904
15654SOL    HW248404   5.419   3.772   8.009
15655SOL     OW48405   5.112   5.297   7.925
15655SOL    HW148406   5.179   5.309   7.851
15655SOL    HW248407   5.072   5.386   7.948
15656SOL     OW48408   3.854   5.518   9.299
15656SOL    HW148409   3.813   5.444   9.352
15656SOL    HW248410   3.918   5.569   9.357
15657SOL     OW48411   4.554   4.997   8.870
15657SOL    HW148412   4.549   5.030   8.965
15657SOL    HW248413   4.468   5.016   8.824
15658SOL     OW48414   4.396   5.340   7.602
15658SOL    HW148415   4.405   5.350   7.503
15658SOL    HW248416   4.356   5.251   7.623
15659SOL     OW48417   5.374   5.444   8.842
15659SOL    HW148418   5.427   5.454   8.758
15659SOL    HW248419   5.347   5.534   8.876
15660SOL     OW48420   5.565   3.899   8.411
15660SOL    HW148421   5.604   3.814   8.375
15660SOL    HW248422   5.467   3.901   8.392
15661SOL     OW48423   4.918   5.336   7.479
15661SOL    HW148424   4.924   5.243   7.516
15661SOL    HW248425   4.859   5.336   7.399
15662SOL     OW48426   4.546   4.726   8.820
15662SOL    HW148427   4.586   4.725   8.728
15662SOL    HW248428   4.556   4.818   8.860
15663SOL     OW48429   5.228   5.331   7.492
15663SOL    HW148430   5.136   5.368   7.499
15663SOL    HW248431   5.266   5.351   7.402
15664SOL     OW48432   5.338   5.016   8.737
15664SOL    HW148433   5.398   5.019   8.817
15664SOL    HW248434   5.263   5.080   8.750
15665SOL     OW48435   4.738   3.960   8.419
15665SOL    HW148436   4.730   3.924   8.326
15665SOL    HW248437   4.736   3.884   8.484
15666SOL     OW48438   4.314   5.211   7.939
15666SOL    HW148439   4.356   5.153   7.869
15666SOL    HW248440   4.270   5.290   7.895
15667SOL     OW48441   5.433   4.109   8.829
15667SOL    HW148442   5.506   4.178   8.833
15667SOL    HW248443   5.461   4.034   8.770
15668SOL     OW48444   3.979   5.072   7.738
15668SOL    HW148445   3.883   5.073   7.711
15668SOL    HW248446   3.991   5.125   7.822
15669SOL     OW48447   3.829   4.737   9.174
15669SOL    HW148448   3.752   4.704   9.228
15669SOL    HW248449   3.914   4.707   9.216
15670SOL     OW48450   3.799   4.069   7.481
15670SOL    HW148451   3.707   4.041   7.452
15670SOL    HW248452   3.830   4.146   7.425
15671SOL     OW48453   5.164   4.580   8.846
15671SOL    HW148454   5.107   4.632   8.783
15671SOL    HW248455   5.260   4.592   8.822
15672SOL     OW48456   3.796   3.890   7.766
15672SOL    HW148457   3.779   3.973   7.712
15672SOL    HW248458   3.886   3.853   7.744
15673SOL     OW48459   4.907   5.059   7.567
15673SOL    HW148460   4.808   5.048   7.569
15673SOL    HW248461   4.941   5.074   7.660
15674SOL     OW48462   4.337   4.566   8.879
15674SOL    HW148463   4.393   4.647   8.862
15674SOL    HW248464   4.396   4.486   8.882
15675SOL     OW48465   5.217   5.491   8.407
15675SOL    HW148466   5.250   5.555   8.338
15675SOL    HW248467   5.283   5.485   8.482
15676SOL     OW48468   4.440   4.289   9.156
15676SOL    HW148469   4.459   4.354   9.230
15676SOL    HW248470   4.500   4.209   9.165
15677SOL     OW48471   5.174   4.944   9.081
15677SOL    HW148472   5.165   4.934   9.180
15677SOL    HW248473   5.270   4.937   9.055
15678SOL     OW48474   4.114   5.465   9.008
15678SOL    HW148475   4.023   5.506   9.006
15678SOL    HW248476   4.107   5.371   9.040
15679SOL     OW48477   5.398   4.607   8.702
15679SOL    HW148478   5.371   4.518   8.665
15679SOL    HW248479   5.399   4.675   8.629
15680SOL     OW48480   5.501   4.066   9.090
15680SOL    HW148481   5.484   4.097   8.996
15680SOL    HW248482   5.417   4.029   9.128
15681SOL     OW48483   5.454   4.658   8.965
15681SOL    HW148484   5.492   4.749   8.980
15681SOL    HW248485   5.446   4.641   8.866
15682SOL     OW48486   4.583   5.098   7.464
15682SOL    HW148487   4.537   5.113   7.552
15682SOL    HW248488   4.627   5.183   7.434
15683SOL     OW48489   4.385   5.514   8.401
15683SOL    HW148490   4.339   5.602   8.388
15683SOL    HW248491   4.484   5.526   8.394
15684SOL     OW48492   4.807   4.708   7.535
15684SOL    HW148493   4.784   4.761   7.453
15684SOL    HW248494   4.888   4.652   7.516
15685SOL     OW48495   5.585   5.293   8.299
15685SOL    HW148496   5.514   5.281   8.229
15685SOL    HW248497   5.586   5.214   8.359
15686SOL     OW48498   3.945   5.038   9.292
15686SOL    HW148499   3.880   4.965   9.271
15686SOL    HW248500   3.949   5.052   9.390
15687SOL     OW48501   3.803   4.964   8.101
15687SOL    HW148502   3.802   4.917   8.189
15687SOL    HW248503   3.885   4.936   8.050
15688SOL     OW48504   4.396   5.115   9.072
15688SOL    HW148505   4.318   5.065   9.110
15688SOL    HW248506   4.393   5.210   9.103
15689SOL     OW48507   5.548   3.916   8.675
15689SOL    HW148508   5.544   3.826   8.719
15689SOL    HW248509   5.551   3.905   8.576
15690SOL     OW48510   5.429   5.211   8.552
15690SOL    HW148511   5.336   5.186   8.525
15690SOL    HW248512   5.455   5.161   8.634
15691SOL     OW48513   4.041   4.271   8.728
15691SOL    HW148514   4.079   4.212   8.800
15691SOL    HW248515   4.081   4.245   8.640
15692SOL     OW48516   4.536   5.310   8.135
15692SOL    HW148517   4.568   5.320   8.041
15692SOL    HW248518   4.457   5.248   8.137
15693SOL     OW48519   5.148   3.938   8.560
15693SOL    HW148520   5.200   3.873   8.615
15693SOL    HW248521   5.099   4.001   8.621
15694SOL     OW48522   4.725   3.758   8.602
15694SOL    HW148523   4.662   3.686   8.571
15694SOL    HW248524   4.818   3.722   8.602
15695SOL     OW48525   4.494   5.054   7.749
15695SOL    HW148526   4.448   4.967   7.766
15695SOL    HW248527   4.585   5.051   7.790
15696SOL     OW48528   4.342   5.291   8.732
15696SOL    HW148529   4.337   5.373   8.789
15696SOL    HW248530   4.431   5.288   8.687
15697SOL     OW48531   5.317   3.945   8.330
15697SOL    HW148532   5.233   3.944   8.384
15697SOL    HW248533   5.319   4.028   8.274
15698SOL     OW48534   4.599   5.370   7.785
15698SOL    HW148535   4.522   5.335   7.731
15698SOL    HW248536   4.567   5.441   7.847
15699SOL     OW48537   3.954   4.352   9.423
15699SOL    HW148538   3.861   4.350   9.460
15699SOL    HW248539   3.955   4.313   9.331
15700SOL     OW48540   3.949   3.999  10.306
15700SOL    HW148541   3.984   3.982  10.398
15700SOL    HW248542   3.861   3.954  10.294
15701SOL     OW48543   3.743   4.092   9.957
15701SOL    HW148544   3.661   4.135   9.996
15701SOL    HW248545   3.715   4.019   9.894
15702SOL     OW48546   4.293   4.999  10.475
15702SOL    HW148547   4.200   4.992  10.438
15702SOL    HW248548   4.304   5.088  10.519
15703SOL     OW48549   5.279   5.235  10.013
15703SOL    HW148550   5.222   5.219  10.094
15703SOL    HW248551   5.220   5.245   9.933
15704SOL     OW48552   4.859   4.427  10.027
15704SOL    HW148553   4.916   4.505  10.002
15704SOL    HW248554   4.799   4.453  10.103
15705SOL     OW48555   5.479   4.331   9.541
15705SOL    HW148556   5.467   4.318   9.442
15705SOL    HW248557   5.449   4.250   9.590
15706SOL     OW48558   4.492   4.868  10.333
15706SOL    HW148559   4.414   4.885  10.393
15706SOL    HW248560   4.526   4.955  10.297
15707SOL     OW48561   4.574   4.522  11.133
15707SOL    HW148562   4.570   4.598  11.198
15707SOL    HW248563   4.596   4.558  11.042
15708SOL     OW48564   4.409   4.736   9.975
15708SOL    HW148565   4.478   4.720  10.045
15708SOL    HW248566   4.336   4.793  10.013
15709SOL     OW48567   4.410   4.885  11.113
15709SOL    HW148568   4.470   4.964  11.127
15709SOL    HW248569   4.324   4.916  11.072
15710SOL     OW48570   4.059   5.159  10.371
15710SOL    HW148571   3.981   5.128  10.318
15710SOL    HW248572   4.117   5.217  10.314
15711SOL     OW48573   5.184   5.229  10.649
15711SOL    HW148574   5.208   5.323  10.675
15711SOL    HW248575   5.168   5.175  10.731
15712SOL     OW48576   4.162   4.116  10.809
15712SOL    HW148577   4.244   4.060  10.818
15712SOL    HW248578   4.081   4.058  10.813
15713SOL     OW48579   5.327   4.171  10.047
15713SOL    HW148580   5.253   4.217   9.997
15713SOL    HW248581   5.378   4.239  10.100
15714SOL     OW48582   3.955   5.437   9.793
15714SOL    HW148583   3.989   5.514   9.847
15714SOL    HW248584   3.999   5.437   9.703
15715SOL     OW48585   4.851   5.065  11.000
15715SOL    HW148586   4.898   5.065  11.088
15715SOL    HW248587   4.803   4.978  10.989
15716SOL     OW48588   3.954   5.158   9.848
15716SOL    HW148589   3.928   5.254   9.848
15716SOL    HW248590   3.883   5.104   9.893
15717SOL     OW48591   3.964   4.815  10.196
15717SOL    HW148592   3.978   4.731  10.248
15717SOL    HW248593   3.909   4.879  10.251
15718SOL     OW48594   4.344   5.510  10.749
15718SOL    HW148595   4.252   5.493  10.784
15718SOL    HW248596   4.372   5.602  10.775
15719SOL     OW48597   4.330   4.688   9.433
15719SOL    HW148598   4.337   4.772   9.379
15719SOL    HW248599   4.376   4.701   9.521
15720SOL     OW48600   5.318   3.838  10.790
15720SOL    HW148601   5.300   3.905  10.718
15720SOL    HW248602   5.315   3.884  10.879
15721SOL     OW48603   3.846   4.367   9.873
15721SOL    HW148604   3.801   4.279   9.890
15721SOL    HW248605   3.845   4.421   9.957
15722SOL     OW48606   5.566   5.491   9.669
15722SOL    HW148607   5.620   5.462   9.749
15722SOL    HW248608   5.596   5.581   9.640
15723SOL     OW48609   3.751   5.320   9.427
15723SOL    HW148610   3.732   5.224   9.448
15723SOL    HW248611   3.718   5.378   9.502
15724SOL     OW48612   5.413   4.646   9.922
15724SOL    HW148613   5.508   4.617   9.930
15724SOL    HW248614   5.405   4.711   9.847
15725SOL     OW48615   5.365   4.832   9.742
15725SOL    HW148616   5.451   4.834   9.690
15725SOL    HW248617   5.379   4.879   9.830
15726SOL     OW48618   3.837   4.461  10.907
15726SOL    HW148619   3.925   4.448  10.952
15726SOL    HW248620   3.824   4.558  10.885
15727SOL     OW48621   4.337   5.089  10.036
15727SOL    HW148622   4.288   5.002  10.045
15727SOL    HW248623   4.314   5.132   9.949
15728SOL     OW48624   5.017   4.952  10.733
15728SOL    HW148625   5.054   4.879  10.675
15728SOL    HW248626   5.069   4.957  10.818
15729SOL     OW48627   4.533   3.728   9.812
15729SOL    HW148628   4.573   3.819   9.803
15729SOL    HW248629   4.433   3.736   9.818
15730SOL     OW48630   3.921   4.700  10.574
15730SOL    HW148631   4.010   4.655  10.560
15730SOL    HW248632   3.848   4.635  10.555
15731SOL     OW48633   5.249   4.723   9.500
15731SOL    HW148634   5.186   4.647   9.513
15731SOL    HW248635   5.297   4.741   9.586
15732SOL     OW48636   4.911   5.516  10.926
15732SOL    HW148637   4.935   5.576  10.850
15732SOL    HW248638   4.918   5.421  10.896
15733SOL     OW48639   4.041   3.975  11.111
15733SOL    HW148640   4.112   4.046  11.117
15733SOL    HW248641   3.953   4.014  11.139
15734SOL     OW48642   5.190   5.141  10.263
15734SOL    HW148643   5.131   5.147  10.343
15734SOL    HW248644   5.175   5.053  10.217
15735SOL     OW48645   5.391   5.438   9.882
15735SOL    HW148646   5.350   5.415   9.794
15735SOL    HW248647   5.373   5.364   9.947
15736SOL     OW48648   4.322   4.453   9.580
15736SOL    HW148649   4.346   4.522   9.512
15736SOL    HW248650   4.244   4.486   9.634
15737SOL     OW48651   5.005   4.069  10.254
15737SOL    HW148652   4.919   4.019  10.241
15737SOL    HW248653   5.067   4.015  10.310
15738SOL     OW48654   5.300   5.386   9.617
15738SOL    HW148655   5.389   5.432   9.620
15738SOL    HW248656   5.279   5.362   9.522
15739SOL     OW48657   4.531   4.329  10.775
15739SOL    HW148658   4.484   4.326  10.864
15739SOL    HW248659   4.480   4.274  10.709
15740SOL     OW48660   5.118   4.193  10.984
15740SOL    HW148661   5.098   4.236  11.072
15740SOL    HW248662   5.196   4.131  10.993
15741SOL     OW48663   4.697   4.614  10.882
15741SOL    HW148664   4.743   4.530  10.853
15741SOL    HW248665   4.641   4.648  10.807
15742SOL     OW48666   4.715   4.134  10.552
15742SOL    HW148667   4.638   4.168  10.606
15742SOL    HW248668   4.681   4.083  10.473
15743SOL     OW48669   4.765   4.425   9.739
15743SOL    HW148670   4.791   4.421   9.835
15743SOL    HW248671   4.680   4.374   9.725
15744SOL     OW48672   3.800   4.535  10.099
15744SOL    HW148673   3.899   4.523  10.108
15744SOL    HW248674   3.776   4.630  10.120
15745SOL     OW48675   3.854   5.545  10.881
15745SOL    HW148676   3.844   5.530  10.980
15745SOL    HW248677   3.768   5.581  10.845
15746SOL     OW48678   5.443   4.309  11.141
15746SOL    HW148679   5.417   4.398  11.105
15746SOL    HW248680   5.441   4.241  11.068
15747SOL     OW48681   5.086   4.868   9.855
15747SOL    HW148682   5.169   4.839   9.807
15747SOL    HW248683   5.037   4.935   9.799
15748SOL     OW48684   4.274   3.920  10.195
15748SOL    HW148685   4.269   3.915  10.295
15748SOL    HW248686   4.276   4.016  10.166
15749SOL     OW48687   4.732   5.180   9.787
15749SOL    HW148688   4.686   5.252   9.735
15749SOL    HW248689   4.728   5.200   9.885
15750SOL     OW48690   4.075   5.525  10.163
15750SOL    HW148691   4.125   5.439  10.169
15750SOL    HW248692   4.140   5.602  10.160
15751SOL     OW48693   5.519   4.790  10.183
15751SOL    HW148694   5.457   4.775  10.107
15751SOL    HW248695   5.467   4.801  10.268
15752SOL     OW48696   4.951   5.274  10.816
15752SOL    HW148697   4.957   5.197  10.880
15752SOL    HW248698   4.899   5.248  10.736
15753SOL     OW48699   4.045   4.667   9.552
15753SOL    HW148700   4.127   4.706   9.510
15753SOL    HW248701   4.018   4.585   9.503
15754SOL     OW48702   5.182   4.459  10.038
15754SOL    HW148703   5.177   4.394  10.113
15754SOL    HW248704   5.262   4.518  10.051
15755SOL     OW48705   4.185   4.990  11.037
15755SOL    HW148706   4.135   4.991  10.951
15755SOL    HW248707   4.122   4.972  11.113
15756SOL     OW48708   4.835   5.500   9.547
15756SOL    HW148709   4.775   5.438   9.597
15756SOL    HW248710   4.866   5.456   9.462
15757SOL     OW48711   3.926   4.009  10.808
15757SOL    HW148712   3.846   4.069  10.795
15757SOL    HW248713   3.916   3.960  10.894
15758SOL     OW48714   5.356   5.101   9.391
15758SOL    HW148715   5.324   5.195   9.381
15758SOL    HW248716   5.280   5.038   9.379
15759SOL     OW48717   4.188   5.467   9.633
15759SOL    HW148718   4.221   5.506   9.719
15759SOL    HW248719   4.264   5.460   9.568
15760SOL     OW48720   5.124   3.831   9.736
15760SOL    HW148721   5.100   3.794   9.646
15760SOL    HW248722   5.223   3.847   9.740
15761SOL     OW48723   3.973   5.509  10.551
15761SOL    HW148724   4.030   5.444  10.601
15761SOL    HW248725   3.957   5.476  10.458
15762SOL     OW48726   4.664   5.422  10.214
15762SOL    HW148727   4.744   5.365  10.235
15762SOL    HW248728   4.615   5.382  10.137
15763SOL     OW48729   4.106   4.424   9.790
15763SOL    HW148730   4.151   4.334   9.787
15763SOL    HW248731   4.012   4.413   9.823
15764SOL     OW48732   5.271   3.946  11.039
15764SOL    HW148733   5.266   3.983  11.131
15764SOL    HW248734   5.199   3.877  11.027
15765SOL     OW48735   4.505   3.988  11.059
15765SOL    HW148736   4.572   3.927  11.102
15765SOL    HW248737   4.432   4.007  11.124
15766SOL     OW48738   4.612   5.238  10.505
15766SOL    HW148739   4.589   5.213  10.411
15766SOL    HW248740   4.673   5.169  10.544
15767SOL     OW48741   5.075   4.314  10.743
15767SOL    HW148742   5.103   4.271  10.828
15767SOL    HW248743   5.100   4.410  10.744
15768SOL     OW48744   4.527   5.126  10.234
15768SOL    HW148745   4.617   5.140  10.192
15768SOL    HW248746   4.456   5.128  10.163
15769SOL     OW48747   4.646   4.227  10.209
15769SOL    HW148748   4.621   4.218  10.113
15769SOL    HW248749   4.694   4.145  10.240
15770SOL     OW48750   4.263   3.788   9.822
15770SOL    HW148751   4.182   3.789   9.880
15770SOL    HW248752   4.266   3.871   9.767
15771SOL     OW48753   5.158   4.912   9.351
15771SOL    HW148754   5.190   4.836   9.408
15771SOL    HW248755   5.066   4.939   9.381
15772SOL     OW48756   4.659   3.960   9.790
15772SOL    HW148757   4.611   4.001   9.712
15772SOL    HW248758   4.758   3.958   9.771
15773SOL     OW48759   4.800   4.407  10.774
15773SOL    HW148760   4.720   4.346  10.777
15773SOL    HW248761   4.881   4.354  10.750
15774SOL     OW48762   4.951   5.294  10.103
15774SOL    HW148763   4.972   5.368  10.038
15774SOL    HW248764   5.019   5.294  10.176
15775SOL     OW48765   4.183   4.876  10.051
15775SOL    HW148766   4.112   4.849  10.116
15775SOL    HW248767   4.157   4.848   9.958
15776SOL     OW48768   4.995   5.521   9.901
15776SOL    HW148769   5.039   5.585   9.837
15776SOL    HW248770   4.945   5.573   9.971
15777SOL     OW48771   4.756   4.273   9.326
15777SOL    HW148772   4.715   4.355   9.287
15777SOL    HW248773   4.820   4.299   9.399
15778SOL     OW48774   3.802   4.280  10.696
15778SOL    HW148775   3.894   4.279  10.655
15778SOL    HW248776   3.796   4.354  10.763
15779SOL     OW48777   4.285   3.946  10.457
15779SOL    HW148778   4.323   3.862  10.494
15779SOL    HW248779   4.197   3.965  10.501
15780SOL     OW48780   4.590   4.178   9.952
15780SOL    HW148781   4.558   4.250   9.890
15780SOL    HW248782   4.614   4.097   9.899
15781SOL     OW48783   4.741   3.763  10.063
15781SOL    HW148784   4.669   3.768   9.994
15781SOL    HW248785   4.717   3.694  10.132
15782SOL     OW48786   5.153   4.897  10.177
15782SOL    HW148787   5.098   4.813  10.170
15782SOL    HW248788   5.179   4.926  10.085
15783SOL     OW48789   5.190   4.314  10.302
15783SOL    HW148790   5.160   4.219  10.309
15783SOL    HW248791   5.263   4.330  10.368
15784SOL     OW48792   5.581   4.557   9.687
15784SOL    HW148793   5.623   4.493   9.751
15784SOL    HW248794   5.543   4.506   9.609
15785SOL     OW48795   4.212   5.109   9.484
15785SOL    HW148796   4.125   5.094   9.531
15785SOL    HW248797   4.195   5.135   9.389
15786SOL     OW48798   5.388   5.004   9.967
15786SOL    HW148799   5.487   5.012   9.981
15786SOL    HW248800   5.343   5.088   9.998
15787SOL     OW48801   5.114   4.299   9.388
15787SOL    HW148802   5.060   4.278   9.469
15787SOL    HW248803   5.205   4.258   9.397
15788SOL     OW48804   4.251   3.980   9.638
15788SOL    HW148805   4.278   3.921   9.563
15788SOL    HW248806   4.251   4.075   9.607
15789SOL     OW48807   5.478   4.947  10.898
15789SOL    HW148808   5.569   4.908  10.885
15789SOL    HW248809   5.486   5.043  10.922
15790SOL     OW48810   4.788   5.071  10.650
15790SOL    HW148811   4.708   5.048  10.705
15790SOL    HW248812   4.871   5.045  10.699
15791SOL     OW48813   5.316   5.353  10.935
15791SOL    HW148814   5.343   5.387  10.845
15791SOL    HW248815   5.395   5.315  10.981
15792SOL     OW48816   4.835   4.919  10.410
15792SOL    HW148817   4.795   4.963  10.491
15792SOL    HW248818   4.794   4.956  10.327
15793SOL     OW48819   5.362   4.823  10.389
15793SOL    HW148820   5.367   4.904  10.448
15793SOL    HW248821   5.276   4.825  10.338
15794SOL     OW48822   4.639   3.813  10.712
15794SOL    HW148823   4.664   3.793  10.617
15794SOL    HW248824   4.711   3.869  10.754
15795SOL     OW48825   4.704   4.840  11.029
15795SOL    HW148826   4.605   4.846  11.039
15795SOL    HW248827   4.727   4.760  10.973
15796SOL     OW48828   4.429   4.774   9.678
15796SOL    HW148829   4.415   4.781   9.777
15796SOL    HW248830   4.513   4.723   9.660
15797SOL     OW48831   4.134   4.537  10.561
15797SOL    HW148832   4.220   4.549  10.611
15797SOL    HW248833   4.092   4.450  10.588
15798SOL     OW48834   4.998   4.110  10.572
15798SOL    HW148835   5.019   4.184  10.636
15798SOL    HW248836   4.909   4.127  10.529
15799SOL     OW48837   3.788   5.288  10.641
15799SOL    HW148838   3.742   5.370  10.607
15799SOL    HW248839   3.886   5.307  10.650
15800SOL     OW48840   4.091   4.824   9.811
15800SOL    HW148841   4.084   4.907   9.755
15800SOL    HW248842   4.095   4.744   9.751
15801SOL     OW48843   4.290   4.261  10.175
15801SOL    HW148844   4.302   4.327  10.101
15801SOL    HW248845   4.336   4.295  10.258
15802SOL     OW48846   4.976   5.072   9.698
15802SOL    HW148847   5.026   5.149   9.738
15802SOL    HW248848   4.881   5.074   9.730
15803SOL     OW48849   4.996   5.169  10.452
15803SOL    HW148850   5.043   5.182  10.539
15803SOL    HW248851   4.930   5.095  10.461
15804SOL     OW48852   5.306   4.363   9.782
15804SOL    HW148853   5.275   4.424   9.855
15804SOL    HW248854   5.356   4.415   9.713
15805SOL     OW48855   4.078   5.234  10.639
15805SOL    HW148856   4.057   5.190  10.552
15805SOL    HW248857   4.175   5.260  10.642
15806SOL     OW48858   4.126   4.475  10.908
15806SOL    HW148859   4.194   4.530  10.861
15806SOL    HW248860   4.166   4.387  10.935
15807SOL     OW48861   5.311   4.503  10.980
15807SOL    HW148862   5.219   4.541  10.975
15807SOL    HW248863   5.371   4.550  10.915
15808SOL     OW48864   4.737   3.829  11.080
15808SOL    HW148865   4.743   3.914  11.028
15808SOL    HW248866   4.769   3.753  11.023
15809SOL     OW48867   4.228   3.774  11.050
15809SOL    HW148868   4.186   3.717  10.980
15809SOL    HW248869   4.162   3.843  11.082
15810SOL     OW48870   4.297   4.594  10.339
15810SOL    HW148871   4.341   4.683  10.330
15810SOL    HW248872   4.234   4.594  10.416
15811SOL     OW48873   5.084   4.586  10.355
15811SOL    HW148874   5.009   4.586  10.289
15811SOL    HW248875   5.121   4.494  10.364
15812SOL     OW48876   4.933   4.249   9.585
15812SOL    HW148877   4.946   4.165   9.639
15812SOL    HW248878   4.904   4.323   9.645
15813SOL     OW48879   4.031   3.937  10.541
15813SOL    HW148880   4.008   3.974  10.631
15813SOL    HW248881   4.001   3.842  10.535
15814SOL     OW48882   3.761   5.034  10.592
15814SOL    HW148883   3.814   4.985  10.660
15814SOL    HW248884   3.783   5.132  10.597
15815SOL     OW48885   4.456   4.358  10.374
15815SOL    HW148886   4.515   4.332  10.298
15815SOL    HW248887   4.428   4.454  10.363
15816SOL     OW48888   5.452   4.659  11.164
15816SOL    HW148889   5.406   4.652  11.075
15816SOL    HW248890   5.390   4.703  11.230
15817SOL     OW48891   4.031   3.787   9.928
15817SOL    HW148892   4.020   3.881   9.961
15817SOL    HW248893   4.026   3.724  10.005
15818SOL     OW48894   5.346   4.091   9.684
15818SOL    HW148895   5.348   4.015   9.748
15818SOL    HW248896   5.298   4.168   9.724
15819SOL     OW48897   4.747   4.490  10.276
15819SOL    HW148898   4.762   4.511  10.372
15819SOL    HW248899   4.717   4.395  10.267
15820SOL     OW48900   4.704   5.297  11.010
15820SOL    HW148901   4.684   5.341  10.922
15820SOL    HW248902   4.743   5.206  10.994
15821SOL     OW48903   5.583   5.242  10.915
15821SOL    HW148904   5.597   5.269  10.820
15821SOL    HW248905   5.666   5.264  10.968
15822SOL     OW48906   4.074   4.622  11.114
15822SOL    HW148907   4.150   4.666  11.162
15822SOL    HW248908   4.109   4.575  11.032
15823SOL     OW48909   5.264   3.998   9.435
15823SOL    HW148910   5.203   3.923   9.458
15823SOL    HW248911   5.286   4.050   9.518
15824SOL     OW48912   5.027   4.562   9.352
15824SOL    HW148913   5.061   4.469   9.367
15824SOL    HW248914   5.045   4.589   9.257
15825SOL     OW48915   4.792   5.057  10.159
15825SOL    HW148916   4.799   4.973  10.104
15825SOL    HW248917   4.854   5.126  10.123
15826SOL     OW48918   4.043   4.534  10.259
15826SOL    HW148919   4.136   4.570  10.264
15826SOL    HW248920   4.037   4.449  10.311
15827SOL     OW48921   4.063   4.233  10.316
15827SOL    HW148922   4.011   4.150  10.299
15827SOL    HW248923   4.140   4.238  10.252
15828SOL     OW48924   4.862   4.104  10.988
15828SOL    HW148925   4.817   4.167  11.052
15828SOL    HW248926   4.955   4.135  10.971
15829SOL     OW48927   4.884   3.931  10.787
15829SOL    HW148928   4.884   3.995  10.864
15829SOL    HW248929   4.912   3.979  10.704
15830SOL     OW48930   3.732   5.050   9.510
15830SOL    HW148931   3.639   5.071   9.479
15830SOL    HW248932   3.742   4.951   9.523
15831SOL     OW48933   3.812   5.525  10.237
15831SOL    HW148934   3.770   5.439  10.210
15831SOL    HW248935   3.906   5.528  10.203
15832SOL     OW48936   4.228   5.292  10.220
15832SOL    HW148937   4.294   5.366  10.229
15832SOL    HW248938   4.272   5.213  10.178
15833SOL     OW48939   4.726   4.520  10.548
15833SOL    HW148940   4.767   4.488  10.634
15833SOL    HW248941   4.630   4.493  10.545
15834SOL     OW48942   3.764   4.268  10.424
15834SOL    HW148943   3.849   4.235  10.383
15834SOL    HW248944   3.777   4.283  10.522
15835SOL     OW48945   3.913   4.244  11.032
15835SOL    HW148946   3.972   4.204  10.962
15835SOL    HW248947   3.855   4.315  10.991
15836SOL     OW48948   5.093   4.674  10.970
15836SOL    HW148949   5.132   4.763  10.990
15836SOL    HW248950   5.103   4.654  10.873
15837SOL     OW48951   4.539   4.296   9.635
15837SOL    HW148952   4.546   4.207   9.589
15837SOL    HW248953   4.445   4.330   9.627
15838SOL     OW48954   5.381   4.328  10.516
15838SOL    HW148955   5.343   4.259  10.578
15838SOL    HW248956   5.463   4.292  10.472
15839SOL     OW48957   3.976   5.288  11.054
15839SOL    HW148958   3.946   5.345  11.130
15839SOL    HW248959   3.969   5.191  11.080
15840SOL     OW48960   4.395   4.188  10.579
15840SOL    HW148961   4.361   4.099  10.549
15840SOL    HW248962   4.421   4.242  10.499
15841SOL     OW48963   4.654   5.402  10.775
15841SOL    HW148964   4.630   5.384  10.680
15841SOL    HW248965   4.684   5.496  10.785
15842SOL     OW48966   4.197   4.224   9.501
15842SOL    HW148967   4.258   4.304   9.505
15842SOL    HW248968   4.102   4.255   9.508
15843SOL     OW48969   3.883   4.861  10.776
15843SOL    HW148970   3.905   4.800  10.852
15843SOL    HW248971   3.893   4.812  10.690
15844SOL     OW48972   5.071   4.783  10.544
15844SOL    HW148973   5.095   4.720  10.470
15844SOL    HW248974   4.981   4.823  10.526
15845SOL     OW48975   5.026   4.579   9.619
15845SOL    HW148976   4.940   4.548   9.661
15845SOL    HW248977   5.022   4.565   9.520
15846SOL     OW48978   5.483   5.471  10.464
15846SOL    HW148979   5.544   5.501  10.391
15846SOL    HW248980   5.445   5.382  10.442
15847SOL     OW48981   4.976   5.455  10.438
15847SOL    HW148982   5.060   5.460  10.384
15847SOL    HW248983   4.953   5.359  10.456
15848SOL     OW48984   3.807   4.982  10.332
15848SOL    HW148985   3.802   4.981  10.432
15848SOL    HW248986   3.724   4.941  10.294
15849SOL     OW48987   4.412   5.386  11.026
15849SOL    HW148988   4.356   5.467  11.035
15849SOL    HW248989   4.464   5.390  10.940
15850SOL     OW48990   5.450   3.859   9.833
15850SOL    HW148991   5.523   3.842   9.766
15850SOL    HW248992   5.419   3.772   9.871
15851SOL     OW48993   5.112   5.297   9.787
15851SOL    HW148994   5.179   5.309   9.713
15851SOL    HW248995   5.072   5.386   9.810
15852SOL     OW48996   3.854   5.518  11.161
15852SOL    HW148997   3.813   5.444  11.214
15852SOL    HW248998   3.918   5.569  11.219
15853SOL     OW48999   5.004   4.651   9.982
15853SOL    HW149000   5.064   4.570   9.984
15853SOL    HW249001   5.044   4.720   9.922
15854SOL     OW49002   4.554   4.997  10.732
15854SOL    HW149003   4.549   5.030  10.827
15854SOL    HW249004   4.468   5.016  10.686
15855SOL     OW49005   4.396   5.340   9.464
15855SOL    HW149006   4.405   5.350   9.365
15855SOL    HW249007   4.356   5.251   9.485
15856SOL     OW49008   5.374   5.444  10.704
15856SOL    HW149009   5.427   5.454  10.620
15856SOL    HW249010   5.347   5.534  10.738
15857SOL     OW49011   5.565   3.899  10.273
15857SOL    HW149012   5.604   3.814  10.237
15857SOL    HW249013   5.467   3.901  10.254
15858SOL     OW49014   3.987   4.050  10.030
15858SOL    HW149015   3.908   4.101   9.996
15858SOL    HW249016   3.978   4.035  10.128
15859SOL     OW49017   4.918   5.336   9.341
15859SOL    HW149018   4.924   5.243   9.378
15859SOL    HW249019   4.859   5.336   9.261
15860SOL     OW49020   4.546   4.726  10.682
15860SOL    HW149021   4.586   4.725  10.590
15860SOL    HW249022   4.556   4.818  10.722
15861SOL     OW49023   4.640   4.634   9.601
15861SOL    HW149024   4.703   4.672   9.533
15861SOL    HW249025   4.680   4.551   9.640
15862SOL     OW49026   5.228   5.331   9.354
15862SOL    HW149027   5.136   5.368   9.361
15862SOL    HW249028   5.266   5.351   9.264
15863SOL     OW49029   4.096   5.012  10.800
15863SOL    HW149030   4.083   5.105  10.766
15863SOL    HW249031   4.012   4.960  10.787
15864SOL     OW49032   5.338   5.016  10.599
15864SOL    HW149033   5.398   5.019  10.679
15864SOL    HW249034   5.263   5.080  10.612
15865SOL     OW49035   4.763   4.822  10.006
15865SOL    HW149036   4.693   4.775  10.060
15865SOL    HW249037   4.822   4.754   9.963
15866SOL     OW49038   4.738   3.960  10.281
15866SOL    HW149039   4.730   3.924  10.188
15866SOL    HW249040   4.736   3.884  10.346
15867SOL     OW49041   4.314   5.211   9.801
15867SOL    HW149042   4.356   5.153   9.731
15867SOL    HW249043   4.270   5.290   9.757
15868SOL     OW49044   5.433   4.109  10.691
15868SOL    HW149045   5.506   4.178  10.695
15868SOL    HW249046   5.461   4.034  10.632
15869SOL     OW49047   3.979   5.072   9.600
15869SOL    HW149048   3.883   5.073   9.573
15869SOL    HW249049   3.991   5.125   9.684
15870SOL     OW49050   3.829   4.737  11.036
15870SOL    HW149051   3.752   4.704  11.090
15870SOL    HW249052   3.914   4.707  11.078
15871SOL     OW49053   4.396   3.927  10.799
15871SOL    HW149054   4.486   3.911  10.759
15871SOL    HW249055   4.404   3.932  10.898
15872SOL     OW49056   3.799   4.069   9.343
15872SOL    HW149057   3.707   4.041   9.314
15872SOL    HW249058   3.830   4.146   9.287
15873SOL     OW49059   5.164   4.580  10.708
15873SOL    HW149060   5.107   4.632  10.645
15873SOL    HW249061   5.260   4.592  10.684
15874SOL     OW49062   4.907   5.059   9.429
15874SOL    HW149063   4.808   5.048   9.431
15874SOL    HW249064   4.941   5.074   9.522
15875SOL     OW49065   4.337   4.566  10.741
15875SOL    HW149066   4.393   4.647  10.724
15875SOL    HW249067   4.396   4.486  10.744
15876SOL     OW49068   5.217   5.491  10.269
15876SOL    HW149069   5.250   5.555  10.200
15876SOL    HW249070   5.283   5.485  10.344
15877SOL     OW49071   4.440   4.289  11.018
15877SOL    HW149072   4.459   4.354  11.092
15877SOL    HW249073   4.500   4.209  11.027
15878SOL     OW49074   5.174   4.944  10.943
15878SOL    HW149075   5.165   4.934  11.042
15878SOL    HW249076   5.270   4.937  10.917
15879SOL     OW49077   4.114   5.465  10.870
15879SOL    HW149078   4.023   5.506  10.868
15879SOL    HW249079   4.107   5.371  10.902
15880SOL     OW49080   5.398   4.607  10.564
15880SOL    HW149081   5.371   4.518  10.527
15880SOL    HW249082   5.399   4.675  10.491
15881SOL     OW49083   4.949   4.049   9.759
15881SOL    HW149084   5.014   3.975   9.748
15881SOL    HW249085   4.969   4.099   9.843
15882SOL     OW49086   4.318   4.469   9.962
15882SOL    HW149087   4.368   4.554   9.943
15882SOL    HW249088   4.230   4.471   9.914
15883SOL     OW49089   5.501   4.066  10.952
15883SOL    HW149090   5.484   4.097  10.858
15883SOL    HW249091   5.417   4.029  10.990
15884SOL     OW49092   5.454   4.658  10.827
15884SOL    HW149093   5.492   4.749  10.842
15884SOL    HW249094   5.446   4.641  10.728
15885SOL     OW49095   4.583   5.098   9.326
15885SOL    HW149096   4.537   5.113   9.414
15885SOL    HW249097   4.627   5.183   9.296
15886SOL     OW49098   4.385   5.514  10.263
15886SOL    HW149099   4.339   5.602  10.250
15886SOL    HW249100   4.484   5.526  10.256
15887SOL     OW49101   4.583   4.680  10.171
15887SOL    HW149102   4.637   4.611  10.219
15887SOL    HW249103   4.551   4.749  10.237
15888SOL     OW49104   4.807   4.708   9.397
15888SOL    HW149105   4.784   4.761   9.315
15888SOL    HW249106   4.888   4.652   9.378
15889SOL     OW49107   5.585   5.293  10.161
15889SOL    HW149108   5.514   5.281  10.091
15889SOL    HW249109   5.586   5.214  10.221
15890SOL     OW49110   3.945   5.038  11.154
15890SOL    HW149111   3.880   4.965  11.133
15890SOL    HW249112   3.949   5.052  11.252
15891SOL     OW49113   3.803   4.964   9.963
15891SOL    HW149114   3.802   4.917  10.051
15891SOL    HW249115   3.885   4.936   9.912
15892SOL     OW49116   4.396   5.115  10.934
15892SOL    HW149117   4.318   5.065  10.972
15892SOL    HW249118   4.393   5.210  10.965
15893SOL     OW49119   5.548   3.916  10.537
15893SOL    HW149120   5.544   3.826  10.581
15893SOL    HW249121   5.551   3.905  10.438
15894SOL     OW49122   4.152   4.148   9.830
15894SOL    HW149123   4.182   4.076   9.768
15894SOL    HW249124   4.113   4.108   9.913
15895SOL     OW49125   5.429   5.211  10.414
15895SOL    HW149126   5.336   5.186  10.387
15895SOL    HW249127   5.455   5.161  10.496
15896SOL     OW49128   4.041   4.271  10.590
15896SOL    HW149129   4.079   4.212  10.662
15896SOL    HW249130   4.081   4.245  10.502
15897SOL     OW49131   4.536   5.310   9.997
15897SOL    HW149132   4.568   5.320   9.903
15897SOL    HW249133   4.457   5.248   9.999
15898SOL     OW49134   5.148   3.938  10.422
15898SOL    HW149135   5.200   3.873  10.477
15898SOL    HW249136   5.099   4.001  10.483
15899SOL     OW49137   4.725   3.758  10.464
15899SOL    HW149138   4.662   3.686  10.433
15899SOL    HW249139   4.818   3.722  10.464
15900SOL     OW49140   4.494   5.054   9.611
15900SOL    HW149141   4.448   4.967   9.628
15900SOL    HW249142   4.585   5.051   9.652
15901SOL     OW49143   4.342   5.291  10.594
15901SOL    HW149144   4.337   5.373  10.651
15901SOL    HW249145   4.431   5.288  10.549
15902SOL     OW49146   5.024   4.177  10.001
15902SOL    HW149147   4.965   4.257  10.005
15902SOL    HW249148   5.039   4.142  10.094
15903SOL     OW49149   5.317   3.945  10.192
15903SOL    HW149150   5.233   3.944  10.246
15903SOL    HW249151   5.319   4.028  10.136
15904SOL     OW49152   3.763   4.801   9.610
15904SOL    HW149153   3.862   4.790   9.601
15904SOL    HW249154   3.723   4.715   9.642
15905SOL     OW49155   4.599   5.370   9.647
15905SOL    HW149156   4.522   5.335   9.593
15905SOL    HW249157   4.567   5.441   9.709
15906SOL     OW49158   3.954   4.352  11.285
15906SOL    HW149159   3.861   4.350  11.322
15906SOL    HW249160   3.955   4.313  11.193
15907SOL     OW49161   3.949   3.999  12.168
15907SOL    HW149162   3.984   3.982  12.260
15907SOL    HW249163   3.861   3.954  12.156
15908SOL     OW49164   3.743   4.092  11.819
15908SOL    HW149165   3.661   4.135  11.858
15908SOL    HW249166   3.715   4.019  11.756
15909SOL     OW49167   4.293   4.999  12.337
15909SOL    HW149168   4.200   4.992  12.300
15909SOL    HW249169   4.304   5.088  12.381
15910SOL     OW49170   5.279   5.235  11.875
15910SOL    HW149171   5.222   5.219  11.956
15910SOL    HW249172   5.220   5.245  11.795
15911SOL     OW49173   4.859   4.427  11.889
15911SOL    HW149174   4.916   4.505  11.864
15911SOL    HW249175   4.799   4.453  11.965
15912SOL     OW49176   5.479   4.331  11.403
15912SOL    HW149177   5.467   4.318  11.304
15912SOL    HW249178   5.449   4.250  11.452
15913SOL     OW49179   4.492   4.868  12.195
15913SOL    HW149180   4.414   4.885  12.255
15913SOL    HW249181   4.526   4.955  12.159
15914SOL     OW49182   4.409   4.736  11.837
15914SOL    HW149183   4.478   4.720  11.907
15914SOL    HW249184   4.336   4.793  11.875
15915SOL     OW49185   4.059   5.159  12.233
15915SOL    HW149186   3.981   5.128  12.180
15915SOL    HW249187   4.117   5.217  12.176
15916SOL     OW49188   5.327   4.171  11.909
15916SOL    HW149189   5.253   4.217  11.859
15916SOL    HW249190   5.378   4.239  11.962
15917SOL     OW49191   3.955   5.437  11.655
15917SOL    HW149192   3.989   5.514  11.709
15917SOL    HW249193   3.999   5.437  11.565
15918SOL     OW49194   3.954   5.158  11.710
15918SOL    HW149195   3.928   5.254  11.710
15918SOL    HW249196   3.883   5.104  11.755
15919SOL     OW49197   3.964   4.815  12.058
15919SOL    HW149198   3.978   4.731  12.110
15919SOL    HW249199   3.909   4.879  12.113
15920SOL     OW49200   4.330   4.688  11.295
15920SOL    HW149201   4.337   4.772  11.241
15920SOL    HW249202   4.376   4.701  11.383
15921SOL     OW49203   3.846   4.367  11.735
15921SOL    HW149204   3.801   4.279  11.752
15921SOL    HW249205   3.845   4.421  11.819
15922SOL     OW49206   5.566   5.491  11.531
15922SOL    HW149207   5.620   5.462  11.611
15922SOL    HW249208   5.596   5.581  11.502
15923SOL     OW49209   3.751   5.320  11.289
15923SOL    HW149210   3.732   5.224  11.310
15923SOL    HW249211   3.718   5.378  11.364
15924SOL     OW49212   5.413   4.646  11.784
15924SOL    HW149213   5.508   4.617  11.792
15924SOL    HW249214   5.405   4.711  11.709
15925SOL     OW49215   5.365   4.832  11.604
15925SOL    HW149216   5.451   4.834  11.552
15925SOL    HW249217   5.379   4.879  11.692
15926SOL     OW49218   3.837   4.461  12.769
15926SOL    HW149219   3.925   4.448  12.814
15926SOL    HW249220   3.824   4.558  12.747
15927SOL     OW49221   4.337   5.089  11.898
15927SOL    HW149222   4.288   5.002  11.907
15927SOL    HW249223   4.314   5.132  11.811
15928SOL     OW49224   4.533   3.728  11.674
15928SOL    HW149225   4.573   3.819  11.665
15928SOL    HW249226   4.433   3.736  11.680
15929SOL     OW49227   3.921   4.700  12.436
15929SOL    HW149228   4.010   4.655  12.422
15929SOL    HW249229   3.848   4.635  12.417
15930SOL     OW49230   5.249   4.723  11.362
15930SOL    HW149231   5.186   4.647  11.375
15930SOL    HW249232   5.297   4.741  11.448
15931SOL     OW49233   5.190   5.141  12.125
15931SOL    HW149234   5.131   5.147  12.205
15931SOL    HW249235   5.175   5.053  12.079
15932SOL     OW49236   5.391   5.438  11.744
15932SOL    HW149237   5.350   5.415  11.656
15932SOL    HW249238   5.373   5.364  11.809
15933SOL     OW49239   4.322   4.453  11.442
15933SOL    HW149240   4.346   4.522  11.374
15933SOL    HW249241   4.244   4.486  11.496
15934SOL     OW49242   5.005   4.069  12.116
15934SOL    HW149243   4.919   4.019  12.103
15934SOL    HW249244   5.067   4.015  12.172
15935SOL     OW49245   5.300   5.386  11.479
15935SOL    HW149246   5.389   5.432  11.482
15935SOL    HW249247   5.279   5.362  11.384
15936SOL     OW49248   4.715   4.134  12.414
15936SOL    HW149249   4.638   4.168  12.468
15936SOL    HW249250   4.681   4.083  12.335
15937SOL     OW49251   4.765   4.425  11.601
15937SOL    HW149252   4.791   4.421  11.697
15937SOL    HW249253   4.680   4.374  11.587
15938SOL     OW49254   3.800   4.535  11.961
15938SOL    HW149255   3.899   4.523  11.970
15938SOL    HW249256   3.776   4.630  11.982
15939SOL     OW49257   4.589   4.072  11.367
15939SOL    HW149258   4.648   4.135  11.318
15939SOL    HW249259   4.608   3.978  11.338
15940SOL     OW49260   5.086   4.868  11.717
15940SOL    HW149261   5.169   4.839  11.669
15940SOL    HW249262   5.037   4.935  11.661
15941SOL     OW49263   4.274   3.920  12.057
15941SOL    HW149264   4.269   3.915  12.157
15941SOL    HW249265   4.276   4.016  12.028
15942SOL     OW49266   4.732   5.180  11.649
15942SOL    HW149267   4.686   5.252  11.597
15942SOL    HW249268   4.728   5.200  11.747
15943SOL     OW49269   4.075   5.525  12.025
15943SOL    HW149270   4.125   5.439  12.031
15943SOL    HW249271   4.140   5.602  12.022
15944SOL     OW49272   5.519   4.790  12.045
15944SOL    HW149273   5.457   4.775  11.969
15944SOL    HW249274   5.467   4.801  12.130
15945SOL     OW49275   4.045   4.667  11.414
15945SOL    HW149276   4.127   4.706  11.372
15945SOL    HW249277   4.018   4.585  11.365
15946SOL     OW49278   5.182   4.459  11.900
15946SOL    HW149279   5.177   4.394  11.975
15946SOL    HW249280   5.262   4.518  11.913
15947SOL     OW49281   4.835   5.500  11.409
15947SOL    HW149282   4.775   5.438  11.459
15947SOL    HW249283   4.866   5.456  11.324
15948SOL     OW49284   5.356   5.101  11.253
15948SOL    HW149285   5.324   5.195  11.243
15948SOL    HW249286   5.280   5.038  11.241
15949SOL     OW49287   4.188   5.467  11.495
15949SOL    HW149288   4.221   5.506  11.581
15949SOL    HW249289   4.264   5.460  11.430
15950SOL     OW49290   5.124   3.831  11.598
15950SOL    HW149291   5.100   3.794  11.508
15950SOL    HW249292   5.223   3.847  11.602
15951SOL     OW49293   3.973   5.509  12.413
15951SOL    HW149294   4.030   5.444  12.463
15951SOL    HW249295   3.957   5.476  12.320
15952SOL     OW49296   4.664   5.422  12.076
15952SOL    HW149297   4.744   5.365  12.097
15952SOL    HW249298   4.615   5.382  11.999
15953SOL     OW49299   4.106   4.424  11.652
15953SOL    HW149300   4.151   4.334  11.649
15953SOL    HW249301   4.012   4.413  11.685
15954SOL     OW49302   4.338   3.846  11.289
15954SOL    HW149303   4.436   3.824  11.296
15954SOL    HW249304   4.307   3.829  11.196
15955SOL     OW49305   4.527   5.126  12.096
15955SOL    HW149306   4.617   5.140  12.054
15955SOL    HW249307   4.456   5.128  12.025
15956SOL     OW49308   4.646   4.227  12.071
15956SOL    HW149309   4.621   4.218  11.975
15956SOL    HW249310   4.694   4.145  12.102
15957SOL     OW49311   4.263   3.788  11.684
15957SOL    HW149312   4.182   3.789  11.742
15957SOL    HW249313   4.266   3.871  11.629
15958SOL     OW49314   5.158   4.912  11.213
15958SOL    HW149315   5.190   4.836  11.270
15958SOL    HW249316   5.066   4.939  11.243
15959SOL     OW49317   4.021   3.759  11.343
15959SOL    HW149318   4.070   3.843  11.322
15959SOL    HW249319   4.083   3.694  11.388
15960SOL     OW49320   4.659   3.960  11.652
15960SOL    HW149321   4.611   4.001  11.574
15960SOL    HW249322   4.758   3.958  11.633
15961SOL     OW49323   4.951   5.294  11.965
15961SOL    HW149324   4.972   5.368  11.900
15961SOL    HW249325   5.019   5.294  12.038
15962SOL     OW49326   4.183   4.876  11.913
15962SOL    HW149327   4.112   4.849  11.978
15962SOL    HW249328   4.157   4.848  11.820
15963SOL     OW49329   4.995   5.521  11.763
15963SOL    HW149330   5.039   5.585  11.699
15963SOL    HW249331   4.945   5.573  11.833
15964SOL     OW49332   4.756   4.273  11.188
15964SOL    HW149333   4.715   4.355  11.149
15964SOL    HW249334   4.820   4.299  11.261
15965SOL     OW49335   4.285   3.946  12.319
15965SOL    HW149336   4.323   3.862  12.356
15965SOL    HW249337   4.197   3.965  12.363
15966SOL     OW49338   4.590   4.178  11.814
15966SOL    HW149339   4.558   4.250  11.752
15966SOL    HW249340   4.614   4.097  11.761
15967SOL     OW49341   4.741   3.763  11.925
15967SOL    HW149342   4.669   3.768  11.856
15967SOL    HW249343   4.717   3.694  11.994
15968SOL     OW49344   5.153   4.897  12.039
15968SOL    HW149345   5.098   4.813  12.032
15968SOL    HW249346   5.179   4.926  11.947
15969SOL     OW49347   5.190   4.314  12.164
15969SOL    HW149348   5.160   4.219  12.171
15969SOL    HW249349   5.263   4.330  12.230
15970SOL     OW49350   5.581   4.557  11.549
15970SOL    HW149351   5.623   4.493  11.613
15970SOL    HW249352   5.543   4.506  11.471
15971SOL     OW49353   4.212   5.109  11.346
15971SOL    HW149354   4.125   5.094  11.393
15971SOL    HW249355   4.195   5.135  11.251
15972SOL     OW49356   5.388   5.004  11.829
15972SOL    HW149357   5.487   5.012  11.843
15972SOL    HW249358   5.343   5.088  11.860
15973SOL     OW49359   5.114   4.299  11.250
15973SOL    HW149360   5.060   4.278  11.331
15973SOL    HW249361   5.205   4.258  11.259
15974SOL     OW49362   4.251   3.980  11.500
15974SOL    HW149363   4.278   3.921  11.425
15974SOL    HW249364   4.251   4.075  11.469
15975SOL     OW49365   4.835   4.919  12.272
15975SOL    HW149366   4.795   4.963  12.353
15975SOL    HW249367   4.794   4.956  12.189
15976SOL     OW49368   5.362   4.823  12.251
15976SOL    HW149369   5.367   4.904  12.310
15976SOL    HW249370   5.276   4.825  12.200
15977SOL     OW49371   4.429   4.774  11.540
15977SOL    HW149372   4.415   4.781  11.639
15977SOL    HW249373   4.513   4.723  11.522
15978SOL     OW49374   4.134   4.537  12.423
15978SOL    HW149375   4.220   4.549  12.473
15978SOL    HW249376   4.092   4.450  12.450
15979SOL     OW49377   4.998   4.110  12.434
15979SOL    HW149378   5.019   4.184  12.498
15979SOL    HW249379   4.909   4.127  12.391
15980SOL     OW49380   4.091   4.824  11.673
15980SOL    HW149381   4.084   4.907  11.617
15980SOL    HW249382   4.095   4.744  11.613
15981SOL     OW49383   4.290   4.261  12.037
15981SOL    HW149384   4.302   4.327  11.963
15981SOL    HW249385   4.336   4.295  12.120
15982SOL     OW49386   4.976   5.072  11.560
15982SOL    HW149387   5.026   5.149  11.600
15982SOL    HW249388   4.881   5.074  11.592
15983SOL     OW49389   4.996   5.169  12.314
15983SOL    HW149390   5.043   5.182  12.401
15983SOL    HW249391   4.930   5.095  12.323
15984SOL     OW49392   5.306   4.363  11.644
15984SOL    HW149393   5.275   4.424  11.717
15984SOL    HW249394   5.356   4.415  11.575
15985SOL     OW49395   4.078   5.234  12.501
15985SOL    HW149396   4.057   5.190  12.414
15985SOL    HW249397   4.175   5.260  12.504
15986SOL     OW49398   4.297   4.594  12.201
15986SOL    HW149399   4.341   4.683  12.192
15986SOL    HW249400   4.234   4.594  12.278
15987SOL     OW49401   5.084   4.586  12.217
15987SOL    HW149402   5.009   4.586  12.151
15987SOL    HW249403   5.121   4.494  12.226
15988SOL     OW49404   4.933   4.249  11.447
15988SOL    HW149405   4.946   4.165  11.501
15988SOL    HW249406   4.904   4.323  11.507
15989SOL     OW49407   4.031   3.937  12.403
15989SOL    HW149408   4.008   3.974  12.493
15989SOL    HW249409   4.001   3.842  12.397
15990SOL     OW49410   3.761   5.034  12.454
15990SOL    HW149411   3.814   4.985  12.522
15990SOL    HW249412   3.783   5.132  12.459
15991SOL     OW49413   4.456   4.358  12.236
15991SOL    HW149414   4.515   4.332  12.160
15991SOL    HW249415   4.428   4.454  12.225
15992SOL     OW49416   4.031   3.787  11.790
15992SOL    HW149417   4.020   3.881  11.823
15992SOL    HW249418   4.026   3.724  11.867
15993SOL     OW49419   5.346   4.091  11.546
15993SOL    HW149420   5.348   4.015  11.610
15993SOL    HW249421   5.298   4.168  11.586
15994SOL     OW49422   4.747   4.490  12.138
15994SOL    HW149423   4.762   4.511  12.234
15994SOL    HW249424   4.717   4.395  12.129
15995SOL     OW49425   5.264   3.998  11.297
15995SOL    HW149426   5.203   3.923  11.320
15995SOL    HW249427   5.286   4.050  11.380
15996SOL     OW49428   5.027   4.562  11.214
15996SOL    HW149429   5.061   4.469  11.229
15996SOL    HW249430   5.045   4.589  11.119
15997SOL     OW49431   4.792   5.057  12.021
15997SOL    HW149432   4.799   4.973  11.966
15997SOL    HW249433   4.854   5.126  11.985
15998SOL     OW49434   4.043   4.534  12.121
15998SOL    HW149435   4.136   4.570  12.126
15998SOL    HW249436   4.037   4.449  12.173
15999SOL     OW49437   4.063   4.233  12.178
15999SOL    HW149438   4.011   4.150  12.161
15999SOL    HW249439   4.140   4.238  12.114
16000SOL     OW49440   4.884   3.931  12.649
16000SOL    HW149441   4.884   3.995  12.726
16000SOL    HW249442   4.912   3.979  12.566
16001SOL     OW49443   3.732   5.050  11.372
16001SOL    HW149444   3.639   5.071  11.341
16001SOL    HW249445   3.742   4.951  11.385
16002SOL     OW49446   3.812   5.525  12.099
16002SOL    HW149447   3.770   5.439  12.072
16002SOL    HW249448   3.906   5.528  12.065
16003SOL     OW49449   4.228   5.292  12.082
16003SOL    HW149450   4.294   5.366  12.091
16003SOL    HW249451   4.272   5.213  12.040
16004SOL     OW49452   4.726   4.520  12.410
16004SOL    HW149453   4.767   4.488  12.496
16004SOL    HW249454   4.630   4.493  12.407
16005SOL     OW49455   3.764   4.268  12.286
16005SOL    HW149456   3.849   4.235  12.245
16005SOL    HW249457   3.777   4.283  12.384
16006SOL     OW49458   4.539   4.296  11.497
16006SOL    HW149459   4.546   4.207  11.451
16006SOL    HW249460   4.445   4.330  11.489
16007SOL     OW49461   5.381   4.328  12.378
16007SOL    HW149462   5.343   4.259  12.440
16007SOL    HW249463   5.463   4.292  12.334
16008SOL     OW49464   4.395   4.188  12.441
16008SOL    HW149465   4.361   4.099  12.411
16008SOL    HW249466   4.421   4.242  12.361
16009SOL     OW49467   4.654   5.402  12.637
16009SOL    HW149468   4.630   5.384  12.542
16009SOL    HW249469   4.684   5.496  12.647
16010SOL     OW49470   4.197   4.224  11.363
16010SOL    HW149471   4.258   4.304  11.367
16010SOL    HW249472   4.102   4.255  11.370
16011SOL     OW49473   5.071   4.783  12.406
16011SOL    HW149474   5.095   4.720  12.332
16011SOL    HW249475   4.981   4.823  12.388
16012SOL     OW49476   5.026   4.579  11.481
16012SOL    HW149477   4.940   4.548  11.523
16012SOL    HW249478   5.022   4.565  11.382
16013SOL     OW49479   5.483   5.471  12.326
16013SOL    HW149480   5.544   5.501  12.253
16013SOL    HW249481   5.445   5.382  12.304
16014SOL     OW49482   4.976   5.455  12.300
16014SOL    HW149483   5.060   5.460  12.246
16014SOL    HW249484   4.953   5.359  12.318
16015SOL     OW49485   3.807   4.982  12.194
16015SOL    HW149486   3.802   4.981  12.294
16015SOL    HW249487   3.724   4.941  12.156
16016SOL     OW49488   5.450   3.859  11.695
16016SOL    HW149489   5.523   3.842  11.628
16016SOL    HW249490   5.419   3.772  11.733
16017SOL     OW49491   5.112   5.297  11.649
16017SOL    HW149492   5.179   5.309  11.575
16017SOL    HW249493   5.072   5.386  11.672
16018SOL     OW49494   5.004   4.651  11.844
16018SOL    HW149495   5.064   4.570  11.846
16018SOL    HW249496   5.044   4.720  11.784
16019SOL     OW49497   4.396   5.340  11.326
16019SOL    HW149498   4.405   5.350  11.227
16019SOL    HW249499   4.356   5.251  11.347
16020SOL     OW49500   5.374   5.444  12.566
16020SOL    HW149501   5.427   5.454  12.482
16020SOL    HW249502   5.347   5.534  12.600
16021SOL     OW49503   5.565   3.899  12.135
16021SOL    HW149504   5.604   3.814  12.099
16021SOL    HW249505   5.467   3.901  12.116
16022SOL     OW49506   3.987   4.050  11.892
16022SOL    HW149507   3.908   4.101  11.858
16022SOL    HW249508   3.978   4.035  11.990
16023SOL     OW49509   4.918   5.336  11.203
16023SOL    HW149510   4.924   5.243  11.240
16023SOL    HW249511   4.859   5.336  11.123
16024SOL     OW49512   4.546   4.726  12.544
16024SOL    HW149513   4.586   4.725  12.452
16024SOL    HW249514   4.556   4.818  12.584
16025SOL     OW49515   4.640   4.634  11.463
16025SOL    HW149516   4.703   4.672  11.395
16025SOL    HW249517   4.680   4.551  11.502
16026SOL     OW49518   5.228   5.331  11.216
16026SOL    HW149519   5.136   5.368  11.223
16026SOL    HW249520   5.266   5.351  11.126
16027SOL     OW49521   4.763   4.822  11.868
16027SOL    HW149522   4.693   4.775  11.922
16027SOL    HW249523   4.822   4.754  11.825
16028SOL     OW49524   4.738   3.960  12.143
16028SOL    HW149525   4.730   3.924  12.050
16028SOL    HW249526   4.736   3.884  12.208
16029SOL     OW49527   4.314   5.211  11.663
16029SOL    HW149528   4.356   5.153  11.593
16029SOL    HW249529   4.270   5.290  11.619
16030SOL     OW49530   5.433   4.109  12.553
16030SOL    HW149531   5.506   4.178  12.557
16030SOL    HW249532   5.461   4.034  12.494
16031SOL     OW49533   3.979   5.072  11.462
16031SOL    HW149534   3.883   5.073  11.435
16031SOL    HW249535   3.991   5.125  11.546
16032SOL     OW49536   3.799   4.069  11.205
16032SOL    HW149537   3.707   4.041  11.176
16032SOL    HW249538   3.830   4.146  11.149
16033SOL     OW49539   3.796   3.890  11.490
16033SOL    HW149540   3.779   3.973  11.436
16033SOL    HW249541   3.886   3.853  11.468
16034SOL     OW49542   4.907   5.059  11.291
16034SOL    HW149543   4.808   5.048  11.293
16034SOL    HW249544   4.941   5.074  11.384
16035SOL     OW49545   5.217   5.491  12.131
16035SOL    HW149546   5.250   5.555  12.062
16035SOL    HW249547   5.283   5.485  12.206
16036SOL     OW49548   5.398   4.607  12.426
16036SOL    HW149549   5.371   4.518  12.389
16036SOL    HW249550   5.399   4.675  12.353
16037SOL     OW49551   4.949   4.049  11.621
16037SOL    HW149552   5.014   3.975  11.610
16037SOL    HW249553   4.969   4.099  11.705
16038SOL     OW49554   4.318   4.469  11.824
16038SOL    HW149555   4.368   4.554  11.805
16038SOL    HW249556   4.230   4.471  11.776
16039SOL     OW49557   5.454   4.658  12.689
16039SOL    HW149558   5.492   4.749  12.704
16039SOL    HW249559   5.446   4.641  12.590
16040SOL     OW49560   4.583   5.098  11.188
16040SOL    HW149561   4.537   5.113  11.276
16040SOL    HW249562   4.627   5.183  11.158
16041SOL     OW49563   4.385   5.514  12.125
16041SOL    HW149564   4.339   5.602  12.112
16041SOL    HW249565   4.484   5.526  12.118
16042SOL     OW49566   4.583   4.680  12.033
16042SOL    HW149567   4.637   4.611  12.081
16042SOL    HW249568   4.551   4.749  12.099
16043SOL     OW49569   4.807   4.708  11.259
16043SOL    HW149570   4.784   4.761  11.177
16043SOL    HW249571   4.888   4.652  11.240
16044SOL     OW49572   5.585   5.293  12.023
16044SOL    HW149573   5.514   5.281  11.953
16044SOL    HW249574   5.586   5.214  12.083
16045SOL     OW49575   3.803   4.964  11.825
16045SOL    HW149576   3.802   4.917  11.913
16045SOL    HW249577   3.885   4.936  11.774
16046SOL     OW49578   5.548   3.916  12.399
16046SOL    HW149579   5.544   3.826  12.443
16046SOL    HW249580   5.551   3.905  12.300
16047SOL     OW49581   4.152   4.148  11.692
16047SOL    HW149582   4.182   4.076  11.630
16047SOL    HW249583   4.113   4.108  11.775
16048SOL     OW49584   5.429   5.211  12.276
16048SOL    HW149585   5.336   5.186  12.249
16048SOL    HW249586   5.455   5.161  12.358
16049SOL     OW49587   4.536   5.310  11.859
16049SOL    HW149588   4.568   5.320  11.765
16049SOL    HW249589   4.457   5.248  11.861
16050SOL     OW49590   5.148   3.938  12.284
16050SOL    HW149591   5.200   3.873  12.339
16050SOL    HW249592   5.099   4.001  12.345
16051SOL     OW49593   4.725   3.758  12.326
16051SOL    HW149594   4.662   3.686  12.295
16051SOL    HW249595   4.818   3.722  12.326
16052SOL     OW49596   4.494   5.054  11.473
16052SOL    HW149597   4.448   4.967  11.490
16052SOL    HW249598   4.585   5.051  11.514
16053SOL     OW49599   5.076   3.776  11.340
16053SOL    HW149600   5.111   3.735  11.256
16053SOL    HW249601   4.986   3.738  11.360
16054SOL     OW49602   5.024   4.177  11.863
16054SOL    HW149603   4.965   4.257  11.867
16054SOL    HW249604   5.039   4.142  11.956
16055SOL     OW49605   5.317   3.945  12.054
16055SOL    HW149606   5.233   3.944  12.108
16055SOL    HW249607   5.319   4.028  11.998
16056SOL     OW49608   3.763   4.801  11.472
16056SOL    HW149609   3.862   4.790  11.463
16056SOL    HW249610   3.723   4.715  11.504
16057SOL     OW49611   4.599   5.370  11.509
16057SOL    HW149612   4.522   5.335  11.455
16057SOL    HW249613   4.567   5.441  11.571
16058SOL     OW49614   3.954   6.214   0.113
16058SOL    HW149615   3.861   6.212   0.150
16058SOL    HW249616   3.955   6.175   0.021
16059SOL     OW49617   3.949   5.861   0.996
16059SOL    HW149618   3.984   5.844   1.088
16059SOL    HW249619   3.861   5.816   0.984
16060SOL     OW49620   3.743   5.954   0.647
16060SOL    HW149621   3.661   5.997   0.686
16060SOL    HW249622   3.715   5.881   0.584
16061SOL     OW49623   4.293   6.861   1.165
16061SOL    HW149624   4.200   6.854   1.128
16061SOL    HW249625   4.304   6.950   1.209
16062SOL     OW49626   5.279   7.097   0.703
16062SOL    HW149627   5.222   7.081   0.784
16062SOL    HW249628   5.220   7.107   0.623
16063SOL     OW49629   4.859   6.289   0.717
16063SOL    HW149630   4.916   6.367   0.692
16063SOL    HW249631   4.799   6.315   0.793
16064SOL     OW49632   5.479   6.193   0.231
16064SOL    HW149633   5.467   6.180   0.132
16064SOL    HW249634   5.449   6.112   0.280
16065SOL     OW49635   4.492   6.730   1.023
16065SOL    HW149636   4.414   6.747   1.083
16065SOL    HW249637   4.526   6.817   0.987
16066SOL     OW49638   4.574   6.384   1.823
16066SOL    HW149639   4.570   6.460   1.888
16066SOL    HW249640   4.596   6.420   1.732
16067SOL     OW49641   4.409   6.598   0.665
16067SOL    HW149642   4.478   6.582   0.735
16067SOL    HW249643   4.336   6.655   0.703
16068SOL     OW49644   4.410   6.747   1.803
16068SOL    HW149645   4.470   6.826   1.817
16068SOL    HW249646   4.324   6.778   1.762
16069SOL     OW49647   4.059   7.021   1.061
16069SOL    HW149648   3.981   6.990   1.008
16069SOL    HW249649   4.117   7.079   1.004
16070SOL     OW49650   5.184   7.091   1.339
16070SOL    HW149651   5.208   7.185   1.365
16070SOL    HW249652   5.168   7.037   1.421
16071SOL     OW49653   4.162   5.978   1.499
16071SOL    HW149654   4.244   5.922   1.508
16071SOL    HW249655   4.081   5.920   1.503
16072SOL     OW49656   5.327   6.033   0.737
16072SOL    HW149657   5.253   6.079   0.687
16072SOL    HW249658   5.378   6.101   0.790
16073SOL     OW49659   3.955   7.299   0.483
16073SOL    HW149660   3.989   7.376   0.537
16073SOL    HW249661   3.999   7.299   0.393
16074SOL     OW49662   4.851   6.927   1.690
16074SOL    HW149663   4.898   6.927   1.778
16074SOL    HW249664   4.803   6.840   1.679
16075SOL     OW49665   3.954   7.020   0.538
16075SOL    HW149666   3.928   7.116   0.538
16075SOL    HW249667   3.883   6.966   0.583
16076SOL     OW49668   3.964   6.677   0.886
16076SOL    HW149669   3.978   6.593   0.938
16076SOL    HW249670   3.909   6.741   0.941
16077SOL     OW49671   4.344   7.372   1.439
16077SOL    HW149672   4.252   7.355   1.474
16077SOL    HW249673   4.372   7.464   1.465
16078SOL     OW49674   4.330   6.550   0.123
16078SOL    HW149675   4.337   6.634   0.069
16078SOL    HW249676   4.376   6.563   0.211
16079SOL     OW49677   5.318   5.700   1.480
16079SOL    HW149678   5.300   5.767   1.408
16079SOL    HW249679   5.315   5.746   1.569
16080SOL     OW49680   3.846   6.229   0.563
16080SOL    HW149681   3.801   6.141   0.580
16080SOL    HW249682   3.845   6.283   0.647
16081SOL     OW49683   5.566   7.353   0.359
16081SOL    HW149684   5.620   7.324   0.439
16081SOL    HW249685   5.596   7.443   0.330
16082SOL     OW49686   3.751   7.182   0.117
16082SOL    HW149687   3.732   7.086   0.138
16082SOL    HW249688   3.718   7.240   0.192
16083SOL     OW49689   5.413   6.508   0.612
16083SOL    HW149690   5.508   6.479   0.620
16083SOL    HW249691   5.405   6.573   0.537
16084SOL     OW49692   5.365   6.694   0.432
16084SOL    HW149693   5.451   6.696   0.380
16084SOL    HW249694   5.379   6.741   0.520
16085SOL     OW49695   3.837   6.323   1.597
16085SOL    HW149696   3.925   6.310   1.642
16085SOL    HW249697   3.824   6.420   1.575
16086SOL     OW49698   4.337   6.951   0.726
16086SOL    HW149699   4.288   6.864   0.735
16086SOL    HW249700   4.314   6.994   0.639
16087SOL     OW49701   5.017   6.814   1.423
16087SOL    HW149702   5.054   6.741   1.365
16087SOL    HW249703   5.069   6.819   1.508
16088SOL     OW49704   4.533   5.590   0.502
16088SOL    HW149705   4.573   5.681   0.493
16088SOL    HW249706   4.433   5.598   0.508
16089SOL     OW49707   3.921   6.562   1.264
16089SOL    HW149708   4.010   6.517   1.250
16089SOL    HW249709   3.848   6.497   1.245
16090SOL     OW49710   5.249   6.585   0.190
16090SOL    HW149711   5.186   6.509   0.203
16090SOL    HW249712   5.297   6.603   0.276
16091SOL     OW49713   4.911   7.378   1.616
16091SOL    HW149714   4.935   7.438   1.540
16091SOL    HW249715   4.918   7.283   1.586
16092SOL     OW49716   4.041   5.837   1.801
16092SOL    HW149717   4.112   5.908   1.807
16092SOL    HW249718   3.953   5.876   1.829
16093SOL     OW49719   5.190   7.003   0.953
16093SOL    HW149720   5.131   7.009   1.033
16093SOL    HW249721   5.175   6.915   0.907
16094SOL     OW49722   5.391   7.300   0.572
16094SOL    HW149723   5.350   7.277   0.484
16094SOL    HW249724   5.373   7.226   0.637
16095SOL     OW49725   4.322   6.315   0.270
16095SOL    HW149726   4.346   6.384   0.202
16095SOL    HW249727   4.244   6.348   0.324
16096SOL     OW49728   5.005   5.931   0.944
16096SOL    HW149729   4.919   5.881   0.931
16096SOL    HW249730   5.067   5.877   1.000
16097SOL     OW49731   5.300   7.248   0.307
16097SOL    HW149732   5.389   7.294   0.310
16097SOL    HW249733   5.279   7.224   0.212
16098SOL     OW49734   4.531   6.191   1.465
16098SOL    HW149735   4.484   6.188   1.554
16098SOL    HW249736   4.480   6.136   1.399
16099SOL     OW49737   5.118   6.055   1.674
16099SOL    HW149738   5.098   6.098   1.762
16099SOL    HW249739   5.196   5.993   1.683
16100SOL     OW49740   4.697   6.476   1.572
16100SOL    HW149741   4.743   6.392   1.543
16100SOL    HW249742   4.641   6.510   1.497
16101SOL     OW49743   4.715   5.996   1.242
16101SOL    HW149744   4.638   6.030   1.296
16101SOL    HW249745   4.681   5.945   1.163
16102SOL     OW49746   4.765   6.287   0.429
16102SOL    HW149747   4.791   6.283   0.525
16102SOL    HW249748   4.680   6.236   0.415
16103SOL     OW49749   3.800   6.397   0.789
16103SOL    HW149750   3.899   6.385   0.798
16103SOL    HW249751   3.776   6.492   0.810
16104SOL     OW49752   3.854   7.407   1.571
16104SOL    HW149753   3.844   7.392   1.670
16104SOL    HW249754   3.768   7.443   1.535
16105SOL     OW49755   4.589   5.934   0.195
16105SOL    HW149756   4.648   5.997   0.146
16105SOL    HW249757   4.608   5.840   0.166
16106SOL     OW49758   5.443   6.171   1.831
16106SOL    HW149759   5.417   6.260   1.795
16106SOL    HW249760   5.441   6.103   1.758
16107SOL     OW49761   5.086   6.730   0.545
16107SOL    HW149762   5.169   6.701   0.497
16107SOL    HW249763   5.037   6.797   0.489
16108SOL     OW49764   4.274   5.782   0.885
16108SOL    HW149765   4.269   5.777   0.985
16108SOL    HW249766   4.276   5.878   0.856
16109SOL     OW49767   4.732   7.042   0.477
16109SOL    HW149768   4.686   7.114   0.425
16109SOL    HW249769   4.728   7.062   0.575
16110SOL     OW49770   4.075   7.387   0.853
16110SOL    HW149771   4.125   7.301   0.859
16110SOL    HW249772   4.140   7.464   0.850
16111SOL     OW49773   5.519   6.652   0.873
16111SOL    HW149774   5.457   6.637   0.797
16111SOL    HW249775   5.467   6.663   0.958
16112SOL     OW49776   4.951   7.136   1.506
16112SOL    HW149777   4.957   7.059   1.570
16112SOL    HW249778   4.899   7.110   1.426
16113SOL     OW49779   4.045   6.529   0.242
16113SOL    HW149780   4.127   6.568   0.200
16113SOL    HW249781   4.018   6.447   0.193
16114SOL     OW49782   5.182   6.321   0.728
16114SOL    HW149783   5.177   6.256   0.803
16114SOL    HW249784   5.262   6.380   0.741
16115SOL     OW49785   4.185   6.852   1.727
16115SOL    HW149786   4.135   6.853   1.641
16115SOL    HW249787   4.122   6.834   1.803
16116SOL     OW49788   4.835   7.362   0.237
16116SOL    HW149789   4.775   7.300   0.287
16116SOL    HW249790   4.866   7.318   0.152
16117SOL     OW49791   3.926   5.871   1.498
16117SOL    HW149792   3.846   5.931   1.485
16117SOL    HW249793   3.916   5.822   1.584
16118SOL     OW49794   5.356   6.963   0.081
16118SOL    HW149795   5.324   7.057   0.071
16118SOL    HW249796   5.280   6.900   0.069
16119SOL     OW49797   4.188   7.329   0.323
16119SOL    HW149798   4.221   7.368   0.409
16119SOL    HW249799   4.264   7.322   0.258
16120SOL     OW49800   5.124   5.693   0.426
16120SOL    HW149801   5.100   5.656   0.336
16120SOL    HW249802   5.223   5.709   0.430
16121SOL     OW49803   3.973   7.371   1.241
16121SOL    HW149804   4.030   7.306   1.291
16121SOL    HW249805   3.957   7.338   1.148
16122SOL     OW49806   4.664   7.284   0.904
16122SOL    HW149807   4.744   7.227   0.925
16122SOL    HW249808   4.615   7.244   0.827
16123SOL     OW49809   4.106   6.286   0.480
16123SOL    HW149810   4.151   6.196   0.477
16123SOL    HW249811   4.012   6.275   0.513
16124SOL     OW49812   5.271   5.808   1.729
16124SOL    HW149813   5.266   5.845   1.821
16124SOL    HW249814   5.199   5.739   1.717
16125SOL     OW49815   4.338   5.708   0.117
16125SOL    HW149816   4.436   5.686   0.124
16125SOL    HW249817   4.307   5.691   0.024
16126SOL     OW49818   4.505   5.850   1.749
16126SOL    HW149819   4.572   5.789   1.792
16126SOL    HW249820   4.432   5.869   1.814
16127SOL     OW49821   4.612   7.100   1.195
16127SOL    HW149822   4.589   7.075   1.101
16127SOL    HW249823   4.673   7.031   1.234
16128SOL     OW49824   5.075   6.176   1.433
16128SOL    HW149825   5.103   6.133   1.518
16128SOL    HW249826   5.100   6.272   1.434
16129SOL     OW49827   4.527   6.988   0.924
16129SOL    HW149828   4.617   7.002   0.882
16129SOL    HW249829   4.456   6.990   0.853
16130SOL     OW49830   4.646   6.089   0.899
16130SOL    HW149831   4.621   6.080   0.803
16130SOL    HW249832   4.694   6.007   0.930
16131SOL     OW49833   4.263   5.650   0.512
16131SOL    HW149834   4.182   5.651   0.570
16131SOL    HW249835   4.266   5.733   0.457
16132SOL     OW49836   5.158   6.774   0.041
16132SOL    HW149837   5.190   6.698   0.098
16132SOL    HW249838   5.066   6.801   0.071
16133SOL     OW49839   4.021   5.621   0.171
16133SOL    HW149840   4.070   5.705   0.150
16133SOL    HW249841   4.083   5.556   0.216
16134SOL     OW49842   4.659   5.822   0.480
16134SOL    HW149843   4.611   5.863   0.402
16134SOL    HW249844   4.758   5.820   0.461
16135SOL     OW49845   4.800   6.269   1.464
16135SOL    HW149846   4.720   6.208   1.467
16135SOL    HW249847   4.881   6.216   1.440
16136SOL     OW49848   4.951   7.156   0.793
16136SOL    HW149849   4.972   7.230   0.728
16136SOL    HW249850   5.019   7.156   0.866
16137SOL     OW49851   4.183   6.738   0.741
16137SOL    HW149852   4.112   6.711   0.806
16137SOL    HW249853   4.157   6.710   0.648
16138SOL     OW49854   4.995   7.383   0.591
16138SOL    HW149855   5.039   7.447   0.527
16138SOL    HW249856   4.945   7.435   0.661
16139SOL     OW49857   4.756   6.135   0.016
16139SOL    HW149858   4.715   6.217  -0.023
16139SOL    HW249859   4.820   6.161   0.089
16140SOL     OW49860   3.802   6.142   1.386
16140SOL    HW149861   3.894   6.141   1.345
16140SOL    HW249862   3.796   6.216   1.453
16141SOL     OW49863   4.285   5.808   1.147
16141SOL    HW149864   4.323   5.724   1.184
16141SOL    HW249865   4.197   5.827   1.191
16142SOL     OW49866   4.590   6.040   0.642
16142SOL    HW149867   4.558   6.112   0.580
16142SOL    HW249868   4.614   5.959   0.589
16143SOL     OW49869   4.741   5.625   0.753
16143SOL    HW149870   4.669   5.630   0.684
16143SOL    HW249871   4.717   5.556   0.822
16144SOL     OW49872   5.153   6.759   0.867
16144SOL    HW149873   5.098   6.675   0.860
16144SOL    HW249874   5.179   6.788   0.775
16145SOL     OW49875   5.190   6.176   0.992
16145SOL    HW149876   5.160   6.081   0.999
16145SOL    HW249877   5.263   6.192   1.058
16146SOL     OW49878   5.581   6.419   0.377
16146SOL    HW149879   5.623   6.355   0.441
16146SOL    HW249880   5.543   6.368   0.299
16147SOL     OW49881   4.212   6.971   0.174
16147SOL    HW149882   4.125   6.956   0.221
16147SOL    HW249883   4.195   6.997   0.079
16148SOL     OW49884   5.388   6.866   0.657
16148SOL    HW149885   5.487   6.874   0.671
16148SOL    HW249886   5.343   6.950   0.688
16149SOL     OW49887   5.114   6.161   0.078
16149SOL    HW149888   5.060   6.140   0.159
16149SOL    HW249889   5.205   6.120   0.087
16150SOL     OW49890   4.251   5.842   0.328
16150SOL    HW149891   4.278   5.783   0.253
16150SOL    HW249892   4.251   5.937   0.297
16151SOL     OW49893   5.478   6.809   1.588
16151SOL    HW149894   5.569   6.770   1.575
16151SOL    HW249895   5.486   6.905   1.612
16152SOL     OW49896   4.788   6.933   1.340
16152SOL    HW149897   4.708   6.910   1.395
16152SOL    HW249898   4.871   6.907   1.389
16153SOL     OW49899   5.316   7.215   1.625
16153SOL    HW149900   5.343   7.249   1.535
16153SOL    HW249901   5.395   7.177   1.671
16154SOL     OW49902   4.835   6.781   1.100
16154SOL    HW149903   4.795   6.825   1.181
16154SOL    HW249904   4.794   6.818   1.017
16155SOL     OW49905   5.362   6.685   1.079
16155SOL    HW149906   5.367   6.766   1.138
16155SOL    HW249907   5.276   6.687   1.028
16156SOL     OW49908   4.639   5.675   1.402
16156SOL    HW149909   4.664   5.655   1.307
16156SOL    HW249910   4.711   5.731   1.444
16157SOL     OW49911   4.704   6.702   1.719
16157SOL    HW149912   4.605   6.708   1.729
16157SOL    HW249913   4.727   6.622   1.663
16158SOL     OW49914   4.429   6.636   0.368
16158SOL    HW149915   4.415   6.643   0.467
16158SOL    HW249916   4.513   6.585   0.350
16159SOL     OW49917   4.134   6.399   1.251
16159SOL    HW149918   4.220   6.411   1.301
16159SOL    HW249919   4.092   6.312   1.278
16160SOL     OW49920   4.998   5.972   1.262
16160SOL    HW149921   5.019   6.046   1.326
16160SOL    HW249922   4.909   5.989   1.219
16161SOL     OW49923   3.788   7.150   1.331
16161SOL    HW149924   3.742   7.232   1.297
16161SOL    HW249925   3.886   7.169   1.340
16162SOL     OW49926   4.091   6.686   0.501
16162SOL    HW149927   4.084   6.769   0.445
16162SOL    HW249928   4.095   6.606   0.441
16163SOL     OW49929   4.290   6.123   0.865
16163SOL    HW149930   4.302   6.189   0.791
16163SOL    HW249931   4.336   6.157   0.948
16164SOL     OW49932   4.976   6.934   0.388
16164SOL    HW149933   5.026   7.011   0.428
16164SOL    HW249934   4.881   6.936   0.420
16165SOL     OW49935   4.996   7.031   1.142
16165SOL    HW149936   5.043   7.044   1.229
16165SOL    HW249937   4.930   6.957   1.151
16166SOL     OW49938   5.306   6.225   0.472
16166SOL    HW149939   5.275   6.286   0.545
16166SOL    HW249940   5.356   6.277   0.403
16167SOL     OW49941   4.078   7.096   1.329
16167SOL    HW149942   4.057   7.052   1.242
16167SOL    HW249943   4.175   7.122   1.332
16168SOL     OW49944   4.126   6.337   1.598
16168SOL    HW149945   4.194   6.392   1.551
16168SOL    HW249946   4.166   6.249   1.625
16169SOL     OW49947   5.311   6.365   1.670
16169SOL    HW149948   5.219   6.403   1.665
16169SOL    HW249949   5.371   6.412   1.605
16170SOL     OW49950   4.737   5.691   1.770
16170SOL    HW149951   4.743   5.776   1.718
16170SOL    HW249952   4.769   5.615   1.713
16171SOL     OW49953   4.228   5.636   1.740
16171SOL    HW149954   4.186   5.579   1.670
16171SOL    HW249955   4.162   5.705   1.772
16172SOL     OW49956   4.297   6.456   1.029
16172SOL    HW149957   4.341   6.545   1.020
16172SOL    HW249958   4.234   6.456   1.106
16173SOL     OW49959   5.084   6.448   1.045
16173SOL    HW149960   5.009   6.448   0.979
16173SOL    HW249961   5.121   6.356   1.054
16174SOL     OW49962   4.933   6.111   0.275
16174SOL    HW149963   4.946   6.027   0.329
16174SOL    HW249964   4.904   6.185   0.335
16175SOL     OW49965   4.031   5.799   1.231
16175SOL    HW149966   4.008   5.836   1.321
16175SOL    HW249967   4.001   5.704   1.225
16176SOL     OW49968   3.761   6.896   1.282
16176SOL    HW149969   3.814   6.847   1.350
16176SOL    HW249970   3.783   6.994   1.287
16177SOL     OW49971   4.456   6.220   1.064
16177SOL    HW149972   4.515   6.194   0.988
16177SOL    HW249973   4.428   6.316   1.053
16178SOL     OW49974   5.452   6.521   1.854
16178SOL    HW149975   5.406   6.514   1.765
16178SOL    HW249976   5.390   6.565   1.920
16179SOL     OW49977   4.031   5.649   0.618
16179SOL    HW149978   4.020   5.743   0.651
16179SOL    HW249979   4.026   5.586   0.695
16180SOL     OW49980   5.346   5.953   0.374
16180SOL    HW149981   5.348   5.877   0.438
16180SOL    HW249982   5.298   6.030   0.414
16181SOL     OW49983   4.747   6.352   0.966
16181SOL    HW149984   4.762   6.373   1.062
16181SOL    HW249985   4.717   6.257   0.957
16182SOL     OW49986   4.704   7.159   1.700
16182SOL    HW149987   4.684   7.203   1.612
16182SOL    HW249988   4.743   7.068   1.684
16183SOL     OW49989   5.583   7.104   1.605
16183SOL    HW149990   5.597   7.131   1.510
16183SOL    HW249991   5.666   7.126   1.658
16184SOL     OW49992   4.074   6.484   1.804
16184SOL    HW149993   4.150   6.528   1.852
16184SOL    HW249994   4.109   6.437   1.722
16185SOL     OW49995   5.264   5.860   0.125
16185SOL    HW149996   5.203   5.785   0.148
16185SOL    HW249997   5.286   5.912   0.208
16186SOL     OW49998   5.027   6.424   0.042
16186SOL    HW149999   5.061   6.331   0.057
16186SOL    HW250000   5.045   6.451  -0.053
16187SOL     OW50001   4.792   6.919   0.849
16187SOL    HW150002   4.799   6.835   0.794
16187SOL    HW250003   4.854   6.988   0.813
16188SOL     OW50004   4.043   6.396   0.949
16188SOL    HW150005   4.136   6.432   0.954
16188SOL    HW250006   4.037   6.311   1.001
16189SOL     OW50007   4.063   6.095   1.006
16189SOL    HW150008   4.011   6.012   0.989
16189SOL    HW250009   4.140   6.100   0.942
16190SOL     OW50010   4.862   5.966   1.678
16190SOL    HW150011   4.817   6.029   1.742
16190SOL    HW250012   4.955   5.997   1.661
16191SOL     OW50013   4.884   5.793   1.477
16191SOL    HW150014   4.884   5.857   1.554
16191SOL    HW250015   4.912   5.841   1.394
16192SOL     OW50016   3.812   7.387   0.927
16192SOL    HW150017   3.770   7.301   0.900
16192SOL    HW250018   3.906   7.390   0.893
16193SOL     OW50019   4.228   7.154   0.910
16193SOL    HW150020   4.294   7.228   0.919
16193SOL    HW250021   4.272   7.075   0.868
16194SOL     OW50022   4.726   6.382   1.238
16194SOL    HW150023   4.767   6.350   1.324
16194SOL    HW250024   4.630   6.355   1.235
16195SOL     OW50025   3.764   6.130   1.114
16195SOL    HW150026   3.849   6.097   1.073
16195SOL    HW250027   3.777   6.145   1.212
16196SOL     OW50028   3.913   6.106   1.722
16196SOL    HW150029   3.972   6.066   1.652
16196SOL    HW250030   3.855   6.177   1.681
16197SOL     OW50031   5.093   6.536   1.660
16197SOL    HW150032   5.132   6.625   1.680
16197SOL    HW250033   5.103   6.516   1.563
16198SOL     OW50034   4.539   6.158   0.325
16198SOL    HW150035   4.546   6.069   0.279
16198SOL    HW250036   4.445   6.192   0.317
16199SOL     OW50037   5.381   6.190   1.206
16199SOL    HW150038   5.343   6.121   1.268
16199SOL    HW250039   5.463   6.154   1.162
16200SOL     OW50040   3.976   7.150   1.744
16200SOL    HW150041   3.946   7.207   1.820
16200SOL    HW250042   3.969   7.053   1.770
16201SOL     OW50043   4.395   6.050   1.269
16201SOL    HW150044   4.361   5.961   1.239
16201SOL    HW250045   4.421   6.104   1.189
16202SOL     OW50046   4.654   7.264   1.465
16202SOL    HW150047   4.630   7.246   1.370
16202SOL    HW250048   4.684   7.358   1.475
16203SOL     OW50049   4.197   6.086   0.191
16203SOL    HW150050   4.258   6.166   0.195
16203SOL    HW250051   4.102   6.117   0.198
16204SOL     OW50052   3.883   6.723   1.466
16204SOL    HW150053   3.905   6.662   1.542
16204SOL    HW250054   3.893   6.674   1.380
16205SOL     OW50055   5.071   6.645   1.234
16205SOL    HW150056   5.095   6.582   1.160
16205SOL    HW250057   4.981   6.685   1.216
16206SOL     OW50058   5.026   6.441   0.309
16206SOL    HW150059   4.940   6.410   0.351
16206SOL    HW250060   5.022   6.427   0.210
16207SOL     OW50061   5.483   7.333   1.154
16207SOL    HW150062   5.544   7.363   1.081
16207SOL    HW250063   5.445   7.244   1.132
16208SOL     OW50064   4.976   7.317   1.128
16208SOL    HW150065   5.060   7.322   1.074
16208SOL    HW250066   4.953   7.221   1.146
16209SOL     OW50067   3.807   6.844   1.022
16209SOL    HW150068   3.802   6.843   1.122
16209SOL    HW250069   3.724   6.803   0.984
16210SOL     OW50070   4.412   7.248   1.716
16210SOL    HW150071   4.356   7.329   1.725
16210SOL    HW250072   4.464   7.252   1.630
16211SOL     OW50073   4.627   5.672   0.133
16211SOL    HW150074   4.678   5.673   0.047
16211SOL    HW250075   4.683   5.630   0.204
16212SOL     OW50076   5.450   5.721   0.523
16212SOL    HW150077   5.523   5.704   0.456
16212SOL    HW250078   5.419   5.634   0.561
16213SOL     OW50079   5.112   7.159   0.477
16213SOL    HW150080   5.179   7.171   0.403
16213SOL    HW250081   5.072   7.248   0.500
16214SOL     OW50082   3.854   7.380   1.851
16214SOL    HW150083   3.813   7.306   1.904
16214SOL    HW250084   3.918   7.431   1.909
16215SOL     OW50085   5.004   6.513   0.672
16215SOL    HW150086   5.064   6.432   0.674
16215SOL    HW250087   5.044   6.582   0.612
16216SOL     OW50088   4.554   6.859   1.422
16216SOL    HW150089   4.549   6.892   1.517
16216SOL    HW250090   4.468   6.878   1.376
16217SOL     OW50091   4.396   7.202   0.154
16217SOL    HW150092   4.405   7.212   0.055
16217SOL    HW250093   4.356   7.113   0.175
16218SOL     OW50094   5.374   7.306   1.394
16218SOL    HW150095   5.427   7.316   1.310
16218SOL    HW250096   5.347   7.396   1.428
16219SOL     OW50097   5.565   5.761   0.963
16219SOL    HW150098   5.604   5.676   0.927
16219SOL    HW250099   5.467   5.763   0.944
16220SOL     OW50100   3.987   5.912   0.720
16220SOL    HW150101   3.908   5.963   0.686
16220SOL    HW250102   3.978   5.897   0.818
16221SOL     OW50103   4.918   7.198   0.031
16221SOL    HW150104   4.924   7.105   0.068
16221SOL    HW250105   4.859   7.198  -0.049
16222SOL     OW50106   4.546   6.588   1.372
16222SOL    HW150107   4.586   6.587   1.280
16222SOL    HW250108   4.556   6.680   1.412
16223SOL     OW50109   4.640   6.496   0.291
16223SOL    HW150110   4.703   6.534   0.223
16223SOL    HW250111   4.680   6.413   0.330
16224SOL     OW50112   5.228   7.193   0.044
16224SOL    HW150113   5.136   7.230   0.051
16224SOL    HW250114   5.266   7.213  -0.046
16225SOL     OW50115   4.096   6.874   1.490
16225SOL    HW150116   4.083   6.967   1.456
16225SOL    HW250117   4.012   6.822   1.477
16226SOL     OW50118   5.338   6.878   1.289
16226SOL    HW150119   5.398   6.881   1.369
16226SOL    HW250120   5.263   6.942   1.302
16227SOL     OW50121   4.763   6.684   0.696
16227SOL    HW150122   4.693   6.637   0.750
16227SOL    HW250123   4.822   6.616   0.653
16228SOL     OW50124   4.738   5.822   0.971
16228SOL    HW150125   4.730   5.786   0.878
16228SOL    HW250126   4.736   5.746   1.036
16229SOL     OW50127   4.314   7.073   0.491
16229SOL    HW150128   4.356   7.015   0.421
16229SOL    HW250129   4.270   7.152   0.447
16230SOL     OW50130   5.433   5.971   1.381
16230SOL    HW150131   5.506   6.040   1.385
16230SOL    HW250132   5.461   5.896   1.322
16231SOL     OW50133   3.979   6.934   0.290
16231SOL    HW150134   3.883   6.935   0.263
16231SOL    HW250135   3.991   6.987   0.374
16232SOL     OW50136   3.829   6.599   1.726
16232SOL    HW150137   3.752   6.566   1.780
16232SOL    HW250138   3.914   6.569   1.768
16233SOL     OW50139   4.396   5.789   1.489
16233SOL    HW150140   4.486   5.773   1.449
16233SOL    HW250141   4.404   5.794   1.588
16234SOL     OW50142   5.164   6.442   1.398
16234SOL    HW150143   5.107   6.494   1.335
16234SOL    HW250144   5.260   6.454   1.374
16235SOL     OW50145   3.796   5.752   0.318
16235SOL    HW150146   3.779   5.835   0.264
16235SOL    HW250147   3.886   5.715   0.296
16236SOL     OW50148   4.907   6.921   0.119
16236SOL    HW150149   4.808   6.910   0.121
16236SOL    HW250150   4.941   6.936   0.212
16237SOL     OW50151   4.337   6.428   1.431
16237SOL    HW150152   4.393   6.509   1.414
16237SOL    HW250153   4.396   6.348   1.434
16238SOL     OW50154   5.217   7.353   0.959
16238SOL    HW150155   5.250   7.417   0.890
16238SOL    HW250156   5.283   7.347   1.034
16239SOL     OW50157   4.440   6.151   1.708
16239SOL    HW150158   4.459   6.216   1.782
16239SOL    HW250159   4.500   6.071   1.717
16240SOL     OW50160   5.174   6.806   1.633
16240SOL    HW150161   5.165   6.796   1.732
16240SOL    HW250162   5.270   6.799   1.607
16241SOL     OW50163   4.114   7.327   1.560
16241SOL    HW150164   4.023   7.368   1.558
16241SOL    HW250165   4.107   7.233   1.592
16242SOL     OW50166   5.398   6.469   1.254
16242SOL    HW150167   5.371   6.380   1.217
16242SOL    HW250168   5.399   6.537   1.181
16243SOL     OW50169   4.949   5.911   0.449
16243SOL    HW150170   5.014   5.837   0.438
16243SOL    HW250171   4.969   5.961   0.533
16244SOL     OW50172   4.318   6.331   0.652
16244SOL    HW150173   4.368   6.416   0.633
16244SOL    HW250174   4.230   6.333   0.604
16245SOL     OW50175   5.501   5.928   1.642
16245SOL    HW150176   5.484   5.959   1.548
16245SOL    HW250177   5.417   5.891   1.680
16246SOL     OW50178   5.454   6.520   1.517
16246SOL    HW150179   5.492   6.611   1.532
16246SOL    HW250180   5.446   6.503   1.418
16247SOL     OW50181   4.583   6.960   0.016
16247SOL    HW150182   4.537   6.975   0.104
16247SOL    HW250183   4.627   7.045  -0.014
16248SOL     OW50184   4.385   7.376   0.953
16248SOL    HW150185   4.339   7.464   0.940
16248SOL    HW250186   4.484   7.388   0.946
16249SOL     OW50187   4.583   6.542   0.861
16249SOL    HW150188   4.637   6.473   0.909
16249SOL    HW250189   4.551   6.611   0.927
16250SOL     OW50190   4.807   6.570   0.087
16250SOL    HW150191   4.784   6.623   0.005
16250SOL    HW250192   4.888   6.514   0.068
16251SOL     OW50193   5.585   7.155   0.851
16251SOL    HW150194   5.514   7.143   0.781
16251SOL    HW250195   5.586   7.076   0.911
16252SOL     OW50196   3.945   6.900   1.844
16252SOL    HW150197   3.880   6.827   1.823
16252SOL    HW250198   3.949   6.914   1.942
16253SOL     OW50199   3.803   6.826   0.653
16253SOL    HW150200   3.802   6.779   0.741
16253SOL    HW250201   3.885   6.798   0.602
16254SOL     OW50202   4.396   6.977   1.624
16254SOL    HW150203   4.318   6.927   1.662
16254SOL    HW250204   4.393   7.072   1.655
16255SOL     OW50205   5.548   5.778   1.227
16255SOL    HW150206   5.544   5.688   1.271
16255SOL    HW250207   5.551   5.767   1.128
16256SOL     OW50208   4.152   6.010   0.520
16256SOL    HW150209   4.182   5.938   0.458
16256SOL    HW250210   4.113   5.970   0.603
16257SOL     OW50211   5.429   7.073   1.104
16257SOL    HW150212   5.336   7.048   1.077
16257SOL    HW250213   5.455   7.023   1.186
16258SOL     OW50214   4.041   6.133   1.280
16258SOL    HW150215   4.079   6.074   1.352
16258SOL    HW250216   4.081   6.107   1.192
16259SOL     OW50217   4.536   7.172   0.687
16259SOL    HW150218   4.568   7.182   0.593
16259SOL    HW250219   4.457   7.110   0.689
16260SOL     OW50220   5.148   5.800   1.112
16260SOL    HW150221   5.200   5.735   1.167
16260SOL    HW250222   5.099   5.863   1.173
16261SOL     OW50223   4.725   5.620   1.154
16261SOL    HW150224   4.662   5.548   1.123
16261SOL    HW250225   4.818   5.584   1.154
16262SOL     OW50226   4.494   6.916   0.301
16262SOL    HW150227   4.448   6.829   0.318
16262SOL    HW250228   4.585   6.913   0.342
16263SOL     OW50229   4.342   7.153   1.284
16263SOL    HW150230   4.337   7.235   1.341
16263SOL    HW250231   4.431   7.150   1.239
16264SOL     OW50232   5.076   5.638   0.168
16264SOL    HW150233   5.111   5.597   0.084
16264SOL    HW250234   4.986   5.600   0.188
16265SOL     OW50235   5.024   6.039   0.691
16265SOL    HW150236   4.965   6.119   0.695
16265SOL    HW250237   5.039   6.004   0.784
16266SOL     OW50238   5.317   5.807   0.882
16266SOL    HW150239   5.233   5.806   0.936
16266SOL    HW250240   5.319   5.890   0.826
16267SOL     OW50241   3.763   6.663   0.300
16267SOL    HW150242   3.862   6.652   0.291
16267SOL    HW250243   3.723   6.577   0.332
16268SOL     OW50244   4.599   7.232   0.337
16268SOL    HW150245   4.522   7.197   0.283
16268SOL    HW250246   4.567   7.303   0.399
16269SOL     OW50247   3.954   6.214   1.975
16269SOL    HW150248   3.861   6.212   2.012
16269SOL    HW250249   3.955   6.175   1.883
16270SOL     OW50250   3.949   5.861   2.858
16270SOL    HW150251   3.984   5.844   2.950
16270SOL    HW250252   3.861   5.816   2.846
16271SOL     OW50253   3.743   5.954   2.509
16271SOL    HW150254   3.661   5.997   2.548
16271SOL    HW250255   3.715   5.881   2.446
16272SOL     OW50256   4.293   6.861   3.027
16272SOL    HW150257   4.200   6.854   2.990
16272SOL    HW250258   4.304   6.950   3.071
16273SOL     OW50259   5.279   7.097   2.565
16273SOL    HW150260   5.222   7.081   2.646
16273SOL    HW250261   5.220   7.107   2.485
16274SOL     OW50262   4.859   6.289   2.579
16274SOL    HW150263   4.916   6.367   2.554
16274SOL    HW250264   4.799   6.315   2.655
16275SOL     OW50265   5.479   6.193   2.093
16275SOL    HW150266   5.467   6.180   1.994
16275SOL    HW250267   5.449   6.112   2.142
16276SOL     OW50268   4.492   6.730   2.885
16276SOL    HW150269   4.414   6.747   2.945
16276SOL    HW250270   4.526   6.817   2.849
16277SOL     OW50271   4.574   6.384   3.685
16277SOL    HW150272   4.570   6.460   3.750
16277SOL    HW250273   4.596   6.420   3.594
16278SOL     OW50274   4.409   6.598   2.527
16278SOL    HW150275   4.478   6.582   2.597
16278SOL    HW250276   4.336   6.655   2.565
16279SOL     OW50277   4.410   6.747   3.665
16279SOL    HW150278   4.470   6.826   3.679
16279SOL    HW250279   4.324   6.778   3.624
16280SOL     OW50280   4.059   7.021   2.923
16280SOL    HW150281   3.981   6.990   2.870
16280SOL    HW250282   4.117   7.079   2.866
16281SOL     OW50283   5.184   7.091   3.201
16281SOL    HW150284   5.208   7.185   3.227
16281SOL    HW250285   5.168   7.037   3.283
16282SOL     OW50286   4.162   5.978   3.361
16282SOL    HW150287   4.244   5.922   3.370
16282SOL    HW250288   4.081   5.920   3.365
16283SOL     OW50289   5.327   6.033   2.599
16283SOL    HW150290   5.253   6.079   2.549
16283SOL    HW250291   5.378   6.101   2.652
16284SOL     OW50292   3.955   7.299   2.345
16284SOL    HW150293   3.989   7.376   2.399
16284SOL    HW250294   3.999   7.299   2.255
16285SOL     OW50295   4.851   6.927   3.552
16285SOL    HW150296   4.898   6.927   3.640
16285SOL    HW250297   4.803   6.840   3.541
16286SOL     OW50298   3.954   7.020   2.400
16286SOL    HW150299   3.928   7.116   2.400
16286SOL    HW250300   3.883   6.966   2.445
16287SOL     OW50301   3.964   6.677   2.748
16287SOL    HW150302   3.978   6.593   2.800
16287SOL    HW250303   3.909   6.741   2.803
16288SOL     OW50304   4.344   7.372   3.301
16288SOL    HW150305   4.252   7.355   3.336
16288SOL    HW250306   4.372   7.464   3.327
16289SOL     OW50307   4.330   6.550   1.985
16289SOL    HW150308   4.337   6.634   1.931
16289SOL    HW250309   4.376   6.563   2.073
16290SOL     OW50310   5.318   5.700   3.342
16290SOL    HW150311   5.300   5.767   3.270
16290SOL    HW250312   5.315   5.746   3.431
16291SOL     OW50313   3.846   6.229   2.425
16291SOL    HW150314   3.801   6.141   2.442
16291SOL    HW250315   3.845   6.283   2.509
16292SOL     OW50316   5.566   7.353   2.221
16292SOL    HW150317   5.620   7.324   2.301
16292SOL    HW250318   5.596   7.443   2.192
16293SOL     OW50319   3.751   7.182   1.979
16293SOL    HW150320   3.732   7.086   2.000
16293SOL    HW250321   3.718   7.240   2.054
16294SOL     OW50322   5.413   6.508   2.474
16294SOL    HW150323   5.508   6.479   2.482
16294SOL    HW250324   5.405   6.573   2.399
16295SOL     OW50325   5.365   6.694   2.294
16295SOL    HW150326   5.451   6.696   2.242
16295SOL    HW250327   5.379   6.741   2.382
16296SOL     OW50328   3.837   6.323   3.459
16296SOL    HW150329   3.925   6.310   3.504
16296SOL    HW250330   3.824   6.420   3.437
16297SOL     OW50331   4.337   6.951   2.588
16297SOL    HW150332   4.288   6.864   2.597
16297SOL    HW250333   4.314   6.994   2.501
16298SOL     OW50334   5.017   6.814   3.285
16298SOL    HW150335   5.054   6.741   3.227
16298SOL    HW250336   5.069   6.819   3.370
16299SOL     OW50337   4.533   5.590   2.364
16299SOL    HW150338   4.573   5.681   2.355
16299SOL    HW250339   4.433   5.598   2.370
16300SOL     OW50340   3.921   6.562   3.126
16300SOL    HW150341   4.010   6.517   3.112
16300SOL    HW250342   3.848   6.497   3.107
16301SOL     OW50343   5.249   6.585   2.052
16301SOL    HW150344   5.186   6.509   2.065
16301SOL    HW250345   5.297   6.603   2.138
16302SOL     OW50346   4.911   7.378   3.478
16302SOL    HW150347   4.935   7.438   3.402
16302SOL    HW250348   4.918   7.283   3.448
16303SOL     OW50349   4.041   5.837   3.663
16303SOL    HW150350   4.112   5.908   3.669
16303SOL    HW250351   3.953   5.876   3.691
16304SOL     OW50352   5.190   7.003   2.815
16304SOL    HW150353   5.131   7.009   2.895
16304SOL    HW250354   5.175   6.915   2.769
16305SOL     OW50355   5.391   7.300   2.434
16305SOL    HW150356   5.350   7.277   2.346
16305SOL    HW250357   5.373   7.226   2.499
16306SOL     OW50358   4.322   6.315   2.132
16306SOL    HW150359   4.346   6.384   2.064
16306SOL    HW250360   4.244   6.348   2.186
16307SOL     OW50361   5.005   5.931   2.806
16307SOL    HW150362   4.919   5.881   2.793
16307SOL    HW250363   5.067   5.877   2.862
16308SOL     OW50364   5.300   7.248   2.169
16308SOL    HW150365   5.389   7.294   2.172
16308SOL    HW250366   5.279   7.224   2.074
16309SOL     OW50367   4.531   6.191   3.327
16309SOL    HW150368   4.484   6.188   3.416
16309SOL    HW250369   4.480   6.136   3.261
16310SOL     OW50370   5.118   6.055   3.536
16310SOL    HW150371   5.098   6.098   3.624
16310SOL    HW250372   5.196   5.993   3.545
16311SOL     OW50373   4.697   6.476   3.434
16311SOL    HW150374   4.743   6.392   3.405
16311SOL    HW250375   4.641   6.510   3.359
16312SOL     OW50376   4.715   5.996   3.104
16312SOL    HW150377   4.638   6.030   3.158
16312SOL    HW250378   4.681   5.945   3.025
16313SOL     OW50379   4.765   6.287   2.291
16313SOL    HW150380   4.791   6.283   2.387
16313SOL    HW250381   4.680   6.236   2.277
16314SOL     OW50382   3.800   6.397   2.651
16314SOL    HW150383   3.899   6.385   2.660
16314SOL    HW250384   3.776   6.492   2.672
16315SOL     OW50385   3.854   7.407   3.433
16315SOL    HW150386   3.844   7.392   3.532
16315SOL    HW250387   3.768   7.443   3.397
16316SOL     OW50388   4.589   5.934   2.057
16316SOL    HW150389   4.648   5.997   2.008
16316SOL    HW250390   4.608   5.840   2.028
16317SOL     OW50391   5.443   6.171   3.693
16317SOL    HW150392   5.417   6.260   3.657
16317SOL    HW250393   5.441   6.103   3.620
16318SOL     OW50394   5.086   6.730   2.407
16318SOL    HW150395   5.169   6.701   2.359
16318SOL    HW250396   5.037   6.797   2.351
16319SOL     OW50397   4.274   5.782   2.747
16319SOL    HW150398   4.269   5.777   2.847
16319SOL    HW250399   4.276   5.878   2.718
16320SOL     OW50400   4.732   7.042   2.339
16320SOL    HW150401   4.686   7.114   2.287
16320SOL    HW250402   4.728   7.062   2.437
16321SOL     OW50403   4.075   7.387   2.715
16321SOL    HW150404   4.125   7.301   2.721
16321SOL    HW250405   4.140   7.464   2.712
16322SOL     OW50406   5.519   6.652   2.735
16322SOL    HW150407   5.457   6.637   2.659
16322SOL    HW250408   5.467   6.663   2.820
16323SOL     OW50409   4.045   6.529   2.104
16323SOL    HW150410   4.127   6.568   2.062
16323SOL    HW250411   4.018   6.447   2.055
16324SOL     OW50412   5.182   6.321   2.590
16324SOL    HW150413   5.177   6.256   2.665
16324SOL    HW250414   5.262   6.380   2.603
16325SOL     OW50415   4.185   6.852   3.589
16325SOL    HW150416   4.135   6.853   3.503
16325SOL    HW250417   4.122   6.834   3.665
16326SOL     OW50418   4.835   7.362   2.099
16326SOL    HW150419   4.775   7.300   2.149
16326SOL    HW250420   4.866   7.318   2.014
16327SOL     OW50421   3.926   5.871   3.360
16327SOL    HW150422   3.846   5.931   3.347
16327SOL    HW250423   3.916   5.822   3.446
16328SOL     OW50424   5.356   6.963   1.943
16328SOL    HW150425   5.324   7.057   1.933
16328SOL    HW250426   5.280   6.900   1.931
16329SOL     OW50427   4.188   7.329   2.185
16329SOL    HW150428   4.221   7.368   2.271
16329SOL    HW250429   4.264   7.322   2.120
16330SOL     OW50430   5.124   5.693   2.288
16330SOL    HW150431   5.100   5.656   2.198
16330SOL    HW250432   5.223   5.709   2.292
16331SOL     OW50433   3.973   7.371   3.103
16331SOL    HW150434   4.030   7.306   3.153
16331SOL    HW250435   3.957   7.338   3.010
16332SOL     OW50436   4.664   7.284   2.766
16332SOL    HW150437   4.744   7.227   2.787
16332SOL    HW250438   4.615   7.244   2.689
16333SOL     OW50439   4.106   6.286   2.342
16333SOL    HW150440   4.151   6.196   2.339
16333SOL    HW250441   4.012   6.275   2.375
16334SOL     OW50442   5.271   5.808   3.591
16334SOL    HW150443   5.266   5.845   3.683
16334SOL    HW250444   5.199   5.739   3.579
16335SOL     OW50445   4.338   5.708   1.979
16335SOL    HW150446   4.436   5.686   1.986
16335SOL    HW250447   4.307   5.691   1.886
16336SOL     OW50448   4.505   5.850   3.611
16336SOL    HW150449   4.572   5.789   3.654
16336SOL    HW250450   4.432   5.869   3.676
16337SOL     OW50451   4.612   7.100   3.057
16337SOL    HW150452   4.589   7.075   2.963
16337SOL    HW250453   4.673   7.031   3.096
16338SOL     OW50454   5.075   6.176   3.295
16338SOL    HW150455   5.103   6.133   3.380
16338SOL    HW250456   5.100   6.272   3.296
16339SOL     OW50457   4.527   6.988   2.786
16339SOL    HW150458   4.617   7.002   2.744
16339SOL    HW250459   4.456   6.990   2.715
16340SOL     OW50460   4.646   6.089   2.761
16340SOL    HW150461   4.621   6.080   2.665
16340SOL    HW250462   4.694   6.007   2.792
16341SOL     OW50463   4.263   5.650   2.374
16341SOL    HW150464   4.182   5.651   2.432
16341SOL    HW250465   4.266   5.733   2.319
16342SOL     OW50466   5.158   6.774   1.903
16342SOL    HW150467   5.190   6.698   1.960
16342SOL    HW250468   5.066   6.801   1.933
16343SOL     OW50469   4.021   5.621   2.033
16343SOL    HW150470   4.070   5.705   2.012
16343SOL    HW250471   4.083   5.556   2.078
16344SOL     OW50472   4.659   5.822   2.342
16344SOL    HW150473   4.611   5.863   2.264
16344SOL    HW250474   4.758   5.820   2.323
16345SOL     OW50475   4.800   6.269   3.326
16345SOL    HW150476   4.720   6.208   3.329
16345SOL    HW250477   4.881   6.216   3.302
16346SOL     OW50478   4.951   7.156   2.655
16346SOL    HW150479   4.972   7.230   2.590
16346SOL    HW250480   5.019   7.156   2.728
16347SOL     OW50481   4.183   6.738   2.603
16347SOL    HW150482   4.112   6.711   2.668
16347SOL    HW250483   4.157   6.710   2.510
16348SOL     OW50484   4.995   7.383   2.453
16348SOL    HW150485   5.039   7.447   2.389
16348SOL    HW250486   4.945   7.435   2.523
16349SOL     OW50487   4.756   6.135   1.878
16349SOL    HW150488   4.715   6.217   1.839
16349SOL    HW250489   4.820   6.161   1.951
16350SOL     OW50490   3.802   6.142   3.248
16350SOL    HW150491   3.894   6.141   3.207
16350SOL    HW250492   3.796   6.216   3.315
16351SOL     OW50493   4.285   5.808   3.009
16351SOL    HW150494   4.323   5.724   3.046
16351SOL    HW250495   4.197   5.827   3.053
16352SOL     OW50496   4.590   6.040   2.504
16352SOL    HW150497   4.558   6.112   2.442
16352SOL    HW250498   4.614   5.959   2.451
16353SOL     OW50499   4.741   5.625   2.615
16353SOL    HW150500   4.669   5.630   2.546
16353SOL    HW250501   4.717   5.556   2.684
16354SOL     OW50502   5.153   6.759   2.729
16354SOL    HW150503   5.098   6.675   2.722
16354SOL    HW250504   5.179   6.788   2.637
16355SOL     OW50505   5.190   6.176   2.854
16355SOL    HW150506   5.160   6.081   2.861
16355SOL    HW250507   5.263   6.192   2.920
16356SOL     OW50508   5.581   6.419   2.239
16356SOL    HW150509   5.623   6.355   2.303
16356SOL    HW250510   5.543   6.368   2.161
16357SOL     OW50511   4.212   6.971   2.036
16357SOL    HW150512   4.125   6.956   2.083
16357SOL    HW250513   4.195   6.997   1.941
16358SOL     OW50514   5.388   6.866   2.519
16358SOL    HW150515   5.487   6.874   2.533
16358SOL    HW250516   5.343   6.950   2.550
16359SOL     OW50517   5.114   6.161   1.940
16359SOL    HW150518   5.060   6.140   2.021
16359SOL    HW250519   5.205   6.120   1.949
16360SOL     OW50520   4.251   5.842   2.190
16360SOL    HW150521   4.278   5.783   2.115
16360SOL    HW250522   4.251   5.937   2.159
16361SOL     OW50523   5.478   6.809   3.450
16361SOL    HW150524   5.569   6.770   3.437
16361SOL    HW250525   5.486   6.905   3.474
16362SOL     OW50526   4.788   6.933   3.202
16362SOL    HW150527   4.708   6.910   3.257
16362SOL    HW250528   4.871   6.907   3.251
16363SOL     OW50529   5.316   7.215   3.487
16363SOL    HW150530   5.343   7.249   3.397
16363SOL    HW250531   5.395   7.177   3.533
16364SOL     OW50532   4.835   6.781   2.962
16364SOL    HW150533   4.795   6.825   3.043
16364SOL    HW250534   4.794   6.818   2.879
16365SOL     OW50535   5.362   6.685   2.941
16365SOL    HW150536   5.367   6.766   3.000
16365SOL    HW250537   5.276   6.687   2.890
16366SOL     OW50538   4.639   5.675   3.264
16366SOL    HW150539   4.664   5.655   3.169
16366SOL    HW250540   4.711   5.731   3.306
16367SOL     OW50541   4.704   6.702   3.581
16367SOL    HW150542   4.605   6.708   3.591
16367SOL    HW250543   4.727   6.622   3.525
16368SOL     OW50544   4.429   6.636   2.230
16368SOL    HW150545   4.415   6.643   2.329
16368SOL    HW250546   4.513   6.585   2.212
16369SOL     OW50547   4.134   6.399   3.113
16369SOL    HW150548   4.220   6.411   3.163
16369SOL    HW250549   4.092   6.312   3.140
16370SOL     OW50550   4.998   5.972   3.124
16370SOL    HW150551   5.019   6.046   3.188
16370SOL    HW250552   4.909   5.989   3.081
16371SOL     OW50553   3.788   7.150   3.193
16371SOL    HW150554   3.742   7.232   3.159
16371SOL    HW250555   3.886   7.169   3.202
16372SOL     OW50556   4.091   6.686   2.363
16372SOL    HW150557   4.084   6.769   2.307
16372SOL    HW250558   4.095   6.606   2.303
16373SOL     OW50559   4.290   6.123   2.727
16373SOL    HW150560   4.302   6.189   2.653
16373SOL    HW250561   4.336   6.157   2.810
16374SOL     OW50562   4.976   6.934   2.250
16374SOL    HW150563   5.026   7.011   2.290
16374SOL    HW250564   4.881   6.936   2.282
16375SOL     OW50565   4.996   7.031   3.004
16375SOL    HW150566   5.043   7.044   3.091
16375SOL    HW250567   4.930   6.957   3.013
16376SOL     OW50568   5.306   6.225   2.334
16376SOL    HW150569   5.275   6.286   2.407
16376SOL    HW250570   5.356   6.277   2.265
16377SOL     OW50571   4.078   7.096   3.191
16377SOL    HW150572   4.057   7.052   3.104
16377SOL    HW250573   4.175   7.122   3.194
16378SOL     OW50574   4.126   6.337   3.460
16378SOL    HW150575   4.194   6.392   3.413
16378SOL    HW250576   4.166   6.249   3.487
16379SOL     OW50577   5.311   6.365   3.532
16379SOL    HW150578   5.219   6.403   3.527
16379SOL    HW250579   5.371   6.412   3.467
16380SOL     OW50580   4.737   5.691   3.632
16380SOL    HW150581   4.743   5.776   3.580
16380SOL    HW250582   4.769   5.615   3.575
16381SOL     OW50583   4.228   5.636   3.602
16381SOL    HW150584   4.186   5.579   3.532
16381SOL    HW250585   4.162   5.705   3.634
16382SOL     OW50586   4.297   6.456   2.891
16382SOL    HW150587   4.341   6.545   2.882
16382SOL    HW250588   4.234   6.456   2.968
16383SOL     OW50589   5.084   6.448   2.907
16383SOL    HW150590   5.009   6.448   2.841
16383SOL    HW250591   5.121   6.356   2.916
16384SOL     OW50592   4.933   6.111   2.137
16384SOL    HW150593   4.946   6.027   2.191
16384SOL    HW250594   4.904   6.185   2.197
16385SOL     OW50595   4.031   5.799   3.093
16385SOL    HW150596   4.008   5.836   3.183
16385SOL    HW250597   4.001   5.704   3.087
16386SOL     OW50598   3.761   6.896   3.144
16386SOL    HW150599   3.814   6.847   3.212
16386SOL    HW250600   3.783   6.994   3.149
16387SOL     OW50601   4.456   6.220   2.926
16387SOL    HW150602   4.515   6.194   2.850
16387SOL    HW250603   4.428   6.316   2.915
16388SOL     OW50604   5.452   6.521   3.716
16388SOL    HW150605   5.406   6.514   3.627
16388SOL    HW250606   5.390   6.565   3.782
16389SOL     OW50607   4.031   5.649   2.480
16389SOL    HW150608   4.020   5.743   2.513
16389SOL    HW250609   4.026   5.586   2.557
16390SOL     OW50610   5.346   5.953   2.236
16390SOL    HW150611   5.348   5.877   2.300
16390SOL    HW250612   5.298   6.030   2.276
16391SOL     OW50613   4.747   6.352   2.828
16391SOL    HW150614   4.762   6.373   2.924
16391SOL    HW250615   4.717   6.257   2.819
16392SOL     OW50616   4.704   7.159   3.562
16392SOL    HW150617   4.684   7.203   3.474
16392SOL    HW250618   4.743   7.068   3.546
16393SOL     OW50619   5.583   7.104   3.467
16393SOL    HW150620   5.597   7.131   3.372
16393SOL    HW250621   5.666   7.126   3.520
16394SOL     OW50622   4.074   6.484   3.666
16394SOL    HW150623   4.150   6.528   3.714
16394SOL    HW250624   4.109   6.437   3.584
16395SOL     OW50625   5.264   5.860   1.987
16395SOL    HW150626   5.203   5.785   2.010
16395SOL    HW250627   5.286   5.912   2.070
16396SOL     OW50628   5.027   6.424   1.904
16396SOL    HW150629   5.061   6.331   1.919
16396SOL    HW250630   5.045   6.451   1.809
16397SOL     OW50631   4.792   6.919   2.711
16397SOL    HW150632   4.799   6.835   2.656
16397SOL    HW250633   4.854   6.988   2.675
16398SOL     OW50634   4.043   6.396   2.811
16398SOL    HW150635   4.136   6.432   2.816
16398SOL    HW250636   4.037   6.311   2.863
16399SOL     OW50637   4.063   6.095   2.868
16399SOL    HW150638   4.011   6.012   2.851
16399SOL    HW250639   4.140   6.100   2.804
16400SOL     OW50640   4.862   5.966   3.540
16400SOL    HW150641   4.817   6.029   3.604
16400SOL    HW250642   4.955   5.997   3.523
16401SOL     OW50643   4.884   5.793   3.339
16401SOL    HW150644   4.884   5.857   3.416
16401SOL    HW250645   4.912   5.841   3.256
16402SOL     OW50646   3.732   6.912   2.062
16402SOL    HW150647   3.639   6.933   2.031
16402SOL    HW250648   3.742   6.813   2.075
16403SOL     OW50649   3.812   7.387   2.789
16403SOL    HW150650   3.770   7.301   2.762
16403SOL    HW250651   3.906   7.390   2.755
16404SOL     OW50652   4.228   7.154   2.772
16404SOL    HW150653   4.294   7.228   2.781
16404SOL    HW250654   4.272   7.075   2.730
16405SOL     OW50655   4.726   6.382   3.100
16405SOL    HW150656   4.767   6.350   3.186
16405SOL    HW250657   4.630   6.355   3.097
16406SOL     OW50658   3.764   6.130   2.976
16406SOL    HW150659   3.849   6.097   2.935
16406SOL    HW250660   3.777   6.145   3.074
16407SOL     OW50661   3.913   6.106   3.584
16407SOL    HW150662   3.972   6.066   3.514
16407SOL    HW250663   3.855   6.177   3.543
16408SOL     OW50664   5.093   6.536   3.522
16408SOL    HW150665   5.132   6.625   3.542
16408SOL    HW250666   5.103   6.516   3.425
16409SOL     OW50667   4.539   6.158   2.187
16409SOL    HW150668   4.546   6.069   2.141
16409SOL    HW250669   4.445   6.192   2.179
16410SOL     OW50670   5.381   6.190   3.068
16410SOL    HW150671   5.343   6.121   3.130
16410SOL    HW250672   5.463   6.154   3.024
16411SOL     OW50673   3.976   7.150   3.606
16411SOL    HW150674   3.946   7.207   3.682
16411SOL    HW250675   3.969   7.053   3.632
16412SOL     OW50676   4.395   6.050   3.131
16412SOL    HW150677   4.361   5.961   3.101
16412SOL    HW250678   4.421   6.104   3.051
16413SOL     OW50679   4.654   7.264   3.327
16413SOL    HW150680   4.630   7.246   3.232
16413SOL    HW250681   4.684   7.358   3.337
16414SOL     OW50682   4.197   6.086   2.053
16414SOL    HW150683   4.258   6.166   2.057
16414SOL    HW250684   4.102   6.117   2.060
16415SOL     OW50685   3.883   6.723   3.328
16415SOL    HW150686   3.905   6.662   3.404
16415SOL    HW250687   3.893   6.674   3.242
16416SOL     OW50688   5.071   6.645   3.096
16416SOL    HW150689   5.095   6.582   3.022
16416SOL    HW250690   4.981   6.685   3.078
16417SOL     OW50691   5.026   6.441   2.171
16417SOL    HW150692   4.940   6.410   2.213
16417SOL    HW250693   5.022   6.427   2.072
16418SOL     OW50694   5.483   7.333   3.016
16418SOL    HW150695   5.544   7.363   2.943
16418SOL    HW250696   5.445   7.244   2.994
16419SOL     OW50697   4.976   7.317   2.990
16419SOL    HW150698   5.060   7.322   2.936
16419SOL    HW250699   4.953   7.221   3.008
16420SOL     OW50700   3.807   6.844   2.884
16420SOL    HW150701   3.802   6.843   2.984
16420SOL    HW250702   3.724   6.803   2.846
16421SOL     OW50703   4.412   7.248   3.578
16421SOL    HW150704   4.356   7.329   3.587
16421SOL    HW250705   4.464   7.252   3.492
16422SOL     OW50706   5.450   5.721   2.385
16422SOL    HW150707   5.523   5.704   2.318
16422SOL    HW250708   5.419   5.634   2.423
16423SOL     OW50709   5.112   7.159   2.339
16423SOL    HW150710   5.179   7.171   2.265
16423SOL    HW250711   5.072   7.248   2.362
16424SOL     OW50712   3.854   7.380   3.713
16424SOL    HW150713   3.813   7.306   3.766
16424SOL    HW250714   3.918   7.431   3.771
16425SOL     OW50715   5.004   6.513   2.534
16425SOL    HW150716   5.064   6.432   2.536
16425SOL    HW250717   5.044   6.582   2.474
16426SOL     OW50718   4.554   6.859   3.284
16426SOL    HW150719   4.549   6.892   3.379
16426SOL    HW250720   4.468   6.878   3.238
16427SOL     OW50721   4.396   7.202   2.016
16427SOL    HW150722   4.405   7.212   1.917
16427SOL    HW250723   4.356   7.113   2.037
16428SOL     OW50724   5.374   7.306   3.256
16428SOL    HW150725   5.427   7.316   3.172
16428SOL    HW250726   5.347   7.396   3.290
16429SOL     OW50727   5.565   5.761   2.825
16429SOL    HW150728   5.604   5.676   2.789
16429SOL    HW250729   5.467   5.763   2.806
16430SOL     OW50730   3.987   5.912   2.582
16430SOL    HW150731   3.908   5.963   2.548
16430SOL    HW250732   3.978   5.897   2.680
16431SOL     OW50733   4.918   7.198   1.893
16431SOL    HW150734   4.924   7.105   1.930
16431SOL    HW250735   4.859   7.198   1.813
16432SOL     OW50736   4.546   6.588   3.234
16432SOL    HW150737   4.586   6.587   3.142
16432SOL    HW250738   4.556   6.680   3.274
16433SOL     OW50739   4.640   6.496   2.153
16433SOL    HW150740   4.703   6.534   2.085
16433SOL    HW250741   4.680   6.413   2.192
16434SOL     OW50742   5.228   7.193   1.906
16434SOL    HW150743   5.136   7.230   1.913
16434SOL    HW250744   5.266   7.213   1.816
16435SOL     OW50745   4.096   6.874   3.352
16435SOL    HW150746   4.083   6.967   3.318
16435SOL    HW250747   4.012   6.822   3.339
16436SOL     OW50748   5.338   6.878   3.151
16436SOL    HW150749   5.398   6.881   3.231
16436SOL    HW250750   5.263   6.942   3.164
16437SOL     OW50751   4.763   6.684   2.558
16437SOL    HW150752   4.693   6.637   2.612
16437SOL    HW250753   4.822   6.616   2.515
16438SOL     OW50754   4.738   5.822   2.833
16438SOL    HW150755   4.730   5.786   2.740
16438SOL    HW250756   4.736   5.746   2.898
16439SOL     OW50757   4.314   7.073   2.353
16439SOL    HW150758   4.356   7.015   2.283
16439SOL    HW250759   4.270   7.152   2.309
16440SOL     OW50760   5.433   5.971   3.243
16440SOL    HW150761   5.506   6.040   3.247
16440SOL    HW250762   5.461   5.896   3.184
16441SOL     OW50763   3.979   6.934   2.152
16441SOL    HW150764   3.883   6.935   2.125
16441SOL    HW250765   3.991   6.987   2.236
16442SOL     OW50766   3.829   6.599   3.588
16442SOL    HW150767   3.752   6.566   3.642
16442SOL    HW250768   3.914   6.569   3.630
16443SOL     OW50769   4.396   5.789   3.351
16443SOL    HW150770   4.486   5.773   3.311
16443SOL    HW250771   4.404   5.794   3.450
16444SOL     OW50772   3.799   5.931   1.895
16444SOL    HW150773   3.707   5.903   1.866
16444SOL    HW250774   3.830   6.008   1.839
16445SOL     OW50775   5.164   6.442   3.260
16445SOL    HW150776   5.107   6.494   3.197
16445SOL    HW250777   5.260   6.454   3.236
16446SOL     OW50778   3.796   5.752   2.180
16446SOL    HW150779   3.779   5.835   2.126
16446SOL    HW250780   3.886   5.715   2.158
16447SOL     OW50781   4.907   6.921   1.981
16447SOL    HW150782   4.808   6.910   1.983
16447SOL    HW250783   4.941   6.936   2.074
16448SOL     OW50784   4.337   6.428   3.293
16448SOL    HW150785   4.393   6.509   3.276
16448SOL    HW250786   4.396   6.348   3.296
16449SOL     OW50787   5.217   7.353   2.821
16449SOL    HW150788   5.250   7.417   2.752
16449SOL    HW250789   5.283   7.347   2.896
16450SOL     OW50790   4.440   6.151   3.570
16450SOL    HW150791   4.459   6.216   3.644
16450SOL    HW250792   4.500   6.071   3.579
16451SOL     OW50793   5.174   6.806   3.495
16451SOL    HW150794   5.165   6.796   3.594
16451SOL    HW250795   5.270   6.799   3.469
16452SOL     OW50796   4.114   7.327   3.422
16452SOL    HW150797   4.023   7.368   3.420
16452SOL    HW250798   4.107   7.233   3.454
16453SOL     OW50799   5.398   6.469   3.116
16453SOL    HW150800   5.371   6.380   3.079
16453SOL    HW250801   5.399   6.537   3.043
16454SOL     OW50802   4.949   5.911   2.311
16454SOL    HW150803   5.014   5.837   2.300
16454SOL    HW250804   4.969   5.961   2.395
16455SOL     OW50805   4.318   6.331   2.514
16455SOL    HW150806   4.368   6.416   2.495
16455SOL    HW250807   4.230   6.333   2.466
16456SOL     OW50808   5.501   5.928   3.504
16456SOL    HW150809   5.484   5.959   3.410
16456SOL    HW250810   5.417   5.891   3.542
16457SOL     OW50811   5.454   6.520   3.379
16457SOL    HW150812   5.492   6.611   3.394
16457SOL    HW250813   5.446   6.503   3.280
16458SOL     OW50814   4.583   6.960   1.878
16458SOL    HW150815   4.537   6.975   1.966
16458SOL    HW250816   4.627   7.045   1.848
16459SOL     OW50817   4.385   7.376   2.815
16459SOL    HW150818   4.339   7.464   2.802
16459SOL    HW250819   4.484   7.388   2.808
16460SOL     OW50820   4.583   6.542   2.723
16460SOL    HW150821   4.637   6.473   2.771
16460SOL    HW250822   4.551   6.611   2.789
16461SOL     OW50823   4.807   6.570   1.949
16461SOL    HW150824   4.784   6.623   1.867
16461SOL    HW250825   4.888   6.514   1.930
16462SOL     OW50826   5.585   7.155   2.713
16462SOL    HW150827   5.514   7.143   2.643
16462SOL    HW250828   5.586   7.076   2.773
16463SOL     OW50829   3.945   6.900   3.706
16463SOL    HW150830   3.880   6.827   3.685
16463SOL    HW250831   3.949   6.914   3.804
16464SOL     OW50832   3.803   6.826   2.515
16464SOL    HW150833   3.802   6.779   2.603
16464SOL    HW250834   3.885   6.798   2.464
16465SOL     OW50835   4.396   6.977   3.486
16465SOL    HW150836   4.318   6.927   3.524
16465SOL    HW250837   4.393   7.072   3.517
16466SOL     OW50838   5.548   5.778   3.089
16466SOL    HW150839   5.544   5.688   3.133
16466SOL    HW250840   5.551   5.767   2.990
16467SOL     OW50841   4.152   6.010   2.382
16467SOL    HW150842   4.182   5.938   2.320
16467SOL    HW250843   4.113   5.970   2.465
16468SOL     OW50844   5.429   7.073   2.966
16468SOL    HW150845   5.336   7.048   2.939
16468SOL    HW250846   5.455   7.023   3.048
16469SOL     OW50847   4.041   6.133   3.142
16469SOL    HW150848   4.079   6.074   3.214
16469SOL    HW250849   4.081   6.107   3.054
16470SOL     OW50850   4.536   7.172   2.549
16470SOL    HW150851   4.568   7.182   2.455
16470SOL    HW250852   4.457   7.110   2.551
16471SOL     OW50853   5.148   5.800   2.974
16471SOL    HW150854   5.200   5.735   3.029
16471SOL    HW250855   5.099   5.863   3.035
16472SOL     OW50856   4.725   5.620   3.016
16472SOL    HW150857   4.662   5.548   2.985
16472SOL    HW250858   4.818   5.584   3.016
16473SOL     OW50859   4.494   6.916   2.163
16473SOL    HW150860   4.448   6.829   2.180
16473SOL    HW250861   4.585   6.913   2.204
16474SOL     OW50862   4.342   7.153   3.146
16474SOL    HW150863   4.337   7.235   3.203
16474SOL    HW250864   4.431   7.150   3.101
16475SOL     OW50865   5.076   5.638   2.030
16475SOL    HW150866   5.111   5.597   1.946
16475SOL    HW250867   4.986   5.600   2.050
16476SOL     OW50868   5.024   6.039   2.553
16476SOL    HW150869   4.965   6.119   2.557
16476SOL    HW250870   5.039   6.004   2.646
16477SOL     OW50871   5.317   5.807   2.744
16477SOL    HW150872   5.233   5.806   2.798
16477SOL    HW250873   5.319   5.890   2.688
16478SOL     OW50874   3.763   6.663   2.162
16478SOL    HW150875   3.862   6.652   2.153
16478SOL    HW250876   3.723   6.577   2.194
16479SOL     OW50877   4.599   7.232   2.199
16479SOL    HW150878   4.522   7.197   2.145
16479SOL    HW250879   4.567   7.303   2.261
16480SOL     OW50880   3.954   6.214   3.837
16480SOL    HW150881   3.861   6.212   3.874
16480SOL    HW250882   3.955   6.175   3.745
16481SOL     OW50883   3.949   5.861   4.720
16481SOL    HW150884   3.984   5.844   4.812
16481SOL    HW250885   3.861   5.816   4.708
16482SOL     OW50886   3.743   5.954   4.371
16482SOL    HW150887   3.661   5.997   4.410
16482SOL    HW250888   3.715   5.881   4.308
16483SOL     OW50889   4.293   6.861   4.889
16483SOL    HW150890   4.200   6.854   4.852
16483SOL    HW250891   4.304   6.950   4.933
16484SOL     OW50892   5.279   7.097   4.427
16484SOL    HW150893   5.222   7.081   4.508
16484SOL    HW250894   5.220   7.107   4.347
16485SOL     OW50895   4.859   6.289   4.441
16485SOL    HW150896   4.916   6.367   4.416
16485SOL    HW250897   4.799   6.315   4.517
16486SOL     OW50898   5.479   6.193   3.955
16486SOL    HW150899   5.467   6.180   3.856
16486SOL    HW250900   5.449   6.112   4.004
16487SOL     OW50901   4.492   6.730   4.747
16487SOL    HW150902   4.414   6.747   4.807
16487SOL    HW250903   4.526   6.817   4.711
16488SOL     OW50904   4.574   6.384   5.547
16488SOL    HW150905   4.570   6.460   5.612
16488SOL    HW250906   4.596   6.420   5.456
16489SOL     OW50907   4.409   6.598   4.389
16489SOL    HW150908   4.478   6.582   4.459
16489SOL    HW250909   4.336   6.655   4.427
16490SOL     OW50910   4.410   6.747   5.527
16490SOL    HW150911   4.470   6.826   5.541
16490SOL    HW250912   4.324   6.778   5.486
16491SOL     OW50913   4.059   7.021   4.785
16491SOL    HW150914   3.981   6.990   4.732
16491SOL    HW250915   4.117   7.079   4.728
16492SOL     OW50916   5.184   7.091   5.063
16492SOL    HW150917   5.208   7.185   5.089
16492SOL    HW250918   5.168   7.037   5.145
16493SOL     OW50919   4.162   5.978   5.223
16493SOL    HW150920   4.244   5.922   5.232
16493SOL    HW250921   4.081   5.920   5.227
16494SOL     OW50922   5.327   6.033   4.461
16494SOL    HW150923   5.253   6.079   4.411
16494SOL    HW250924   5.378   6.101   4.514
16495SOL     OW50925   3.955   7.299   4.207
16495SOL    HW150926   3.989   7.376   4.261
16495SOL    HW250927   3.999   7.299   4.117
16496SOL     OW50928   4.851   6.927   5.414
16496SOL    HW150929   4.898   6.927   5.502
16496SOL    HW250930   4.803   6.840   5.403
16497SOL     OW50931   3.954   7.020   4.262
16497SOL    HW150932   3.928   7.116   4.262
16497SOL    HW250933   3.883   6.966   4.307
16498SOL     OW50934   3.964   6.677   4.610
16498SOL    HW150935   3.978   6.593   4.662
16498SOL    HW250936   3.909   6.741   4.665
16499SOL     OW50937   4.344   7.372   5.163
16499SOL    HW150938   4.252   7.355   5.198
16499SOL    HW250939   4.372   7.464   5.189
16500SOL     OW50940   4.330   6.550   3.847
16500SOL    HW150941   4.337   6.634   3.793
16500SOL    HW250942   4.376   6.563   3.935
16501SOL     OW50943   5.318   5.700   5.204
16501SOL    HW150944   5.300   5.767   5.132
16501SOL    HW250945   5.315   5.746   5.293
16502SOL     OW50946   3.846   6.229   4.287
16502SOL    HW150947   3.801   6.141   4.304
16502SOL    HW250948   3.845   6.283   4.371
16503SOL     OW50949   5.566   7.353   4.083
16503SOL    HW150950   5.620   7.324   4.163
16503SOL    HW250951   5.596   7.443   4.054
16504SOL     OW50952   3.751   7.182   3.841
16504SOL    HW150953   3.732   7.086   3.862
16504SOL    HW250954   3.718   7.240   3.916
16505SOL     OW50955   5.413   6.508   4.336
16505SOL    HW150956   5.508   6.479   4.344
16505SOL    HW250957   5.405   6.573   4.261
16506SOL     OW50958   5.365   6.694   4.156
16506SOL    HW150959   5.451   6.696   4.104
16506SOL    HW250960   5.379   6.741   4.244
16507SOL     OW50961   3.837   6.323   5.321
16507SOL    HW150962   3.925   6.310   5.366
16507SOL    HW250963   3.824   6.420   5.299
16508SOL     OW50964   4.337   6.951   4.450
16508SOL    HW150965   4.288   6.864   4.459
16508SOL    HW250966   4.314   6.994   4.363
16509SOL     OW50967   5.017   6.814   5.147
16509SOL    HW150968   5.054   6.741   5.089
16509SOL    HW250969   5.069   6.819   5.232
16510SOL     OW50970   4.533   5.590   4.226
16510SOL    HW150971   4.573   5.681   4.217
16510SOL    HW250972   4.433   5.598   4.232
16511SOL     OW50973   3.921   6.562   4.988
16511SOL    HW150974   4.010   6.517   4.974
16511SOL    HW250975   3.848   6.497   4.969
16512SOL     OW50976   5.249   6.585   3.914
16512SOL    HW150977   5.186   6.509   3.927
16512SOL    HW250978   5.297   6.603   4.000
16513SOL     OW50979   4.911   7.378   5.340
16513SOL    HW150980   4.935   7.438   5.264
16513SOL    HW250981   4.918   7.283   5.310
16514SOL     OW50982   4.041   5.837   5.525
16514SOL    HW150983   4.112   5.908   5.531
16514SOL    HW250984   3.953   5.876   5.553
16515SOL     OW50985   5.190   7.003   4.677
16515SOL    HW150986   5.131   7.009   4.757
16515SOL    HW250987   5.175   6.915   4.631
16516SOL     OW50988   5.391   7.300   4.296
16516SOL    HW150989   5.350   7.277   4.208
16516SOL    HW250990   5.373   7.226   4.361
16517SOL     OW50991   4.322   6.315   3.994
16517SOL    HW150992   4.346   6.384   3.926
16517SOL    HW250993   4.244   6.348   4.048
16518SOL     OW50994   5.005   5.931   4.668
16518SOL    HW150995   4.919   5.881   4.655
16518SOL    HW250996   5.067   5.877   4.724
16519SOL     OW50997   5.300   7.248   4.031
16519SOL    HW150998   5.389   7.294   4.034
16519SOL    HW250999   5.279   7.224   3.936
16520SOL     OW51000   4.531   6.191   5.189
16520SOL    HW151001   4.484   6.188   5.278
16520SOL    HW251002   4.480   6.136   5.123
16521SOL     OW51003   5.118   6.055   5.398
16521SOL    HW151004   5.098   6.098   5.486
16521SOL    HW251005   5.196   5.993   5.407
16522SOL     OW51006   4.697   6.476   5.296
16522SOL    HW151007   4.743   6.392   5.267
16522SOL    HW251008   4.641   6.510   5.221
16523SOL     OW51009   4.715   5.996   4.966
16523SOL    HW151010   4.638   6.030   5.020
16523SOL    HW251011   4.681   5.945   4.887
16524SOL     OW51012   4.765   6.287   4.153
16524SOL    HW151013   4.791   6.283   4.249
16524SOL    HW251014   4.680   6.236   4.139
16525SOL     OW51015   3.800   6.397   4.513
16525SOL    HW151016   3.899   6.385   4.522
16525SOL    HW251017   3.776   6.492   4.534
16526SOL     OW51018   3.854   7.407   5.295
16526SOL    HW151019   3.844   7.392   5.394
16526SOL    HW251020   3.768   7.443   5.259
16527SOL     OW51021   4.589   5.934   3.919
16527SOL    HW151022   4.648   5.997   3.870
16527SOL    HW251023   4.608   5.840   3.890
16528SOL     OW51024   5.443   6.171   5.555
16528SOL    HW151025   5.417   6.260   5.519
16528SOL    HW251026   5.441   6.103   5.482
16529SOL     OW51027   5.086   6.730   4.269
16529SOL    HW151028   5.169   6.701   4.221
16529SOL    HW251029   5.037   6.797   4.213
16530SOL     OW51030   4.274   5.782   4.609
16530SOL    HW151031   4.269   5.777   4.709
16530SOL    HW251032   4.276   5.878   4.580
16531SOL     OW51033   4.732   7.042   4.201
16531SOL    HW151034   4.686   7.114   4.149
16531SOL    HW251035   4.728   7.062   4.299
16532SOL     OW51036   4.075   7.387   4.577
16532SOL    HW151037   4.125   7.301   4.583
16532SOL    HW251038   4.140   7.464   4.574
16533SOL     OW51039   5.519   6.652   4.597
16533SOL    HW151040   5.457   6.637   4.521
16533SOL    HW251041   5.467   6.663   4.682
16534SOL     OW51042   4.951   7.136   5.230
16534SOL    HW151043   4.957   7.059   5.294
16534SOL    HW251044   4.899   7.110   5.150
16535SOL     OW51045   4.045   6.529   3.966
16535SOL    HW151046   4.127   6.568   3.924
16535SOL    HW251047   4.018   6.447   3.917
16536SOL     OW51048   5.182   6.321   4.452
16536SOL    HW151049   5.177   6.256   4.527
16536SOL    HW251050   5.262   6.380   4.465
16537SOL     OW51051   4.185   6.852   5.451
16537SOL    HW151052   4.135   6.853   5.365
16537SOL    HW251053   4.122   6.834   5.527
16538SOL     OW51054   4.835   7.362   3.961
16538SOL    HW151055   4.775   7.300   4.011
16538SOL    HW251056   4.866   7.318   3.876
16539SOL     OW51057   3.926   5.871   5.222
16539SOL    HW151058   3.846   5.931   5.209
16539SOL    HW251059   3.916   5.822   5.308
16540SOL     OW51060   5.356   6.963   3.805
16540SOL    HW151061   5.324   7.057   3.795
16540SOL    HW251062   5.280   6.900   3.793
16541SOL     OW51063   4.188   7.329   4.047
16541SOL    HW151064   4.221   7.368   4.133
16541SOL    HW251065   4.264   7.322   3.982
16542SOL     OW51066   5.124   5.693   4.150
16542SOL    HW151067   5.100   5.656   4.060
16542SOL    HW251068   5.223   5.709   4.154
16543SOL     OW51069   3.973   7.371   4.965
16543SOL    HW151070   4.030   7.306   5.015
16543SOL    HW251071   3.957   7.338   4.872
16544SOL     OW51072   4.664   7.284   4.628
16544SOL    HW151073   4.744   7.227   4.649
16544SOL    HW251074   4.615   7.244   4.551
16545SOL     OW51075   4.106   6.286   4.204
16545SOL    HW151076   4.151   6.196   4.201
16545SOL    HW251077   4.012   6.275   4.237
16546SOL     OW51078   5.271   5.808   5.453
16546SOL    HW151079   5.266   5.845   5.545
16546SOL    HW251080   5.199   5.739   5.441
16547SOL     OW51081   4.338   5.708   3.841
16547SOL    HW151082   4.436   5.686   3.848
16547SOL    HW251083   4.307   5.691   3.748
16548SOL     OW51084   4.505   5.850   5.473
16548SOL    HW151085   4.572   5.789   5.516
16548SOL    HW251086   4.432   5.869   5.538
16549SOL     OW51087   4.612   7.100   4.919
16549SOL    HW151088   4.589   7.075   4.825
16549SOL    HW251089   4.673   7.031   4.958
16550SOL     OW51090   5.075   6.176   5.157
16550SOL    HW151091   5.103   6.133   5.242
16550SOL    HW251092   5.100   6.272   5.158
16551SOL     OW51093   4.527   6.988   4.648
16551SOL    HW151094   4.617   7.002   4.606
16551SOL    HW251095   4.456   6.990   4.577
16552SOL     OW51096   4.646   6.089   4.623
16552SOL    HW151097   4.621   6.080   4.527
16552SOL    HW251098   4.694   6.007   4.654
16553SOL     OW51099   4.263   5.650   4.236
16553SOL    HW151100   4.182   5.651   4.294
16553SOL    HW251101   4.266   5.733   4.181
16554SOL     OW51102   5.158   6.774   3.765
16554SOL    HW151103   5.190   6.698   3.822
16554SOL    HW251104   5.066   6.801   3.795
16555SOL     OW51105   4.021   5.621   3.895
16555SOL    HW151106   4.070   5.705   3.874
16555SOL    HW251107   4.083   5.556   3.940
16556SOL     OW51108   4.659   5.822   4.204
16556SOL    HW151109   4.611   5.863   4.126
16556SOL    HW251110   4.758   5.820   4.185
16557SOL     OW51111   4.800   6.269   5.188
16557SOL    HW151112   4.720   6.208   5.191
16557SOL    HW251113   4.881   6.216   5.164
16558SOL     OW51114   4.951   7.156   4.517
16558SOL    HW151115   4.972   7.230   4.452
16558SOL    HW251116   5.019   7.156   4.590
16559SOL     OW51117   4.183   6.738   4.465
16559SOL    HW151118   4.112   6.711   4.530
16559SOL    HW251119   4.157   6.710   4.372
16560SOL     OW51120   4.995   7.383   4.315
16560SOL    HW151121   5.039   7.447   4.251
16560SOL    HW251122   4.945   7.435   4.385
16561SOL     OW51123   4.756   6.135   3.740
16561SOL    HW151124   4.715   6.217   3.701
16561SOL    HW251125   4.820   6.161   3.813
16562SOL     OW51126   3.802   6.142   5.110
16562SOL    HW151127   3.894   6.141   5.069
16562SOL    HW251128   3.796   6.216   5.177
16563SOL     OW51129   4.285   5.808   4.871
16563SOL    HW151130   4.323   5.724   4.908
16563SOL    HW251131   4.197   5.827   4.915
16564SOL     OW51132   4.590   6.040   4.366
16564SOL    HW151133   4.558   6.112   4.304
16564SOL    HW251134   4.614   5.959   4.313
16565SOL     OW51135   4.741   5.625   4.477
16565SOL    HW151136   4.669   5.630   4.408
16565SOL    HW251137   4.717   5.556   4.546
16566SOL     OW51138   5.153   6.759   4.591
16566SOL    HW151139   5.098   6.675   4.584
16566SOL    HW251140   5.179   6.788   4.499
16567SOL     OW51141   5.190   6.176   4.716
16567SOL    HW151142   5.160   6.081   4.723
16567SOL    HW251143   5.263   6.192   4.782
16568SOL     OW51144   5.581   6.419   4.101
16568SOL    HW151145   5.623   6.355   4.165
16568SOL    HW251146   5.543   6.368   4.023
16569SOL     OW51147   4.212   6.971   3.898
16569SOL    HW151148   4.125   6.956   3.945
16569SOL    HW251149   4.195   6.997   3.803
16570SOL     OW51150   5.388   6.866   4.381
16570SOL    HW151151   5.487   6.874   4.395
16570SOL    HW251152   5.343   6.950   4.412
16571SOL     OW51153   5.114   6.161   3.802
16571SOL    HW151154   5.060   6.140   3.883
16571SOL    HW251155   5.205   6.120   3.811
16572SOL     OW51156   4.251   5.842   4.052
16572SOL    HW151157   4.278   5.783   3.977
16572SOL    HW251158   4.251   5.937   4.021
16573SOL     OW51159   5.478   6.809   5.312
16573SOL    HW151160   5.569   6.770   5.299
16573SOL    HW251161   5.486   6.905   5.336
16574SOL     OW51162   4.788   6.933   5.064
16574SOL    HW151163   4.708   6.910   5.119
16574SOL    HW251164   4.871   6.907   5.113
16575SOL     OW51165   5.316   7.215   5.349
16575SOL    HW151166   5.343   7.249   5.259
16575SOL    HW251167   5.395   7.177   5.395
16576SOL     OW51168   4.835   6.781   4.824
16576SOL    HW151169   4.795   6.825   4.905
16576SOL    HW251170   4.794   6.818   4.741
16577SOL     OW51171   5.362   6.685   4.803
16577SOL    HW151172   5.367   6.766   4.862
16577SOL    HW251173   5.276   6.687   4.752
16578SOL     OW51174   4.639   5.675   5.126
16578SOL    HW151175   4.664   5.655   5.031
16578SOL    HW251176   4.711   5.731   5.168
16579SOL     OW51177   4.429   6.636   4.092
16579SOL    HW151178   4.415   6.643   4.191
16579SOL    HW251179   4.513   6.585   4.074
16580SOL     OW51180   4.134   6.399   4.975
16580SOL    HW151181   4.220   6.411   5.025
16580SOL    HW251182   4.092   6.312   5.002
16581SOL     OW51183   4.998   5.972   4.986
16581SOL    HW151184   5.019   6.046   5.050
16581SOL    HW251185   4.909   5.989   4.943
16582SOL     OW51186   3.788   7.150   5.055
16582SOL    HW151187   3.742   7.232   5.021
16582SOL    HW251188   3.886   7.169   5.064
16583SOL     OW51189   4.091   6.686   4.225
16583SOL    HW151190   4.084   6.769   4.169
16583SOL    HW251191   4.095   6.606   4.165
16584SOL     OW51192   4.290   6.123   4.589
16584SOL    HW151193   4.302   6.189   4.515
16584SOL    HW251194   4.336   6.157   4.672
16585SOL     OW51195   4.976   6.934   4.112
16585SOL    HW151196   5.026   7.011   4.152
16585SOL    HW251197   4.881   6.936   4.144
16586SOL     OW51198   4.996   7.031   4.866
16586SOL    HW151199   5.043   7.044   4.953
16586SOL    HW251200   4.930   6.957   4.875
16587SOL     OW51201   5.306   6.225   4.196
16587SOL    HW151202   5.275   6.286   4.269
16587SOL    HW251203   5.356   6.277   4.127
16588SOL     OW51204   4.078   7.096   5.053
16588SOL    HW151205   4.057   7.052   4.966
16588SOL    HW251206   4.175   7.122   5.056
16589SOL     OW51207   4.126   6.337   5.322
16589SOL    HW151208   4.194   6.392   5.275
16589SOL    HW251209   4.166   6.249   5.349
16590SOL     OW51210   5.311   6.365   5.394
16590SOL    HW151211   5.219   6.403   5.389
16590SOL    HW251212   5.371   6.412   5.329
16591SOL     OW51213   4.737   5.691   5.494
16591SOL    HW151214   4.743   5.776   5.442
16591SOL    HW251215   4.769   5.615   5.437
16592SOL     OW51216   4.228   5.636   5.464
16592SOL    HW151217   4.186   5.579   5.394
16592SOL    HW251218   4.162   5.705   5.496
16593SOL     OW51219   4.297   6.456   4.753
16593SOL    HW151220   4.341   6.545   4.744
16593SOL    HW251221   4.234   6.456   4.830
16594SOL     OW51222   5.084   6.448   4.769
16594SOL    HW151223   5.009   6.448   4.703
16594SOL    HW251224   5.121   6.356   4.778
16595SOL     OW51225   4.933   6.111   3.999
16595SOL    HW151226   4.946   6.027   4.053
16595SOL    HW251227   4.904   6.185   4.059
16596SOL     OW51228   4.031   5.799   4.955
16596SOL    HW151229   4.008   5.836   5.045
16596SOL    HW251230   4.001   5.704   4.949
16597SOL     OW51231   3.761   6.896   5.006
16597SOL    HW151232   3.814   6.847   5.074
16597SOL    HW251233   3.783   6.994   5.011
16598SOL     OW51234   4.456   6.220   4.788
16598SOL    HW151235   4.515   6.194   4.712
16598SOL    HW251236   4.428   6.316   4.777
16599SOL     OW51237   5.452   6.521   5.578
16599SOL    HW151238   5.406   6.514   5.489
16599SOL    HW251239   5.390   6.565   5.644
16600SOL     OW51240   4.031   5.649   4.342
16600SOL    HW151241   4.020   5.743   4.375
16600SOL    HW251242   4.026   5.586   4.419
16601SOL     OW51243   5.346   5.953   4.098
16601SOL    HW151244   5.348   5.877   4.162
16601SOL    HW251245   5.298   6.030   4.138
16602SOL     OW51246   4.747   6.352   4.690
16602SOL    HW151247   4.762   6.373   4.786
16602SOL    HW251248   4.717   6.257   4.681
16603SOL     OW51249   4.704   7.159   5.424
16603SOL    HW151250   4.684   7.203   5.336
16603SOL    HW251251   4.743   7.068   5.408
16604SOL     OW51252   5.583   7.104   5.329
16604SOL    HW151253   5.597   7.131   5.234
16604SOL    HW251254   5.666   7.126   5.382
16605SOL     OW51255   4.074   6.484   5.528
16605SOL    HW151256   4.150   6.528   5.576
16605SOL    HW251257   4.109   6.437   5.446
16606SOL     OW51258   5.264   5.860   3.849
16606SOL    HW151259   5.203   5.785   3.872
16606SOL    HW251260   5.286   5.912   3.932
16607SOL     OW51261   5.027   6.424   3.766
16607SOL    HW151262   5.061   6.331   3.781
16607SOL    HW251263   5.045   6.451   3.671
16608SOL     OW51264   4.792   6.919   4.573
16608SOL    HW151265   4.799   6.835   4.518
16608SOL    HW251266   4.854   6.988   4.537
16609SOL     OW51267   4.043   6.396   4.673
16609SOL    HW151268   4.136   6.432   4.678
16609SOL    HW251269   4.037   6.311   4.725
16610SOL     OW51270   4.063   6.095   4.730
16610SOL    HW151271   4.011   6.012   4.713
16610SOL    HW251272   4.140   6.100   4.666
16611SOL     OW51273   4.862   5.966   5.402
16611SOL    HW151274   4.817   6.029   5.466
16611SOL    HW251275   4.955   5.997   5.385
16612SOL     OW51276   4.884   5.793   5.201
16612SOL    HW151277   4.884   5.857   5.278
16612SOL    HW251278   4.912   5.841   5.118
16613SOL     OW51279   3.732   6.912   3.924
16613SOL    HW151280   3.639   6.933   3.893
16613SOL    HW251281   3.742   6.813   3.937
16614SOL     OW51282   3.812   7.387   4.651
16614SOL    HW151283   3.770   7.301   4.624
16614SOL    HW251284   3.906   7.390   4.617
16615SOL     OW51285   4.228   7.154   4.634
16615SOL    HW151286   4.294   7.228   4.643
16615SOL    HW251287   4.272   7.075   4.592
16616SOL     OW51288   4.726   6.382   4.962
16616SOL    HW151289   4.767   6.350   5.048
16616SOL    HW251290   4.630   6.355   4.959
16617SOL     OW51291   3.764   6.130   4.838
16617SOL    HW151292   3.849   6.097   4.797
16617SOL    HW251293   3.777   6.145   4.936
16618SOL     OW51294   3.913   6.106   5.446
16618SOL    HW151295   3.972   6.066   5.376
16618SOL    HW251296   3.855   6.177   5.405
16619SOL     OW51297   5.093   6.536   5.384
16619SOL    HW151298   5.132   6.625   5.404
16619SOL    HW251299   5.103   6.516   5.287
16620SOL     OW51300   4.539   6.158   4.049
16620SOL    HW151301   4.546   6.069   4.003
16620SOL    HW251302   4.445   6.192   4.041
16621SOL     OW51303   5.381   6.190   4.930
16621SOL    HW151304   5.343   6.121   4.992
16621SOL    HW251305   5.463   6.154   4.886
16622SOL     OW51306   3.976   7.150   5.468
16622SOL    HW151307   3.946   7.207   5.544
16622SOL    HW251308   3.969   7.053   5.494
16623SOL     OW51309   4.395   6.050   4.993
16623SOL    HW151310   4.361   5.961   4.963
16623SOL    HW251311   4.421   6.104   4.913
16624SOL     OW51312   4.654   7.264   5.189
16624SOL    HW151313   4.630   7.246   5.094
16624SOL    HW251314   4.684   7.358   5.199
16625SOL     OW51315   4.197   6.086   3.915
16625SOL    HW151316   4.258   6.166   3.919
16625SOL    HW251317   4.102   6.117   3.922
16626SOL     OW51318   3.883   6.723   5.190
16626SOL    HW151319   3.905   6.662   5.266
16626SOL    HW251320   3.893   6.674   5.104
16627SOL     OW51321   5.071   6.645   4.958
16627SOL    HW151322   5.095   6.582   4.884
16627SOL    HW251323   4.981   6.685   4.940
16628SOL     OW51324   5.026   6.441   4.033
16628SOL    HW151325   4.940   6.410   4.075
16628SOL    HW251326   5.022   6.427   3.934
16629SOL     OW51327   5.483   7.333   4.878
16629SOL    HW151328   5.544   7.363   4.805
16629SOL    HW251329   5.445   7.244   4.856
16630SOL     OW51330   4.976   7.317   4.852
16630SOL    HW151331   5.060   7.322   4.798
16630SOL    HW251332   4.953   7.221   4.870
16631SOL     OW51333   3.807   6.844   4.746
16631SOL    HW151334   3.802   6.843   4.846
16631SOL    HW251335   3.724   6.803   4.708
16632SOL     OW51336   4.412   7.248   5.440
16632SOL    HW151337   4.356   7.329   5.449
16632SOL    HW251338   4.464   7.252   5.354
16633SOL     OW51339   5.450   5.721   4.247
16633SOL    HW151340   5.523   5.704   4.180
16633SOL    HW251341   5.419   5.634   4.285
16634SOL     OW51342   5.112   7.159   4.201
16634SOL    HW151343   5.179   7.171   4.127
16634SOL    HW251344   5.072   7.248   4.224
16635SOL     OW51345   3.854   7.380   5.575
16635SOL    HW151346   3.813   7.306   5.628
16635SOL    HW251347   3.918   7.431   5.633
16636SOL     OW51348   5.004   6.513   4.396
16636SOL    HW151349   5.064   6.432   4.398
16636SOL    HW251350   5.044   6.582   4.336
16637SOL     OW51351   4.554   6.859   5.146
16637SOL    HW151352   4.549   6.892   5.241
16637SOL    HW251353   4.468   6.878   5.100
16638SOL     OW51354   4.396   7.202   3.878
16638SOL    HW151355   4.405   7.212   3.779
16638SOL    HW251356   4.356   7.113   3.899
16639SOL     OW51357   5.374   7.306   5.118
16639SOL    HW151358   5.427   7.316   5.034
16639SOL    HW251359   5.347   7.396   5.152
16640SOL     OW51360   5.565   5.761   4.687
16640SOL    HW151361   5.604   5.676   4.651
16640SOL    HW251362   5.467   5.763   4.668
16641SOL     OW51363   3.987   5.912   4.444
16641SOL    HW151364   3.908   5.963   4.410
16641SOL    HW251365   3.978   5.897   4.542
16642SOL     OW51366   4.918   7.198   3.755
16642SOL    HW151367   4.924   7.105   3.792
16642SOL    HW251368   4.859   7.198   3.675
16643SOL     OW51369   4.546   6.588   5.096
16643SOL    HW151370   4.586   6.587   5.004
16643SOL    HW251371   4.556   6.680   5.136
16644SOL     OW51372   4.640   6.496   4.015
16644SOL    HW151373   4.703   6.534   3.947
16644SOL    HW251374   4.680   6.413   4.054
16645SOL     OW51375   5.228   7.193   3.768
16645SOL    HW151376   5.136   7.230   3.775
16645SOL    HW251377   5.266   7.213   3.678
16646SOL     OW51378   4.096   6.874   5.214
16646SOL    HW151379   4.083   6.967   5.180
16646SOL    HW251380   4.012   6.822   5.201
16647SOL     OW51381   5.338   6.878   5.013
16647SOL    HW151382   5.398   6.881   5.093
16647SOL    HW251383   5.263   6.942   5.026
16648SOL     OW51384   4.763   6.684   4.420
16648SOL    HW151385   4.693   6.637   4.474
16648SOL    HW251386   4.822   6.616   4.377
16649SOL     OW51387   4.738   5.822   4.695
16649SOL    HW151388   4.730   5.786   4.602
16649SOL    HW251389   4.736   5.746   4.760
16650SOL     OW51390   4.314   7.073   4.215
16650SOL    HW151391   4.356   7.015   4.145
16650SOL    HW251392   4.270   7.152   4.171
16651SOL     OW51393   5.433   5.971   5.105
16651SOL    HW151394   5.506   6.040   5.109
16651SOL    HW251395   5.461   5.896   5.046
16652SOL     OW51396   3.979   6.934   4.014
16652SOL    HW151397   3.883   6.935   3.987
16652SOL    HW251398   3.991   6.987   4.098
16653SOL     OW51399   3.829   6.599   5.450
16653SOL    HW151400   3.752   6.566   5.504
16653SOL    HW251401   3.914   6.569   5.492
16654SOL     OW51402   4.396   5.789   5.213
16654SOL    HW151403   4.486   5.773   5.173
16654SOL    HW251404   4.404   5.794   5.312
16655SOL     OW51405   3.799   5.931   3.757
16655SOL    HW151406   3.707   5.903   3.728
16655SOL    HW251407   3.830   6.008   3.701
16656SOL     OW51408   5.164   6.442   5.122
16656SOL    HW151409   5.107   6.494   5.059
16656SOL    HW251410   5.260   6.454   5.098
16657SOL     OW51411   3.796   5.752   4.042
16657SOL    HW151412   3.779   5.835   3.988
16657SOL    HW251413   3.886   5.715   4.020
16658SOL     OW51414   4.907   6.921   3.843
16658SOL    HW151415   4.808   6.910   3.845
16658SOL    HW251416   4.941   6.936   3.936
16659SOL     OW51417   4.337   6.428   5.155
16659SOL    HW151418   4.393   6.509   5.138
16659SOL    HW251419   4.396   6.348   5.158
16660SOL     OW51420   5.217   7.353   4.683
16660SOL    HW151421   5.250   7.417   4.614
16660SOL    HW251422   5.283   7.347   4.758
16661SOL     OW51423   4.440   6.151   5.432
16661SOL    HW151424   4.459   6.216   5.506
16661SOL    HW251425   4.500   6.071   5.441
16662SOL     OW51426   5.174   6.806   5.357
16662SOL    HW151427   5.165   6.796   5.456
16662SOL    HW251428   5.270   6.799   5.331
16663SOL     OW51429   4.114   7.327   5.284
16663SOL    HW151430   4.023   7.368   5.282
16663SOL    HW251431   4.107   7.233   5.316
16664SOL     OW51432   5.398   6.469   4.978
16664SOL    HW151433   5.371   6.380   4.941
16664SOL    HW251434   5.399   6.537   4.905
16665SOL     OW51435   4.949   5.911   4.173
16665SOL    HW151436   5.014   5.837   4.162
16665SOL    HW251437   4.969   5.961   4.257
16666SOL     OW51438   4.318   6.331   4.376
16666SOL    HW151439   4.368   6.416   4.357
16666SOL    HW251440   4.230   6.333   4.328
16667SOL     OW51441   5.501   5.928   5.366
16667SOL    HW151442   5.484   5.959   5.272
16667SOL    HW251443   5.417   5.891   5.404
16668SOL     OW51444   5.454   6.520   5.241
16668SOL    HW151445   5.492   6.611   5.256
16668SOL    HW251446   5.446   6.503   5.142
16669SOL     OW51447   4.583   6.960   3.740
16669SOL    HW151448   4.537   6.975   3.828
16669SOL    HW251449   4.627   7.045   3.710
16670SOL     OW51450   4.385   7.376   4.677
16670SOL    HW151451   4.339   7.464   4.664
16670SOL    HW251452   4.484   7.388   4.670
16671SOL     OW51453   4.583   6.542   4.585
16671SOL    HW151454   4.637   6.473   4.633
16671SOL    HW251455   4.551   6.611   4.651
16672SOL     OW51456   4.807   6.570   3.811
16672SOL    HW151457   4.784   6.623   3.729
16672SOL    HW251458   4.888   6.514   3.792
16673SOL     OW51459   5.585   7.155   4.575
16673SOL    HW151460   5.514   7.143   4.505
16673SOL    HW251461   5.586   7.076   4.635
16674SOL     OW51462   3.945   6.900   5.568
16674SOL    HW151463   3.880   6.827   5.547
16674SOL    HW251464   3.949   6.914   5.666
16675SOL     OW51465   3.803   6.826   4.377
16675SOL    HW151466   3.802   6.779   4.465
16675SOL    HW251467   3.885   6.798   4.326
16676SOL     OW51468   4.396   6.977   5.348
16676SOL    HW151469   4.318   6.927   5.386
16676SOL    HW251470   4.393   7.072   5.379
16677SOL     OW51471   5.548   5.778   4.951
16677SOL    HW151472   5.544   5.688   4.995
16677SOL    HW251473   5.551   5.767   4.852
16678SOL     OW51474   4.152   6.010   4.244
16678SOL    HW151475   4.182   5.938   4.182
16678SOL    HW251476   4.113   5.970   4.327
16679SOL     OW51477   5.429   7.073   4.828
16679SOL    HW151478   5.336   7.048   4.801
16679SOL    HW251479   5.455   7.023   4.910
16680SOL     OW51480   4.041   6.133   5.004
16680SOL    HW151481   4.079   6.074   5.076
16680SOL    HW251482   4.081   6.107   4.916
16681SOL     OW51483   4.536   7.172   4.411
16681SOL    HW151484   4.568   7.182   4.317
16681SOL    HW251485   4.457   7.110   4.413
16682SOL     OW51486   5.148   5.800   4.836
16682SOL    HW151487   5.200   5.735   4.891
16682SOL    HW251488   5.099   5.863   4.897
16683SOL     OW51489   4.725   5.620   4.878
16683SOL    HW151490   4.662   5.548   4.847
16683SOL    HW251491   4.818   5.584   4.878
16684SOL     OW51492   4.494   6.916   4.025
16684SOL    HW151493   4.448   6.829   4.042
16684SOL    HW251494   4.585   6.913   4.066
16685SOL     OW51495   4.342   7.153   5.008
16685SOL    HW151496   4.337   7.235   5.065
16685SOL    HW251497   4.431   7.150   4.963
16686SOL     OW51498   5.076   5.638   3.892
16686SOL    HW151499   5.111   5.597   3.808
16686SOL    HW251500   4.986   5.600   3.912
16687SOL     OW51501   5.024   6.039   4.415
16687SOL    HW151502   4.965   6.119   4.419
16687SOL    HW251503   5.039   6.004   4.508
16688SOL     OW51504   5.317   5.807   4.606
16688SOL    HW151505   5.233   5.806   4.660
16688SOL    HW251506   5.319   5.890   4.550
16689SOL     OW51507   3.763   6.663   4.024
16689SOL    HW151508   3.862   6.652   4.015
16689SOL    HW251509   3.723   6.577   4.056
16690SOL     OW51510   4.599   7.232   4.061
16690SOL    HW151511   4.522   7.197   4.007
16690SOL    HW251512   4.567   7.303   4.123
16691SOL     OW51513   3.954   6.214   5.699
16691SOL    HW151514   3.861   6.212   5.736
16691SOL    HW251515   3.955   6.175   5.607
16692SOL     OW51516   3.949   5.861   6.582
16692SOL    HW151517   3.984   5.844   6.674
16692SOL    HW251518   3.861   5.816   6.570
16693SOL     OW51519   3.743   5.954   6.233
16693SOL    HW151520   3.661   5.997   6.272
16693SOL    HW251521   3.715   5.881   6.170
16694SOL     OW51522   4.293   6.861   6.751
16694SOL    HW151523   4.200   6.854   6.714
16694SOL    HW251524   4.304   6.950   6.795
16695SOL     OW51525   5.279   7.097   6.289
16695SOL    HW151526   5.222   7.081   6.370
16695SOL    HW251527   5.220   7.107   6.209
16696SOL     OW51528   4.859   6.289   6.303
16696SOL    HW151529   4.916   6.367   6.278
16696SOL    HW251530   4.799   6.315   6.379
16697SOL     OW51531   5.479   6.193   5.817
16697SOL    HW151532   5.467   6.180   5.718
16697SOL    HW251533   5.449   6.112   5.866
16698SOL     OW51534   4.492   6.730   6.609
16698SOL    HW151535   4.414   6.747   6.669
16698SOL    HW251536   4.526   6.817   6.573
16699SOL     OW51537   4.574   6.384   7.409
16699SOL    HW151538   4.570   6.460   7.474
16699SOL    HW251539   4.596   6.420   7.318
16700SOL     OW51540   4.409   6.598   6.251
16700SOL    HW151541   4.478   6.582   6.321
16700SOL    HW251542   4.336   6.655   6.289
16701SOL     OW51543   4.410   6.747   7.389
16701SOL    HW151544   4.470   6.826   7.403
16701SOL    HW251545   4.324   6.778   7.348
16702SOL     OW51546   4.059   7.021   6.647
16702SOL    HW151547   3.981   6.990   6.594
16702SOL    HW251548   4.117   7.079   6.590
16703SOL     OW51549   5.184   7.091   6.925
16703SOL    HW151550   5.208   7.185   6.951
16703SOL    HW251551   5.168   7.037   7.007
16704SOL     OW51552   4.162   5.978   7.085
16704SOL    HW151553   4.244   5.922   7.094
16704SOL    HW251554   4.081   5.920   7.089
16705SOL     OW51555   5.327   6.033   6.323
16705SOL    HW151556   5.253   6.079   6.273
16705SOL    HW251557   5.378   6.101   6.376
16706SOL     OW51558   3.955   7.299   6.069
16706SOL    HW151559   3.989   7.376   6.123
16706SOL    HW251560   3.999   7.299   5.979
16707SOL     OW51561   4.851   6.927   7.276
16707SOL    HW151562   4.898   6.927   7.364
16707SOL    HW251563   4.803   6.840   7.265
16708SOL     OW51564   3.954   7.020   6.124
16708SOL    HW151565   3.928   7.116   6.124
16708SOL    HW251566   3.883   6.966   6.169
16709SOL     OW51567   3.964   6.677   6.472
16709SOL    HW151568   3.978   6.593   6.524
16709SOL    HW251569   3.909   6.741   6.527
16710SOL     OW51570   4.344   7.372   7.025
16710SOL    HW151571   4.252   7.355   7.060
16710SOL    HW251572   4.372   7.464   7.051
16711SOL     OW51573   4.330   6.550   5.709
16711SOL    HW151574   4.337   6.634   5.655
16711SOL    HW251575   4.376   6.563   5.797
16712SOL     OW51576   5.318   5.700   7.066
16712SOL    HW151577   5.300   5.767   6.994
16712SOL    HW251578   5.315   5.746   7.155
16713SOL     OW51579   3.846   6.229   6.149
16713SOL    HW151580   3.801   6.141   6.166
16713SOL    HW251581   3.845   6.283   6.233
16714SOL     OW51582   5.566   7.353   5.945
16714SOL    HW151583   5.620   7.324   6.025
16714SOL    HW251584   5.596   7.443   5.916
16715SOL     OW51585   3.751   7.182   5.703
16715SOL    HW151586   3.732   7.086   5.724
16715SOL    HW251587   3.718   7.240   5.778
16716SOL     OW51588   5.413   6.508   6.198
16716SOL    HW151589   5.508   6.479   6.206
16716SOL    HW251590   5.405   6.573   6.123
16717SOL     OW51591   5.365   6.694   6.018
16717SOL    HW151592   5.451   6.696   5.966
16717SOL    HW251593   5.379   6.741   6.106
16718SOL     OW51594   3.837   6.323   7.183
16718SOL    HW151595   3.925   6.310   7.228
16718SOL    HW251596   3.824   6.420   7.161
16719SOL     OW51597   4.337   6.951   6.312
16719SOL    HW151598   4.288   6.864   6.321
16719SOL    HW251599   4.314   6.994   6.225
16720SOL     OW51600   5.017   6.814   7.009
16720SOL    HW151601   5.054   6.741   6.951
16720SOL    HW251602   5.069   6.819   7.094
16721SOL     OW51603   4.533   5.590   6.088
16721SOL    HW151604   4.573   5.681   6.079
16721SOL    HW251605   4.433   5.598   6.094
16722SOL     OW51606   3.921   6.562   6.850
16722SOL    HW151607   4.010   6.517   6.836
16722SOL    HW251608   3.848   6.497   6.831
16723SOL     OW51609   5.249   6.585   5.776
16723SOL    HW151610   5.186   6.509   5.789
16723SOL    HW251611   5.297   6.603   5.862
16724SOL     OW51612   4.911   7.378   7.202
16724SOL    HW151613   4.935   7.438   7.126
16724SOL    HW251614   4.918   7.283   7.172
16725SOL     OW51615   4.041   5.837   7.387
16725SOL    HW151616   4.112   5.908   7.393
16725SOL    HW251617   3.953   5.876   7.415
16726SOL     OW51618   5.190   7.003   6.539
16726SOL    HW151619   5.131   7.009   6.619
16726SOL    HW251620   5.175   6.915   6.493
16727SOL     OW51621   5.391   7.300   6.158
16727SOL    HW151622   5.350   7.277   6.070
16727SOL    HW251623   5.373   7.226   6.223
16728SOL     OW51624   4.322   6.315   5.856
16728SOL    HW151625   4.346   6.384   5.788
16728SOL    HW251626   4.244   6.348   5.910
16729SOL     OW51627   5.005   5.931   6.530
16729SOL    HW151628   4.919   5.881   6.517
16729SOL    HW251629   5.067   5.877   6.586
16730SOL     OW51630   5.300   7.248   5.893
16730SOL    HW151631   5.389   7.294   5.896
16730SOL    HW251632   5.279   7.224   5.798
16731SOL     OW51633   4.531   6.191   7.051
16731SOL    HW151634   4.484   6.188   7.140
16731SOL    HW251635   4.480   6.136   6.985
16732SOL     OW51636   5.118   6.055   7.260
16732SOL    HW151637   5.098   6.098   7.348
16732SOL    HW251638   5.196   5.993   7.269
16733SOL     OW51639   4.697   6.476   7.158
16733SOL    HW151640   4.743   6.392   7.129
16733SOL    HW251641   4.641   6.510   7.083
16734SOL     OW51642   4.715   5.996   6.828
16734SOL    HW151643   4.638   6.030   6.882
16734SOL    HW251644   4.681   5.945   6.749
16735SOL     OW51645   4.765   6.287   6.015
16735SOL    HW151646   4.791   6.283   6.111
16735SOL    HW251647   4.680   6.236   6.001
16736SOL     OW51648   3.800   6.397   6.375
16736SOL    HW151649   3.899   6.385   6.384
16736SOL    HW251650   3.776   6.492   6.396
16737SOL     OW51651   3.854   7.407   7.157
16737SOL    HW151652   3.844   7.392   7.256
16737SOL    HW251653   3.768   7.443   7.121
16738SOL     OW51654   4.589   5.934   5.781
16738SOL    HW151655   4.648   5.997   5.732
16738SOL    HW251656   4.608   5.840   5.752
16739SOL     OW51657   5.443   6.171   7.417
16739SOL    HW151658   5.417   6.260   7.381
16739SOL    HW251659   5.441   6.103   7.344
16740SOL     OW51660   5.086   6.730   6.131
16740SOL    HW151661   5.169   6.701   6.083
16740SOL    HW251662   5.037   6.797   6.075
16741SOL     OW51663   4.274   5.782   6.471
16741SOL    HW151664   4.269   5.777   6.571
16741SOL    HW251665   4.276   5.878   6.442
16742SOL     OW51666   4.732   7.042   6.063
16742SOL    HW151667   4.686   7.114   6.011
16742SOL    HW251668   4.728   7.062   6.161
16743SOL     OW51669   4.075   7.387   6.439
16743SOL    HW151670   4.125   7.301   6.445
16743SOL    HW251671   4.140   7.464   6.436
16744SOL     OW51672   5.519   6.652   6.459
16744SOL    HW151673   5.457   6.637   6.383
16744SOL    HW251674   5.467   6.663   6.544
16745SOL     OW51675   4.951   7.136   7.092
16745SOL    HW151676   4.957   7.059   7.156
16745SOL    HW251677   4.899   7.110   7.012
16746SOL     OW51678   4.045   6.529   5.828
16746SOL    HW151679   4.127   6.568   5.786
16746SOL    HW251680   4.018   6.447   5.779
16747SOL     OW51681   5.182   6.321   6.314
16747SOL    HW151682   5.177   6.256   6.389
16747SOL    HW251683   5.262   6.380   6.327
16748SOL     OW51684   4.185   6.852   7.313
16748SOL    HW151685   4.135   6.853   7.227
16748SOL    HW251686   4.122   6.834   7.389
16749SOL     OW51687   4.835   7.362   5.823
16749SOL    HW151688   4.775   7.300   5.873
16749SOL    HW251689   4.866   7.318   5.738
16750SOL     OW51690   3.926   5.871   7.084
16750SOL    HW151691   3.846   5.931   7.071
16750SOL    HW251692   3.916   5.822   7.170
16751SOL     OW51693   5.356   6.963   5.667
16751SOL    HW151694   5.324   7.057   5.657
16751SOL    HW251695   5.280   6.900   5.655
16752SOL     OW51696   4.188   7.329   5.909
16752SOL    HW151697   4.221   7.368   5.995
16752SOL    HW251698   4.264   7.322   5.844
16753SOL     OW51699   5.124   5.693   6.012
16753SOL    HW151700   5.100   5.656   5.922
16753SOL    HW251701   5.223   5.709   6.016
16754SOL     OW51702   3.973   7.371   6.827
16754SOL    HW151703   4.030   7.306   6.877
16754SOL    HW251704   3.957   7.338   6.734
16755SOL     OW51705   4.664   7.284   6.490
16755SOL    HW151706   4.744   7.227   6.511
16755SOL    HW251707   4.615   7.244   6.413
16756SOL     OW51708   4.106   6.286   6.066
16756SOL    HW151709   4.151   6.196   6.063
16756SOL    HW251710   4.012   6.275   6.099
16757SOL     OW51711   5.271   5.808   7.315
16757SOL    HW151712   5.266   5.845   7.407
16757SOL    HW251713   5.199   5.739   7.303
16758SOL     OW51714   4.338   5.708   5.703
16758SOL    HW151715   4.436   5.686   5.710
16758SOL    HW251716   4.307   5.691   5.610
16759SOL     OW51717   4.505   5.850   7.335
16759SOL    HW151718   4.572   5.789   7.378
16759SOL    HW251719   4.432   5.869   7.400
16760SOL     OW51720   4.612   7.100   6.781
16760SOL    HW151721   4.589   7.075   6.687
16760SOL    HW251722   4.673   7.031   6.820
16761SOL     OW51723   5.075   6.176   7.019
16761SOL    HW151724   5.103   6.133   7.104
16761SOL    HW251725   5.100   6.272   7.020
16762SOL     OW51726   4.527   6.988   6.510
16762SOL    HW151727   4.617   7.002   6.468
16762SOL    HW251728   4.456   6.990   6.439
16763SOL     OW51729   4.646   6.089   6.485
16763SOL    HW151730   4.621   6.080   6.389
16763SOL    HW251731   4.694   6.007   6.516
16764SOL     OW51732   4.263   5.650   6.098
16764SOL    HW151733   4.182   5.651   6.156
16764SOL    HW251734   4.266   5.733   6.043
16765SOL     OW51735   5.158   6.774   5.627
16765SOL    HW151736   5.190   6.698   5.684
16765SOL    HW251737   5.066   6.801   5.657
16766SOL     OW51738   4.021   5.621   5.757
16766SOL    HW151739   4.070   5.705   5.736
16766SOL    HW251740   4.083   5.556   5.802
16767SOL     OW51741   4.659   5.822   6.066
16767SOL    HW151742   4.611   5.863   5.988
16767SOL    HW251743   4.758   5.820   6.047
16768SOL     OW51744   4.800   6.269   7.050
16768SOL    HW151745   4.720   6.208   7.053
16768SOL    HW251746   4.881   6.216   7.026
16769SOL     OW51747   4.951   7.156   6.379
16769SOL    HW151748   4.972   7.230   6.314
16769SOL    HW251749   5.019   7.156   6.452
16770SOL     OW51750   4.183   6.738   6.327
16770SOL    HW151751   4.112   6.711   6.392
16770SOL    HW251752   4.157   6.710   6.234
16771SOL     OW51753   4.995   7.383   6.177
16771SOL    HW151754   5.039   7.447   6.113
16771SOL    HW251755   4.945   7.435   6.247
16772SOL     OW51756   4.756   6.135   5.602
16772SOL    HW151757   4.715   6.217   5.563
16772SOL    HW251758   4.820   6.161   5.675
16773SOL     OW51759   3.802   6.142   6.972
16773SOL    HW151760   3.894   6.141   6.931
16773SOL    HW251761   3.796   6.216   7.039
16774SOL     OW51762   4.285   5.808   6.733
16774SOL    HW151763   4.323   5.724   6.770
16774SOL    HW251764   4.197   5.827   6.777
16775SOL     OW51765   4.590   6.040   6.228
16775SOL    HW151766   4.558   6.112   6.166
16775SOL    HW251767   4.614   5.959   6.175
16776SOL     OW51768   4.741   5.625   6.339
16776SOL    HW151769   4.669   5.630   6.270
16776SOL    HW251770   4.717   5.556   6.408
16777SOL     OW51771   5.153   6.759   6.453
16777SOL    HW151772   5.098   6.675   6.446
16777SOL    HW251773   5.179   6.788   6.361
16778SOL     OW51774   5.190   6.176   6.578
16778SOL    HW151775   5.160   6.081   6.585
16778SOL    HW251776   5.263   6.192   6.644
16779SOL     OW51777   5.581   6.419   5.963
16779SOL    HW151778   5.623   6.355   6.027
16779SOL    HW251779   5.543   6.368   5.885
16780SOL     OW51780   4.212   6.971   5.760
16780SOL    HW151781   4.125   6.956   5.807
16780SOL    HW251782   4.195   6.997   5.665
16781SOL     OW51783   5.388   6.866   6.243
16781SOL    HW151784   5.487   6.874   6.257
16781SOL    HW251785   5.343   6.950   6.274
16782SOL     OW51786   5.114   6.161   5.664
16782SOL    HW151787   5.060   6.140   5.745
16782SOL    HW251788   5.205   6.120   5.673
16783SOL     OW51789   4.251   5.842   5.914
16783SOL    HW151790   4.278   5.783   5.839
16783SOL    HW251791   4.251   5.937   5.883
16784SOL     OW51792   5.478   6.809   7.174
16784SOL    HW151793   5.569   6.770   7.161
16784SOL    HW251794   5.486   6.905   7.198
16785SOL     OW51795   4.788   6.933   6.926
16785SOL    HW151796   4.708   6.910   6.981
16785SOL    HW251797   4.871   6.907   6.975
16786SOL     OW51798   5.316   7.215   7.211
16786SOL    HW151799   5.343   7.249   7.121
16786SOL    HW251800   5.395   7.177   7.257
16787SOL     OW51801   4.835   6.781   6.686
16787SOL    HW151802   4.795   6.825   6.767
16787SOL    HW251803   4.794   6.818   6.603
16788SOL     OW51804   5.362   6.685   6.665
16788SOL    HW151805   5.367   6.766   6.724
16788SOL    HW251806   5.276   6.687   6.614
16789SOL     OW51807   4.639   5.675   6.988
16789SOL    HW151808   4.664   5.655   6.893
16789SOL    HW251809   4.711   5.731   7.030
16790SOL     OW51810   4.704   6.702   7.305
16790SOL    HW151811   4.605   6.708   7.315
16790SOL    HW251812   4.727   6.622   7.249
16791SOL     OW51813   4.429   6.636   5.954
16791SOL    HW151814   4.415   6.643   6.053
16791SOL    HW251815   4.513   6.585   5.936
16792SOL     OW51816   4.134   6.399   6.837
16792SOL    HW151817   4.220   6.411   6.887
16792SOL    HW251818   4.092   6.312   6.864
16793SOL     OW51819   4.998   5.972   6.848
16793SOL    HW151820   5.019   6.046   6.912
16793SOL    HW251821   4.909   5.989   6.805
16794SOL     OW51822   3.788   7.150   6.917
16794SOL    HW151823   3.742   7.232   6.883
16794SOL    HW251824   3.886   7.169   6.926
16795SOL     OW51825   4.091   6.686   6.087
16795SOL    HW151826   4.084   6.769   6.031
16795SOL    HW251827   4.095   6.606   6.027
16796SOL     OW51828   4.290   6.123   6.451
16796SOL    HW151829   4.302   6.189   6.377
16796SOL    HW251830   4.336   6.157   6.534
16797SOL     OW51831   4.976   6.934   5.974
16797SOL    HW151832   5.026   7.011   6.014
16797SOL    HW251833   4.881   6.936   6.006
16798SOL     OW51834   4.996   7.031   6.728
16798SOL    HW151835   5.043   7.044   6.815
16798SOL    HW251836   4.930   6.957   6.737
16799SOL     OW51837   5.306   6.225   6.058
16799SOL    HW151838   5.275   6.286   6.131
16799SOL    HW251839   5.356   6.277   5.989
16800SOL     OW51840   4.078   7.096   6.915
16800SOL    HW151841   4.057   7.052   6.828
16800SOL    HW251842   4.175   7.122   6.918
16801SOL     OW51843   4.126   6.337   7.184
16801SOL    HW151844   4.194   6.392   7.137
16801SOL    HW251845   4.166   6.249   7.211
16802SOL     OW51846   5.311   6.365   7.256
16802SOL    HW151847   5.219   6.403   7.251
16802SOL    HW251848   5.371   6.412   7.191
16803SOL     OW51849   4.737   5.691   7.356
16803SOL    HW151850   4.743   5.776   7.304
16803SOL    HW251851   4.769   5.615   7.299
16804SOL     OW51852   4.228   5.636   7.326
16804SOL    HW151853   4.186   5.579   7.256
16804SOL    HW251854   4.162   5.705   7.358
16805SOL     OW51855   4.297   6.456   6.615
16805SOL    HW151856   4.341   6.545   6.606
16805SOL    HW251857   4.234   6.456   6.692
16806SOL     OW51858   5.084   6.448   6.631
16806SOL    HW151859   5.009   6.448   6.565
16806SOL    HW251860   5.121   6.356   6.640
16807SOL     OW51861   4.933   6.111   5.861
16807SOL    HW151862   4.946   6.027   5.915
16807SOL    HW251863   4.904   6.185   5.921
16808SOL     OW51864   4.031   5.799   6.817
16808SOL    HW151865   4.008   5.836   6.907
16808SOL    HW251866   4.001   5.704   6.811
16809SOL     OW51867   3.761   6.896   6.868
16809SOL    HW151868   3.814   6.847   6.936
16809SOL    HW251869   3.783   6.994   6.873
16810SOL     OW51870   4.456   6.220   6.650
16810SOL    HW151871   4.515   6.194   6.574
16810SOL    HW251872   4.428   6.316   6.639
16811SOL     OW51873   5.452   6.521   7.440
16811SOL    HW151874   5.406   6.514   7.351
16811SOL    HW251875   5.390   6.565   7.506
16812SOL     OW51876   4.031   5.649   6.204
16812SOL    HW151877   4.020   5.743   6.237
16812SOL    HW251878   4.026   5.586   6.281
16813SOL     OW51879   5.346   5.953   5.960
16813SOL    HW151880   5.348   5.877   6.024
16813SOL    HW251881   5.298   6.030   6.000
16814SOL     OW51882   4.747   6.352   6.552
16814SOL    HW151883   4.762   6.373   6.648
16814SOL    HW251884   4.717   6.257   6.543
16815SOL     OW51885   4.704   7.159   7.286
16815SOL    HW151886   4.684   7.203   7.198
16815SOL    HW251887   4.743   7.068   7.270
16816SOL     OW51888   5.583   7.104   7.191
16816SOL    HW151889   5.597   7.131   7.096
16816SOL    HW251890   5.666   7.126   7.244
16817SOL     OW51891   4.074   6.484   7.390
16817SOL    HW151892   4.150   6.528   7.438
16817SOL    HW251893   4.109   6.437   7.308
16818SOL     OW51894   5.264   5.860   5.711
16818SOL    HW151895   5.203   5.785   5.734
16818SOL    HW251896   5.286   5.912   5.794
16819SOL     OW51897   5.027   6.424   5.628
16819SOL    HW151898   5.061   6.331   5.643
16819SOL    HW251899   5.045   6.451   5.533
16820SOL     OW51900   4.792   6.919   6.435
16820SOL    HW151901   4.799   6.835   6.380
16820SOL    HW251902   4.854   6.988   6.399
16821SOL     OW51903   4.043   6.396   6.535
16821SOL    HW151904   4.136   6.432   6.540
16821SOL    HW251905   4.037   6.311   6.587
16822SOL     OW51906   4.063   6.095   6.592
16822SOL    HW151907   4.011   6.012   6.575
16822SOL    HW251908   4.140   6.100   6.528
16823SOL     OW51909   4.862   5.966   7.264
16823SOL    HW151910   4.817   6.029   7.328
16823SOL    HW251911   4.955   5.997   7.247
16824SOL     OW51912   4.884   5.793   7.063
16824SOL    HW151913   4.884   5.857   7.140
16824SOL    HW251914   4.912   5.841   6.980
16825SOL     OW51915   3.732   6.912   5.786
16825SOL    HW151916   3.639   6.933   5.755
16825SOL    HW251917   3.742   6.813   5.799
16826SOL     OW51918   3.812   7.387   6.513
16826SOL    HW151919   3.770   7.301   6.486
16826SOL    HW251920   3.906   7.390   6.479
16827SOL     OW51921   4.228   7.154   6.496
16827SOL    HW151922   4.294   7.228   6.505
16827SOL    HW251923   4.272   7.075   6.454
16828SOL     OW51924   4.726   6.382   6.824
16828SOL    HW151925   4.767   6.350   6.910
16828SOL    HW251926   4.630   6.355   6.821
16829SOL     OW51927   3.764   6.130   6.700
16829SOL    HW151928   3.849   6.097   6.659
16829SOL    HW251929   3.777   6.145   6.798
16830SOL     OW51930   3.913   6.106   7.308
16830SOL    HW151931   3.972   6.066   7.238
16830SOL    HW251932   3.855   6.177   7.267
16831SOL     OW51933   5.093   6.536   7.246
16831SOL    HW151934   5.132   6.625   7.266
16831SOL    HW251935   5.103   6.516   7.149
16832SOL     OW51936   4.539   6.158   5.911
16832SOL    HW151937   4.546   6.069   5.865
16832SOL    HW251938   4.445   6.192   5.903
16833SOL     OW51939   5.381   6.190   6.792
16833SOL    HW151940   5.343   6.121   6.854
16833SOL    HW251941   5.463   6.154   6.748
16834SOL     OW51942   3.976   7.150   7.330
16834SOL    HW151943   3.946   7.207   7.406
16834SOL    HW251944   3.969   7.053   7.356
16835SOL     OW51945   4.395   6.050   6.855
16835SOL    HW151946   4.361   5.961   6.825
16835SOL    HW251947   4.421   6.104   6.775
16836SOL     OW51948   4.654   7.264   7.051
16836SOL    HW151949   4.630   7.246   6.956
16836SOL    HW251950   4.684   7.358   7.061
16837SOL     OW51951   4.197   6.086   5.777
16837SOL    HW151952   4.258   6.166   5.781
16837SOL    HW251953   4.102   6.117   5.784
16838SOL     OW51954   3.883   6.723   7.052
16838SOL    HW151955   3.905   6.662   7.128
16838SOL    HW251956   3.893   6.674   6.966
16839SOL     OW51957   5.071   6.645   6.820
16839SOL    HW151958   5.095   6.582   6.746
16839SOL    HW251959   4.981   6.685   6.802
16840SOL     OW51960   5.026   6.441   5.895
16840SOL    HW151961   4.940   6.410   5.937
16840SOL    HW251962   5.022   6.427   5.796
16841SOL     OW51963   5.483   7.333   6.740
16841SOL    HW151964   5.544   7.363   6.667
16841SOL    HW251965   5.445   7.244   6.718
16842SOL     OW51966   4.976   7.317   6.714
16842SOL    HW151967   5.060   7.322   6.660
16842SOL    HW251968   4.953   7.221   6.732
16843SOL     OW51969   3.807   6.844   6.608
16843SOL    HW151970   3.802   6.843   6.708
16843SOL    HW251971   3.724   6.803   6.570
16844SOL     OW51972   4.412   7.248   7.302
16844SOL    HW151973   4.356   7.329   7.311
16844SOL    HW251974   4.464   7.252   7.216
16845SOL     OW51975   5.450   5.721   6.109
16845SOL    HW151976   5.523   5.704   6.042
16845SOL    HW251977   5.419   5.634   6.147
16846SOL     OW51978   5.112   7.159   6.063
16846SOL    HW151979   5.179   7.171   5.989
16846SOL    HW251980   5.072   7.248   6.086
16847SOL     OW51981   3.854   7.380   7.437
16847SOL    HW151982   3.813   7.306   7.490
16847SOL    HW251983   3.918   7.431   7.495
16848SOL     OW51984   5.004   6.513   6.258
16848SOL    HW151985   5.064   6.432   6.260
16848SOL    HW251986   5.044   6.582   6.198
16849SOL     OW51987   4.554   6.859   7.008
16849SOL    HW151988   4.549   6.892   7.103
16849SOL    HW251989   4.468   6.878   6.962
16850SOL     OW51990   4.396   7.202   5.740
16850SOL    HW151991   4.405   7.212   5.641
16850SOL    HW251992   4.356   7.113   5.761
16851SOL     OW51993   5.374   7.306   6.980
16851SOL    HW151994   5.427   7.316   6.896
16851SOL    HW251995   5.347   7.396   7.014
16852SOL     OW51996   5.565   5.761   6.549
16852SOL    HW151997   5.604   5.676   6.513
16852SOL    HW251998   5.467   5.763   6.530
16853SOL     OW51999   3.987   5.912   6.306
16853SOL    HW152000   3.908   5.963   6.272
16853SOL    HW252001   3.978   5.897   6.404
16854SOL     OW52002   4.918   7.198   5.617
16854SOL    HW152003   4.924   7.105   5.654
16854SOL    HW252004   4.859   7.198   5.537
16855SOL     OW52005   4.546   6.588   6.958
16855SOL    HW152006   4.586   6.587   6.866
16855SOL    HW252007   4.556   6.680   6.998
16856SOL     OW52008   4.640   6.496   5.877
16856SOL    HW152009   4.703   6.534   5.809
16856SOL    HW252010   4.680   6.413   5.916
16857SOL     OW52011   5.228   7.193   5.630
16857SOL    HW152012   5.136   7.230   5.637
16857SOL    HW252013   5.266   7.213   5.540
16858SOL     OW52014   4.096   6.874   7.076
16858SOL    HW152015   4.083   6.967   7.042
16858SOL    HW252016   4.012   6.822   7.063
16859SOL     OW52017   5.338   6.878   6.875
16859SOL    HW152018   5.398   6.881   6.955
16859SOL    HW252019   5.263   6.942   6.888
16860SOL     OW52020   4.763   6.684   6.282
16860SOL    HW152021   4.693   6.637   6.336
16860SOL    HW252022   4.822   6.616   6.239
16861SOL     OW52023   4.738   5.822   6.557
16861SOL    HW152024   4.730   5.786   6.464
16861SOL    HW252025   4.736   5.746   6.622
16862SOL     OW52026   4.314   7.073   6.077
16862SOL    HW152027   4.356   7.015   6.007
16862SOL    HW252028   4.270   7.152   6.033
16863SOL     OW52029   5.433   5.971   6.967
16863SOL    HW152030   5.506   6.040   6.971
16863SOL    HW252031   5.461   5.896   6.908
16864SOL     OW52032   3.979   6.934   5.876
16864SOL    HW152033   3.883   6.935   5.849
16864SOL    HW252034   3.991   6.987   5.960
16865SOL     OW52035   3.829   6.599   7.312
16865SOL    HW152036   3.752   6.566   7.366
16865SOL    HW252037   3.914   6.569   7.354
16866SOL     OW52038   4.396   5.789   7.075
16866SOL    HW152039   4.486   5.773   7.035
16866SOL    HW252040   4.404   5.794   7.174
16867SOL     OW52041   3.799   5.931   5.619
16867SOL    HW152042   3.707   5.903   5.590
16867SOL    HW252043   3.830   6.008   5.563
16868SOL     OW52044   5.164   6.442   6.984
16868SOL    HW152045   5.107   6.494   6.921
16868SOL    HW252046   5.260   6.454   6.960
16869SOL     OW52047   3.796   5.752   5.904
16869SOL    HW152048   3.779   5.835   5.850
16869SOL    HW252049   3.886   5.715   5.882
16870SOL     OW52050   4.907   6.921   5.705
16870SOL    HW152051   4.808   6.910   5.707
16870SOL    HW252052   4.941   6.936   5.798
16871SOL     OW52053   4.337   6.428   7.017
16871SOL    HW152054   4.393   6.509   7.000
16871SOL    HW252055   4.396   6.348   7.020
16872SOL     OW52056   5.217   7.353   6.545
16872SOL    HW152057   5.250   7.417   6.476
16872SOL    HW252058   5.283   7.347   6.620
16873SOL     OW52059   4.440   6.151   7.294
16873SOL    HW152060   4.459   6.216   7.368
16873SOL    HW252061   4.500   6.071   7.303
16874SOL     OW52062   5.174   6.806   7.219
16874SOL    HW152063   5.165   6.796   7.318
16874SOL    HW252064   5.270   6.799   7.193
16875SOL     OW52065   4.114   7.327   7.146
16875SOL    HW152066   4.023   7.368   7.144
16875SOL    HW252067   4.107   7.233   7.178
16876SOL     OW52068   5.398   6.469   6.840
16876SOL    HW152069   5.371   6.380   6.803
16876SOL    HW252070   5.399   6.537   6.767
16877SOL     OW52071   4.949   5.911   6.035
16877SOL    HW152072   5.014   5.837   6.024
16877SOL    HW252073   4.969   5.961   6.119
16878SOL     OW52074   4.318   6.331   6.238
16878SOL    HW152075   4.368   6.416   6.219
16878SOL    HW252076   4.230   6.333   6.190
16879SOL     OW52077   5.501   5.928   7.228
16879SOL    HW152078   5.484   5.959   7.134
16879SOL    HW252079   5.417   5.891   7.266
16880SOL     OW52080   5.454   6.520   7.103
16880SOL    HW152081   5.492   6.611   7.118
16880SOL    HW252082   5.446   6.503   7.004
16881SOL     OW52083   4.583   6.960   5.602
16881SOL    HW152084   4.537   6.975   5.690
16881SOL    HW252085   4.627   7.045   5.572
16882SOL     OW52086   4.385   7.376   6.539
16882SOL    HW152087   4.339   7.464   6.526
16882SOL    HW252088   4.484   7.388   6.532
16883SOL     OW52089   4.583   6.542   6.447
16883SOL    HW152090   4.637   6.473   6.495
16883SOL    HW252091   4.551   6.611   6.513
16884SOL     OW52092   4.807   6.570   5.673
16884SOL    HW152093   4.784   6.623   5.591
16884SOL    HW252094   4.888   6.514   5.654
16885SOL     OW52095   5.585   7.155   6.437
16885SOL    HW152096   5.514   7.143   6.367
16885SOL    HW252097   5.586   7.076   6.497
16886SOL     OW52098   3.945   6.900   7.430
16886SOL    HW152099   3.880   6.827   7.409
16886SOL    HW252100   3.949   6.914   7.528
16887SOL     OW52101   3.803   6.826   6.239
16887SOL    HW152102   3.802   6.779   6.327
16887SOL    HW252103   3.885   6.798   6.188
16888SOL     OW52104   4.396   6.977   7.210
16888SOL    HW152105   4.318   6.927   7.248
16888SOL    HW252106   4.393   7.072   7.241
16889SOL     OW52107   5.548   5.778   6.813
16889SOL    HW152108   5.544   5.688   6.857
16889SOL    HW252109   5.551   5.767   6.714
16890SOL     OW52110   4.152   6.010   6.106
16890SOL    HW152111   4.182   5.938   6.044
16890SOL    HW252112   4.113   5.970   6.189
16891SOL     OW52113   5.429   7.073   6.690
16891SOL    HW152114   5.336   7.048   6.663
16891SOL    HW252115   5.455   7.023   6.772
16892SOL     OW52116   4.041   6.133   6.866
16892SOL    HW152117   4.079   6.074   6.938
16892SOL    HW252118   4.081   6.107   6.778
16893SOL     OW52119   4.536   7.172   6.273
16893SOL    HW152120   4.568   7.182   6.179
16893SOL    HW252121   4.457   7.110   6.275
16894SOL     OW52122   5.148   5.800   6.698
16894SOL    HW152123   5.200   5.735   6.753
16894SOL    HW252124   5.099   5.863   6.759
16895SOL     OW52125   4.725   5.620   6.740
16895SOL    HW152126   4.662   5.548   6.709
16895SOL    HW252127   4.818   5.584   6.740
16896SOL     OW52128   4.494   6.916   5.887
16896SOL    HW152129   4.448   6.829   5.904
16896SOL    HW252130   4.585   6.913   5.928
16897SOL     OW52131   4.342   7.153   6.870
16897SOL    HW152132   4.337   7.235   6.927
16897SOL    HW252133   4.431   7.150   6.825
16898SOL     OW52134   5.076   5.638   5.754
16898SOL    HW152135   5.111   5.597   5.670
16898SOL    HW252136   4.986   5.600   5.774
16899SOL     OW52137   5.024   6.039   6.277
16899SOL    HW152138   4.965   6.119   6.281
16899SOL    HW252139   5.039   6.004   6.370
16900SOL     OW52140   5.317   5.807   6.468
16900SOL    HW152141   5.233   5.806   6.522
16900SOL    HW252142   5.319   5.890   6.412
16901SOL     OW52143   3.763   6.663   5.886
16901SOL    HW152144   3.862   6.652   5.877
16901SOL    HW252145   3.723   6.577   5.918
16902SOL     OW52146   4.599   7.232   5.923
16902SOL    HW152147   4.522   7.197   5.869
16902SOL    HW252148   4.567   7.303   5.985
16903SOL     OW52149   3.954   6.214   7.561
16903SOL    HW152150   3.861   6.212   7.598
16903SOL    HW252151   3.955   6.175   7.469
16904SOL     OW52152   3.949   5.861   8.444
16904SOL    HW152153   3.984   5.844   8.536
16904SOL    HW252154   3.861   5.816   8.432
16905SOL     OW52155   3.743   5.954   8.095
16905SOL    HW152156   3.661   5.997   8.134
16905SOL    HW252157   3.715   5.881   8.032
16906SOL     OW52158   4.293   6.861   8.613
16906SOL    HW152159   4.200   6.854   8.576
16906SOL    HW252160   4.304   6.950   8.657
16907SOL     OW52161   5.279   7.097   8.151
16907SOL    HW152162   5.222   7.081   8.232
16907SOL    HW252163   5.220   7.107   8.071
16908SOL     OW52164   4.859   6.289   8.165
16908SOL    HW152165   4.916   6.367   8.140
16908SOL    HW252166   4.799   6.315   8.241
16909SOL     OW52167   5.479   6.193   7.679
16909SOL    HW152168   5.467   6.180   7.580
16909SOL    HW252169   5.449   6.112   7.728
16910SOL     OW52170   4.492   6.730   8.471
16910SOL    HW152171   4.414   6.747   8.531
16910SOL    HW252172   4.526   6.817   8.435
16911SOL     OW52173   4.574   6.384   9.271
16911SOL    HW152174   4.570   6.460   9.336
16911SOL    HW252175   4.596   6.420   9.180
16912SOL     OW52176   4.409   6.598   8.113
16912SOL    HW152177   4.478   6.582   8.183
16912SOL    HW252178   4.336   6.655   8.151
16913SOL     OW52179   4.410   6.747   9.251
16913SOL    HW152180   4.470   6.826   9.265
16913SOL    HW252181   4.324   6.778   9.210
16914SOL     OW52182   4.059   7.021   8.509
16914SOL    HW152183   3.981   6.990   8.456
16914SOL    HW252184   4.117   7.079   8.452
16915SOL     OW52185   5.184   7.091   8.787
16915SOL    HW152186   5.208   7.185   8.813
16915SOL    HW252187   5.168   7.037   8.869
16916SOL     OW52188   4.162   5.978   8.947
16916SOL    HW152189   4.244   5.922   8.956
16916SOL    HW252190   4.081   5.920   8.951
16917SOL     OW52191   5.327   6.033   8.185
16917SOL    HW152192   5.253   6.079   8.135
16917SOL    HW252193   5.378   6.101   8.238
16918SOL     OW52194   3.955   7.299   7.931
16918SOL    HW152195   3.989   7.376   7.985
16918SOL    HW252196   3.999   7.299   7.841
16919SOL     OW52197   4.851   6.927   9.138
16919SOL    HW152198   4.898   6.927   9.226
16919SOL    HW252199   4.803   6.840   9.127
16920SOL     OW52200   3.954   7.020   7.986
16920SOL    HW152201   3.928   7.116   7.986
16920SOL    HW252202   3.883   6.966   8.031
16921SOL     OW52203   3.964   6.677   8.334
16921SOL    HW152204   3.978   6.593   8.386
16921SOL    HW252205   3.909   6.741   8.389
16922SOL     OW52206   4.344   7.372   8.887
16922SOL    HW152207   4.252   7.355   8.922
16922SOL    HW252208   4.372   7.464   8.913
16923SOL     OW52209   4.330   6.550   7.571
16923SOL    HW152210   4.337   6.634   7.517
16923SOL    HW252211   4.376   6.563   7.659
16924SOL     OW52212   5.318   5.700   8.928
16924SOL    HW152213   5.300   5.767   8.856
16924SOL    HW252214   5.315   5.746   9.017
16925SOL     OW52215   3.846   6.229   8.011
16925SOL    HW152216   3.801   6.141   8.028
16925SOL    HW252217   3.845   6.283   8.095
16926SOL     OW52218   5.566   7.353   7.807
16926SOL    HW152219   5.620   7.324   7.887
16926SOL    HW252220   5.596   7.443   7.778
16927SOL     OW52221   3.751   7.182   7.565
16927SOL    HW152222   3.732   7.086   7.586
16927SOL    HW252223   3.718   7.240   7.640
16928SOL     OW52224   5.413   6.508   8.060
16928SOL    HW152225   5.508   6.479   8.068
16928SOL    HW252226   5.405   6.573   7.985
16929SOL     OW52227   5.365   6.694   7.880
16929SOL    HW152228   5.451   6.696   7.828
16929SOL    HW252229   5.379   6.741   7.968
16930SOL     OW52230   3.837   6.323   9.045
16930SOL    HW152231   3.925   6.310   9.090
16930SOL    HW252232   3.824   6.420   9.023
16931SOL     OW52233   4.337   6.951   8.174
16931SOL    HW152234   4.288   6.864   8.183
16931SOL    HW252235   4.314   6.994   8.087
16932SOL     OW52236   5.017   6.814   8.871
16932SOL    HW152237   5.054   6.741   8.813
16932SOL    HW252238   5.069   6.819   8.956
16933SOL     OW52239   4.533   5.590   7.950
16933SOL    HW152240   4.573   5.681   7.941
16933SOL    HW252241   4.433   5.598   7.956
16934SOL     OW52242   3.921   6.562   8.712
16934SOL    HW152243   4.010   6.517   8.698
16934SOL    HW252244   3.848   6.497   8.693
16935SOL     OW52245   5.249   6.585   7.638
16935SOL    HW152246   5.186   6.509   7.651
16935SOL    HW252247   5.297   6.603   7.724
16936SOL     OW52248   4.911   7.378   9.064
16936SOL    HW152249   4.935   7.438   8.988
16936SOL    HW252250   4.918   7.283   9.034
16937SOL     OW52251   4.041   5.837   9.249
16937SOL    HW152252   4.112   5.908   9.255
16937SOL    HW252253   3.953   5.876   9.277
16938SOL     OW52254   5.190   7.003   8.401
16938SOL    HW152255   5.131   7.009   8.481
16938SOL    HW252256   5.175   6.915   8.355
16939SOL     OW52257   5.391   7.300   8.020
16939SOL    HW152258   5.350   7.277   7.932
16939SOL    HW252259   5.373   7.226   8.085
16940SOL     OW52260   4.322   6.315   7.718
16940SOL    HW152261   4.346   6.384   7.650
16940SOL    HW252262   4.244   6.348   7.772
16941SOL     OW52263   5.005   5.931   8.392
16941SOL    HW152264   4.919   5.881   8.379
16941SOL    HW252265   5.067   5.877   8.448
16942SOL     OW52266   5.300   7.248   7.755
16942SOL    HW152267   5.389   7.294   7.758
16942SOL    HW252268   5.279   7.224   7.660
16943SOL     OW52269   4.531   6.191   8.913
16943SOL    HW152270   4.484   6.188   9.002
16943SOL    HW252271   4.480   6.136   8.847
16944SOL     OW52272   5.118   6.055   9.122
16944SOL    HW152273   5.098   6.098   9.210
16944SOL    HW252274   5.196   5.993   9.131
16945SOL     OW52275   4.697   6.476   9.020
16945SOL    HW152276   4.743   6.392   8.991
16945SOL    HW252277   4.641   6.510   8.945
16946SOL     OW52278   4.715   5.996   8.690
16946SOL    HW152279   4.638   6.030   8.744
16946SOL    HW252280   4.681   5.945   8.611
16947SOL     OW52281   4.765   6.287   7.877
16947SOL    HW152282   4.791   6.283   7.973
16947SOL    HW252283   4.680   6.236   7.863
16948SOL     OW52284   3.800   6.397   8.237
16948SOL    HW152285   3.899   6.385   8.246
16948SOL    HW252286   3.776   6.492   8.258
16949SOL     OW52287   3.854   7.407   9.019
16949SOL    HW152288   3.844   7.392   9.118
16949SOL    HW252289   3.768   7.443   8.983
16950SOL     OW52290   4.589   5.934   7.643
16950SOL    HW152291   4.648   5.997   7.594
16950SOL    HW252292   4.608   5.840   7.614
16951SOL     OW52293   5.443   6.171   9.279
16951SOL    HW152294   5.417   6.260   9.243
16951SOL    HW252295   5.441   6.103   9.206
16952SOL     OW52296   5.086   6.730   7.993
16952SOL    HW152297   5.169   6.701   7.945
16952SOL    HW252298   5.037   6.797   7.937
16953SOL     OW52299   4.274   5.782   8.333
16953SOL    HW152300   4.269   5.777   8.433
16953SOL    HW252301   4.276   5.878   8.304
16954SOL     OW52302   4.732   7.042   7.925
16954SOL    HW152303   4.686   7.114   7.873
16954SOL    HW252304   4.728   7.062   8.023
16955SOL     OW52305   4.075   7.387   8.301
16955SOL    HW152306   4.125   7.301   8.307
16955SOL    HW252307   4.140   7.464   8.298
16956SOL     OW52308   5.519   6.652   8.321
16956SOL    HW152309   5.457   6.637   8.245
16956SOL    HW252310   5.467   6.663   8.406
16957SOL     OW52311   4.951   7.136   8.954
16957SOL    HW152312   4.957   7.059   9.018
16957SOL    HW252313   4.899   7.110   8.874
16958SOL     OW52314   4.045   6.529   7.690
16958SOL    HW152315   4.127   6.568   7.648
16958SOL    HW252316   4.018   6.447   7.641
16959SOL     OW52317   5.182   6.321   8.176
16959SOL    HW152318   5.177   6.256   8.251
16959SOL    HW252319   5.262   6.380   8.189
16960SOL     OW52320   4.185   6.852   9.175
16960SOL    HW152321   4.135   6.853   9.089
16960SOL    HW252322   4.122   6.834   9.251
16961SOL     OW52323   4.835   7.362   7.685
16961SOL    HW152324   4.775   7.300   7.735
16961SOL    HW252325   4.866   7.318   7.600
16962SOL     OW52326   3.926   5.871   8.946
16962SOL    HW152327   3.846   5.931   8.933
16962SOL    HW252328   3.916   5.822   9.032
16963SOL     OW52329   5.356   6.963   7.529
16963SOL    HW152330   5.324   7.057   7.519
16963SOL    HW252331   5.280   6.900   7.517
16964SOL     OW52332   4.188   7.329   7.771
16964SOL    HW152333   4.221   7.368   7.857
16964SOL    HW252334   4.264   7.322   7.706
16965SOL     OW52335   5.124   5.693   7.874
16965SOL    HW152336   5.100   5.656   7.784
16965SOL    HW252337   5.223   5.709   7.878
16966SOL     OW52338   3.973   7.371   8.689
16966SOL    HW152339   4.030   7.306   8.739
16966SOL    HW252340   3.957   7.338   8.596
16967SOL     OW52341   4.664   7.284   8.352
16967SOL    HW152342   4.744   7.227   8.373
16967SOL    HW252343   4.615   7.244   8.275
16968SOL     OW52344   4.106   6.286   7.928
16968SOL    HW152345   4.151   6.196   7.925
16968SOL    HW252346   4.012   6.275   7.961
16969SOL     OW52347   5.271   5.808   9.177
16969SOL    HW152348   5.266   5.845   9.269
16969SOL    HW252349   5.199   5.739   9.165
16970SOL     OW52350   4.338   5.708   7.565
16970SOL    HW152351   4.436   5.686   7.572
16970SOL    HW252352   4.307   5.691   7.472
16971SOL     OW52353   4.505   5.850   9.197
16971SOL    HW152354   4.572   5.789   9.240
16971SOL    HW252355   4.432   5.869   9.262
16972SOL     OW52356   4.612   7.100   8.643
16972SOL    HW152357   4.589   7.075   8.549
16972SOL    HW252358   4.673   7.031   8.682
16973SOL     OW52359   5.075   6.176   8.881
16973SOL    HW152360   5.103   6.133   8.966
16973SOL    HW252361   5.100   6.272   8.882
16974SOL     OW52362   4.527   6.988   8.372
16974SOL    HW152363   4.617   7.002   8.330
16974SOL    HW252364   4.456   6.990   8.301
16975SOL     OW52365   4.646   6.089   8.347
16975SOL    HW152366   4.621   6.080   8.251
16975SOL    HW252367   4.694   6.007   8.378
16976SOL     OW52368   4.263   5.650   7.960
16976SOL    HW152369   4.182   5.651   8.018
16976SOL    HW252370   4.266   5.733   7.905
16977SOL     OW52371   5.158   6.774   7.489
16977SOL    HW152372   5.190   6.698   7.546
16977SOL    HW252373   5.066   6.801   7.519
16978SOL     OW52374   4.021   5.621   7.619
16978SOL    HW152375   4.070   5.705   7.598
16978SOL    HW252376   4.083   5.556   7.664
16979SOL     OW52377   4.659   5.822   7.928
16979SOL    HW152378   4.611   5.863   7.850
16979SOL    HW252379   4.758   5.820   7.909
16980SOL     OW52380   4.800   6.269   8.912
16980SOL    HW152381   4.720   6.208   8.915
16980SOL    HW252382   4.881   6.216   8.888
16981SOL     OW52383   4.951   7.156   8.241
16981SOL    HW152384   4.972   7.230   8.176
16981SOL    HW252385   5.019   7.156   8.314
16982SOL     OW52386   4.183   6.738   8.189
16982SOL    HW152387   4.112   6.711   8.254
16982SOL    HW252388   4.157   6.710   8.096
16983SOL     OW52389   4.995   7.383   8.039
16983SOL    HW152390   5.039   7.447   7.975
16983SOL    HW252391   4.945   7.435   8.109
16984SOL     OW52392   4.756   6.135   7.464
16984SOL    HW152393   4.715   6.217   7.425
16984SOL    HW252394   4.820   6.161   7.537
16985SOL     OW52395   3.802   6.142   8.834
16985SOL    HW152396   3.894   6.141   8.793
16985SOL    HW252397   3.796   6.216   8.901
16986SOL     OW52398   4.285   5.808   8.595
16986SOL    HW152399   4.323   5.724   8.632
16986SOL    HW252400   4.197   5.827   8.639
16987SOL     OW52401   4.590   6.040   8.090
16987SOL    HW152402   4.558   6.112   8.028
16987SOL    HW252403   4.614   5.959   8.037
16988SOL     OW52404   4.741   5.625   8.201
16988SOL    HW152405   4.669   5.630   8.132
16988SOL    HW252406   4.717   5.556   8.270
16989SOL     OW52407   5.153   6.759   8.315
16989SOL    HW152408   5.098   6.675   8.308
16989SOL    HW252409   5.179   6.788   8.223
16990SOL     OW52410   5.190   6.176   8.440
16990SOL    HW152411   5.160   6.081   8.447
16990SOL    HW252412   5.263   6.192   8.506
16991SOL     OW52413   5.581   6.419   7.825
16991SOL    HW152414   5.623   6.355   7.889
16991SOL    HW252415   5.543   6.368   7.747
16992SOL     OW52416   4.212   6.971   7.622
16992SOL    HW152417   4.125   6.956   7.669
16992SOL    HW252418   4.195   6.997   7.527
16993SOL     OW52419   5.388   6.866   8.105
16993SOL    HW152420   5.487   6.874   8.119
16993SOL    HW252421   5.343   6.950   8.136
16994SOL     OW52422   5.114   6.161   7.526
16994SOL    HW152423   5.060   6.140   7.607
16994SOL    HW252424   5.205   6.120   7.535
16995SOL     OW52425   4.251   5.842   7.776
16995SOL    HW152426   4.278   5.783   7.701
16995SOL    HW252427   4.251   5.937   7.745
16996SOL     OW52428   5.478   6.809   9.036
16996SOL    HW152429   5.569   6.770   9.023
16996SOL    HW252430   5.486   6.905   9.060
16997SOL     OW52431   4.788   6.933   8.788
16997SOL    HW152432   4.708   6.910   8.843
16997SOL    HW252433   4.871   6.907   8.837
16998SOL     OW52434   5.316   7.215   9.073
16998SOL    HW152435   5.343   7.249   8.983
16998SOL    HW252436   5.395   7.177   9.119
16999SOL     OW52437   4.835   6.781   8.548
16999SOL    HW152438   4.795   6.825   8.629
16999SOL    HW252439   4.794   6.818   8.465
17000SOL     OW52440   5.362   6.685   8.527
17000SOL    HW152441   5.367   6.766   8.586
17000SOL    HW252442   5.276   6.687   8.476
17001SOL     OW52443   4.639   5.675   8.850
17001SOL    HW152444   4.664   5.655   8.755
17001SOL    HW252445   4.711   5.731   8.892
17002SOL     OW52446   4.704   6.702   9.167
17002SOL    HW152447   4.605   6.708   9.177
17002SOL    HW252448   4.727   6.622   9.111
17003SOL     OW52449   4.429   6.636   7.816
17003SOL    HW152450   4.415   6.643   7.915
17003SOL    HW252451   4.513   6.585   7.798
17004SOL     OW52452   4.134   6.399   8.699
17004SOL    HW152453   4.220   6.411   8.749
17004SOL    HW252454   4.092   6.312   8.726
17005SOL     OW52455   4.998   5.972   8.710
17005SOL    HW152456   5.019   6.046   8.774
17005SOL    HW252457   4.909   5.989   8.667
17006SOL     OW52458   3.788   7.150   8.779
17006SOL    HW152459   3.742   7.232   8.745
17006SOL    HW252460   3.886   7.169   8.788
17007SOL     OW52461   4.091   6.686   7.949
17007SOL    HW152462   4.084   6.769   7.893
17007SOL    HW252463   4.095   6.606   7.889
17008SOL     OW52464   4.290   6.123   8.313
17008SOL    HW152465   4.302   6.189   8.239
17008SOL    HW252466   4.336   6.157   8.396
17009SOL     OW52467   4.976   6.934   7.836
17009SOL    HW152468   5.026   7.011   7.876
17009SOL    HW252469   4.881   6.936   7.868
17010SOL     OW52470   4.996   7.031   8.590
17010SOL    HW152471   5.043   7.044   8.677
17010SOL    HW252472   4.930   6.957   8.599
17011SOL     OW52473   5.306   6.225   7.920
17011SOL    HW152474   5.275   6.286   7.993
17011SOL    HW252475   5.356   6.277   7.851
17012SOL     OW52476   4.078   7.096   8.777
17012SOL    HW152477   4.057   7.052   8.690
17012SOL    HW252478   4.175   7.122   8.780
17013SOL     OW52479   4.126   6.337   9.046
17013SOL    HW152480   4.194   6.392   8.999
17013SOL    HW252481   4.166   6.249   9.073
17014SOL     OW52482   5.311   6.365   9.118
17014SOL    HW152483   5.219   6.403   9.113
17014SOL    HW252484   5.371   6.412   9.053
17015SOL     OW52485   4.737   5.691   9.218
17015SOL    HW152486   4.743   5.776   9.166
17015SOL    HW252487   4.769   5.615   9.161
17016SOL     OW52488   4.228   5.636   9.188
17016SOL    HW152489   4.186   5.579   9.118
17016SOL    HW252490   4.162   5.705   9.220
17017SOL     OW52491   4.297   6.456   8.477
17017SOL    HW152492   4.341   6.545   8.468
17017SOL    HW252493   4.234   6.456   8.554
17018SOL     OW52494   5.084   6.448   8.493
17018SOL    HW152495   5.009   6.448   8.427
17018SOL    HW252496   5.121   6.356   8.502
17019SOL     OW52497   4.933   6.111   7.723
17019SOL    HW152498   4.946   6.027   7.777
17019SOL    HW252499   4.904   6.185   7.783
17020SOL     OW52500   4.031   5.799   8.679
17020SOL    HW152501   4.008   5.836   8.769
17020SOL    HW252502   4.001   5.704   8.673
17021SOL     OW52503   3.761   6.896   8.730
17021SOL    HW152504   3.814   6.847   8.798
17021SOL    HW252505   3.783   6.994   8.735
17022SOL     OW52506   4.456   6.220   8.512
17022SOL    HW152507   4.515   6.194   8.436
17022SOL    HW252508   4.428   6.316   8.501
17023SOL     OW52509   5.452   6.521   9.302
17023SOL    HW152510   5.406   6.514   9.213
17023SOL    HW252511   5.390   6.565   9.368
17024SOL     OW52512   4.031   5.649   8.066
17024SOL    HW152513   4.020   5.743   8.099
17024SOL    HW252514   4.026   5.586   8.143
17025SOL     OW52515   5.346   5.953   7.822
17025SOL    HW152516   5.348   5.877   7.886
17025SOL    HW252517   5.298   6.030   7.862
17026SOL     OW52518   4.747   6.352   8.414
17026SOL    HW152519   4.762   6.373   8.510
17026SOL    HW252520   4.717   6.257   8.405
17027SOL     OW52521   4.704   7.159   9.148
17027SOL    HW152522   4.684   7.203   9.060
17027SOL    HW252523   4.743   7.068   9.132
17028SOL     OW52524   5.583   7.104   9.053
17028SOL    HW152525   5.597   7.131   8.958
17028SOL    HW252526   5.666   7.126   9.106
17029SOL     OW52527   4.074   6.484   9.252
17029SOL    HW152528   4.150   6.528   9.300
17029SOL    HW252529   4.109   6.437   9.170
17030SOL     OW52530   5.264   5.860   7.573
17030SOL    HW152531   5.203   5.785   7.596
17030SOL    HW252532   5.286   5.912   7.656
17031SOL     OW52533   5.027   6.424   7.490
17031SOL    HW152534   5.061   6.331   7.505
17031SOL    HW252535   5.045   6.451   7.395
17032SOL     OW52536   4.792   6.919   8.297
17032SOL    HW152537   4.799   6.835   8.242
17032SOL    HW252538   4.854   6.988   8.261
17033SOL     OW52539   4.043   6.396   8.397
17033SOL    HW152540   4.136   6.432   8.402
17033SOL    HW252541   4.037   6.311   8.449
17034SOL     OW52542   4.063   6.095   8.454
17034SOL    HW152543   4.011   6.012   8.437
17034SOL    HW252544   4.140   6.100   8.390
17035SOL     OW52545   4.862   5.966   9.126
17035SOL    HW152546   4.817   6.029   9.190
17035SOL    HW252547   4.955   5.997   9.109
17036SOL     OW52548   4.884   5.793   8.925
17036SOL    HW152549   4.884   5.857   9.002
17036SOL    HW252550   4.912   5.841   8.842
17037SOL     OW52551   3.732   6.912   7.648
17037SOL    HW152552   3.639   6.933   7.617
17037SOL    HW252553   3.742   6.813   7.661
17038SOL     OW52554   3.812   7.387   8.375
17038SOL    HW152555   3.770   7.301   8.348
17038SOL    HW252556   3.906   7.390   8.341
17039SOL     OW52557   4.228   7.154   8.358
17039SOL    HW152558   4.294   7.228   8.367
17039SOL    HW252559   4.272   7.075   8.316
17040SOL     OW52560   4.726   6.382   8.686
17040SOL    HW152561   4.767   6.350   8.772
17040SOL    HW252562   4.630   6.355   8.683
17041SOL     OW52563   3.764   6.130   8.562
17041SOL    HW152564   3.849   6.097   8.521
17041SOL    HW252565   3.777   6.145   8.660
17042SOL     OW52566   3.913   6.106   9.170
17042SOL    HW152567   3.972   6.066   9.100
17042SOL    HW252568   3.855   6.177   9.129
17043SOL     OW52569   5.093   6.536   9.108
17043SOL    HW152570   5.132   6.625   9.128
17043SOL    HW252571   5.103   6.516   9.011
17044SOL     OW52572   4.539   6.158   7.773
17044SOL    HW152573   4.546   6.069   7.727
17044SOL    HW252574   4.445   6.192   7.765
17045SOL     OW52575   5.381   6.190   8.654
17045SOL    HW152576   5.343   6.121   8.716
17045SOL    HW252577   5.463   6.154   8.610
17046SOL     OW52578   3.976   7.150   9.192
17046SOL    HW152579   3.946   7.207   9.268
17046SOL    HW252580   3.969   7.053   9.218
17047SOL     OW52581   4.395   6.050   8.717
17047SOL    HW152582   4.361   5.961   8.687
17047SOL    HW252583   4.421   6.104   8.637
17048SOL     OW52584   4.654   7.264   8.913
17048SOL    HW152585   4.630   7.246   8.818
17048SOL    HW252586   4.684   7.358   8.923
17049SOL     OW52587   4.197   6.086   7.639
17049SOL    HW152588   4.258   6.166   7.643
17049SOL    HW252589   4.102   6.117   7.646
17050SOL     OW52590   3.883   6.723   8.914
17050SOL    HW152591   3.905   6.662   8.990
17050SOL    HW252592   3.893   6.674   8.828
17051SOL     OW52593   5.071   6.645   8.682
17051SOL    HW152594   5.095   6.582   8.608
17051SOL    HW252595   4.981   6.685   8.664
17052SOL     OW52596   5.026   6.441   7.757
17052SOL    HW152597   4.940   6.410   7.799
17052SOL    HW252598   5.022   6.427   7.658
17053SOL     OW52599   5.483   7.333   8.602
17053SOL    HW152600   5.544   7.363   8.529
17053SOL    HW252601   5.445   7.244   8.580
17054SOL     OW52602   4.976   7.317   8.576
17054SOL    HW152603   5.060   7.322   8.522
17054SOL    HW252604   4.953   7.221   8.594
17055SOL     OW52605   3.807   6.844   8.470
17055SOL    HW152606   3.802   6.843   8.570
17055SOL    HW252607   3.724   6.803   8.432
17056SOL     OW52608   4.412   7.248   9.164
17056SOL    HW152609   4.356   7.329   9.173
17056SOL    HW252610   4.464   7.252   9.078
17057SOL     OW52611   5.450   5.721   7.971
17057SOL    HW152612   5.523   5.704   7.904
17057SOL    HW252613   5.419   5.634   8.009
17058SOL     OW52614   5.112   7.159   7.925
17058SOL    HW152615   5.179   7.171   7.851
17058SOL    HW252616   5.072   7.248   7.948
17059SOL     OW52617   3.854   7.380   9.299
17059SOL    HW152618   3.813   7.306   9.352
17059SOL    HW252619   3.918   7.431   9.357
17060SOL     OW52620   5.004   6.513   8.120
17060SOL    HW152621   5.064   6.432   8.122
17060SOL    HW252622   5.044   6.582   8.060
17061SOL     OW52623   4.554   6.859   8.870
17061SOL    HW152624   4.549   6.892   8.965
17061SOL    HW252625   4.468   6.878   8.824
17062SOL     OW52626   4.396   7.202   7.602
17062SOL    HW152627   4.405   7.212   7.503
17062SOL    HW252628   4.356   7.113   7.623
17063SOL     OW52629   5.374   7.306   8.842
17063SOL    HW152630   5.427   7.316   8.758
17063SOL    HW252631   5.347   7.396   8.876
17064SOL     OW52632   5.565   5.761   8.411
17064SOL    HW152633   5.604   5.676   8.375
17064SOL    HW252634   5.467   5.763   8.392
17065SOL     OW52635   3.987   5.912   8.168
17065SOL    HW152636   3.908   5.963   8.134
17065SOL    HW252637   3.978   5.897   8.266
17066SOL     OW52638   4.918   7.198   7.479
17066SOL    HW152639   4.924   7.105   7.516
17066SOL    HW252640   4.859   7.198   7.399
17067SOL     OW52641   4.546   6.588   8.820
17067SOL    HW152642   4.586   6.587   8.728
17067SOL    HW252643   4.556   6.680   8.860
17068SOL     OW52644   4.640   6.496   7.739
17068SOL    HW152645   4.703   6.534   7.671
17068SOL    HW252646   4.680   6.413   7.778
17069SOL     OW52647   5.228   7.193   7.492
17069SOL    HW152648   5.136   7.230   7.499
17069SOL    HW252649   5.266   7.213   7.402
17070SOL     OW52650   4.096   6.874   8.938
17070SOL    HW152651   4.083   6.967   8.904
17070SOL    HW252652   4.012   6.822   8.925
17071SOL     OW52653   5.338   6.878   8.737
17071SOL    HW152654   5.398   6.881   8.817
17071SOL    HW252655   5.263   6.942   8.750
17072SOL     OW52656   4.763   6.684   8.144
17072SOL    HW152657   4.693   6.637   8.198
17072SOL    HW252658   4.822   6.616   8.101
17073SOL     OW52659   4.738   5.822   8.419
17073SOL    HW152660   4.730   5.786   8.326
17073SOL    HW252661   4.736   5.746   8.484
17074SOL     OW52662   4.314   7.073   7.939
17074SOL    HW152663   4.356   7.015   7.869
17074SOL    HW252664   4.270   7.152   7.895
17075SOL     OW52665   5.433   5.971   8.829
17075SOL    HW152666   5.506   6.040   8.833
17075SOL    HW252667   5.461   5.896   8.770
17076SOL     OW52668   3.979   6.934   7.738
17076SOL    HW152669   3.883   6.935   7.711
17076SOL    HW252670   3.991   6.987   7.822
17077SOL     OW52671   3.829   6.599   9.174
17077SOL    HW152672   3.752   6.566   9.228
17077SOL    HW252673   3.914   6.569   9.216
17078SOL     OW52674   4.396   5.789   8.937
17078SOL    HW152675   4.486   5.773   8.897
17078SOL    HW252676   4.404   5.794   9.036
17079SOL     OW52677   3.799   5.931   7.481
17079SOL    HW152678   3.707   5.903   7.452
17079SOL    HW252679   3.830   6.008   7.425
17080SOL     OW52680   5.164   6.442   8.846
17080SOL    HW152681   5.107   6.494   8.783
17080SOL    HW252682   5.260   6.454   8.822
17081SOL     OW52683   3.796   5.752   7.766
17081SOL    HW152684   3.779   5.835   7.712
17081SOL    HW252685   3.886   5.715   7.744
17082SOL     OW52686   4.907   6.921   7.567
17082SOL    HW152687   4.808   6.910   7.569
17082SOL    HW252688   4.941   6.936   7.660
17083SOL     OW52689   4.337   6.428   8.879
17083SOL    HW152690   4.393   6.509   8.862
17083SOL    HW252691   4.396   6.348   8.882
17084SOL     OW52692   5.217   7.353   8.407
17084SOL    HW152693   5.250   7.417   8.338
17084SOL    HW252694   5.283   7.347   8.482
17085SOL     OW52695   4.440   6.151   9.156
17085SOL    HW152696   4.459   6.216   9.230
17085SOL    HW252697   4.500   6.071   9.165
17086SOL     OW52698   5.174   6.806   9.081
17086SOL    HW152699   5.165   6.796   9.180
17086SOL    HW252700   5.270   6.799   9.055
17087SOL     OW52701   4.114   7.327   9.008
17087SOL    HW152702   4.023   7.368   9.006
17087SOL    HW252703   4.107   7.233   9.040
17088SOL     OW52704   5.398   6.469   8.702
17088SOL    HW152705   5.371   6.380   8.665
17088SOL    HW252706   5.399   6.537   8.629
17089SOL     OW52707   4.949   5.911   7.897
17089SOL    HW152708   5.014   5.837   7.886
17089SOL    HW252709   4.969   5.961   7.981
17090SOL     OW52710   4.318   6.331   8.100
17090SOL    HW152711   4.368   6.416   8.081
17090SOL    HW252712   4.230   6.333   8.052
17091SOL     OW52713   5.501   5.928   9.090
17091SOL    HW152714   5.484   5.959   8.996
17091SOL    HW252715   5.417   5.891   9.128
17092SOL     OW52716   5.454   6.520   8.965
17092SOL    HW152717   5.492   6.611   8.980
17092SOL    HW252718   5.446   6.503   8.866
17093SOL     OW52719   4.583   6.960   7.464
17093SOL    HW152720   4.537   6.975   7.552
17093SOL    HW252721   4.627   7.045   7.434
17094SOL     OW52722   4.385   7.376   8.401
17094SOL    HW152723   4.339   7.464   8.388
17094SOL    HW252724   4.484   7.388   8.394
17095SOL     OW52725   4.583   6.542   8.309
17095SOL    HW152726   4.637   6.473   8.357
17095SOL    HW252727   4.551   6.611   8.375
17096SOL     OW52728   4.807   6.570   7.535
17096SOL    HW152729   4.784   6.623   7.453
17096SOL    HW252730   4.888   6.514   7.516
17097SOL     OW52731   5.585   7.155   8.299
17097SOL    HW152732   5.514   7.143   8.229
17097SOL    HW252733   5.586   7.076   8.359
17098SOL     OW52734   3.945   6.900   9.292
17098SOL    HW152735   3.880   6.827   9.271
17098SOL    HW252736   3.949   6.914   9.390
17099SOL     OW52737   3.803   6.826   8.101
17099SOL    HW152738   3.802   6.779   8.189
17099SOL    HW252739   3.885   6.798   8.050
17100SOL     OW52740   4.396   6.977   9.072
17100SOL    HW152741   4.318   6.927   9.110
17100SOL    HW252742   4.393   7.072   9.103
17101SOL     OW52743   5.548   5.778   8.675
17101SOL    HW152744   5.544   5.688   8.719
17101SOL    HW252745   5.551   5.767   8.576
17102SOL     OW52746   4.152   6.010   7.968
17102SOL    HW152747   4.182   5.938   7.906
17102SOL    HW252748   4.113   5.970   8.051
17103SOL     OW52749   5.429   7.073   8.552
17103SOL    HW152750   5.336   7.048   8.525
17103SOL    HW252751   5.455   7.023   8.634
17104SOL     OW52752   4.041   6.133   8.728
17104SOL    HW152753   4.079   6.074   8.800
17104SOL    HW252754   4.081   6.107   8.640
17105SOL     OW52755   4.536   7.172   8.135
17105SOL    HW152756   4.568   7.182   8.041
17105SOL    HW252757   4.457   7.110   8.137
17106SOL     OW52758   5.148   5.800   8.560
17106SOL    HW152759   5.200   5.735   8.615
17106SOL    HW252760   5.099   5.863   8.621
17107SOL     OW52761   4.725   5.620   8.602
17107SOL    HW152762   4.662   5.548   8.571
17107SOL    HW252763   4.818   5.584   8.602
17108SOL     OW52764   4.494   6.916   7.749
17108SOL    HW152765   4.448   6.829   7.766
17108SOL    HW252766   4.585   6.913   7.790
17109SOL     OW52767   4.342   7.153   8.732
17109SOL    HW152768   4.337   7.235   8.789
17109SOL    HW252769   4.431   7.150   8.687
17110SOL     OW52770   5.076   5.638   7.616
17110SOL    HW152771   5.111   5.597   7.532
17110SOL    HW252772   4.986   5.600   7.636
17111SOL     OW52773   5.024   6.039   8.139
17111SOL    HW152774   4.965   6.119   8.143
17111SOL    HW252775   5.039   6.004   8.232
17112SOL     OW52776   5.317   5.807   8.330
17112SOL    HW152777   5.233   5.806   8.384
17112SOL    HW252778   5.319   5.890   8.274
17113SOL     OW52779   3.763   6.663   7.748
17113SOL    HW152780   3.862   6.652   7.739
17113SOL    HW252781   3.723   6.577   7.780
17114SOL     OW52782   4.599   7.232   7.785
17114SOL    HW152783   4.522   7.197   7.731
17114SOL    HW252784   4.567   7.303   7.847
17115SOL     OW52785   3.954   6.214   9.423
17115SOL    HW152786   3.861   6.212   9.460
17115SOL    HW252787   3.955   6.175   9.331
17116SOL     OW52788   3.949   5.861  10.306
17116SOL    HW152789   3.984   5.844  10.398
17116SOL    HW252790   3.861   5.816  10.294
17117SOL     OW52791   3.743   5.954   9.957
17117SOL    HW152792   3.661   5.997   9.996
17117SOL    HW252793   3.715   5.881   9.894
17118SOL     OW52794   4.293   6.861  10.475
17118SOL    HW152795   4.200   6.854  10.438
17118SOL    HW252796   4.304   6.950  10.519
17119SOL     OW52797   5.279   7.097  10.013
17119SOL    HW152798   5.222   7.081  10.094
17119SOL    HW252799   5.220   7.107   9.933
17120SOL     OW52800   4.859   6.289  10.027
17120SOL    HW152801   4.916   6.367  10.002
17120SOL    HW252802   4.799   6.315  10.103
17121SOL     OW52803   5.479   6.193   9.541
17121SOL    HW152804   5.467   6.180   9.442
17121SOL    HW252805   5.449   6.112   9.590
17122SOL     OW52806   4.492   6.730  10.333
17122SOL    HW152807   4.414   6.747  10.393
17122SOL    HW252808   4.526   6.817  10.297
17123SOL     OW52809   4.574   6.384  11.133
17123SOL    HW152810   4.570   6.460  11.198
17123SOL    HW252811   4.596   6.420  11.042
17124SOL     OW52812   4.409   6.598   9.975
17124SOL    HW152813   4.478   6.582  10.045
17124SOL    HW252814   4.336   6.655  10.013
17125SOL     OW52815   4.410   6.747  11.113
17125SOL    HW152816   4.470   6.826  11.127
17125SOL    HW252817   4.324   6.778  11.072
17126SOL     OW52818   4.059   7.021  10.371
17126SOL    HW152819   3.981   6.990  10.318
17126SOL    HW252820   4.117   7.079  10.314
17127SOL     OW52821   5.184   7.091  10.649
17127SOL    HW152822   5.208   7.185  10.675
17127SOL    HW252823   5.168   7.037  10.731
17128SOL     OW52824   4.162   5.978  10.809
17128SOL    HW152825   4.244   5.922  10.818
17128SOL    HW252826   4.081   5.920  10.813
17129SOL     OW52827   5.327   6.033  10.047
17129SOL    HW152828   5.253   6.079   9.997
17129SOL    HW252829   5.378   6.101  10.100
17130SOL     OW52830   3.955   7.299   9.793
17130SOL    HW152831   3.989   7.376   9.847
17130SOL    HW252832   3.999   7.299   9.703
17131SOL     OW52833   4.851   6.927  11.000
17131SOL    HW152834   4.898   6.927  11.088
17131SOL    HW252835   4.803   6.840  10.989
17132SOL     OW52836   3.954   7.020   9.848
17132SOL    HW152837   3.928   7.116   9.848
17132SOL    HW252838   3.883   6.966   9.893
17133SOL     OW52839   3.964   6.677  10.196
17133SOL    HW152840   3.978   6.593  10.248
17133SOL    HW252841   3.909   6.741  10.251
17134SOL     OW52842   4.344   7.372  10.749
17134SOL    HW152843   4.252   7.355  10.784
17134SOL    HW252844   4.372   7.464  10.775
17135SOL     OW52845   4.330   6.550   9.433
17135SOL    HW152846   4.337   6.634   9.379
17135SOL    HW252847   4.376   6.563   9.521
17136SOL     OW52848   5.318   5.700  10.790
17136SOL    HW152849   5.300   5.767  10.718
17136SOL    HW252850   5.315   5.746  10.879
17137SOL     OW52851   3.846   6.229   9.873
17137SOL    HW152852   3.801   6.141   9.890
17137SOL    HW252853   3.845   6.283   9.957
17138SOL     OW52854   5.566   7.353   9.669
17138SOL    HW152855   5.620   7.324   9.749
17138SOL    HW252856   5.596   7.443   9.640
17139SOL     OW52857   3.751   7.182   9.427
17139SOL    HW152858   3.732   7.086   9.448
17139SOL    HW252859   3.718   7.240   9.502
17140SOL     OW52860   5.413   6.508   9.922
17140SOL    HW152861   5.508   6.479   9.930
17140SOL    HW252862   5.405   6.573   9.847
17141SOL     OW52863   5.365   6.694   9.742
17141SOL    HW152864   5.451   6.696   9.690
17141SOL    HW252865   5.379   6.741   9.830
17142SOL     OW52866   3.837   6.323  10.907
17142SOL    HW152867   3.925   6.310  10.952
17142SOL    HW252868   3.824   6.420  10.885
17143SOL     OW52869   4.337   6.951  10.036
17143SOL    HW152870   4.288   6.864  10.045
17143SOL    HW252871   4.314   6.994   9.949
17144SOL     OW52872   5.017   6.814  10.733
17144SOL    HW152873   5.054   6.741  10.675
17144SOL    HW252874   5.069   6.819  10.818
17145SOL     OW52875   4.533   5.590   9.812
17145SOL    HW152876   4.573   5.681   9.803
17145SOL    HW252877   4.433   5.598   9.818
17146SOL     OW52878   3.921   6.562  10.574
17146SOL    HW152879   4.010   6.517  10.560
17146SOL    HW252880   3.848   6.497  10.555
17147SOL     OW52881   5.249   6.585   9.500
17147SOL    HW152882   5.186   6.509   9.513
17147SOL    HW252883   5.297   6.603   9.586
17148SOL     OW52884   4.911   7.378  10.926
17148SOL    HW152885   4.935   7.438  10.850
17148SOL    HW252886   4.918   7.283  10.896
17149SOL     OW52887   4.041   5.837  11.111
17149SOL    HW152888   4.112   5.908  11.117
17149SOL    HW252889   3.953   5.876  11.139
17150SOL     OW52890   5.190   7.003  10.263
17150SOL    HW152891   5.131   7.009  10.343
17150SOL    HW252892   5.175   6.915  10.217
17151SOL     OW52893   5.391   7.300   9.882
17151SOL    HW152894   5.350   7.277   9.794
17151SOL    HW252895   5.373   7.226   9.947
17152SOL     OW52896   4.322   6.315   9.580
17152SOL    HW152897   4.346   6.384   9.512
17152SOL    HW252898   4.244   6.348   9.634
17153SOL     OW52899   5.005   5.931  10.254
17153SOL    HW152900   4.919   5.881  10.241
17153SOL    HW252901   5.067   5.877  10.310
17154SOL     OW52902   5.300   7.248   9.617
17154SOL    HW152903   5.389   7.294   9.620
17154SOL    HW252904   5.279   7.224   9.522
17155SOL     OW52905   4.531   6.191  10.775
17155SOL    HW152906   4.484   6.188  10.864
17155SOL    HW252907   4.480   6.136  10.709
17156SOL     OW52908   5.118   6.055  10.984
17156SOL    HW152909   5.098   6.098  11.072
17156SOL    HW252910   5.196   5.993  10.993
17157SOL     OW52911   4.697   6.476  10.882
17157SOL    HW152912   4.743   6.392  10.853
17157SOL    HW252913   4.641   6.510  10.807
17158SOL     OW52914   4.715   5.996  10.552
17158SOL    HW152915   4.638   6.030  10.606
17158SOL    HW252916   4.681   5.945  10.473
17159SOL     OW52917   4.765   6.287   9.739
17159SOL    HW152918   4.791   6.283   9.835
17159SOL    HW252919   4.680   6.236   9.725
17160SOL     OW52920   3.800   6.397  10.099
17160SOL    HW152921   3.899   6.385  10.108
17160SOL    HW252922   3.776   6.492  10.120
17161SOL     OW52923   3.854   7.407  10.881
17161SOL    HW152924   3.844   7.392  10.980
17161SOL    HW252925   3.768   7.443  10.845
17162SOL     OW52926   4.589   5.934   9.505
17162SOL    HW152927   4.648   5.997   9.456
17162SOL    HW252928   4.608   5.840   9.476
17163SOL     OW52929   5.443   6.171  11.141
17163SOL    HW152930   5.417   6.260  11.105
17163SOL    HW252931   5.441   6.103  11.068
17164SOL     OW52932   5.086   6.730   9.855
17164SOL    HW152933   5.169   6.701   9.807
17164SOL    HW252934   5.037   6.797   9.799
17165SOL     OW52935   4.274   5.782  10.195
17165SOL    HW152936   4.269   5.777  10.295
17165SOL    HW252937   4.276   5.878  10.166
17166SOL     OW52938   4.732   7.042   9.787
17166SOL    HW152939   4.686   7.114   9.735
17166SOL    HW252940   4.728   7.062   9.885
17167SOL     OW52941   4.075   7.387  10.163
17167SOL    HW152942   4.125   7.301  10.169
17167SOL    HW252943   4.140   7.464  10.160
17168SOL     OW52944   5.519   6.652  10.183
17168SOL    HW152945   5.457   6.637  10.107
17168SOL    HW252946   5.467   6.663  10.268
17169SOL     OW52947   4.951   7.136  10.816
17169SOL    HW152948   4.957   7.059  10.880
17169SOL    HW252949   4.899   7.110  10.736
17170SOL     OW52950   4.045   6.529   9.552
17170SOL    HW152951   4.127   6.568   9.510
17170SOL    HW252952   4.018   6.447   9.503
17171SOL     OW52953   5.182   6.321  10.038
17171SOL    HW152954   5.177   6.256  10.113
17171SOL    HW252955   5.262   6.380  10.051
17172SOL     OW52956   4.185   6.852  11.037
17172SOL    HW152957   4.135   6.853  10.951
17172SOL    HW252958   4.122   6.834  11.113
17173SOL     OW52959   4.835   7.362   9.547
17173SOL    HW152960   4.775   7.300   9.597
17173SOL    HW252961   4.866   7.318   9.462
17174SOL     OW52962   3.926   5.871  10.808
17174SOL    HW152963   3.846   5.931  10.795
17174SOL    HW252964   3.916   5.822  10.894
17175SOL     OW52965   5.356   6.963   9.391
17175SOL    HW152966   5.324   7.057   9.381
17175SOL    HW252967   5.280   6.900   9.379
17176SOL     OW52968   4.188   7.329   9.633
17176SOL    HW152969   4.221   7.368   9.719
17176SOL    HW252970   4.264   7.322   9.568
17177SOL     OW52971   5.124   5.693   9.736
17177SOL    HW152972   5.100   5.656   9.646
17177SOL    HW252973   5.223   5.709   9.740
17178SOL     OW52974   3.973   7.371  10.551
17178SOL    HW152975   4.030   7.306  10.601
17178SOL    HW252976   3.957   7.338  10.458
17179SOL     OW52977   4.664   7.284  10.214
17179SOL    HW152978   4.744   7.227  10.235
17179SOL    HW252979   4.615   7.244  10.137
17180SOL     OW52980   4.106   6.286   9.790
17180SOL    HW152981   4.151   6.196   9.787
17180SOL    HW252982   4.012   6.275   9.823
17181SOL     OW52983   5.271   5.808  11.039
17181SOL    HW152984   5.266   5.845  11.131
17181SOL    HW252985   5.199   5.739  11.027
17182SOL     OW52986   4.338   5.708   9.427
17182SOL    HW152987   4.436   5.686   9.434
17182SOL    HW252988   4.307   5.691   9.334
17183SOL     OW52989   4.505   5.850  11.059
17183SOL    HW152990   4.572   5.789  11.102
17183SOL    HW252991   4.432   5.869  11.124
17184SOL     OW52992   4.612   7.100  10.505
17184SOL    HW152993   4.589   7.075  10.411
17184SOL    HW252994   4.673   7.031  10.544
17185SOL     OW52995   5.075   6.176  10.743
17185SOL    HW152996   5.103   6.133  10.828
17185SOL    HW252997   5.100   6.272  10.744
17186SOL     OW52998   4.527   6.988  10.234
17186SOL    HW152999   4.617   7.002  10.192
17186SOL    HW253000   4.456   6.990  10.163
17187SOL     OW53001   4.646   6.089  10.209
17187SOL    HW153002   4.621   6.080  10.113
17187SOL    HW253003   4.694   6.007  10.240
17188SOL     OW53004   4.263   5.650   9.822
17188SOL    HW153005   4.182   5.651   9.880
17188SOL    HW253006   4.266   5.733   9.767
17189SOL     OW53007   5.158   6.774   9.351
17189SOL    HW153008   5.190   6.698   9.408
17189SOL    HW253009   5.066   6.801   9.381
17190SOL     OW53010   4.021   5.621   9.481
17190SOL    HW153011   4.070   5.705   9.460
17190SOL    HW253012   4.083   5.556   9.526
17191SOL     OW53013   4.659   5.822   9.790
17191SOL    HW153014   4.611   5.863   9.712
17191SOL    HW253015   4.758   5.820   9.771
17192SOL     OW53016   4.800   6.269  10.774
17192SOL    HW153017   4.720   6.208  10.777
17192SOL    HW253018   4.881   6.216  10.750
17193SOL     OW53019   4.951   7.156  10.103
17193SOL    HW153020   4.972   7.230  10.038
17193SOL    HW253021   5.019   7.156  10.176
17194SOL     OW53022   4.183   6.738  10.051
17194SOL    HW153023   4.112   6.711  10.116
17194SOL    HW253024   4.157   6.710   9.958
17195SOL     OW53025   4.995   7.383   9.901
17195SOL    HW153026   5.039   7.447   9.837
17195SOL    HW253027   4.945   7.435   9.971
17196SOL     OW53028   4.756   6.135   9.326
17196SOL    HW153029   4.715   6.217   9.287
17196SOL    HW253030   4.820   6.161   9.399
17197SOL     OW53031   3.802   6.142  10.696
17197SOL    HW153032   3.894   6.141  10.655
17197SOL    HW253033   3.796   6.216  10.763
17198SOL     OW53034   4.285   5.808  10.457
17198SOL    HW153035   4.323   5.724  10.494
17198SOL    HW253036   4.197   5.827  10.501
17199SOL     OW53037   4.590   6.040   9.952
17199SOL    HW153038   4.558   6.112   9.890
17199SOL    HW253039   4.614   5.959   9.899
17200SOL     OW53040   4.741   5.625  10.063
17200SOL    HW153041   4.669   5.630   9.994
17200SOL    HW253042   4.717   5.556  10.132
17201SOL     OW53043   5.153   6.759  10.177
17201SOL    HW153044   5.098   6.675  10.170
17201SOL    HW253045   5.179   6.788  10.085
17202SOL     OW53046   5.190   6.176  10.302
17202SOL    HW153047   5.160   6.081  10.309
17202SOL    HW253048   5.263   6.192  10.368
17203SOL     OW53049   5.581   6.419   9.687
17203SOL    HW153050   5.623   6.355   9.751
17203SOL    HW253051   5.543   6.368   9.609
17204SOL     OW53052   4.212   6.971   9.484
17204SOL    HW153053   4.125   6.956   9.531
17204SOL    HW253054   4.195   6.997   9.389
17205SOL     OW53055   5.388   6.866   9.967
17205SOL    HW153056   5.487   6.874   9.981
17205SOL    HW253057   5.343   6.950   9.998
17206SOL     OW53058   5.114   6.161   9.388
17206SOL    HW153059   5.060   6.140   9.469
17206SOL    HW253060   5.205   6.120   9.397
17207SOL     OW53061   4.251   5.842   9.638
17207SOL    HW153062   4.278   5.783   9.563
17207SOL    HW253063   4.251   5.937   9.607
17208SOL     OW53064   5.478   6.809  10.898
17208SOL    HW153065   5.569   6.770  10.885
17208SOL    HW253066   5.486   6.905  10.922
17209SOL     OW53067   4.788   6.933  10.650
17209SOL    HW153068   4.708   6.910  10.705
17209SOL    HW253069   4.871   6.907  10.699
17210SOL     OW53070   5.316   7.215  10.935
17210SOL    HW153071   5.343   7.249  10.845
17210SOL    HW253072   5.395   7.177  10.981
17211SOL     OW53073   4.835   6.781  10.410
17211SOL    HW153074   4.795   6.825  10.491
17211SOL    HW253075   4.794   6.818  10.327
17212SOL     OW53076   5.362   6.685  10.389
17212SOL    HW153077   5.367   6.766  10.448
17212SOL    HW253078   5.276   6.687  10.338
17213SOL     OW53079   4.639   5.675  10.712
17213SOL    HW153080   4.664   5.655  10.617
17213SOL    HW253081   4.711   5.731  10.754
17214SOL     OW53082   4.704   6.702  11.029
17214SOL    HW153083   4.605   6.708  11.039
17214SOL    HW253084   4.727   6.622  10.973
17215SOL     OW53085   4.429   6.636   9.678
17215SOL    HW153086   4.415   6.643   9.777
17215SOL    HW253087   4.513   6.585   9.660
17216SOL     OW53088   4.134   6.399  10.561
17216SOL    HW153089   4.220   6.411  10.611
17216SOL    HW253090   4.092   6.312  10.588
17217SOL     OW53091   4.998   5.972  10.572
17217SOL    HW153092   5.019   6.046  10.636
17217SOL    HW253093   4.909   5.989  10.529
17218SOL     OW53094   3.788   7.150  10.641
17218SOL    HW153095   3.742   7.232  10.607
17218SOL    HW253096   3.886   7.169  10.650
17219SOL     OW53097   4.091   6.686   9.811
17219SOL    HW153098   4.084   6.769   9.755
17219SOL    HW253099   4.095   6.606   9.751
17220SOL     OW53100   4.290   6.123  10.175
17220SOL    HW153101   4.302   6.189  10.101
17220SOL    HW253102   4.336   6.157  10.258
17221SOL     OW53103   4.976   6.934   9.698
17221SOL    HW153104   5.026   7.011   9.738
17221SOL    HW253105   4.881   6.936   9.730
17222SOL     OW53106   4.996   7.031  10.452
17222SOL    HW153107   5.043   7.044  10.539
17222SOL    HW253108   4.930   6.957  10.461
17223SOL     OW53109   5.306   6.225   9.782
17223SOL    HW153110   5.275   6.286   9.855
17223SOL    HW253111   5.356   6.277   9.713
17224SOL     OW53112   4.078   7.096  10.639
17224SOL    HW153113   4.057   7.052  10.552
17224SOL    HW253114   4.175   7.122  10.642
17225SOL     OW53115   4.126   6.337  10.908
17225SOL    HW153116   4.194   6.392  10.861
17225SOL    HW253117   4.166   6.249  10.935
17226SOL     OW53118   5.311   6.365  10.980
17226SOL    HW153119   5.219   6.403  10.975
17226SOL    HW253120   5.371   6.412  10.915
17227SOL     OW53121   4.737   5.691  11.080
17227SOL    HW153122   4.743   5.776  11.028
17227SOL    HW253123   4.769   5.615  11.023
17228SOL     OW53124   4.228   5.636  11.050
17228SOL    HW153125   4.186   5.579  10.980
17228SOL    HW253126   4.162   5.705  11.082
17229SOL     OW53127   4.297   6.456  10.339
17229SOL    HW153128   4.341   6.545  10.330
17229SOL    HW253129   4.234   6.456  10.416
17230SOL     OW53130   5.084   6.448  10.355
17230SOL    HW153131   5.009   6.448  10.289
17230SOL    HW253132   5.121   6.356  10.364
17231SOL     OW53133   4.933   6.111   9.585
17231SOL    HW153134   4.946   6.027   9.639
17231SOL    HW253135   4.904   6.185   9.645
17232SOL     OW53136   4.031   5.799  10.541
17232SOL    HW153137   4.008   5.836  10.631
17232SOL    HW253138   4.001   5.704  10.535
17233SOL     OW53139   3.761   6.896  10.592
17233SOL    HW153140   3.814   6.847  10.660
17233SOL    HW253141   3.783   6.994  10.597
17234SOL     OW53142   4.456   6.220  10.374
17234SOL    HW153143   4.515   6.194  10.298
17234SOL    HW253144   4.428   6.316  10.363
17235SOL     OW53145   5.452   6.521  11.164
17235SOL    HW153146   5.406   6.514  11.075
17235SOL    HW253147   5.390   6.565  11.230
17236SOL     OW53148   4.031   5.649   9.928
17236SOL    HW153149   4.020   5.743   9.961
17236SOL    HW253150   4.026   5.586  10.005
17237SOL     OW53151   5.346   5.953   9.684
17237SOL    HW153152   5.348   5.877   9.748
17237SOL    HW253153   5.298   6.030   9.724
17238SOL     OW53154   4.747   6.352  10.276
17238SOL    HW153155   4.762   6.373  10.372
17238SOL    HW253156   4.717   6.257  10.267
17239SOL     OW53157   4.704   7.159  11.010
17239SOL    HW153158   4.684   7.203  10.922
17239SOL    HW253159   4.743   7.068  10.994
17240SOL     OW53160   5.583   7.104  10.915
17240SOL    HW153161   5.597   7.131  10.820
17240SOL    HW253162   5.666   7.126  10.968
17241SOL     OW53163   4.074   6.484  11.114
17241SOL    HW153164   4.150   6.528  11.162
17241SOL    HW253165   4.109   6.437  11.032
17242SOL     OW53166   5.264   5.860   9.435
17242SOL    HW153167   5.203   5.785   9.458
17242SOL    HW253168   5.286   5.912   9.518
17243SOL     OW53169   5.027   6.424   9.352
17243SOL    HW153170   5.061   6.331   9.367
17243SOL    HW253171   5.045   6.451   9.257
17244SOL     OW53172   4.792   6.919  10.159
17244SOL    HW153173   4.799   6.835  10.104
17244SOL    HW253174   4.854   6.988  10.123
17245SOL     OW53175   4.043   6.396  10.259
17245SOL    HW153176   4.136   6.432  10.264
17245SOL    HW253177   4.037   6.311  10.311
17246SOL     OW53178   4.063   6.095  10.316
17246SOL    HW153179   4.011   6.012  10.299
17246SOL    HW253180   4.140   6.100  10.252
17247SOL     OW53181   4.862   5.966  10.988
17247SOL    HW153182   4.817   6.029  11.052
17247SOL    HW253183   4.955   5.997  10.971
17248SOL     OW53184   4.884   5.793  10.787
17248SOL    HW153185   4.884   5.857  10.864
17248SOL    HW253186   4.912   5.841  10.704
17249SOL     OW53187   3.732   6.912   9.510
17249SOL    HW153188   3.639   6.933   9.479
17249SOL    HW253189   3.742   6.813   9.523
17250SOL     OW53190   3.812   7.387  10.237
17250SOL    HW153191   3.770   7.301  10.210
17250SOL    HW253192   3.906   7.390  10.203
17251SOL     OW53193   4.228   7.154  10.220
17251SOL    HW153194   4.294   7.228  10.229
17251SOL    HW253195   4.272   7.075  10.178
17252SOL     OW53196   4.726   6.382  10.548
17252SOL    HW153197   4.767   6.350  10.634
17252SOL    HW253198   4.630   6.355  10.545
17253SOL     OW53199   3.764   6.130  10.424
17253SOL    HW153200   3.849   6.097  10.383
17253SOL    HW253201   3.777   6.145  10.522
17254SOL     OW53202   3.913   6.106  11.032
17254SOL    HW153203   3.972   6.066  10.962
17254SOL    HW253204   3.855   6.177  10.991
17255SOL     OW53205   5.093   6.536  10.970
17255SOL    HW153206   5.132   6.625  10.990
17255SOL    HW253207   5.103   6.516  10.873
17256SOL     OW53208   4.539   6.158   9.635
17256SOL    HW153209   4.546   6.069   9.589
17256SOL    HW253210   4.445   6.192   9.627
17257SOL     OW53211   5.381   6.190  10.516
17257SOL    HW153212   5.343   6.121  10.578
17257SOL    HW253213   5.463   6.154  10.472
17258SOL     OW53214   3.976   7.150  11.054
17258SOL    HW153215   3.946   7.207  11.130
17258SOL    HW253216   3.969   7.053  11.080
17259SOL     OW53217   4.395   6.050  10.579
17259SOL    HW153218   4.361   5.961  10.549
17259SOL    HW253219   4.421   6.104  10.499
17260SOL     OW53220   4.654   7.264  10.775
17260SOL    HW153221   4.630   7.246  10.680
17260SOL    HW253222   4.684   7.358  10.785
17261SOL     OW53223   4.197   6.086   9.501
17261SOL    HW153224   4.258   6.166   9.505
17261SOL    HW253225   4.102   6.117   9.508
17262SOL     OW53226   3.883   6.723  10.776
17262SOL    HW153227   3.905   6.662  10.852
17262SOL    HW253228   3.893   6.674  10.690
17263SOL     OW53229   5.071   6.645  10.544
17263SOL    HW153230   5.095   6.582  10.470
17263SOL    HW253231   4.981   6.685  10.526
17264SOL     OW53232   5.026   6.441   9.619
17264SOL    HW153233   4.940   6.410   9.661
17264SOL    HW253234   5.022   6.427   9.520
17265SOL     OW53235   5.483   7.333  10.464
17265SOL    HW153236   5.544   7.363  10.391
17265SOL    HW253237   5.445   7.244  10.442
17266SOL     OW53238   4.976   7.317  10.438
17266SOL    HW153239   5.060   7.322  10.384
17266SOL    HW253240   4.953   7.221  10.456
17267SOL     OW53241   3.807   6.844  10.332
17267SOL    HW153242   3.802   6.843  10.432
17267SOL    HW253243   3.724   6.803  10.294
17268SOL     OW53244   4.412   7.248  11.026
17268SOL    HW153245   4.356   7.329  11.035
17268SOL    HW253246   4.464   7.252  10.940
17269SOL     OW53247   5.450   5.721   9.833
17269SOL    HW153248   5.523   5.704   9.766
17269SOL    HW253249   5.419   5.634   9.871
17270SOL     OW53250   5.112   7.159   9.787
17270SOL    HW153251   5.179   7.171   9.713
17270SOL    HW253252   5.072   7.248   9.810
17271SOL     OW53253   3.854   7.380  11.161
17271SOL    HW153254   3.813   7.306  11.214
17271SOL    HW253255   3.918   7.431  11.219
17272SOL     OW53256   5.004   6.513   9.982
17272SOL    HW153257   5.064   6.432   9.984
17272SOL    HW253258   5.044   6.582   9.922
17273SOL     OW53259   4.554   6.859  10.732
17273SOL    HW153260   4.549   6.892  10.827
17273SOL    HW253261   4.468   6.878  10.686
17274SOL     OW53262   4.396   7.202   9.464
17274SOL    HW153263   4.405   7.212   9.365
17274SOL    HW253264   4.356   7.113   9.485
17275SOL     OW53265   5.374   7.306  10.704
17275SOL    HW153266   5.427   7.316  10.620
17275SOL    HW253267   5.347   7.396  10.738
17276SOL     OW53268   5.565   5.761  10.273
17276SOL    HW153269   5.604   5.676  10.237
17276SOL    HW253270   5.467   5.763  10.254
17277SOL     OW53271   3.987   5.912  10.030
17277SOL    HW153272   3.908   5.963   9.996
17277SOL    HW253273   3.978   5.897  10.128
17278SOL     OW53274   4.918   7.198   9.341
17278SOL    HW153275   4.924   7.105   9.378
17278SOL    HW253276   4.859   7.198   9.261
17279SOL     OW53277   4.546   6.588  10.682
17279SOL    HW153278   4.586   6.587  10.590
17279SOL    HW253279   4.556   6.680  10.722
17280SOL     OW53280   4.640   6.496   9.601
17280SOL    HW153281   4.703   6.534   9.533
17280SOL    HW253282   4.680   6.413   9.640
17281SOL     OW53283   5.228   7.193   9.354
17281SOL    HW153284   5.136   7.230   9.361
17281SOL    HW253285   5.266   7.213   9.264
17282SOL     OW53286   4.096   6.874  10.800
17282SOL    HW153287   4.083   6.967  10.766
17282SOL    HW253288   4.012   6.822  10.787
17283SOL     OW53289   5.338   6.878  10.599
17283SOL    HW153290   5.398   6.881  10.679
17283SOL    HW253291   5.263   6.942  10.612
17284SOL     OW53292   4.763   6.684  10.006
17284SOL    HW153293   4.693   6.637  10.060
17284SOL    HW253294   4.822   6.616   9.963
17285SOL     OW53295   4.738   5.822  10.281
17285SOL    HW153296   4.730   5.786  10.188
17285SOL    HW253297   4.736   5.746  10.346
17286SOL     OW53298   4.314   7.073   9.801
17286SOL    HW153299   4.356   7.015   9.731
17286SOL    HW253300   4.270   7.152   9.757
17287SOL     OW53301   5.433   5.971  10.691
17287SOL    HW153302   5.506   6.040  10.695
17287SOL    HW253303   5.461   5.896  10.632
17288SOL     OW53304   3.979   6.934   9.600
17288SOL    HW153305   3.883   6.935   9.573
17288SOL    HW253306   3.991   6.987   9.684
17289SOL     OW53307   3.829   6.599  11.036
17289SOL    HW153308   3.752   6.566  11.090
17289SOL    HW253309   3.914   6.569  11.078
17290SOL     OW53310   4.396   5.789  10.799
17290SOL    HW153311   4.486   5.773  10.759
17290SOL    HW253312   4.404   5.794  10.898
17291SOL     OW53313   3.799   5.931   9.343
17291SOL    HW153314   3.707   5.903   9.314
17291SOL    HW253315   3.830   6.008   9.287
17292SOL     OW53316   5.164   6.442  10.708
17292SOL    HW153317   5.107   6.494  10.645
17292SOL    HW253318   5.260   6.454  10.684
17293SOL     OW53319   3.796   5.752   9.628
17293SOL    HW153320   3.779   5.835   9.574
17293SOL    HW253321   3.886   5.715   9.606
17294SOL     OW53322   4.907   6.921   9.429
17294SOL    HW153323   4.808   6.910   9.431
17294SOL    HW253324   4.941   6.936   9.522
17295SOL     OW53325   4.337   6.428  10.741
17295SOL    HW153326   4.393   6.509  10.724
17295SOL    HW253327   4.396   6.348  10.744
17296SOL     OW53328   5.217   7.353  10.269
17296SOL    HW153329   5.250   7.417  10.200
17296SOL    HW253330   5.283   7.347  10.344
17297SOL     OW53331   4.440   6.151  11.018
17297SOL    HW153332   4.459   6.216  11.092
17297SOL    HW253333   4.500   6.071  11.027
17298SOL     OW53334   5.174   6.806  10.943
17298SOL    HW153335   5.165   6.796  11.042
17298SOL    HW253336   5.270   6.799  10.917
17299SOL     OW53337   4.114   7.327  10.870
17299SOL    HW153338   4.023   7.368  10.868
17299SOL    HW253339   4.107   7.233  10.902
17300SOL     OW53340   5.398   6.469  10.564
17300SOL    HW153341   5.371   6.380  10.527
17300SOL    HW253342   5.399   6.537  10.491
17301SOL     OW53343   4.949   5.911   9.759
17301SOL    HW153344   5.014   5.837   9.748
17301SOL    HW253345   4.969   5.961   9.843
17302SOL     OW53346   4.318   6.331   9.962
17302SOL    HW153347   4.368   6.416   9.943
17302SOL    HW253348   4.230   6.333   9.914
17303SOL     OW53349   5.501   5.928  10.952
17303SOL    HW153350   5.484   5.959  10.858
17303SOL    HW253351   5.417   5.891  10.990
17304SOL     OW53352   5.454   6.520  10.827
17304SOL    HW153353   5.492   6.611  10.842
17304SOL    HW253354   5.446   6.503  10.728
17305SOL     OW53355   4.583   6.960   9.326
17305SOL    HW153356   4.537   6.975   9.414
17305SOL    HW253357   4.627   7.045   9.296
17306SOL     OW53358   4.385   7.376  10.263
17306SOL    HW153359   4.339   7.464  10.250
17306SOL    HW253360   4.484   7.388  10.256
17307SOL     OW53361   4.583   6.542  10.171
17307SOL    HW153362   4.637   6.473  10.219
17307SOL    HW253363   4.551   6.611  10.237
17308SOL     OW53364   4.807   6.570   9.397
17308SOL    HW153365   4.784   6.623   9.315
17308SOL    HW253366   4.888   6.514   9.378
17309SOL     OW53367   5.585   7.155  10.161
17309SOL    HW153368   5.514   7.143  10.091
17309SOL    HW253369   5.586   7.076  10.221
17310SOL     OW53370   3.945   6.900  11.154
17310SOL    HW153371   3.880   6.827  11.133
17310SOL    HW253372   3.949   6.914  11.252
17311SOL     OW53373   3.803   6.826   9.963
17311SOL    HW153374   3.802   6.779  10.051
17311SOL    HW253375   3.885   6.798   9.912
17312SOL     OW53376   4.396   6.977  10.934
17312SOL    HW153377   4.318   6.927  10.972
17312SOL    HW253378   4.393   7.072  10.965
17313SOL     OW53379   5.548   5.778  10.537
17313SOL    HW153380   5.544   5.688  10.581
17313SOL    HW253381   5.551   5.767  10.438
17314SOL     OW53382   4.152   6.010   9.830
17314SOL    HW153383   4.182   5.938   9.768
17314SOL    HW253384   4.113   5.970   9.913
17315SOL     OW53385   5.429   7.073  10.414
17315SOL    HW153386   5.336   7.048  10.387
17315SOL    HW253387   5.455   7.023  10.496
17316SOL     OW53388   4.041   6.133  10.590
17316SOL    HW153389   4.079   6.074  10.662
17316SOL    HW253390   4.081   6.107  10.502
17317SOL     OW53391   4.536   7.172   9.997
17317SOL    HW153392   4.568   7.182   9.903
17317SOL    HW253393   4.457   7.110   9.999
17318SOL     OW53394   5.148   5.800  10.422
17318SOL    HW153395   5.200   5.735  10.477
17318SOL    HW253396   5.099   5.863  10.483
17319SOL     OW53397   4.725   5.620  10.464
17319SOL    HW153398   4.662   5.548  10.433
17319SOL    HW253399   4.818   5.584  10.464
17320SOL     OW53400   4.494   6.916   9.611
17320SOL    HW153401   4.448   6.829   9.628
17320SOL    HW253402   4.585   6.913   9.652
17321SOL     OW53403   4.342   7.153  10.594
17321SOL    HW153404   4.337   7.235  10.651
17321SOL    HW253405   4.431   7.150  10.549
17322SOL     OW53406   5.076   5.638   9.478
17322SOL    HW153407   5.111   5.597   9.394
17322SOL    HW253408   4.986   5.600   9.498
17323SOL     OW53409   5.024   6.039  10.001
17323SOL    HW153410   4.965   6.119  10.005
17323SOL    HW253411   5.039   6.004  10.094
17324SOL     OW53412   5.317   5.807  10.192
17324SOL    HW153413   5.233   5.806  10.246
17324SOL    HW253414   5.319   5.890  10.136
17325SOL     OW53415   3.763   6.663   9.610
17325SOL    HW153416   3.862   6.652   9.601
17325SOL    HW253417   3.723   6.577   9.642
17326SOL     OW53418   4.599   7.232   9.647
17326SOL    HW153419   4.522   7.197   9.593
17326SOL    HW253420   4.567   7.303   9.709
17327SOL     OW53421   3.954   6.214  11.285
17327SOL    HW153422   3.861   6.212  11.322
17327SOL    HW253423   3.955   6.175  11.193
17328SOL     OW53424   3.949   5.861  12.168
17328SOL    HW153425   3.984   5.844  12.260
17328SOL    HW253426   3.861   5.816  12.156
17329SOL     OW53427   3.743   5.954  11.819
17329SOL    HW153428   3.661   5.997  11.858
17329SOL    HW253429   3.715   5.881  11.756
17330SOL     OW53430   4.293   6.861  12.337
17330SOL    HW153431   4.200   6.854  12.300
17330SOL    HW253432   4.304   6.950  12.381
17331SOL     OW53433   5.279   7.097  11.875
17331SOL    HW153434   5.222   7.081  11.956
17331SOL    HW253435   5.220   7.107  11.795
17332SOL     OW53436   4.859   6.289  11.889
17332SOL    HW153437   4.916   6.367  11.864
17332SOL    HW253438   4.799   6.315  11.965
17333SOL     OW53439   5.479   6.193  11.403
17333SOL    HW153440   5.467   6.180  11.304
17333SOL    HW253441   5.449   6.112  11.452
17334SOL     OW53442   4.492   6.730  12.195
17334SOL    HW153443   4.414   6.747  12.255
17334SOL    HW253444   4.526   6.817  12.159
17335SOL     OW53445   4.409   6.598  11.837
17335SOL    HW153446   4.478   6.582  11.907
17335SOL    HW253447   4.336   6.655  11.875
17336SOL     OW53448   4.059   7.021  12.233
17336SOL    HW153449   3.981   6.990  12.180
17336SOL    HW253450   4.117   7.079  12.176
17337SOL     OW53451   5.327   6.033  11.909
17337SOL    HW153452   5.253   6.079  11.859
17337SOL    HW253453   5.378   6.101  11.962
17338SOL     OW53454   3.955   7.299  11.655
17338SOL    HW153455   3.989   7.376  11.709
17338SOL    HW253456   3.999   7.299  11.565
17339SOL     OW53457   3.954   7.020  11.710
17339SOL    HW153458   3.928   7.116  11.710
17339SOL    HW253459   3.883   6.966  11.755
17340SOL     OW53460   3.964   6.677  12.058
17340SOL    HW153461   3.978   6.593  12.110
17340SOL    HW253462   3.909   6.741  12.113
17341SOL     OW53463   4.330   6.550  11.295
17341SOL    HW153464   4.337   6.634  11.241
17341SOL    HW253465   4.376   6.563  11.383
17342SOL     OW53466   3.846   6.229  11.735
17342SOL    HW153467   3.801   6.141  11.752
17342SOL    HW253468   3.845   6.283  11.819
17343SOL     OW53469   5.566   7.353  11.531
17343SOL    HW153470   5.620   7.324  11.611
17343SOL    HW253471   5.596   7.443  11.502
17344SOL     OW53472   3.751   7.182  11.289
17344SOL    HW153473   3.732   7.086  11.310
17344SOL    HW253474   3.718   7.240  11.364
17345SOL     OW53475   5.413   6.508  11.784
17345SOL    HW153476   5.508   6.479  11.792
17345SOL    HW253477   5.405   6.573  11.709
17346SOL     OW53478   5.365   6.694  11.604
17346SOL    HW153479   5.451   6.696  11.552
17346SOL    HW253480   5.379   6.741  11.692
17347SOL     OW53481   3.837   6.323  12.769
17347SOL    HW153482   3.925   6.310  12.814
17347SOL    HW253483   3.824   6.420  12.747
17348SOL     OW53484   4.337   6.951  11.898
17348SOL    HW153485   4.288   6.864  11.907
17348SOL    HW253486   4.314   6.994  11.811
17349SOL     OW53487   4.533   5.590  11.674
17349SOL    HW153488   4.573   5.681  11.665
17349SOL    HW253489   4.433   5.598  11.680
17350SOL     OW53490   3.921   6.562  12.436
17350SOL    HW153491   4.010   6.517  12.422
17350SOL    HW253492   3.848   6.497  12.417
17351SOL     OW53493   5.249   6.585  11.362
17351SOL    HW153494   5.186   6.509  11.375
17351SOL    HW253495   5.297   6.603  11.448
17352SOL     OW53496   5.190   7.003  12.125
17352SOL    HW153497   5.131   7.009  12.205
17352SOL    HW253498   5.175   6.915  12.079
17353SOL     OW53499   5.391   7.300  11.744
17353SOL    HW153500   5.350   7.277  11.656
17353SOL    HW253501   5.373   7.226  11.809
17354SOL     OW53502   4.322   6.315  11.442
17354SOL    HW153503   4.346   6.384  11.374
17354SOL    HW253504   4.244   6.348  11.496
17355SOL     OW53505   5.005   5.931  12.116
17355SOL    HW153506   4.919   5.881  12.103
17355SOL    HW253507   5.067   5.877  12.172
17356SOL     OW53508   5.300   7.248  11.479
17356SOL    HW153509   5.389   7.294  11.482
17356SOL    HW253510   5.279   7.224  11.384
17357SOL     OW53511   4.715   5.996  12.414
17357SOL    HW153512   4.638   6.030  12.468
17357SOL    HW253513   4.681   5.945  12.335
17358SOL     OW53514   4.765   6.287  11.601
17358SOL    HW153515   4.791   6.283  11.697
17358SOL    HW253516   4.680   6.236  11.587
17359SOL     OW53517   3.800   6.397  11.961
17359SOL    HW153518   3.899   6.385  11.970
17359SOL    HW253519   3.776   6.492  11.982
17360SOL     OW53520   4.589   5.934  11.367
17360SOL    HW153521   4.648   5.997  11.318
17360SOL    HW253522   4.608   5.840  11.338
17361SOL     OW53523   5.086   6.730  11.717
17361SOL    HW153524   5.169   6.701  11.669
17361SOL    HW253525   5.037   6.797  11.661
17362SOL     OW53526   4.274   5.782  12.057
17362SOL    HW153527   4.269   5.777  12.157
17362SOL    HW253528   4.276   5.878  12.028
17363SOL     OW53529   4.732   7.042  11.649
17363SOL    HW153530   4.686   7.114  11.597
17363SOL    HW253531   4.728   7.062  11.747
17364SOL     OW53532   4.075   7.387  12.025
17364SOL    HW153533   4.125   7.301  12.031
17364SOL    HW253534   4.140   7.464  12.022
17365SOL     OW53535   5.519   6.652  12.045
17365SOL    HW153536   5.457   6.637  11.969
17365SOL    HW253537   5.467   6.663  12.130
17366SOL     OW53538   4.045   6.529  11.414
17366SOL    HW153539   4.127   6.568  11.372
17366SOL    HW253540   4.018   6.447  11.365
17367SOL     OW53541   5.182   6.321  11.900
17367SOL    HW153542   5.177   6.256  11.975
17367SOL    HW253543   5.262   6.380  11.913
17368SOL     OW53544   4.835   7.362  11.409
17368SOL    HW153545   4.775   7.300  11.459
17368SOL    HW253546   4.866   7.318  11.324
17369SOL     OW53547   5.356   6.963  11.253
17369SOL    HW153548   5.324   7.057  11.243
17369SOL    HW253549   5.280   6.900  11.241
17370SOL     OW53550   4.188   7.329  11.495
17370SOL    HW153551   4.221   7.368  11.581
17370SOL    HW253552   4.264   7.322  11.430
17371SOL     OW53553   5.124   5.693  11.598
17371SOL    HW153554   5.100   5.656  11.508
17371SOL    HW253555   5.223   5.709  11.602
17372SOL     OW53556   3.973   7.371  12.413
17372SOL    HW153557   4.030   7.306  12.463
17372SOL    HW253558   3.957   7.338  12.320
17373SOL     OW53559   4.664   7.284  12.076
17373SOL    HW153560   4.744   7.227  12.097
17373SOL    HW253561   4.615   7.244  11.999
17374SOL     OW53562   4.106   6.286  11.652
17374SOL    HW153563   4.151   6.196  11.649
17374SOL    HW253564   4.012   6.275  11.685
17375SOL     OW53565   4.338   5.708  11.289
17375SOL    HW153566   4.436   5.686  11.296
17375SOL    HW253567   4.307   5.691  11.196
17376SOL     OW53568   4.527   6.988  12.096
17376SOL    HW153569   4.617   7.002  12.054
17376SOL    HW253570   4.456   6.990  12.025
17377SOL     OW53571   4.646   6.089  12.071
17377SOL    HW153572   4.621   6.080  11.975
17377SOL    HW253573   4.694   6.007  12.102
17378SOL     OW53574   4.263   5.650  11.684
17378SOL    HW153575   4.182   5.651  11.742
17378SOL    HW253576   4.266   5.733  11.629
17379SOL     OW53577   5.158   6.774  11.213
17379SOL    HW153578   5.190   6.698  11.270
17379SOL    HW253579   5.066   6.801  11.243
17380SOL     OW53580   4.021   5.621  11.343
17380SOL    HW153581   4.070   5.705  11.322
17380SOL    HW253582   4.083   5.556  11.388
17381SOL     OW53583   4.659   5.822  11.652
17381SOL    HW153584   4.611   5.863  11.574
17381SOL    HW253585   4.758   5.820  11.633
17382SOL     OW53586   4.951   7.156  11.965
17382SOL    HW153587   4.972   7.230  11.900
17382SOL    HW253588   5.019   7.156  12.038
17383SOL     OW53589   4.183   6.738  11.913
17383SOL    HW153590   4.112   6.711  11.978
17383SOL    HW253591   4.157   6.710  11.820
17384SOL     OW53592   4.995   7.383  11.763
17384SOL    HW153593   5.039   7.447  11.699
17384SOL    HW253594   4.945   7.435  11.833
17385SOL     OW53595   4.756   6.135  11.188
17385SOL    HW153596   4.715   6.217  11.149
17385SOL    HW253597   4.820   6.161  11.261
17386SOL     OW53598   4.285   5.808  12.319
17386SOL    HW153599   4.323   5.724  12.356
17386SOL    HW253600   4.197   5.827  12.363
17387SOL     OW53601   4.590   6.040  11.814
17387SOL    HW153602   4.558   6.112  11.752
17387SOL    HW253603   4.614   5.959  11.761
17388SOL     OW53604   4.741   5.625  11.925
17388SOL    HW153605   4.669   5.630  11.856
17388SOL    HW253606   4.717   5.556  11.994
17389SOL     OW53607   5.153   6.759  12.039
17389SOL    HW153608   5.098   6.675  12.032
17389SOL    HW253609   5.179   6.788  11.947
17390SOL     OW53610   5.190   6.176  12.164
17390SOL    HW153611   5.160   6.081  12.171
17390SOL    HW253612   5.263   6.192  12.230
17391SOL     OW53613   5.581   6.419  11.549
17391SOL    HW153614   5.623   6.355  11.613
17391SOL    HW253615   5.543   6.368  11.471
17392SOL     OW53616   4.212   6.971  11.346
17392SOL    HW153617   4.125   6.956  11.393
17392SOL    HW253618   4.195   6.997  11.251
17393SOL     OW53619   5.388   6.866  11.829
17393SOL    HW153620   5.487   6.874  11.843
17393SOL    HW253621   5.343   6.950  11.860
17394SOL     OW53622   5.114   6.161  11.250
17394SOL    HW153623   5.060   6.140  11.331
17394SOL    HW253624   5.205   6.120  11.259
17395SOL     OW53625   4.251   5.842  11.500
17395SOL    HW153626   4.278   5.783  11.425
17395SOL    HW253627   4.251   5.937  11.469
17396SOL     OW53628   4.835   6.781  12.272
17396SOL    HW153629   4.795   6.825  12.353
17396SOL    HW253630   4.794   6.818  12.189
17397SOL     OW53631   5.362   6.685  12.251
17397SOL    HW153632   5.367   6.766  12.310
17397SOL    HW253633   5.276   6.687  12.200
17398SOL     OW53634   4.429   6.636  11.540
17398SOL    HW153635   4.415   6.643  11.639
17398SOL    HW253636   4.513   6.585  11.522
17399SOL     OW53637   4.134   6.399  12.423
17399SOL    HW153638   4.220   6.411  12.473
17399SOL    HW253639   4.092   6.312  12.450
17400SOL     OW53640   4.998   5.972  12.434
17400SOL    HW153641   5.019   6.046  12.498
17400SOL    HW253642   4.909   5.989  12.391
17401SOL     OW53643   4.091   6.686  11.673
17401SOL    HW153644   4.084   6.769  11.617
17401SOL    HW253645   4.095   6.606  11.613
17402SOL     OW53646   4.290   6.123  12.037
17402SOL    HW153647   4.302   6.189  11.963
17402SOL    HW253648   4.336   6.157  12.120
17403SOL     OW53649   4.976   6.934  11.560
17403SOL    HW153650   5.026   7.011  11.600
17403SOL    HW253651   4.881   6.936  11.592
17404SOL     OW53652   4.996   7.031  12.314
17404SOL    HW153653   5.043   7.044  12.401
17404SOL    HW253654   4.930   6.957  12.323
17405SOL     OW53655   5.306   6.225  11.644
17405SOL    HW153656   5.275   6.286  11.717
17405SOL    HW253657   5.356   6.277  11.575
17406SOL     OW53658   4.078   7.096  12.501
17406SOL    HW153659   4.057   7.052  12.414
17406SOL    HW253660   4.175   7.122  12.504
17407SOL     OW53661   4.297   6.456  12.201
17407SOL    HW153662   4.341   6.545  12.192
17407SOL    HW253663   4.234   6.456  12.278
17408SOL     OW53664   5.084   6.448  12.217
17408SOL    HW153665   5.009   6.448  12.151
17408SOL    HW253666   5.121   6.356  12.226
17409SOL     OW53667   4.933   6.111  11.447
17409SOL    HW153668   4.946   6.027  11.501
17409SOL    HW253669   4.904   6.185  11.507
17410SOL     OW53670   4.031   5.799  12.403
17410SOL    HW153671   4.008   5.836  12.493
17410SOL    HW253672   4.001   5.704  12.397
17411SOL     OW53673   3.761   6.896  12.454
17411SOL    HW153674   3.814   6.847  12.522
17411SOL    HW253675   3.783   6.994  12.459
17412SOL     OW53676   4.456   6.220  12.236
17412SOL    HW153677   4.515   6.194  12.160
17412SOL    HW253678   4.428   6.316  12.225
17413SOL     OW53679   4.031   5.649  11.790
17413SOL    HW153680   4.020   5.743  11.823
17413SOL    HW253681   4.026   5.586  11.867
17414SOL     OW53682   5.346   5.953  11.546
17414SOL    HW153683   5.348   5.877  11.610
17414SOL    HW253684   5.298   6.030  11.586
17415SOL     OW53685   4.747   6.352  12.138
17415SOL    HW153686   4.762   6.373  12.234
17415SOL    HW253687   4.717   6.257  12.129
17416SOL     OW53688   5.264   5.860  11.297
17416SOL    HW153689   5.203   5.785  11.320
17416SOL    HW253690   5.286   5.912  11.380
17417SOL     OW53691   5.027   6.424  11.214
17417SOL    HW153692   5.061   6.331  11.229
17417SOL    HW253693   5.045   6.451  11.119
17418SOL     OW53694   4.792   6.919  12.021
17418SOL    HW153695   4.799   6.835  11.966
17418SOL    HW253696   4.854   6.988  11.985
17419SOL     OW53697   4.043   6.396  12.121
17419SOL    HW153698   4.136   6.432  12.126
17419SOL    HW253699   4.037   6.311  12.173
17420SOL     OW53700   4.063   6.095  12.178
17420SOL    HW153701   4.011   6.012  12.161
17420SOL    HW253702   4.140   6.100  12.114
17421SOL     OW53703   4.884   5.793  12.649
17421SOL    HW153704   4.884   5.857  12.726
17421SOL    HW253705   4.912   5.841  12.566
17422SOL     OW53706   3.732   6.912  11.372
17422SOL    HW153707   3.639   6.933  11.341
17422SOL    HW253708   3.742   6.813  11.385
17423SOL     OW53709   3.812   7.387  12.099
17423SOL    HW153710   3.770   7.301  12.072
17423SOL    HW253711   3.906   7.390  12.065
17424SOL     OW53712   4.228   7.154  12.082
17424SOL    HW153713   4.294   7.228  12.091
17424SOL    HW253714   4.272   7.075  12.040
17425SOL     OW53715   4.726   6.382  12.410
17425SOL    HW153716   4.767   6.350  12.496
17425SOL    HW253717   4.630   6.355  12.407
17426SOL     OW53718   3.764   6.130  12.286
17426SOL    HW153719   3.849   6.097  12.245
17426SOL    HW253720   3.777   6.145  12.384
17427SOL     OW53721   4.539   6.158  11.497
17427SOL    HW153722   4.546   6.069  11.451
17427SOL    HW253723   4.445   6.192  11.489
17428SOL     OW53724   5.381   6.190  12.378
17428SOL    HW153725   5.343   6.121  12.440
17428SOL    HW253726   5.463   6.154  12.334
17429SOL     OW53727   4.395   6.050  12.441
17429SOL    HW153728   4.361   5.961  12.411
17429SOL    HW253729   4.421   6.104  12.361
17430SOL     OW53730   4.654   7.264  12.637
17430SOL    HW153731   4.630   7.246  12.542
17430SOL    HW253732   4.684   7.358  12.647
17431SOL     OW53733   4.197   6.086  11.363
17431SOL    HW153734   4.258   6.166  11.367
17431SOL    HW253735   4.102   6.117  11.370
17432SOL     OW53736   5.071   6.645  12.406
17432SOL    HW153737   5.095   6.582  12.332
17432SOL    HW253738   4.981   6.685  12.388
17433SOL     OW53739   5.026   6.441  11.481
17433SOL    HW153740   4.940   6.410  11.523
17433SOL    HW253741   5.022   6.427  11.382
17434SOL     OW53742   5.483   7.333  12.326
17434SOL    HW153743   5.544   7.363  12.253
17434SOL    HW253744   5.445   7.244  12.304
17435SOL     OW53745   4.976   7.317  12.300
17435SOL    HW153746   5.060   7.322  12.246
17435SOL    HW253747   4.953   7.221  12.318
17436SOL     OW53748   3.807   6.844  12.194
17436SOL    HW153749   3.802   6.843  12.294
17436SOL    HW253750   3.724   6.803  12.156
17437SOL     OW53751   5.450   5.721  11.695
17437SOL    HW153752   5.523   5.704  11.628
17437SOL    HW253753   5.419   5.634  11.733
17438SOL     OW53754   5.112   7.159  11.649
17438SOL    HW153755   5.179   7.171  11.575
17438SOL    HW253756   5.072   7.248  11.672
17439SOL     OW53757   5.004   6.513  11.844
17439SOL    HW153758   5.064   6.432  11.846
17439SOL    HW253759   5.044   6.582  11.784
17440SOL     OW53760   4.396   7.202  11.326
17440SOL    HW153761   4.405   7.212  11.227
17440SOL    HW253762   4.356   7.113  11.347
17441SOL     OW53763   5.374   7.306  12.566
17441SOL    HW153764   5.427   7.316  12.482
17441SOL    HW253765   5.347   7.396  12.600
17442SOL     OW53766   5.565   5.761  12.135
17442SOL    HW153767   5.604   5.676  12.099
17442SOL    HW253768   5.467   5.763  12.116
17443SOL     OW53769   3.987   5.912  11.892
17443SOL    HW153770   3.908   5.963  11.858
17443SOL    HW253771   3.978   5.897  11.990
17444SOL     OW53772   4.918   7.198  11.203
17444SOL    HW153773   4.924   7.105  11.240
17444SOL    HW253774   4.859   7.198  11.123
17445SOL     OW53775   4.546   6.588  12.544
17445SOL    HW153776   4.586   6.587  12.452
17445SOL    HW253777   4.556   6.680  12.584
17446SOL     OW53778   4.640   6.496  11.463
17446SOL    HW153779   4.703   6.534  11.395
17446SOL    HW253780   4.680   6.413  11.502
17447SOL     OW53781   5.228   7.193  11.216
17447SOL    HW153782   5.136   7.230  11.223
17447SOL    HW253783   5.266   7.213  11.126
17448SOL     OW53784   4.763   6.684  11.868
17448SOL    HW153785   4.693   6.637  11.922
17448SOL    HW253786   4.822   6.616  11.825
17449SOL     OW53787   4.738   5.822  12.143
17449SOL    HW153788   4.730   5.786  12.050
17449SOL    HW253789   4.736   5.746  12.208
17450SOL     OW53790   4.314   7.073  11.663
17450SOL    HW153791   4.356   7.015  11.593
17450SOL    HW253792   4.270   7.152  11.619
17451SOL     OW53793   5.433   5.971  12.553
17451SOL    HW153794   5.506   6.040  12.557
17451SOL    HW253795   5.461   5.896  12.494
17452SOL     OW53796   3.979   6.934  11.462
17452SOL    HW153797   3.883   6.935  11.435
17452SOL    HW253798   3.991   6.987  11.546
17453SOL     OW53799   3.799   5.931  11.205
17453SOL    HW153800   3.707   5.903  11.176
17453SOL    HW253801   3.830   6.008  11.149
17454SOL     OW53802   3.796   5.752  11.490
17454SOL    HW153803   3.779   5.835  11.436
17454SOL    HW253804   3.886   5.715  11.468
17455SOL     OW53805   4.907   6.921  11.291
17455SOL    HW153806   4.808   6.910  11.293
17455SOL    HW253807   4.941   6.936  11.384
17456SOL     OW53808   5.217   7.353  12.131
17456SOL    HW153809   5.250   7.417  12.062
17456SOL    HW253810   5.283   7.347  12.206
17457SOL     OW53811   5.398   6.469  12.426
17457SOL    HW153812   5.371   6.380  12.389
17457SOL    HW253813   5.399   6.537  12.353
17458SOL     OW53814   4.949   5.911  11.621
17458SOL    HW153815   5.014   5.837  11.610
17458SOL    HW253816   4.969   5.961  11.705
17459SOL     OW53817   4.318   6.331  11.824
17459SOL    HW153818   4.368   6.416  11.805
17459SOL    HW253819   4.230   6.333  11.776
17460SOL     OW53820   5.454   6.520  12.689
17460SOL    HW153821   5.492   6.611  12.704
17460SOL    HW253822   5.446   6.503  12.590
17461SOL     OW53823   4.583   6.960  11.188
17461SOL    HW153824   4.537   6.975  11.276
17461SOL    HW253825   4.627   7.045  11.158
17462SOL     OW53826   4.385   7.376  12.125
17462SOL    HW153827   4.339   7.464  12.112
17462SOL    HW253828   4.484   7.388  12.118
17463SOL     OW53829   4.583   6.542  12.033
17463SOL    HW153830   4.637   6.473  12.081
17463SOL    HW253831   4.551   6.611  12.099
17464SOL     OW53832   4.807   6.570  11.259
17464SOL    HW153833   4.784   6.623  11.177
17464SOL    HW253834   4.888   6.514  11.240
17465SOL     OW53835   5.585   7.155  12.023
17465SOL    HW153836   5.514   7.143  11.953
17465SOL    HW253837   5.586   7.076  12.083
17466SOL     OW53838   3.803   6.826  11.825
17466SOL    HW153839   3.802   6.779  11.913
17466SOL    HW253840   3.885   6.798  11.774
17467SOL     OW53841   5.548   5.778  12.399
17467SOL    HW153842   5.544   5.688  12.443
17467SOL    HW253843   5.551   5.767  12.300
17468SOL     OW53844   4.152   6.010  11.692
17468SOL    HW153845   4.182   5.938  11.630
17468SOL    HW253846   4.113   5.970  11.775
17469SOL     OW53847   5.429   7.073  12.276
17469SOL    HW153848   5.336   7.048  12.249
17469SOL    HW253849   5.455   7.023  12.358
17470SOL     OW53850   4.536   7.172  11.859
17470SOL    HW153851   4.568   7.182  11.765
17470SOL    HW253852   4.457   7.110  11.861
17471SOL     OW53853   5.148   5.800  12.284
17471SOL    HW153854   5.200   5.735  12.339
17471SOL    HW253855   5.099   5.863  12.345
17472SOL     OW53856   4.725   5.620  12.326
17472SOL    HW153857   4.662   5.548  12.295
17472SOL    HW253858   4.818   5.584  12.326
17473SOL     OW53859   4.494   6.916  11.473
17473SOL    HW153860   4.448   6.829  11.490
17473SOL    HW253861   4.585   6.913  11.514
17474SOL     OW53862   5.076   5.638  11.340
17474SOL    HW153863   5.111   5.597  11.256
17474SOL    HW253864   4.986   5.600  11.360
17475SOL     OW53865   5.024   6.039  11.863
17475SOL    HW153866   4.965   6.119  11.867
17475SOL    HW253867   5.039   6.004  11.956
17476SOL     OW53868   5.317   5.807  12.054
17476SOL    HW153869   5.233   5.806  12.108
17476SOL    HW253870   5.319   5.890  11.998
17477SOL     OW53871   3.763   6.663  11.472
17477SOL    HW153872   3.862   6.652  11.463
17477SOL    HW253873   3.723   6.577  11.504
17478SOL     OW53874   4.599   7.232  11.509
17478SOL    HW153875   4.522   7.197  11.455
17478SOL    HW253876   4.567   7.303  11.571
17479SOL     OW53877   3.949   7.723   0.996
17479SOL    HW153878   3.984   7.706   1.088
17479SOL    HW253879   3.861   7.678   0.984
17480SOL     OW53880   3.743   7.816   0.647
17480SOL    HW153881   3.661   7.859   0.686
17480SOL    HW253882   3.715   7.743   0.584
17481SOL     OW53883   5.479   8.055   0.231
17481SOL    HW153884   5.467   8.042   0.132
17481SOL    HW253885   5.449   7.974   0.280
17482SOL     OW53886   4.162   7.840   1.499
17482SOL    HW153887   4.244   7.784   1.508
17482SOL    HW253888   4.081   7.782   1.503
17483SOL     OW53889   5.327   7.895   0.737
17483SOL    HW153890   5.253   7.941   0.687
17483SOL    HW253891   5.378   7.963   0.790
17484SOL     OW53892   5.318   7.562   1.480
17484SOL    HW153893   5.300   7.629   1.408
17484SOL    HW253894   5.315   7.608   1.569
17485SOL     OW53895   3.846   8.091   0.563
17485SOL    HW153896   3.801   8.003   0.580
17485SOL    HW253897   3.845   8.145   0.647
17486SOL     OW53898   4.533   7.452   0.502
17486SOL    HW153899   4.573   7.543   0.493
17486SOL    HW253900   4.433   7.460   0.508
17487SOL     OW53901   4.041   7.699   1.801
17487SOL    HW153902   4.112   7.770   1.807
17487SOL    HW253903   3.953   7.738   1.829
17488SOL     OW53904   5.005   7.793   0.944
17488SOL    HW153905   4.919   7.743   0.931
17488SOL    HW253906   5.067   7.739   1.000
17489SOL     OW53907   5.118   7.917   1.674
17489SOL    HW153908   5.098   7.960   1.762
17489SOL    HW253909   5.196   7.855   1.683
17490SOL     OW53910   4.697   8.338   1.572
17490SOL    HW153911   4.743   8.254   1.543
17490SOL    HW253912   4.641   8.372   1.497
17491SOL     OW53913   4.715   7.858   1.242
17491SOL    HW153914   4.638   7.892   1.296
17491SOL    HW253915   4.681   7.807   1.163
17492SOL     OW53916   4.589   7.796   0.195
17492SOL    HW153917   4.648   7.859   0.146
17492SOL    HW253918   4.608   7.702   0.166
17493SOL     OW53919   5.443   8.033   1.831
17493SOL    HW153920   5.417   8.122   1.795
17493SOL    HW253921   5.441   7.965   1.758
17494SOL     OW53922   4.274   7.644   0.885
17494SOL    HW153923   4.269   7.639   0.985
17494SOL    HW253924   4.276   7.740   0.856
17495SOL     OW53925   3.926   7.733   1.498
17495SOL    HW153926   3.846   7.793   1.485
17495SOL    HW253927   3.916   7.684   1.584
17496SOL     OW53928   5.124   7.555   0.426
17496SOL    HW153929   5.100   7.518   0.336
17496SOL    HW253930   5.223   7.571   0.430
17497SOL     OW53931   5.271   7.670   1.729
17497SOL    HW153932   5.266   7.707   1.821
17497SOL    HW253933   5.199   7.601   1.717
17498SOL     OW53934   4.338   7.570   0.117
17498SOL    HW153935   4.436   7.548   0.124
17498SOL    HW253936   4.307   7.553   0.024
17499SOL     OW53937   4.505   7.712   1.749
17499SOL    HW153938   4.572   7.651   1.792
17499SOL    HW253939   4.432   7.731   1.814
17500SOL     OW53940   5.075   8.038   1.433
17500SOL    HW153941   5.103   7.995   1.518
17500SOL    HW253942   5.100   8.134   1.434
17501SOL     OW53943   4.263   7.512   0.512
17501SOL    HW153944   4.182   7.513   0.570
17501SOL    HW253945   4.266   7.595   0.457
17502SOL     OW53946   4.021   7.483   0.171
17502SOL    HW153947   4.070   7.567   0.150
17502SOL    HW253948   4.083   7.418   0.216
17503SOL     OW53949   4.659   7.684   0.480
17503SOL    HW153950   4.611   7.725   0.402
17503SOL    HW253951   4.758   7.682   0.461
17504SOL     OW53952   3.802   8.004   1.386
17504SOL    HW153953   3.894   8.003   1.345
17504SOL    HW253954   3.796   8.078   1.453
17505SOL     OW53955   4.285   7.670   1.147
17505SOL    HW153956   4.323   7.586   1.184
17505SOL    HW253957   4.197   7.689   1.191
17506SOL     OW53958   4.741   7.487   0.753
17506SOL    HW153959   4.669   7.492   0.684
17506SOL    HW253960   4.717   7.418   0.822
17507SOL     OW53961   5.190   8.038   0.992
17507SOL    HW153962   5.160   7.943   0.999
17507SOL    HW253963   5.263   8.054   1.058
17508SOL     OW53964   4.251   7.704   0.328
17508SOL    HW153965   4.278   7.645   0.253
17508SOL    HW253966   4.251   7.799   0.297
17509SOL     OW53967   4.639   7.537   1.402
17509SOL    HW153968   4.664   7.517   1.307
17509SOL    HW253969   4.711   7.593   1.444
17510SOL     OW53970   4.998   7.834   1.262
17510SOL    HW153971   5.019   7.908   1.326
17510SOL    HW253972   4.909   7.851   1.219
17511SOL     OW53973   4.290   7.985   0.865
17511SOL    HW153974   4.302   8.051   0.791
17511SOL    HW253975   4.336   8.019   0.948
17512SOL     OW53976   4.737   7.553   1.770
17512SOL    HW153977   4.743   7.638   1.718
17512SOL    HW253978   4.769   7.477   1.713
17513SOL     OW53979   4.228   7.498   1.740
17513SOL    HW153980   4.186   7.441   1.670
17513SOL    HW253981   4.162   7.567   1.772
17514SOL     OW53982   4.031   7.661   1.231
17514SOL    HW153983   4.008   7.698   1.321
17514SOL    HW253984   4.001   7.566   1.225
17515SOL     OW53985   4.456   8.082   1.064
17515SOL    HW153986   4.515   8.056   0.988
17515SOL    HW253987   4.428   8.178   1.053
17516SOL     OW53988   4.031   7.511   0.618
17516SOL    HW153989   4.020   7.605   0.651
17516SOL    HW253990   4.026   7.448   0.695
17517SOL     OW53991   5.346   7.815   0.374
17517SOL    HW153992   5.348   7.739   0.438
17517SOL    HW253993   5.298   7.892   0.414
17518SOL     OW53994   5.264   7.722   0.125
17518SOL    HW153995   5.203   7.647   0.148
17518SOL    HW253996   5.286   7.774   0.208
17519SOL     OW53997   4.063   7.957   1.006
17519SOL    HW153998   4.011   7.874   0.989
17519SOL    HW253999   4.140   7.962   0.942
17520SOL     OW54000   4.862   7.828   1.678
17520SOL    HW154001   4.817   7.891   1.742
17520SOL    HW254002   4.955   7.859   1.661
17521SOL     OW54003   4.884   7.655   1.477
17521SOL    HW154004   4.884   7.719   1.554
17521SOL    HW254005   4.912   7.703   1.394
17522SOL     OW54006   3.764   7.992   1.114
17522SOL    HW154007   3.849   7.959   1.073
17522SOL    HW254008   3.777   8.007   1.212
17523SOL     OW54009   3.913   7.968   1.722
17523SOL    HW154010   3.972   7.928   1.652
17523SOL    HW254011   3.855   8.039   1.681
17524SOL     OW54012   4.539   8.020   0.325
17524SOL    HW154013   4.546   7.931   0.279
17524SOL    HW254014   4.445   8.054   0.317
17525SOL     OW54015   5.381   8.052   1.206
17525SOL    HW154016   5.343   7.983   1.268
17525SOL    HW254017   5.463   8.016   1.162
17526SOL     OW54018   4.395   7.912   1.269
17526SOL    HW154019   4.361   7.823   1.239
17526SOL    HW254020   4.421   7.966   1.189
17527SOL     OW54021   4.627   7.534   0.133
17527SOL    HW154022   4.678   7.535   0.047
17527SOL    HW254023   4.683   7.492   0.204
17528SOL     OW54024   5.450   7.583   0.523
17528SOL    HW154025   5.523   7.566   0.456
17528SOL    HW254026   5.419   7.496   0.561
17529SOL     OW54027   5.565   7.623   0.963
17529SOL    HW154028   5.604   7.538   0.927
17529SOL    HW254029   5.467   7.625   0.944
17530SOL     OW54030   3.987   7.774   0.720
17530SOL    HW154031   3.908   7.825   0.686
17530SOL    HW254032   3.978   7.759   0.818
17531SOL     OW54033   4.738   7.684   0.971
17531SOL    HW154034   4.730   7.648   0.878
17531SOL    HW254035   4.736   7.608   1.036
17532SOL     OW54036   5.433   7.833   1.381
17532SOL    HW154037   5.506   7.902   1.385
17532SOL    HW254038   5.461   7.758   1.322
17533SOL     OW54039   4.396   7.651   1.489
17533SOL    HW154040   4.486   7.635   1.449
17533SOL    HW254041   4.404   7.656   1.588
17534SOL     OW54042   3.796   7.614   0.318
17534SOL    HW154043   3.779   7.697   0.264
17534SOL    HW254044   3.886   7.577   0.296
17535SOL     OW54045   4.440   8.013   1.708
17535SOL    HW154046   4.459   8.078   1.782
17535SOL    HW254047   4.500   7.933   1.717
17536SOL     OW54048   4.949   7.773   0.449
17536SOL    HW154049   5.014   7.699   0.438
17536SOL    HW254050   4.969   7.823   0.533
17537SOL     OW54051   4.318   8.193   0.652
17537SOL    HW154052   4.368   8.278   0.633
17537SOL    HW254053   4.230   8.195   0.604
17538SOL     OW54054   5.501   7.790   1.642
17538SOL    HW154055   5.484   7.821   1.548
17538SOL    HW254056   5.417   7.753   1.680
17539SOL     OW54057   5.548   7.640   1.227
17539SOL    HW154058   5.544   7.550   1.271
17539SOL    HW254059   5.551   7.629   1.128
17540SOL     OW54060   4.152   7.872   0.520
17540SOL    HW154061   4.182   7.800   0.458
17540SOL    HW254062   4.113   7.832   0.603
17541SOL     OW54063   5.148   7.662   1.112
17541SOL    HW154064   5.200   7.597   1.167
17541SOL    HW254065   5.099   7.725   1.173
17542SOL     OW54066   4.725   7.482   1.154
17542SOL    HW154067   4.662   7.410   1.123
17542SOL    HW254068   4.818   7.446   1.154
17543SOL     OW54069   5.076   7.500   0.168
17543SOL    HW154070   5.111   7.459   0.084
17543SOL    HW254071   4.986   7.462   0.188
17544SOL     OW54072   5.024   7.901   0.691
17544SOL    HW154073   4.965   7.981   0.695
17544SOL    HW254074   5.039   7.866   0.784
17545SOL     OW54075   5.317   7.669   0.882
17545SOL    HW154076   5.233   7.668   0.936
17545SOL    HW254077   5.319   7.752   0.826
17546SOL     OW54078   3.949   7.723   2.858
17546SOL    HW154079   3.984   7.706   2.950
17546SOL    HW254080   3.861   7.678   2.846
17547SOL     OW54081   3.743   7.816   2.509
17547SOL    HW154082   3.661   7.859   2.548
17547SOL    HW254083   3.715   7.743   2.446
17548SOL     OW54084   5.479   8.055   2.093
17548SOL    HW154085   5.467   8.042   1.994
17548SOL    HW254086   5.449   7.974   2.142
17549SOL     OW54087   4.162   7.840   3.361
17549SOL    HW154088   4.244   7.784   3.370
17549SOL    HW254089   4.081   7.782   3.365
17550SOL     OW54090   5.327   7.895   2.599
17550SOL    HW154091   5.253   7.941   2.549
17550SOL    HW254092   5.378   7.963   2.652
17551SOL     OW54093   5.318   7.562   3.342
17551SOL    HW154094   5.300   7.629   3.270
17551SOL    HW254095   5.315   7.608   3.431
17552SOL     OW54096   3.846   8.091   2.425
17552SOL    HW154097   3.801   8.003   2.442
17552SOL    HW254098   3.845   8.145   2.509
17553SOL     OW54099   4.533   7.452   2.364
17553SOL    HW154100   4.573   7.543   2.355
17553SOL    HW254101   4.433   7.460   2.370
17554SOL     OW54102   4.041   7.699   3.663
17554SOL    HW154103   4.112   7.770   3.669
17554SOL    HW254104   3.953   7.738   3.691
17555SOL     OW54105   5.005   7.793   2.806
17555SOL    HW154106   4.919   7.743   2.793
17555SOL    HW254107   5.067   7.739   2.862
17556SOL     OW54108   5.118   7.917   3.536
17556SOL    HW154109   5.098   7.960   3.624
17556SOL    HW254110   5.196   7.855   3.545
17557SOL     OW54111   4.697   8.338   3.434
17557SOL    HW154112   4.743   8.254   3.405
17557SOL    HW254113   4.641   8.372   3.359
17558SOL     OW54114   4.715   7.858   3.104
17558SOL    HW154115   4.638   7.892   3.158
17558SOL    HW254116   4.681   7.807   3.025
17559SOL     OW54117   4.589   7.796   2.057
17559SOL    HW154118   4.648   7.859   2.008
17559SOL    HW254119   4.608   7.702   2.028
17560SOL     OW54120   5.443   8.033   3.693
17560SOL    HW154121   5.417   8.122   3.657
17560SOL    HW254122   5.441   7.965   3.620
17561SOL     OW54123   4.274   7.644   2.747
17561SOL    HW154124   4.269   7.639   2.847
17561SOL    HW254125   4.276   7.740   2.718
17562SOL     OW54126   3.926   7.733   3.360
17562SOL    HW154127   3.846   7.793   3.347
17562SOL    HW254128   3.916   7.684   3.446
17563SOL     OW54129   5.124   7.555   2.288
17563SOL    HW154130   5.100   7.518   2.198
17563SOL    HW254131   5.223   7.571   2.292
17564SOL     OW54132   5.271   7.670   3.591
17564SOL    HW154133   5.266   7.707   3.683
17564SOL    HW254134   5.199   7.601   3.579
17565SOL     OW54135   4.338   7.570   1.979
17565SOL    HW154136   4.436   7.548   1.986
17565SOL    HW254137   4.307   7.553   1.886
17566SOL     OW54138   4.505   7.712   3.611
17566SOL    HW154139   4.572   7.651   3.654
17566SOL    HW254140   4.432   7.731   3.676
17567SOL     OW54141   5.075   8.038   3.295
17567SOL    HW154142   5.103   7.995   3.380
17567SOL    HW254143   5.100   8.134   3.296
17568SOL     OW54144   4.263   7.512   2.374
17568SOL    HW154145   4.182   7.513   2.432
17568SOL    HW254146   4.266   7.595   2.319
17569SOL     OW54147   4.021   7.483   2.033
17569SOL    HW154148   4.070   7.567   2.012
17569SOL    HW254149   4.083   7.418   2.078
17570SOL     OW54150   4.659   7.684   2.342
17570SOL    HW154151   4.611   7.725   2.264
17570SOL    HW254152   4.758   7.682   2.323
17571SOL     OW54153   3.802   8.004   3.248
17571SOL    HW154154   3.894   8.003   3.207
17571SOL    HW254155   3.796   8.078   3.315
17572SOL     OW54156   4.285   7.670   3.009
17572SOL    HW154157   4.323   7.586   3.046
17572SOL    HW254158   4.197   7.689   3.053
17573SOL     OW54159   4.741   7.487   2.615
17573SOL    HW154160   4.669   7.492   2.546
17573SOL    HW254161   4.717   7.418   2.684
17574SOL     OW54162   5.190   8.038   2.854
17574SOL    HW154163   5.160   7.943   2.861
17574SOL    HW254164   5.263   8.054   2.920
17575SOL     OW54165   4.251   7.704   2.190
17575SOL    HW154166   4.278   7.645   2.115
17575SOL    HW254167   4.251   7.799   2.159
17576SOL     OW54168   4.639   7.537   3.264
17576SOL    HW154169   4.664   7.517   3.169
17576SOL    HW254170   4.711   7.593   3.306
17577SOL     OW54171   4.998   7.834   3.124
17577SOL    HW154172   5.019   7.908   3.188
17577SOL    HW254173   4.909   7.851   3.081
17578SOL     OW54174   4.290   7.985   2.727
17578SOL    HW154175   4.302   8.051   2.653
17578SOL    HW254176   4.336   8.019   2.810
17579SOL     OW54177   4.737   7.553   3.632
17579SOL    HW154178   4.743   7.638   3.580
17579SOL    HW254179   4.769   7.477   3.575
17580SOL     OW54180   4.228   7.498   3.602
17580SOL    HW154181   4.186   7.441   3.532
17580SOL    HW254182   4.162   7.567   3.634
17581SOL     OW54183   4.031   7.661   3.093
17581SOL    HW154184   4.008   7.698   3.183
17581SOL    HW254185   4.001   7.566   3.087
17582SOL     OW54186   4.456   8.082   2.926
17582SOL    HW154187   4.515   8.056   2.850
17582SOL    HW254188   4.428   8.178   2.915
17583SOL     OW54189   4.031   7.511   2.480
17583SOL    HW154190   4.020   7.605   2.513
17583SOL    HW254191   4.026   7.448   2.557
17584SOL     OW54192   5.346   7.815   2.236
17584SOL    HW154193   5.348   7.739   2.300
17584SOL    HW254194   5.298   7.892   2.276
17585SOL     OW54195   5.264   7.722   1.987
17585SOL    HW154196   5.203   7.647   2.010
17585SOL    HW254197   5.286   7.774   2.070
17586SOL     OW54198   5.027   8.286   1.904
17586SOL    HW154199   5.061   8.193   1.919
17586SOL    HW254200   5.045   8.313   1.809
17587SOL     OW54201   4.063   7.957   2.868
17587SOL    HW154202   4.011   7.874   2.851
17587SOL    HW254203   4.140   7.962   2.804
17588SOL     OW54204   4.862   7.828   3.540
17588SOL    HW154205   4.817   7.891   3.604
17588SOL    HW254206   4.955   7.859   3.523
17589SOL     OW54207   4.884   7.655   3.339
17589SOL    HW154208   4.884   7.719   3.416
17589SOL    HW254209   4.912   7.703   3.256
17590SOL     OW54210   3.764   7.992   2.976
17590SOL    HW154211   3.849   7.959   2.935
17590SOL    HW254212   3.777   8.007   3.074
17591SOL     OW54213   3.913   7.968   3.584
17591SOL    HW154214   3.972   7.928   3.514
17591SOL    HW254215   3.855   8.039   3.543
17592SOL     OW54216   4.539   8.020   2.187
17592SOL    HW154217   4.546   7.931   2.141
17592SOL    HW254218   4.445   8.054   2.179
17593SOL     OW54219   5.381   8.052   3.068
17593SOL    HW154220   5.343   7.983   3.130
17593SOL    HW254221   5.463   8.016   3.024
17594SOL     OW54222   4.395   7.912   3.131
17594SOL    HW154223   4.361   7.823   3.101
17594SOL    HW254224   4.421   7.966   3.051
17595SOL     OW54225   5.450   7.583   2.385
17595SOL    HW154226   5.523   7.566   2.318
17595SOL    HW254227   5.419   7.496   2.423
17596SOL     OW54228   5.565   7.623   2.825
17596SOL    HW154229   5.604   7.538   2.789
17596SOL    HW254230   5.467   7.625   2.806
17597SOL     OW54231   3.987   7.774   2.582
17597SOL    HW154232   3.908   7.825   2.548
17597SOL    HW254233   3.978   7.759   2.680
17598SOL     OW54234   4.738   7.684   2.833
17598SOL    HW154235   4.730   7.648   2.740
17598SOL    HW254236   4.736   7.608   2.898
17599SOL     OW54237   5.433   7.833   3.243
17599SOL    HW154238   5.506   7.902   3.247
17599SOL    HW254239   5.461   7.758   3.184
17600SOL     OW54240   4.396   7.651   3.351
17600SOL    HW154241   4.486   7.635   3.311
17600SOL    HW254242   4.404   7.656   3.450
17601SOL     OW54243   3.799   7.793   1.895
17601SOL    HW154244   3.707   7.765   1.866
17601SOL    HW254245   3.830   7.870   1.839
17602SOL     OW54246   3.796   7.614   2.180
17602SOL    HW154247   3.779   7.697   2.126
17602SOL    HW254248   3.886   7.577   2.158
17603SOL     OW54249   4.440   8.013   3.570
17603SOL    HW154250   4.459   8.078   3.644
17603SOL    HW254251   4.500   7.933   3.579
17604SOL     OW54252   4.949   7.773   2.311
17604SOL    HW154253   5.014   7.699   2.300
17604SOL    HW254254   4.969   7.823   2.395
17605SOL     OW54255   4.318   8.193   2.514
17605SOL    HW154256   4.368   8.278   2.495
17605SOL    HW254257   4.230   8.195   2.466
17606SOL     OW54258   5.501   7.790   3.504
17606SOL    HW154259   5.484   7.821   3.410
17606SOL    HW254260   5.417   7.753   3.542
17607SOL     OW54261   5.548   7.640   3.089
17607SOL    HW154262   5.544   7.550   3.133
17607SOL    HW254263   5.551   7.629   2.990
17608SOL     OW54264   4.152   7.872   2.382
17608SOL    HW154265   4.182   7.800   2.320
17608SOL    HW254266   4.113   7.832   2.465
17609SOL     OW54267   5.148   7.662   2.974
17609SOL    HW154268   5.200   7.597   3.029
17609SOL    HW254269   5.099   7.725   3.035
17610SOL     OW54270   4.725   7.482   3.016
17610SOL    HW154271   4.662   7.410   2.985
17610SOL    HW254272   4.818   7.446   3.016
17611SOL     OW54273   5.076   7.500   2.030
17611SOL    HW154274   5.111   7.459   1.946
17611SOL    HW254275   4.986   7.462   2.050
17612SOL     OW54276   5.024   7.901   2.553
17612SOL    HW154277   4.965   7.981   2.557
17612SOL    HW254278   5.039   7.866   2.646
17613SOL     OW54279   5.317   7.669   2.744
17613SOL    HW154280   5.233   7.668   2.798
17613SOL    HW254281   5.319   7.752   2.688
17614SOL     OW54282   3.949   7.723   4.720
17614SOL    HW154283   3.984   7.706   4.812
17614SOL    HW254284   3.861   7.678   4.708
17615SOL     OW54285   3.743   7.816   4.371
17615SOL    HW154286   3.661   7.859   4.410
17615SOL    HW254287   3.715   7.743   4.308
17616SOL     OW54288   5.479   8.055   3.955
17616SOL    HW154289   5.467   8.042   3.856
17616SOL    HW254290   5.449   7.974   4.004
17617SOL     OW54291   4.162   7.840   5.223
17617SOL    HW154292   4.244   7.784   5.232
17617SOL    HW254293   4.081   7.782   5.227
17618SOL     OW54294   5.327   7.895   4.461
17618SOL    HW154295   5.253   7.941   4.411
17618SOL    HW254296   5.378   7.963   4.514
17619SOL     OW54297   5.318   7.562   5.204
17619SOL    HW154298   5.300   7.629   5.132
17619SOL    HW254299   5.315   7.608   5.293
17620SOL     OW54300   3.846   8.091   4.287
17620SOL    HW154301   3.801   8.003   4.304
17620SOL    HW254302   3.845   8.145   4.371
17621SOL     OW54303   4.533   7.452   4.226
17621SOL    HW154304   4.573   7.543   4.217
17621SOL    HW254305   4.433   7.460   4.232
17622SOL     OW54306   4.041   7.699   5.525
17622SOL    HW154307   4.112   7.770   5.531
17622SOL    HW254308   3.953   7.738   5.553
17623SOL     OW54309   5.005   7.793   4.668
17623SOL    HW154310   4.919   7.743   4.655
17623SOL    HW254311   5.067   7.739   4.724
17624SOL     OW54312   5.118   7.917   5.398
17624SOL    HW154313   5.098   7.960   5.486
17624SOL    HW254314   5.196   7.855   5.407
17625SOL     OW54315   4.697   8.338   5.296
17625SOL    HW154316   4.743   8.254   5.267
17625SOL    HW254317   4.641   8.372   5.221
17626SOL     OW54318   4.715   7.858   4.966
17626SOL    HW154319   4.638   7.892   5.020
17626SOL    HW254320   4.681   7.807   4.887
17627SOL     OW54321   4.589   7.796   3.919
17627SOL    HW154322   4.648   7.859   3.870
17627SOL    HW254323   4.608   7.702   3.890
17628SOL     OW54324   5.443   8.033   5.555
17628SOL    HW154325   5.417   8.122   5.519
17628SOL    HW254326   5.441   7.965   5.482
17629SOL     OW54327   4.274   7.644   4.609
17629SOL    HW154328   4.269   7.639   4.709
17629SOL    HW254329   4.276   7.740   4.580
17630SOL     OW54330   3.926   7.733   5.222
17630SOL    HW154331   3.846   7.793   5.209
17630SOL    HW254332   3.916   7.684   5.308
17631SOL     OW54333   5.124   7.555   4.150
17631SOL    HW154334   5.100   7.518   4.060
17631SOL    HW254335   5.223   7.571   4.154
17632SOL     OW54336   5.271   7.670   5.453
17632SOL    HW154337   5.266   7.707   5.545
17632SOL    HW254338   5.199   7.601   5.441
17633SOL     OW54339   4.338   7.570   3.841
17633SOL    HW154340   4.436   7.548   3.848
17633SOL    HW254341   4.307   7.553   3.748
17634SOL     OW54342   4.505   7.712   5.473
17634SOL    HW154343   4.572   7.651   5.516
17634SOL    HW254344   4.432   7.731   5.538
17635SOL     OW54345   5.075   8.038   5.157
17635SOL    HW154346   5.103   7.995   5.242
17635SOL    HW254347   5.100   8.134   5.158
17636SOL     OW54348   4.263   7.512   4.236
17636SOL    HW154349   4.182   7.513   4.294
17636SOL    HW254350   4.266   7.595   4.181
17637SOL     OW54351   4.021   7.483   3.895
17637SOL    HW154352   4.070   7.567   3.874
17637SOL    HW254353   4.083   7.418   3.940
17638SOL     OW54354   4.659   7.684   4.204
17638SOL    HW154355   4.611   7.725   4.126
17638SOL    HW254356   4.758   7.682   4.185
17639SOL     OW54357   3.802   8.004   5.110
17639SOL    HW154358   3.894   8.003   5.069
17639SOL    HW254359   3.796   8.078   5.177
17640SOL     OW54360   4.285   7.670   4.871
17640SOL    HW154361   4.323   7.586   4.908
17640SOL    HW254362   4.197   7.689   4.915
17641SOL     OW54363   4.741   7.487   4.477
17641SOL    HW154364   4.669   7.492   4.408
17641SOL    HW254365   4.717   7.418   4.546
17642SOL     OW54366   5.190   8.038   4.716
17642SOL    HW154367   5.160   7.943   4.723
17642SOL    HW254368   5.263   8.054   4.782
17643SOL     OW54369   4.251   7.704   4.052
17643SOL    HW154370   4.278   7.645   3.977
17643SOL    HW254371   4.251   7.799   4.021
17644SOL     OW54372   4.639   7.537   5.126
17644SOL    HW154373   4.664   7.517   5.031
17644SOL    HW254374   4.711   7.593   5.168
17645SOL     OW54375   4.998   7.834   4.986
17645SOL    HW154376   5.019   7.908   5.050
17645SOL    HW254377   4.909   7.851   4.943
17646SOL     OW54378   4.290   7.985   4.589
17646SOL    HW154379   4.302   8.051   4.515
17646SOL    HW254380   4.336   8.019   4.672
17647SOL     OW54381   4.737   7.553   5.494
17647SOL    HW154382   4.743   7.638   5.442
17647SOL    HW254383   4.769   7.477   5.437
17648SOL     OW54384   4.228   7.498   5.464
17648SOL    HW154385   4.186   7.441   5.394
17648SOL    HW254386   4.162   7.567   5.496
17649SOL     OW54387   4.031   7.661   4.955
17649SOL    HW154388   4.008   7.698   5.045
17649SOL    HW254389   4.001   7.566   4.949
17650SOL     OW54390   4.456   8.082   4.788
17650SOL    HW154391   4.515   8.056   4.712
17650SOL    HW254392   4.428   8.178   4.777
17651SOL     OW54393   4.031   7.511   4.342
17651SOL    HW154394   4.020   7.605   4.375
17651SOL    HW254395   4.026   7.448   4.419
17652SOL     OW54396   5.346   7.815   4.098
17652SOL    HW154397   5.348   7.739   4.162
17652SOL    HW254398   5.298   7.892   4.138
17653SOL     OW54399   5.264   7.722   3.849
17653SOL    HW154400   5.203   7.647   3.872
17653SOL    HW254401   5.286   7.774   3.932
17654SOL     OW54402   5.027   8.286   3.766
17654SOL    HW154403   5.061   8.193   3.781
17654SOL    HW254404   5.045   8.313   3.671
17655SOL     OW54405   4.063   7.957   4.730
17655SOL    HW154406   4.011   7.874   4.713
17655SOL    HW254407   4.140   7.962   4.666
17656SOL     OW54408   4.862   7.828   5.402
17656SOL    HW154409   4.817   7.891   5.466
17656SOL    HW254410   4.955   7.859   5.385
17657SOL     OW54411   4.884   7.655   5.201
17657SOL    HW154412   4.884   7.719   5.278
17657SOL    HW254413   4.912   7.703   5.118
17658SOL     OW54414   3.764   7.992   4.838
17658SOL    HW154415   3.849   7.959   4.797
17658SOL    HW254416   3.777   8.007   4.936
17659SOL     OW54417   3.913   7.968   5.446
17659SOL    HW154418   3.972   7.928   5.376
17659SOL    HW254419   3.855   8.039   5.405
17660SOL     OW54420   4.539   8.020   4.049
17660SOL    HW154421   4.546   7.931   4.003
17660SOL    HW254422   4.445   8.054   4.041
17661SOL     OW54423   5.381   8.052   4.930
17661SOL    HW154424   5.343   7.983   4.992
17661SOL    HW254425   5.463   8.016   4.886
17662SOL     OW54426   4.395   7.912   4.993
17662SOL    HW154427   4.361   7.823   4.963
17662SOL    HW254428   4.421   7.966   4.913
17663SOL     OW54429   5.450   7.583   4.247
17663SOL    HW154430   5.523   7.566   4.180
17663SOL    HW254431   5.419   7.496   4.285
17664SOL     OW54432   5.565   7.623   4.687
17664SOL    HW154433   5.604   7.538   4.651
17664SOL    HW254434   5.467   7.625   4.668
17665SOL     OW54435   3.987   7.774   4.444
17665SOL    HW154436   3.908   7.825   4.410
17665SOL    HW254437   3.978   7.759   4.542
17666SOL     OW54438   4.738   7.684   4.695
17666SOL    HW154439   4.730   7.648   4.602
17666SOL    HW254440   4.736   7.608   4.760
17667SOL     OW54441   5.433   7.833   5.105
17667SOL    HW154442   5.506   7.902   5.109
17667SOL    HW254443   5.461   7.758   5.046
17668SOL     OW54444   4.396   7.651   5.213
17668SOL    HW154445   4.486   7.635   5.173
17668SOL    HW254446   4.404   7.656   5.312
17669SOL     OW54447   3.799   7.793   3.757
17669SOL    HW154448   3.707   7.765   3.728
17669SOL    HW254449   3.830   7.870   3.701
17670SOL     OW54450   4.440   8.013   5.432
17670SOL    HW154451   4.459   8.078   5.506
17670SOL    HW254452   4.500   7.933   5.441
17671SOL     OW54453   4.949   7.773   4.173
17671SOL    HW154454   5.014   7.699   4.162
17671SOL    HW254455   4.969   7.823   4.257
17672SOL     OW54456   4.318   8.193   4.376
17672SOL    HW154457   4.368   8.278   4.357
17672SOL    HW254458   4.230   8.195   4.328
17673SOL     OW54459   5.501   7.790   5.366
17673SOL    HW154460   5.484   7.821   5.272
17673SOL    HW254461   5.417   7.753   5.404
17674SOL     OW54462   5.548   7.640   4.951
17674SOL    HW154463   5.544   7.550   4.995
17674SOL    HW254464   5.551   7.629   4.852
17675SOL     OW54465   4.152   7.872   4.244
17675SOL    HW154466   4.182   7.800   4.182
17675SOL    HW254467   4.113   7.832   4.327
17676SOL     OW54468   5.148   7.662   4.836
17676SOL    HW154469   5.200   7.597   4.891
17676SOL    HW254470   5.099   7.725   4.897
17677SOL     OW54471   4.725   7.482   4.878
17677SOL    HW154472   4.662   7.410   4.847
17677SOL    HW254473   4.818   7.446   4.878
17678SOL     OW54474   5.076   7.500   3.892
17678SOL    HW154475   5.111   7.459   3.808
17678SOL    HW254476   4.986   7.462   3.912
17679SOL     OW54477   5.024   7.901   4.415
17679SOL    HW154478   4.965   7.981   4.419
17679SOL    HW254479   5.039   7.866   4.508
17680SOL     OW54480   5.317   7.669   4.606
17680SOL    HW154481   5.233   7.668   4.660
17680SOL    HW254482   5.319   7.752   4.550
17681SOL     OW54483   3.949   7.723   6.582
17681SOL    HW154484   3.984   7.706   6.674
17681SOL    HW254485   3.861   7.678   6.570
17682SOL     OW54486   3.743   7.816   6.233
17682SOL    HW154487   3.661   7.859   6.272
17682SOL    HW254488   3.715   7.743   6.170
17683SOL     OW54489   5.479   8.055   5.817
17683SOL    HW154490   5.467   8.042   5.718
17683SOL    HW254491   5.449   7.974   5.866
17684SOL     OW54492   4.162   7.840   7.085
17684SOL    HW154493   4.244   7.784   7.094
17684SOL    HW254494   4.081   7.782   7.089
17685SOL     OW54495   5.327   7.895   6.323
17685SOL    HW154496   5.253   7.941   6.273
17685SOL    HW254497   5.378   7.963   6.376
17686SOL     OW54498   5.318   7.562   7.066
17686SOL    HW154499   5.300   7.629   6.994
17686SOL    HW254500   5.315   7.608   7.155
17687SOL     OW54501   3.846   8.091   6.149
17687SOL    HW154502   3.801   8.003   6.166
17687SOL    HW254503   3.845   8.145   6.233
17688SOL     OW54504   4.533   7.452   6.088
17688SOL    HW154505   4.573   7.543   6.079
17688SOL    HW254506   4.433   7.460   6.094
17689SOL     OW54507   4.041   7.699   7.387
17689SOL    HW154508   4.112   7.770   7.393
17689SOL    HW254509   3.953   7.738   7.415
17690SOL     OW54510   5.005   7.793   6.530
17690SOL    HW154511   4.919   7.743   6.517
17690SOL    HW254512   5.067   7.739   6.586
17691SOL     OW54513   5.118   7.917   7.260
17691SOL    HW154514   5.098   7.960   7.348
17691SOL    HW254515   5.196   7.855   7.269
17692SOL     OW54516   4.697   8.338   7.158
17692SOL    HW154517   4.743   8.254   7.129
17692SOL    HW254518   4.641   8.372   7.083
17693SOL     OW54519   4.715   7.858   6.828
17693SOL    HW154520   4.638   7.892   6.882
17693SOL    HW254521   4.681   7.807   6.749
17694SOL     OW54522   4.589   7.796   5.781
17694SOL    HW154523   4.648   7.859   5.732
17694SOL    HW254524   4.608   7.702   5.752
17695SOL     OW54525   5.443   8.033   7.417
17695SOL    HW154526   5.417   8.122   7.381
17695SOL    HW254527   5.441   7.965   7.344
17696SOL     OW54528   4.274   7.644   6.471
17696SOL    HW154529   4.269   7.639   6.571
17696SOL    HW254530   4.276   7.740   6.442
17697SOL     OW54531   3.926   7.733   7.084
17697SOL    HW154532   3.846   7.793   7.071
17697SOL    HW254533   3.916   7.684   7.170
17698SOL     OW54534   5.124   7.555   6.012
17698SOL    HW154535   5.100   7.518   5.922
17698SOL    HW254536   5.223   7.571   6.016
17699SOL     OW54537   5.271   7.670   7.315
17699SOL    HW154538   5.266   7.707   7.407
17699SOL    HW254539   5.199   7.601   7.303
17700SOL     OW54540   4.338   7.570   5.703
17700SOL    HW154541   4.436   7.548   5.710
17700SOL    HW254542   4.307   7.553   5.610
17701SOL     OW54543   4.505   7.712   7.335
17701SOL    HW154544   4.572   7.651   7.378
17701SOL    HW254545   4.432   7.731   7.400
17702SOL     OW54546   5.075   8.038   7.019
17702SOL    HW154547   5.103   7.995   7.104
17702SOL    HW254548   5.100   8.134   7.020
17703SOL     OW54549   4.263   7.512   6.098
17703SOL    HW154550   4.182   7.513   6.156
17703SOL    HW254551   4.266   7.595   6.043
17704SOL     OW54552   4.021   7.483   5.757
17704SOL    HW154553   4.070   7.567   5.736
17704SOL    HW254554   4.083   7.418   5.802
17705SOL     OW54555   4.659   7.684   6.066
17705SOL    HW154556   4.611   7.725   5.988
17705SOL    HW254557   4.758   7.682   6.047
17706SOL     OW54558   3.802   8.004   6.972
17706SOL    HW154559   3.894   8.003   6.931
17706SOL    HW254560   3.796   8.078   7.039
17707SOL     OW54561   4.285   7.670   6.733
17707SOL    HW154562   4.323   7.586   6.770
17707SOL    HW254563   4.197   7.689   6.777
17708SOL     OW54564   4.741   7.487   6.339
17708SOL    HW154565   4.669   7.492   6.270
17708SOL    HW254566   4.717   7.418   6.408
17709SOL     OW54567   5.190   8.038   6.578
17709SOL    HW154568   5.160   7.943   6.585
17709SOL    HW254569   5.263   8.054   6.644
17710SOL     OW54570   4.251   7.704   5.914
17710SOL    HW154571   4.278   7.645   5.839
17710SOL    HW254572   4.251   7.799   5.883
17711SOL     OW54573   4.639   7.537   6.988
17711SOL    HW154574   4.664   7.517   6.893
17711SOL    HW254575   4.711   7.593   7.030
17712SOL     OW54576   4.998   7.834   6.848
17712SOL    HW154577   5.019   7.908   6.912
17712SOL    HW254578   4.909   7.851   6.805
17713SOL     OW54579   4.290   7.985   6.451
17713SOL    HW154580   4.302   8.051   6.377
17713SOL    HW254581   4.336   8.019   6.534
17714SOL     OW54582   4.737   7.553   7.356
17714SOL    HW154583   4.743   7.638   7.304
17714SOL    HW254584   4.769   7.477   7.299
17715SOL     OW54585   4.228   7.498   7.326
17715SOL    HW154586   4.186   7.441   7.256
17715SOL    HW254587   4.162   7.567   7.358
17716SOL     OW54588   4.031   7.661   6.817
17716SOL    HW154589   4.008   7.698   6.907
17716SOL    HW254590   4.001   7.566   6.811
17717SOL     OW54591   4.456   8.082   6.650
17717SOL    HW154592   4.515   8.056   6.574
17717SOL    HW254593   4.428   8.178   6.639
17718SOL     OW54594   4.031   7.511   6.204
17718SOL    HW154595   4.020   7.605   6.237
17718SOL    HW254596   4.026   7.448   6.281
17719SOL     OW54597   5.346   7.815   5.960
17719SOL    HW154598   5.348   7.739   6.024
17719SOL    HW254599   5.298   7.892   6.000
17720SOL     OW54600   5.264   7.722   5.711
17720SOL    HW154601   5.203   7.647   5.734
17720SOL    HW254602   5.286   7.774   5.794
17721SOL     OW54603   5.027   8.286   5.628
17721SOL    HW154604   5.061   8.193   5.643
17721SOL    HW254605   5.045   8.313   5.533
17722SOL     OW54606   4.063   7.957   6.592
17722SOL    HW154607   4.011   7.874   6.575
17722SOL    HW254608   4.140   7.962   6.528
17723SOL     OW54609   4.862   7.828   7.264
17723SOL    HW154610   4.817   7.891   7.328
17723SOL    HW254611   4.955   7.859   7.247
17724SOL     OW54612   4.884   7.655   7.063
17724SOL    HW154613   4.884   7.719   7.140
17724SOL    HW254614   4.912   7.703   6.980
17725SOL     OW54615   3.764   7.992   6.700
17725SOL    HW154616   3.849   7.959   6.659
17725SOL    HW254617   3.777   8.007   6.798
17726SOL     OW54618   3.913   7.968   7.308
17726SOL    HW154619   3.972   7.928   7.238
17726SOL    HW254620   3.855   8.039   7.267
17727SOL     OW54621   4.539   8.020   5.911
17727SOL    HW154622   4.546   7.931   5.865
17727SOL    HW254623   4.445   8.054   5.903
17728SOL     OW54624   5.381   8.052   6.792
17728SOL    HW154625   5.343   7.983   6.854
17728SOL    HW254626   5.463   8.016   6.748
17729SOL     OW54627   4.395   7.912   6.855
17729SOL    HW154628   4.361   7.823   6.825
17729SOL    HW254629   4.421   7.966   6.775
17730SOL     OW54630   5.450   7.583   6.109
17730SOL    HW154631   5.523   7.566   6.042
17730SOL    HW254632   5.419   7.496   6.147
17731SOL     OW54633   5.565   7.623   6.549
17731SOL    HW154634   5.604   7.538   6.513
17731SOL    HW254635   5.467   7.625   6.530
17732SOL     OW54636   3.987   7.774   6.306
17732SOL    HW154637   3.908   7.825   6.272
17732SOL    HW254638   3.978   7.759   6.404
17733SOL     OW54639   4.738   7.684   6.557
17733SOL    HW154640   4.730   7.648   6.464
17733SOL    HW254641   4.736   7.608   6.622
17734SOL     OW54642   5.433   7.833   6.967
17734SOL    HW154643   5.506   7.902   6.971
17734SOL    HW254644   5.461   7.758   6.908
17735SOL     OW54645   4.396   7.651   7.075
17735SOL    HW154646   4.486   7.635   7.035
17735SOL    HW254647   4.404   7.656   7.174
17736SOL     OW54648   3.799   7.793   5.619
17736SOL    HW154649   3.707   7.765   5.590
17736SOL    HW254650   3.830   7.870   5.563
17737SOL     OW54651   3.796   7.614   5.904
17737SOL    HW154652   3.779   7.697   5.850
17737SOL    HW254653   3.886   7.577   5.882
17738SOL     OW54654   4.440   8.013   7.294
17738SOL    HW154655   4.459   8.078   7.368
17738SOL    HW254656   4.500   7.933   7.303
17739SOL     OW54657   4.949   7.773   6.035
17739SOL    HW154658   5.014   7.699   6.024
17739SOL    HW254659   4.969   7.823   6.119
17740SOL     OW54660   4.318   8.193   6.238
17740SOL    HW154661   4.368   8.278   6.219
17740SOL    HW254662   4.230   8.195   6.190
17741SOL     OW54663   5.501   7.790   7.228
17741SOL    HW154664   5.484   7.821   7.134
17741SOL    HW254665   5.417   7.753   7.266
17742SOL     OW54666   5.548   7.640   6.813
17742SOL    HW154667   5.544   7.550   6.857
17742SOL    HW254668   5.551   7.629   6.714
17743SOL     OW54669   4.152   7.872   6.106
17743SOL    HW154670   4.182   7.800   6.044
17743SOL    HW254671   4.113   7.832   6.189
17744SOL     OW54672   5.148   7.662   6.698
17744SOL    HW154673   5.200   7.597   6.753
17744SOL    HW254674   5.099   7.725   6.759
17745SOL     OW54675   4.725   7.482   6.740
17745SOL    HW154676   4.662   7.410   6.709
17745SOL    HW254677   4.818   7.446   6.740
17746SOL     OW54678   5.076   7.500   5.754
17746SOL    HW154679   5.111   7.459   5.670
17746SOL    HW254680   4.986   7.462   5.774
17747SOL     OW54681   5.024   7.901   6.277
17747SOL    HW154682   4.965   7.981   6.281
17747SOL    HW254683   5.039   7.866   6.370
17748SOL     OW54684   5.317   7.669   6.468
17748SOL    HW154685   5.233   7.668   6.522
17748SOL    HW254686   5.319   7.752   6.412
17749SOL     OW54687   3.949   7.723   8.444
17749SOL    HW154688   3.984   7.706   8.536
17749SOL    HW254689   3.861   7.678   8.432
17750SOL     OW54690   3.743   7.816   8.095
17750SOL    HW154691   3.661   7.859   8.134
17750SOL    HW254692   3.715   7.743   8.032
17751SOL     OW54693   5.479   8.055   7.679
17751SOL    HW154694   5.467   8.042   7.580
17751SOL    HW254695   5.449   7.974   7.728
17752SOL     OW54696   4.162   7.840   8.947
17752SOL    HW154697   4.244   7.784   8.956
17752SOL    HW254698   4.081   7.782   8.951
17753SOL     OW54699   5.327   7.895   8.185
17753SOL    HW154700   5.253   7.941   8.135
17753SOL    HW254701   5.378   7.963   8.238
17754SOL     OW54702   5.318   7.562   8.928
17754SOL    HW154703   5.300   7.629   8.856
17754SOL    HW254704   5.315   7.608   9.017
17755SOL     OW54705   3.846   8.091   8.011
17755SOL    HW154706   3.801   8.003   8.028
17755SOL    HW254707   3.845   8.145   8.095
17756SOL     OW54708   4.533   7.452   7.950
17756SOL    HW154709   4.573   7.543   7.941
17756SOL    HW254710   4.433   7.460   7.956
17757SOL     OW54711   4.041   7.699   9.249
17757SOL    HW154712   4.112   7.770   9.255
17757SOL    HW254713   3.953   7.738   9.277
17758SOL     OW54714   5.005   7.793   8.392
17758SOL    HW154715   4.919   7.743   8.379
17758SOL    HW254716   5.067   7.739   8.448
17759SOL     OW54717   5.118   7.917   9.122
17759SOL    HW154718   5.098   7.960   9.210
17759SOL    HW254719   5.196   7.855   9.131
17760SOL     OW54720   4.697   8.338   9.020
17760SOL    HW154721   4.743   8.254   8.991
17760SOL    HW254722   4.641   8.372   8.945
17761SOL     OW54723   4.715   7.858   8.690
17761SOL    HW154724   4.638   7.892   8.744
17761SOL    HW254725   4.681   7.807   8.611
17762SOL     OW54726   4.589   7.796   7.643
17762SOL    HW154727   4.648   7.859   7.594
17762SOL    HW254728   4.608   7.702   7.614
17763SOL     OW54729   5.443   8.033   9.279
17763SOL    HW154730   5.417   8.122   9.243
17763SOL    HW254731   5.441   7.965   9.206
17764SOL     OW54732   4.274   7.644   8.333
17764SOL    HW154733   4.269   7.639   8.433
17764SOL    HW254734   4.276   7.740   8.304
17765SOL     OW54735   3.926   7.733   8.946
17765SOL    HW154736   3.846   7.793   8.933
17765SOL    HW254737   3.916   7.684   9.032
17766SOL     OW54738   5.124   7.555   7.874
17766SOL    HW154739   5.100   7.518   7.784
17766SOL    HW254740   5.223   7.571   7.878
17767SOL     OW54741   5.271   7.670   9.177
17767SOL    HW154742   5.266   7.707   9.269
17767SOL    HW254743   5.199   7.601   9.165
17768SOL     OW54744   4.338   7.570   7.565
17768SOL    HW154745   4.436   7.548   7.572
17768SOL    HW254746   4.307   7.553   7.472
17769SOL     OW54747   4.505   7.712   9.197
17769SOL    HW154748   4.572   7.651   9.240
17769SOL    HW254749   4.432   7.731   9.262
17770SOL     OW54750   5.075   8.038   8.881
17770SOL    HW154751   5.103   7.995   8.966
17770SOL    HW254752   5.100   8.134   8.882
17771SOL     OW54753   4.263   7.512   7.960
17771SOL    HW154754   4.182   7.513   8.018
17771SOL    HW254755   4.266   7.595   7.905
17772SOL     OW54756   4.021   7.483   7.619
17772SOL    HW154757   4.070   7.567   7.598
17772SOL    HW254758   4.083   7.418   7.664
17773SOL     OW54759   4.659   7.684   7.928
17773SOL    HW154760   4.611   7.725   7.850
17773SOL    HW254761   4.758   7.682   7.909
17774SOL     OW54762   3.802   8.004   8.834
17774SOL    HW154763   3.894   8.003   8.793
17774SOL    HW254764   3.796   8.078   8.901
17775SOL     OW54765   4.285   7.670   8.595
17775SOL    HW154766   4.323   7.586   8.632
17775SOL    HW254767   4.197   7.689   8.639
17776SOL     OW54768   4.741   7.487   8.201
17776SOL    HW154769   4.669   7.492   8.132
17776SOL    HW254770   4.717   7.418   8.270
17777SOL     OW54771   5.190   8.038   8.440
17777SOL    HW154772   5.160   7.943   8.447
17777SOL    HW254773   5.263   8.054   8.506
17778SOL     OW54774   4.251   7.704   7.776
17778SOL    HW154775   4.278   7.645   7.701
17778SOL    HW254776   4.251   7.799   7.745
17779SOL     OW54777   4.639   7.537   8.850
17779SOL    HW154778   4.664   7.517   8.755
17779SOL    HW254779   4.711   7.593   8.892
17780SOL     OW54780   4.998   7.834   8.710
17780SOL    HW154781   5.019   7.908   8.774
17780SOL    HW254782   4.909   7.851   8.667
17781SOL     OW54783   4.290   7.985   8.313
17781SOL    HW154784   4.302   8.051   8.239
17781SOL    HW254785   4.336   8.019   8.396
17782SOL     OW54786   4.737   7.553   9.218
17782SOL    HW154787   4.743   7.638   9.166
17782SOL    HW254788   4.769   7.477   9.161
17783SOL     OW54789   4.228   7.498   9.188
17783SOL    HW154790   4.186   7.441   9.118
17783SOL    HW254791   4.162   7.567   9.220
17784SOL     OW54792   4.031   7.661   8.679
17784SOL    HW154793   4.008   7.698   8.769
17784SOL    HW254794   4.001   7.566   8.673
17785SOL     OW54795   4.456   8.082   8.512
17785SOL    HW154796   4.515   8.056   8.436
17785SOL    HW254797   4.428   8.178   8.501
17786SOL     OW54798   4.031   7.511   8.066
17786SOL    HW154799   4.020   7.605   8.099
17786SOL    HW254800   4.026   7.448   8.143
17787SOL     OW54801   5.346   7.815   7.822
17787SOL    HW154802   5.348   7.739   7.886
17787SOL    HW254803   5.298   7.892   7.862
17788SOL     OW54804   5.264   7.722   7.573
17788SOL    HW154805   5.203   7.647   7.596
17788SOL    HW254806   5.286   7.774   7.656
17789SOL     OW54807   5.027   8.286   7.490
17789SOL    HW154808   5.061   8.193   7.505
17789SOL    HW254809   5.045   8.313   7.395
17790SOL     OW54810   4.063   7.957   8.454
17790SOL    HW154811   4.011   7.874   8.437
17790SOL    HW254812   4.140   7.962   8.390
17791SOL     OW54813   4.862   7.828   9.126
17791SOL    HW154814   4.817   7.891   9.190
17791SOL    HW254815   4.955   7.859   9.109
17792SOL     OW54816   4.884   7.655   8.925
17792SOL    HW154817   4.884   7.719   9.002
17792SOL    HW254818   4.912   7.703   8.842
17793SOL     OW54819   3.764   7.992   8.562
17793SOL    HW154820   3.849   7.959   8.521
17793SOL    HW254821   3.777   8.007   8.660
17794SOL     OW54822   3.913   7.968   9.170
17794SOL    HW154823   3.972   7.928   9.100
17794SOL    HW254824   3.855   8.039   9.129
17795SOL     OW54825   4.539   8.020   7.773
17795SOL    HW154826   4.546   7.931   7.727
17795SOL    HW254827   4.445   8.054   7.765
17796SOL     OW54828   5.381   8.052   8.654
17796SOL    HW154829   5.343   7.983   8.716
17796SOL    HW254830   5.463   8.016   8.610
17797SOL     OW54831   4.395   7.912   8.717
17797SOL    HW154832   4.361   7.823   8.687
17797SOL    HW254833   4.421   7.966   8.637
17798SOL     OW54834   5.450   7.583   7.971
17798SOL    HW154835   5.523   7.566   7.904
17798SOL    HW254836   5.419   7.496   8.009
17799SOL     OW54837   5.565   7.623   8.411
17799SOL    HW154838   5.604   7.538   8.375
17799SOL    HW254839   5.467   7.625   8.392
17800SOL     OW54840   3.987   7.774   8.168
17800SOL    HW154841   3.908   7.825   8.134
17800SOL    HW254842   3.978   7.759   8.266
17801SOL     OW54843   4.738   7.684   8.419
17801SOL    HW154844   4.730   7.648   8.326
17801SOL    HW254845   4.736   7.608   8.484
17802SOL     OW54846   5.433   7.833   8.829
17802SOL    HW154847   5.506   7.902   8.833
17802SOL    HW254848   5.461   7.758   8.770
17803SOL     OW54849   4.396   7.651   8.937
17803SOL    HW154850   4.486   7.635   8.897
17803SOL    HW254851   4.404   7.656   9.036
17804SOL     OW54852   3.799   7.793   7.481
17804SOL    HW154853   3.707   7.765   7.452
17804SOL    HW254854   3.830   7.870   7.425
17805SOL     OW54855   3.796   7.614   7.766
17805SOL    HW154856   3.779   7.697   7.712
17805SOL    HW254857   3.886   7.577   7.744
17806SOL     OW54858   4.440   8.013   9.156
17806SOL    HW154859   4.459   8.078   9.230
17806SOL    HW254860   4.500   7.933   9.165
17807SOL     OW54861   4.949   7.773   7.897
17807SOL    HW154862   5.014   7.699   7.886
17807SOL    HW254863   4.969   7.823   7.981
17808SOL     OW54864   4.318   8.193   8.100
17808SOL    HW154865   4.368   8.278   8.081
17808SOL    HW254866   4.230   8.195   8.052
17809SOL     OW54867   5.501   7.790   9.090
17809SOL    HW154868   5.484   7.821   8.996
17809SOL    HW254869   5.417   7.753   9.128
17810SOL     OW54870   5.548   7.640   8.675
17810SOL    HW154871   5.544   7.550   8.719
17810SOL    HW254872   5.551   7.629   8.576
17811SOL     OW54873   4.152   7.872   7.968
17811SOL    HW154874   4.182   7.800   7.906
17811SOL    HW254875   4.113   7.832   8.051
17812SOL     OW54876   5.148   7.662   8.560
17812SOL    HW154877   5.200   7.597   8.615
17812SOL    HW254878   5.099   7.725   8.621
17813SOL     OW54879   4.725   7.482   8.602
17813SOL    HW154880   4.662   7.410   8.571
17813SOL    HW254881   4.818   7.446   8.602
17814SOL     OW54882   5.076   7.500   7.616
17814SOL    HW154883   5.111   7.459   7.532
17814SOL    HW254884   4.986   7.462   7.636
17815SOL     OW54885   5.024   7.901   8.139
17815SOL    HW154886   4.965   7.981   8.143
17815SOL    HW254887   5.039   7.866   8.232
17816SOL     OW54888   5.317   7.669   8.330
17816SOL    HW154889   5.233   7.668   8.384
17816SOL    HW254890   5.319   7.752   8.274
17817SOL     OW54891   3.949   7.723  10.306
17817SOL    HW154892   3.984   7.706  10.398
17817SOL    HW254893   3.861   7.678  10.294
17818SOL     OW54894   3.743   7.816   9.957
17818SOL    HW154895   3.661   7.859   9.996
17818SOL    HW254896   3.715   7.743   9.894
17819SOL     OW54897   5.479   8.055   9.541
17819SOL    HW154898   5.467   8.042   9.442
17819SOL    HW254899   5.449   7.974   9.590
17820SOL     OW54900   4.162   7.840  10.809
17820SOL    HW154901   4.244   7.784  10.818
17820SOL    HW254902   4.081   7.782  10.813
17821SOL     OW54903   5.327   7.895  10.047
17821SOL    HW154904   5.253   7.941   9.997
17821SOL    HW254905   5.378   7.963  10.100
17822SOL     OW54906   5.318   7.562  10.790
17822SOL    HW154907   5.300   7.629  10.718
17822SOL    HW254908   5.315   7.608  10.879
17823SOL     OW54909   3.846   8.091   9.873
17823SOL    HW154910   3.801   8.003   9.890
17823SOL    HW254911   3.845   8.145   9.957
17824SOL     OW54912   4.533   7.452   9.812
17824SOL    HW154913   4.573   7.543   9.803
17824SOL    HW254914   4.433   7.460   9.818
17825SOL     OW54915   4.041   7.699  11.111
17825SOL    HW154916   4.112   7.770  11.117
17825SOL    HW254917   3.953   7.738  11.139
17826SOL     OW54918   5.005   7.793  10.254
17826SOL    HW154919   4.919   7.743  10.241
17826SOL    HW254920   5.067   7.739  10.310
17827SOL     OW54921   5.118   7.917  10.984
17827SOL    HW154922   5.098   7.960  11.072
17827SOL    HW254923   5.196   7.855  10.993
17828SOL     OW54924   4.697   8.338  10.882
17828SOL    HW154925   4.743   8.254  10.853
17828SOL    HW254926   4.641   8.372  10.807
17829SOL     OW54927   4.715   7.858  10.552
17829SOL    HW154928   4.638   7.892  10.606
17829SOL    HW254929   4.681   7.807  10.473
17830SOL     OW54930   4.589   7.796   9.505
17830SOL    HW154931   4.648   7.859   9.456
17830SOL    HW254932   4.608   7.702   9.476
17831SOL     OW54933   5.443   8.033  11.141
17831SOL    HW154934   5.417   8.122  11.105
17831SOL    HW254935   5.441   7.965  11.068
17832SOL     OW54936   4.274   7.644  10.195
17832SOL    HW154937   4.269   7.639  10.295
17832SOL    HW254938   4.276   7.740  10.166
17833SOL     OW54939   3.926   7.733  10.808
17833SOL    HW154940   3.846   7.793  10.795
17833SOL    HW254941   3.916   7.684  10.894
17834SOL     OW54942   5.124   7.555   9.736
17834SOL    HW154943   5.100   7.518   9.646
17834SOL    HW254944   5.223   7.571   9.740
17835SOL     OW54945   5.271   7.670  11.039
17835SOL    HW154946   5.266   7.707  11.131
17835SOL    HW254947   5.199   7.601  11.027
17836SOL     OW54948   4.338   7.570   9.427
17836SOL    HW154949   4.436   7.548   9.434
17836SOL    HW254950   4.307   7.553   9.334
17837SOL     OW54951   4.505   7.712  11.059
17837SOL    HW154952   4.572   7.651  11.102
17837SOL    HW254953   4.432   7.731  11.124
17838SOL     OW54954   5.075   8.038  10.743
17838SOL    HW154955   5.103   7.995  10.828
17838SOL    HW254956   5.100   8.134  10.744
17839SOL     OW54957   4.263   7.512   9.822
17839SOL    HW154958   4.182   7.513   9.880
17839SOL    HW254959   4.266   7.595   9.767
17840SOL     OW54960   4.021   7.483   9.481
17840SOL    HW154961   4.070   7.567   9.460
17840SOL    HW254962   4.083   7.418   9.526
17841SOL     OW54963   4.659   7.684   9.790
17841SOL    HW154964   4.611   7.725   9.712
17841SOL    HW254965   4.758   7.682   9.771
17842SOL     OW54966   3.802   8.004  10.696
17842SOL    HW154967   3.894   8.003  10.655
17842SOL    HW254968   3.796   8.078  10.763
17843SOL     OW54969   4.285   7.670  10.457
17843SOL    HW154970   4.323   7.586  10.494
17843SOL    HW254971   4.197   7.689  10.501
17844SOL     OW54972   4.741   7.487  10.063
17844SOL    HW154973   4.669   7.492   9.994
17844SOL    HW254974   4.717   7.418  10.132
17845SOL     OW54975   5.190   8.038  10.302
17845SOL    HW154976   5.160   7.943  10.309
17845SOL    HW254977   5.263   8.054  10.368
17846SOL     OW54978   4.251   7.704   9.638
17846SOL    HW154979   4.278   7.645   9.563
17846SOL    HW254980   4.251   7.799   9.607
17847SOL     OW54981   4.639   7.537  10.712
17847SOL    HW154982   4.664   7.517  10.617
17847SOL    HW254983   4.711   7.593  10.754
17848SOL     OW54984   4.998   7.834  10.572
17848SOL    HW154985   5.019   7.908  10.636
17848SOL    HW254986   4.909   7.851  10.529
17849SOL     OW54987   4.290   7.985  10.175
17849SOL    HW154988   4.302   8.051  10.101
17849SOL    HW254989   4.336   8.019  10.258
17850SOL     OW54990   4.737   7.553  11.080
17850SOL    HW154991   4.743   7.638  11.028
17850SOL    HW254992   4.769   7.477  11.023
17851SOL     OW54993   4.228   7.498  11.050
17851SOL    HW154994   4.186   7.441  10.980
17851SOL    HW254995   4.162   7.567  11.082
17852SOL     OW54996   4.031   7.661  10.541
17852SOL    HW154997   4.008   7.698  10.631
17852SOL    HW254998   4.001   7.566  10.535
17853SOL     OW54999   4.456   8.082  10.374
17853SOL    HW155000   4.515   8.056  10.298
17853SOL    HW255001   4.428   8.178  10.363
17854SOL     OW55002   4.031   7.511   9.928
17854SOL    HW155003   4.020   7.605   9.961
17854SOL    HW255004   4.026   7.448  10.005
17855SOL     OW55005   5.346   7.815   9.684
17855SOL    HW155006   5.348   7.739   9.748
17855SOL    HW255007   5.298   7.892   9.724
17856SOL     OW55008   5.264   7.722   9.435
17856SOL    HW155009   5.203   7.647   9.458
17856SOL    HW255010   5.286   7.774   9.518
17857SOL     OW55011   5.027   8.286   9.352
17857SOL    HW155012   5.061   8.193   9.367
17857SOL    HW255013   5.045   8.313   9.257
17858SOL     OW55014   4.063   7.957  10.316
17858SOL    HW155015   4.011   7.874  10.299
17858SOL    HW255016   4.140   7.962  10.252
17859SOL     OW55017   4.862   7.828  10.988
17859SOL    HW155018   4.817   7.891  11.052
17859SOL    HW255019   4.955   7.859  10.971
17860SOL     OW55020   4.884   7.655  10.787
17860SOL    HW155021   4.884   7.719  10.864
17860SOL    HW255022   4.912   7.703  10.704
17861SOL     OW55023   3.764   7.992  10.424
17861SOL    HW155024   3.849   7.959  10.383
17861SOL    HW255025   3.777   8.007  10.522
17862SOL     OW55026   3.913   7.968  11.032
17862SOL    HW155027   3.972   7.928  10.962
17862SOL    HW255028   3.855   8.039  10.991
17863SOL     OW55029   4.539   8.020   9.635
17863SOL    HW155030   4.546   7.931   9.589
17863SOL    HW255031   4.445   8.054   9.627
17864SOL     OW55032   5.381   8.052  10.516
17864SOL    HW155033   5.343   7.983  10.578
17864SOL    HW255034   5.463   8.016  10.472
17865SOL     OW55035   4.395   7.912  10.579
17865SOL    HW155036   4.361   7.823  10.549
17865SOL    HW255037   4.421   7.966  10.499
17866SOL     OW55038   5.450   7.583   9.833
17866SOL    HW155039   5.523   7.566   9.766
17866SOL    HW255040   5.419   7.496   9.871
17867SOL     OW55041   5.565   7.623  10.273
17867SOL    HW155042   5.604   7.538  10.237
17867SOL    HW255043   5.467   7.625  10.254
17868SOL     OW55044   3.987   7.774  10.030
17868SOL    HW155045   3.908   7.825   9.996
17868SOL    HW255046   3.978   7.759  10.128
17869SOL     OW55047   4.738   7.684  10.281
17869SOL    HW155048   4.730   7.648  10.188
17869SOL    HW255049   4.736   7.608  10.346
17870SOL     OW55050   5.433   7.833  10.691
17870SOL    HW155051   5.506   7.902  10.695
17870SOL    HW255052   5.461   7.758  10.632
17871SOL     OW55053   4.396   7.651  10.799
17871SOL    HW155054   4.486   7.635  10.759
17871SOL    HW255055   4.404   7.656  10.898
17872SOL     OW55056   3.799   7.793   9.343
17872SOL    HW155057   3.707   7.765   9.314
17872SOL    HW255058   3.830   7.870   9.287
17873SOL     OW55059   3.796   7.614   9.628
17873SOL    HW155060   3.779   7.697   9.574
17873SOL    HW255061   3.886   7.577   9.606
17874SOL     OW55062   4.440   8.013  11.018
17874SOL    HW155063   4.459   8.078  11.092
17874SOL    HW255064   4.500   7.933  11.027
17875SOL     OW55065   4.949   7.773   9.759
17875SOL    HW155066   5.014   7.699   9.748
17875SOL    HW255067   4.969   7.823   9.843
17876SOL     OW55068   4.318   8.193   9.962
17876SOL    HW155069   4.368   8.278   9.943
17876SOL    HW255070   4.230   8.195   9.914
17877SOL     OW55071   5.501   7.790  10.952
17877SOL    HW155072   5.484   7.821  10.858
17877SOL    HW255073   5.417   7.753  10.990
17878SOL     OW55074   5.548   7.640  10.537
17878SOL    HW155075   5.544   7.550  10.581
17878SOL    HW255076   5.551   7.629  10.438
17879SOL     OW55077   4.152   7.872   9.830
17879SOL    HW155078   4.182   7.800   9.768
17879SOL    HW255079   4.113   7.832   9.913
17880SOL     OW55080   5.148   7.662  10.422
17880SOL    HW155081   5.200   7.597  10.477
17880SOL    HW255082   5.099   7.725  10.483
17881SOL     OW55083   4.725   7.482  10.464
17881SOL    HW155084   4.662   7.410  10.433
17881SOL    HW255085   4.818   7.446  10.464
17882SOL     OW55086   5.076   7.500   9.478
17882SOL    HW155087   5.111   7.459   9.394
17882SOL    HW255088   4.986   7.462   9.498
17883SOL     OW55089   5.024   7.901  10.001
17883SOL    HW155090   4.965   7.981  10.005
17883SOL    HW255091   5.039   7.866  10.094
17884SOL     OW55092   5.317   7.669  10.192
17884SOL    HW155093   5.233   7.668  10.246
17884SOL    HW255094   5.319   7.752  10.136
17885SOL     OW55095   3.949   7.723  12.168
17885SOL    HW155096   3.984   7.706  12.260
17885SOL    HW255097   3.861   7.678  12.156
17886SOL     OW55098   3.743   7.816  11.819
17886SOL    HW155099   3.661   7.859  11.858
17886SOL    HW255100   3.715   7.743  11.756
17887SOL     OW55101   5.479   8.055  11.403
17887SOL    HW155102   5.467   8.042  11.304
17887SOL    HW255103   5.449   7.974  11.452
17888SOL     OW55104   5.327   7.895  11.909
17888SOL    HW155105   5.253   7.941  11.859
17888SOL    HW255106   5.378   7.963  11.962
17889SOL     OW55107   3.846   8.091  11.735
17889SOL    HW155108   3.801   8.003  11.752
17889SOL    HW255109   3.845   8.145  11.819
17890SOL     OW55110   4.533   7.452  11.674
17890SOL    HW155111   4.573   7.543  11.665
17890SOL    HW255112   4.433   7.460  11.680
17891SOL     OW55113   5.005   7.793  12.116
17891SOL    HW155114   4.919   7.743  12.103
17891SOL    HW255115   5.067   7.739  12.172
17892SOL     OW55116   4.715   7.858  12.414
17892SOL    HW155117   4.638   7.892  12.468
17892SOL    HW255118   4.681   7.807  12.335
17893SOL     OW55119   4.589   7.796  11.367
17893SOL    HW155120   4.648   7.859  11.318
17893SOL    HW255121   4.608   7.702  11.338
17894SOL     OW55122   4.274   7.644  12.057
17894SOL    HW155123   4.269   7.639  12.157
17894SOL    HW255124   4.276   7.740  12.028
17895SOL     OW55125   5.124   7.555  11.598
17895SOL    HW155126   5.100   7.518  11.508
17895SOL    HW255127   5.223   7.571  11.602
17896SOL     OW55128   4.338   7.570  11.289
17896SOL    HW155129   4.436   7.548  11.296
17896SOL    HW255130   4.307   7.553  11.196
17897SOL     OW55131   4.263   7.512  11.684
17897SOL    HW155132   4.182   7.513  11.742
17897SOL    HW255133   4.266   7.595  11.629
17898SOL     OW55134   4.021   7.483  11.343
17898SOL    HW155135   4.070   7.567  11.322
17898SOL    HW255136   4.083   7.418  11.388
17899SOL     OW55137   4.659   7.684  11.652
17899SOL    HW155138   4.611   7.725  11.574
17899SOL    HW255139   4.758   7.682  11.633
17900SOL     OW55140   3.802   8.004  12.558
17900SOL    HW155141   3.894   8.003  12.517
17900SOL    HW255142   3.796   8.078  12.625
17901SOL     OW55143   4.285   7.670  12.319
17901SOL    HW155144   4.323   7.586  12.356
17901SOL    HW255145   4.197   7.689  12.363
17902SOL     OW55146   4.741   7.487  11.925
17902SOL    HW155147   4.669   7.492  11.856
17902SOL    HW255148   4.717   7.418  11.994
17903SOL     OW55149   5.190   8.038  12.164
17903SOL    HW155150   5.160   7.943  12.171
17903SOL    HW255151   5.263   8.054  12.230
17904SOL     OW55152   4.251   7.704  11.500
17904SOL    HW155153   4.278   7.645  11.425
17904SOL    HW255154   4.251   7.799  11.469
17905SOL     OW55155   4.998   7.834  12.434
17905SOL    HW155156   5.019   7.908  12.498
17905SOL    HW255157   4.909   7.851  12.391
17906SOL     OW55158   4.290   7.985  12.037
17906SOL    HW155159   4.302   8.051  11.963
17906SOL    HW255160   4.336   8.019  12.120
17907SOL     OW55161   4.031   7.661  12.403
17907SOL    HW155162   4.008   7.698  12.493
17907SOL    HW255163   4.001   7.566  12.397
17908SOL     OW55164   4.456   8.082  12.236
17908SOL    HW155165   4.515   8.056  12.160
17908SOL    HW255166   4.428   8.178  12.225
17909SOL     OW55167   4.031   7.511  11.790
17909SOL    HW155168   4.020   7.605  11.823
17909SOL    HW255169   4.026   7.448  11.867
17910SOL     OW55170   5.346   7.815  11.546
17910SOL    HW155171   5.348   7.739  11.610
17910SOL    HW255172   5.298   7.892  11.586
17911SOL     OW55173   5.264   7.722  11.297
17911SOL    HW155174   5.203   7.647  11.320
17911SOL    HW255175   5.286   7.774  11.380
17912SOL     OW55176   4.063   7.957  12.178
17912SOL    HW155177   4.011   7.874  12.161
17912SOL    HW255178   4.140   7.962  12.114
17913SOL     OW55179   3.764   7.992  12.286
17913SOL    HW155180   3.849   7.959  12.245
17913SOL    HW255181   3.777   8.007  12.384
17914SOL     OW55182   4.539   8.020  11.497
17914SOL    HW155183   4.546   7.931  11.451
17914SOL    HW255184   4.445   8.054  11.489
17915SOL     OW55185   5.381   8.052  12.378
17915SOL    HW155186   5.343   7.983  12.440
17915SOL    HW255187   5.463   8.016  12.334
17916SOL     OW55188   4.395   7.912  12.441
17916SOL    HW155189   4.361   7.823  12.411
17916SOL    HW255190   4.421   7.966  12.361
17917SOL     OW55191   5.450   7.583  11.695
17917SOL    HW155192   5.523   7.566  11.628
17917SOL    HW255193   5.419   7.496  11.733
17918SOL     OW55194   5.565   7.623  12.135
17918SOL    HW155195   5.604   7.538  12.099
17918SOL    HW255196   5.467   7.625  12.116
17919SOL     OW55197   3.987   7.774  11.892
17919SOL    HW155198   3.908   7.825  11.858
17919SOL    HW255199   3.978   7.759  11.990
17920SOL     OW55200   4.738   7.684  12.143
17920SOL    HW155201   4.730   7.648  12.050
17920SOL    HW255202   4.736   7.608  12.208
17921SOL     OW55203   5.433   7.833  12.553
17921SOL    HW155204   5.506   7.902  12.557
17921SOL    HW255205   5.461   7.758  12.494
17922SOL     OW55206   3.799   7.793  11.205
17922SOL    HW155207   3.707   7.765  11.176
17922SOL    HW255208   3.830   7.870  11.149
17923SOL     OW55209   3.796   7.614  11.490
17923SOL    HW155210   3.779   7.697  11.436
17923SOL    HW255211   3.886   7.577  11.468
17924SOL     OW55212   4.949   7.773  11.621
17924SOL    HW155213   5.014   7.699  11.610
17924SOL    HW255214   4.969   7.823  11.705
17925SOL     OW55215   4.318   8.193  11.824
17925SOL    HW155216   4.368   8.278  11.805
17925SOL    HW255217   4.230   8.195  11.776
17926SOL     OW55218   5.548   7.640  12.399
17926SOL    HW155219   5.544   7.550  12.443
17926SOL    HW255220   5.551   7.629  12.300
17927SOL     OW55221   4.152   7.872  11.692
17927SOL    HW155222   4.182   7.800  11.630
17927SOL    HW255223   4.113   7.832  11.775
17928SOL     OW55224   5.148   7.662  12.284
17928SOL    HW155225   5.200   7.597  12.339
17928SOL    HW255226   5.099   7.725  12.345
17929SOL     OW55227   4.725   7.482  12.326
17929SOL    HW155228   4.662   7.410  12.295
17929SOL    HW255229   4.818   7.446  12.326
17930SOL     OW55230   5.076   7.500  11.340
17930SOL    HW155231   5.111   7.459  11.256
17930SOL    HW255232   4.986   7.462  11.360
17931SOL     OW55233   5.024   7.901  11.863
17931SOL    HW155234   4.965   7.981  11.867
17931SOL    HW255235   5.039   7.866  11.956
17932SOL     OW55236   5.317   7.669  12.054
17932SOL    HW155237   5.233   7.668  12.108
17932SOL    HW255238   5.319   7.752  11.998
17933SOL     OW55239   5.816   0.628   0.113
17933SOL    HW155240   5.723   0.626   0.150
17933SOL    HW255241   5.817   0.589   0.021
17934SOL     OW55242   5.811   0.275   0.996
17934SOL    HW155243   5.846   0.258   1.088
17934SOL    HW255244   5.723   0.230   0.984
17935SOL     OW55245   5.605   0.368   0.647
17935SOL    HW155246   5.523   0.411   0.686
17935SOL    HW255247   5.577   0.295   0.584
17936SOL     OW55248   6.155   1.275   1.165
17936SOL    HW155249   6.062   1.268   1.128
17936SOL    HW255250   6.166   1.364   1.209
17937SOL     OW55251   7.141   1.511   0.703
17937SOL    HW155252   7.084   1.495   0.784
17937SOL    HW255253   7.082   1.521   0.623
17938SOL     OW55254   6.721   0.703   0.717
17938SOL    HW155255   6.778   0.781   0.692
17938SOL    HW255256   6.661   0.729   0.793
17939SOL     OW55257   7.341   0.607   0.231
17939SOL    HW155258   7.329   0.594   0.132
17939SOL    HW255259   7.311   0.526   0.280
17940SOL     OW55260   6.354   1.144   1.023
17940SOL    HW155261   6.276   1.161   1.083
17940SOL    HW255262   6.388   1.231   0.987
17941SOL     OW55263   6.436   0.798   1.823
17941SOL    HW155264   6.432   0.874   1.888
17941SOL    HW255265   6.458   0.834   1.732
17942SOL     OW55266   6.271   1.012   0.665
17942SOL    HW155267   6.340   0.996   0.735
17942SOL    HW255268   6.198   1.069   0.703
17943SOL     OW55269   6.272   1.161   1.803
17943SOL    HW155270   6.332   1.240   1.817
17943SOL    HW255271   6.186   1.192   1.762
17944SOL     OW55272   5.921   1.435   1.061
17944SOL    HW155273   5.843   1.404   1.008
17944SOL    HW255274   5.979   1.493   1.004
17945SOL     OW55275   7.046   1.505   1.339
17945SOL    HW155276   7.070   1.599   1.365
17945SOL    HW255277   7.030   1.451   1.421
17946SOL     OW55278   6.024   0.392   1.499
17946SOL    HW155279   6.106   0.336   1.508
17946SOL    HW255280   5.943   0.334   1.503
17947SOL     OW55281   7.189   0.447   0.737
17947SOL    HW155282   7.115   0.493   0.687
17947SOL    HW255283   7.240   0.515   0.790
17948SOL     OW55284   5.817   1.713   0.483
17948SOL    HW155285   5.851   1.790   0.537
17948SOL    HW255286   5.861   1.713   0.393
17949SOL     OW55287   6.713   1.341   1.690
17949SOL    HW155288   6.760   1.341   1.778
17949SOL    HW255289   6.665   1.254   1.679
17950SOL     OW55290   5.816   1.434   0.538
17950SOL    HW155291   5.790   1.530   0.538
17950SOL    HW255292   5.745   1.380   0.583
17951SOL     OW55293   5.826   1.091   0.886
17951SOL    HW155294   5.840   1.007   0.938
17951SOL    HW255295   5.771   1.155   0.941
17952SOL     OW55296   6.206   1.786   1.439
17952SOL    HW155297   6.114   1.769   1.474
17952SOL    HW255298   6.234   1.878   1.465
17953SOL     OW55299   6.192   0.964   0.123
17953SOL    HW155300   6.199   1.048   0.069
17953SOL    HW255301   6.238   0.977   0.211
17954SOL     OW55302   7.180   0.114   1.480
17954SOL    HW155303   7.162   0.181   1.408
17954SOL    HW255304   7.177   0.160   1.569
17955SOL     OW55305   5.708   0.643   0.563
17955SOL    HW155306   5.663   0.555   0.580
17955SOL    HW255307   5.707   0.697   0.647
17956SOL     OW55308   7.428   1.767   0.359
17956SOL    HW155309   7.482   1.738   0.439
17956SOL    HW255310   7.458   1.857   0.330
17957SOL     OW55311   5.613   1.596   0.117
17957SOL    HW155312   5.594   1.500   0.138
17957SOL    HW255313   5.580   1.654   0.192
17958SOL     OW55314   7.275   0.922   0.612
17958SOL    HW155315   7.370   0.893   0.620
17958SOL    HW255316   7.267   0.987   0.537
17959SOL     OW55317   7.227   1.108   0.432
17959SOL    HW155318   7.313   1.110   0.380
17959SOL    HW255319   7.241   1.155   0.520
17960SOL     OW55320   5.699   0.737   1.597
17960SOL    HW155321   5.787   0.724   1.642
17960SOL    HW255322   5.686   0.834   1.575
17961SOL     OW55323   6.199   1.365   0.726
17961SOL    HW155324   6.150   1.278   0.735
17961SOL    HW255325   6.176   1.408   0.639
17962SOL     OW55326   6.879   1.228   1.423
17962SOL    HW155327   6.916   1.155   1.365
17962SOL    HW255328   6.931   1.233   1.508
17963SOL     OW55329   6.395   0.004   0.502
17963SOL    HW155330   6.435   0.095   0.493
17963SOL    HW255331   6.295   0.012   0.508
17964SOL     OW55332   5.783   0.976   1.264
17964SOL    HW155333   5.872   0.931   1.250
17964SOL    HW255334   5.710   0.911   1.245
17965SOL     OW55335   7.111   0.999   0.190
17965SOL    HW155336   7.048   0.923   0.203
17965SOL    HW255337   7.159   1.017   0.276
17966SOL     OW55338   6.773   1.792   1.616
17966SOL    HW155339   6.797   1.852   1.540
17966SOL    HW255340   6.780   1.697   1.586
17967SOL     OW55341   5.903   0.251   1.801
17967SOL    HW155342   5.974   0.322   1.807
17967SOL    HW255343   5.815   0.290   1.829
17968SOL     OW55344   7.052   1.417   0.953
17968SOL    HW155345   6.993   1.423   1.033
17968SOL    HW255346   7.037   1.329   0.907
17969SOL     OW55347   7.253   1.714   0.572
17969SOL    HW155348   7.212   1.691   0.484
17969SOL    HW255349   7.235   1.640   0.637
17970SOL     OW55350   6.184   0.729   0.270
17970SOL    HW155351   6.208   0.798   0.202
17970SOL    HW255352   6.106   0.762   0.324
17971SOL     OW55353   6.867   0.345   0.944
17971SOL    HW155354   6.781   0.295   0.931
17971SOL    HW255355   6.929   0.291   1.000
17972SOL     OW55356   7.162   1.662   0.307
17972SOL    HW155357   7.251   1.708   0.310
17972SOL    HW255358   7.141   1.638   0.212
17973SOL     OW55359   6.393   0.605   1.465
17973SOL    HW155360   6.346   0.602   1.554
17973SOL    HW255361   6.342   0.550   1.399
17974SOL     OW55362   6.980   0.469   1.674
17974SOL    HW155363   6.960   0.512   1.762
17974SOL    HW255364   7.058   0.407   1.683
17975SOL     OW55365   6.559   0.890   1.572
17975SOL    HW155366   6.605   0.806   1.543
17975SOL    HW255367   6.503   0.924   1.497
17976SOL     OW55368   6.577   0.410   1.242
17976SOL    HW155369   6.500   0.444   1.296
17976SOL    HW255370   6.543   0.359   1.163
17977SOL     OW55371   6.627   0.701   0.429
17977SOL    HW155372   6.653   0.697   0.525
17977SOL    HW255373   6.542   0.650   0.415
17978SOL     OW55374   5.662   0.811   0.789
17978SOL    HW155375   5.761   0.799   0.798
17978SOL    HW255376   5.638   0.906   0.810
17979SOL     OW55377   5.716   1.821   1.571
17979SOL    HW155378   5.706   1.806   1.670
17979SOL    HW255379   5.630   1.857   1.535
17980SOL     OW55380   6.451   0.348   0.195
17980SOL    HW155381   6.510   0.411   0.146
17980SOL    HW255382   6.470   0.254   0.166
17981SOL     OW55383   7.305   0.585   1.831
17981SOL    HW155384   7.279   0.674   1.795
17981SOL    HW255385   7.303   0.517   1.758
17982SOL     OW55386   6.948   1.144   0.545
17982SOL    HW155387   7.031   1.115   0.497
17982SOL    HW255388   6.899   1.211   0.489
17983SOL     OW55389   6.136   0.196   0.885
17983SOL    HW155390   6.131   0.191   0.985
17983SOL    HW255391   6.138   0.292   0.856
17984SOL     OW55392   6.594   1.456   0.477
17984SOL    HW155393   6.548   1.528   0.425
17984SOL    HW255394   6.590   1.476   0.575
17985SOL     OW55395   5.937   1.801   0.853
17985SOL    HW155396   5.987   1.715   0.859
17985SOL    HW255397   6.002   1.878   0.850
17986SOL     OW55398   7.381   1.066   0.873
17986SOL    HW155399   7.319   1.051   0.797
17986SOL    HW255400   7.329   1.077   0.958
17987SOL     OW55401   6.813   1.550   1.506
17987SOL    HW155402   6.819   1.473   1.570
17987SOL    HW255403   6.761   1.524   1.426
17988SOL     OW55404   5.907   0.943   0.242
17988SOL    HW155405   5.989   0.982   0.200
17988SOL    HW255406   5.880   0.861   0.193
17989SOL     OW55407   7.044   0.735   0.728
17989SOL    HW155408   7.039   0.670   0.803
17989SOL    HW255409   7.124   0.794   0.741
17990SOL     OW55410   6.047   1.266   1.727
17990SOL    HW155411   5.997   1.267   1.641
17990SOL    HW255412   5.984   1.248   1.803
17991SOL     OW55413   6.697   1.776   0.237
17991SOL    HW155414   6.637   1.714   0.287
17991SOL    HW255415   6.728   1.732   0.152
17992SOL     OW55416   5.788   0.285   1.498
17992SOL    HW155417   5.708   0.345   1.485
17992SOL    HW255418   5.778   0.236   1.584
17993SOL     OW55419   7.218   1.377   0.081
17993SOL    HW155420   7.186   1.471   0.071
17993SOL    HW255421   7.142   1.314   0.069
17994SOL     OW55422   6.050   1.743   0.323
17994SOL    HW155423   6.083   1.782   0.409
17994SOL    HW255424   6.126   1.736   0.258
17995SOL     OW55425   6.986   0.107   0.426
17995SOL    HW155426   6.962   0.070   0.336
17995SOL    HW255427   7.085   0.123   0.430
17996SOL     OW55428   5.835   1.785   1.241
17996SOL    HW155429   5.892   1.720   1.291
17996SOL    HW255430   5.819   1.752   1.148
17997SOL     OW55431   6.526   1.698   0.904
17997SOL    HW155432   6.606   1.641   0.925
17997SOL    HW255433   6.477   1.658   0.827
17998SOL     OW55434   5.968   0.700   0.480
17998SOL    HW155435   6.013   0.610   0.477
17998SOL    HW255436   5.874   0.689   0.513
17999SOL     OW55437   7.133   0.222   1.729
17999SOL    HW155438   7.128   0.259   1.821
17999SOL    HW255439   7.061   0.153   1.717
18000SOL     OW55440   6.200   0.122   0.117
18000SOL    HW155441   6.298   0.100   0.124
18000SOL    HW255442   6.169   0.105   0.024
18001SOL     OW55443   6.367   0.264   1.749
18001SOL    HW155444   6.434   0.203   1.792
18001SOL    HW255445   6.294   0.283   1.814
18002SOL     OW55446   6.474   1.514   1.195
18002SOL    HW155447   6.451   1.489   1.101
18002SOL    HW255448   6.535   1.445   1.234
18003SOL     OW55449   6.937   0.590   1.433
18003SOL    HW155450   6.965   0.547   1.518
18003SOL    HW255451   6.962   0.686   1.434
18004SOL     OW55452   6.389   1.402   0.924
18004SOL    HW155453   6.479   1.416   0.882
18004SOL    HW255454   6.318   1.404   0.853
18005SOL     OW55455   6.508   0.503   0.899
18005SOL    HW155456   6.483   0.494   0.803
18005SOL    HW255457   6.556   0.421   0.930
18006SOL     OW55458   6.125   0.064   0.512
18006SOL    HW155459   6.044   0.065   0.570
18006SOL    HW255460   6.128   0.147   0.457
18007SOL     OW55461   7.020   1.188   0.041
18007SOL    HW155462   7.052   1.112   0.098
18007SOL    HW255463   6.928   1.215   0.071
18008SOL     OW55464   5.883   0.035   0.171
18008SOL    HW155465   5.932   0.119   0.150
18008SOL    HW255466   5.945  -0.030   0.216
18009SOL     OW55467   6.521   0.236   0.480
18009SOL    HW155468   6.473   0.277   0.402
18009SOL    HW255469   6.620   0.234   0.461
18010SOL     OW55470   6.662   0.683   1.464
18010SOL    HW155471   6.582   0.622   1.467
18010SOL    HW255472   6.743   0.630   1.440
18011SOL     OW55473   6.813   1.570   0.793
18011SOL    HW155474   6.834   1.644   0.728
18011SOL    HW255475   6.881   1.570   0.866
18012SOL     OW55476   6.045   1.152   0.741
18012SOL    HW155477   5.974   1.125   0.806
18012SOL    HW255478   6.019   1.124   0.648
18013SOL     OW55479   6.857   1.797   0.591
18013SOL    HW155480   6.901   1.861   0.527
18013SOL    HW255481   6.807   1.849   0.661
18014SOL     OW55482   6.618   0.549   0.016
18014SOL    HW155483   6.577   0.631  -0.023
18014SOL    HW255484   6.682   0.575   0.089
18015SOL     OW55485   5.664   0.556   1.386
18015SOL    HW155486   5.756   0.555   1.345
18015SOL    HW255487   5.658   0.630   1.453
18016SOL     OW55488   6.147   0.222   1.147
18016SOL    HW155489   6.185   0.138   1.184
18016SOL    HW255490   6.059   0.241   1.191
18017SOL     OW55491   6.452   0.454   0.642
18017SOL    HW155492   6.420   0.526   0.580
18017SOL    HW255493   6.476   0.373   0.589
18018SOL     OW55494   6.603   0.039   0.753
18018SOL    HW155495   6.531   0.044   0.684
18018SOL    HW255496   6.579  -0.030   0.822
18019SOL     OW55497   7.015   1.173   0.867
18019SOL    HW155498   6.960   1.089   0.860
18019SOL    HW255499   7.041   1.202   0.775
18020SOL     OW55500   7.052   0.590   0.992
18020SOL    HW155501   7.022   0.495   0.999
18020SOL    HW255502   7.125   0.606   1.058
18021SOL     OW55503   7.443   0.833   0.377
18021SOL    HW155504   7.485   0.769   0.441
18021SOL    HW255505   7.405   0.782   0.299
18022SOL     OW55506   6.074   1.385   0.174
18022SOL    HW155507   5.987   1.370   0.221
18022SOL    HW255508   6.057   1.411   0.079
18023SOL     OW55509   7.250   1.280   0.657
18023SOL    HW155510   7.349   1.288   0.671
18023SOL    HW255511   7.205   1.364   0.688
18024SOL     OW55512   6.976   0.575   0.078
18024SOL    HW155513   6.922   0.554   0.159
18024SOL    HW255514   7.067   0.534   0.087
18025SOL     OW55515   6.113   0.256   0.328
18025SOL    HW155516   6.140   0.197   0.253
18025SOL    HW255517   6.113   0.351   0.297
18026SOL     OW55518   7.340   1.223   1.588
18026SOL    HW155519   7.431   1.184   1.575
18026SOL    HW255520   7.348   1.319   1.612
18027SOL     OW55521   6.650   1.347   1.340
18027SOL    HW155522   6.570   1.324   1.395
18027SOL    HW255523   6.733   1.321   1.389
18028SOL     OW55524   7.178   1.629   1.625
18028SOL    HW155525   7.205   1.663   1.535
18028SOL    HW255526   7.257   1.591   1.671
18029SOL     OW55527   6.697   1.195   1.100
18029SOL    HW155528   6.657   1.239   1.181
18029SOL    HW255529   6.656   1.232   1.017
18030SOL     OW55530   7.224   1.099   1.079
18030SOL    HW155531   7.229   1.180   1.138
18030SOL    HW255532   7.138   1.101   1.028
18031SOL     OW55533   6.501   0.089   1.402
18031SOL    HW155534   6.526   0.069   1.307
18031SOL    HW255535   6.573   0.145   1.444
18032SOL     OW55536   6.566   1.116   1.719
18032SOL    HW155537   6.467   1.122   1.729
18032SOL    HW255538   6.589   1.036   1.663
18033SOL     OW55539   6.291   1.050   0.368
18033SOL    HW155540   6.277   1.057   0.467
18033SOL    HW255541   6.375   0.999   0.350
18034SOL     OW55542   5.996   0.813   1.251
18034SOL    HW155543   6.082   0.825   1.301
18034SOL    HW255544   5.954   0.726   1.278
18035SOL     OW55545   6.860   0.386   1.262
18035SOL    HW155546   6.881   0.460   1.326
18035SOL    HW255547   6.771   0.403   1.219
18036SOL     OW55548   5.650   1.564   1.331
18036SOL    HW155549   5.604   1.646   1.297
18036SOL    HW255550   5.748   1.583   1.340
18037SOL     OW55551   5.953   1.100   0.501
18037SOL    HW155552   5.946   1.183   0.445
18037SOL    HW255553   5.957   1.020   0.441
18038SOL     OW55554   6.152   0.537   0.865
18038SOL    HW155555   6.164   0.603   0.791
18038SOL    HW255556   6.198   0.571   0.948
18039SOL     OW55557   6.838   1.348   0.388
18039SOL    HW155558   6.888   1.425   0.428
18039SOL    HW255559   6.743   1.350   0.420
18040SOL     OW55560   6.858   1.445   1.142
18040SOL    HW155561   6.905   1.458   1.229
18040SOL    HW255562   6.792   1.371   1.151
18041SOL     OW55563   7.168   0.639   0.472
18041SOL    HW155564   7.137   0.700   0.545
18041SOL    HW255565   7.218   0.691   0.403
18042SOL     OW55566   5.940   1.510   1.329
18042SOL    HW155567   5.919   1.466   1.242
18042SOL    HW255568   6.037   1.536   1.332
18043SOL     OW55569   5.988   0.751   1.598
18043SOL    HW155570   6.056   0.806   1.551
18043SOL    HW255571   6.028   0.663   1.625
18044SOL     OW55572   7.173   0.779   1.670
18044SOL    HW155573   7.081   0.817   1.665
18044SOL    HW255574   7.233   0.826   1.605
18045SOL     OW55575   6.599   0.105   1.770
18045SOL    HW155576   6.605   0.190   1.718
18045SOL    HW255577   6.631   0.029   1.713
18046SOL     OW55578   6.090   0.050   1.740
18046SOL    HW155579   6.048  -0.007   1.670
18046SOL    HW255580   6.024   0.119   1.772
18047SOL     OW55581   6.159   0.870   1.029
18047SOL    HW155582   6.203   0.959   1.020
18047SOL    HW255583   6.096   0.870   1.106
18048SOL     OW55584   6.946   0.862   1.045
18048SOL    HW155585   6.871   0.862   0.979
18048SOL    HW255586   6.983   0.770   1.054
18049SOL     OW55587   6.795   0.525   0.275
18049SOL    HW155588   6.808   0.441   0.329
18049SOL    HW255589   6.766   0.599   0.335
18050SOL     OW55590   5.893   0.213   1.231
18050SOL    HW155591   5.870   0.250   1.321
18050SOL    HW255592   5.863   0.118   1.225
18051SOL     OW55593   5.623   1.310   1.282
18051SOL    HW155594   5.676   1.261   1.350
18051SOL    HW255595   5.645   1.408   1.287
18052SOL     OW55596   6.318   0.634   1.064
18052SOL    HW155597   6.377   0.608   0.988
18052SOL    HW255598   6.290   0.730   1.053
18053SOL     OW55599   7.314   0.935   1.854
18053SOL    HW155600   7.268   0.928   1.765
18053SOL    HW255601   7.252   0.979   1.920
18054SOL     OW55602   5.893   0.063   0.618
18054SOL    HW155603   5.882   0.157   0.651
18054SOL    HW255604   5.888   0.000   0.695
18055SOL     OW55605   7.208   0.367   0.374
18055SOL    HW155606   7.210   0.291   0.438
18055SOL    HW255607   7.160   0.444   0.414
18056SOL     OW55608   6.609   0.766   0.966
18056SOL    HW155609   6.624   0.787   1.062
18056SOL    HW255610   6.579   0.671   0.957
18057SOL     OW55611   6.566   1.573   1.700
18057SOL    HW155612   6.546   1.617   1.612
18057SOL    HW255613   6.605   1.482   1.684
18058SOL     OW55614   7.445   1.518   1.605
18058SOL    HW155615   7.459   1.545   1.510
18058SOL    HW255616   7.528   1.540   1.658
18059SOL     OW55617   5.936   0.898   1.804
18059SOL    HW155618   6.012   0.942   1.852
18059SOL    HW255619   5.971   0.851   1.722
18060SOL     OW55620   7.126   0.274   0.125
18060SOL    HW155621   7.065   0.199   0.148
18060SOL    HW255622   7.148   0.326   0.208
18061SOL     OW55623   6.889   0.838   0.042
18061SOL    HW155624   6.923   0.745   0.057
18061SOL    HW255625   6.907   0.865  -0.053
18062SOL     OW55626   6.654   1.333   0.849
18062SOL    HW155627   6.661   1.249   0.794
18062SOL    HW255628   6.716   1.402   0.813
18063SOL     OW55629   5.905   0.810   0.949
18063SOL    HW155630   5.998   0.846   0.954
18063SOL    HW255631   5.899   0.725   1.001
18064SOL     OW55632   5.925   0.509   1.006
18064SOL    HW155633   5.873   0.426   0.989
18064SOL    HW255634   6.002   0.514   0.942
18065SOL     OW55635   6.724   0.380   1.678
18065SOL    HW155636   6.679   0.443   1.742
18065SOL    HW255637   6.817   0.411   1.661
18066SOL     OW55638   6.746   0.207   1.477
18066SOL    HW155639   6.746   0.271   1.554
18066SOL    HW255640   6.774   0.255   1.394
18067SOL     OW55641   5.674   1.801   0.927
18067SOL    HW155642   5.632   1.715   0.900
18067SOL    HW255643   5.768   1.804   0.893
18068SOL     OW55644   6.090   1.568   0.910
18068SOL    HW155645   6.156   1.642   0.919
18068SOL    HW255646   6.134   1.489   0.868
18069SOL     OW55647   6.588   0.796   1.238
18069SOL    HW155648   6.629   0.764   1.324
18069SOL    HW255649   6.492   0.769   1.235
18070SOL     OW55650   5.626   0.544   1.114
18070SOL    HW155651   5.711   0.511   1.073
18070SOL    HW255652   5.639   0.559   1.212
18071SOL     OW55653   5.775   0.520   1.722
18071SOL    HW155654   5.834   0.480   1.652
18071SOL    HW255655   5.717   0.591   1.681
18072SOL     OW55656   6.955   0.950   1.660
18072SOL    HW155657   6.994   1.039   1.680
18072SOL    HW255658   6.965   0.930   1.563
18073SOL     OW55659   6.401   0.572   0.325
18073SOL    HW155660   6.408   0.483   0.279
18073SOL    HW255661   6.307   0.606   0.317
18074SOL     OW55662   7.243   0.604   1.206
18074SOL    HW155663   7.205   0.535   1.268
18074SOL    HW255664   7.325   0.568   1.162
18075SOL     OW55665   5.838   1.564   1.744
18075SOL    HW155666   5.808   1.621   1.820
18075SOL    HW255667   5.831   1.467   1.770
18076SOL     OW55668   6.257   0.464   1.269
18076SOL    HW155669   6.223   0.375   1.239
18076SOL    HW255670   6.283   0.518   1.189
18077SOL     OW55671   6.516   1.678   1.465
18077SOL    HW155672   6.492   1.660   1.370
18077SOL    HW255673   6.546   1.772   1.475
18078SOL     OW55674   6.059   0.500   0.191
18078SOL    HW155675   6.120   0.580   0.195
18078SOL    HW255676   5.964   0.531   0.198
18079SOL     OW55677   5.745   1.137   1.466
18079SOL    HW155678   5.767   1.076   1.542
18079SOL    HW255679   5.755   1.088   1.380
18080SOL     OW55680   6.933   1.059   1.234
18080SOL    HW155681   6.957   0.996   1.160
18080SOL    HW255682   6.843   1.099   1.216
18081SOL     OW55683   6.888   0.855   0.309
18081SOL    HW155684   6.802   0.824   0.351
18081SOL    HW255685   6.884   0.841   0.210
18082SOL     OW55686   7.345   1.747   1.154
18082SOL    HW155687   7.406   1.777   1.081
18082SOL    HW255688   7.307   1.658   1.132
18083SOL     OW55689   6.838   1.731   1.128
18083SOL    HW155690   6.922   1.736   1.074
18083SOL    HW255691   6.815   1.635   1.146
18084SOL     OW55692   5.669   1.258   1.022
18084SOL    HW155693   5.664   1.257   1.122
18084SOL    HW255694   5.586   1.217   0.984
18085SOL     OW55695   6.274   1.662   1.716
18085SOL    HW155696   6.218   1.743   1.725
18085SOL    HW255697   6.326   1.666   1.630
18086SOL     OW55698   6.489   0.086   0.133
18086SOL    HW155699   6.540   0.087   0.047
18086SOL    HW255700   6.545   0.044   0.204
18087SOL     OW55701   7.312   0.135   0.523
18087SOL    HW155702   7.385   0.118   0.456
18087SOL    HW255703   7.281   0.048   0.561
18088SOL     OW55704   6.974   1.573   0.477
18088SOL    HW155705   7.041   1.585   0.403
18088SOL    HW255706   6.934   1.662   0.500
18089SOL     OW55707   5.716   1.794   1.851
18089SOL    HW155708   5.675   1.720   1.904
18089SOL    HW255709   5.780   1.845   1.909
18090SOL     OW55710   6.866   0.927   0.672
18090SOL    HW155711   6.926   0.846   0.674
18090SOL    HW255712   6.906   0.996   0.612
18091SOL     OW55713   6.416   1.273   1.422
18091SOL    HW155714   6.411   1.306   1.517
18091SOL    HW255715   6.330   1.292   1.376
18092SOL     OW55716   6.258   1.616   0.154
18092SOL    HW155717   6.267   1.626   0.055
18092SOL    HW255718   6.218   1.527   0.175
18093SOL     OW55719   7.236   1.720   1.394
18093SOL    HW155720   7.289   1.730   1.310
18093SOL    HW255721   7.209   1.810   1.428
18094SOL     OW55722   7.427   0.175   0.963
18094SOL    HW155723   7.466   0.090   0.927
18094SOL    HW255724   7.329   0.177   0.944
18095SOL     OW55725   5.849   0.326   0.720
18095SOL    HW155726   5.770   0.377   0.686
18095SOL    HW255727   5.840   0.311   0.818
18096SOL     OW55728   6.780   1.612   0.031
18096SOL    HW155729   6.786   1.519   0.068
18096SOL    HW255730   6.721   1.612  -0.049
18097SOL     OW55731   6.408   1.002   1.372
18097SOL    HW155732   6.448   1.001   1.280
18097SOL    HW255733   6.418   1.094   1.412
18098SOL     OW55734   6.502   0.910   0.291
18098SOL    HW155735   6.565   0.948   0.223
18098SOL    HW255736   6.542   0.827   0.330
18099SOL     OW55737   7.090   1.607   0.044
18099SOL    HW155738   6.998   1.644   0.051
18099SOL    HW255739   7.128   1.627  -0.046
18100SOL     OW55740   5.958   1.288   1.490
18100SOL    HW155741   5.945   1.381   1.456
18100SOL    HW255742   5.874   1.236   1.477
18101SOL     OW55743   7.200   1.292   1.289
18101SOL    HW155744   7.260   1.295   1.369
18101SOL    HW255745   7.125   1.356   1.302
18102SOL     OW55746   6.625   1.098   0.696
18102SOL    HW155747   6.555   1.051   0.750
18102SOL    HW255748   6.684   1.030   0.653
18103SOL     OW55749   6.600   0.236   0.971
18103SOL    HW155750   6.592   0.200   0.878
18103SOL    HW255751   6.598   0.160   1.036
18104SOL     OW55752   6.176   1.487   0.491
18104SOL    HW155753   6.218   1.429   0.421
18104SOL    HW255754   6.132   1.566   0.447
18105SOL     OW55755   7.295   0.385   1.381
18105SOL    HW155756   7.368   0.454   1.385
18105SOL    HW255757   7.323   0.310   1.322
18106SOL     OW55758   5.841   1.348   0.290
18106SOL    HW155759   5.745   1.349   0.263
18106SOL    HW255760   5.853   1.401   0.374
18107SOL     OW55761   5.691   1.013   1.726
18107SOL    HW155762   5.614   0.980   1.780
18107SOL    HW255763   5.776   0.983   1.768
18108SOL     OW55764   6.258   0.203   1.489
18108SOL    HW155765   6.348   0.187   1.449
18108SOL    HW255766   6.266   0.208   1.588
18109SOL     OW55767   7.026   0.856   1.398
18109SOL    HW155768   6.969   0.908   1.335
18109SOL    HW255769   7.122   0.868   1.374
18110SOL     OW55770   5.658   0.166   0.318
18110SOL    HW155771   5.641   0.249   0.264
18110SOL    HW255772   5.748   0.129   0.296
18111SOL     OW55773   6.769   1.335   0.119
18111SOL    HW155774   6.670   1.324   0.121
18111SOL    HW255775   6.803   1.350   0.212
18112SOL     OW55776   6.199   0.842   1.431
18112SOL    HW155777   6.255   0.923   1.414
18112SOL    HW255778   6.258   0.762   1.434
18113SOL     OW55779   7.079   1.767   0.959
18113SOL    HW155780   7.112   1.831   0.890
18113SOL    HW255781   7.145   1.761   1.034
18114SOL     OW55782   6.302   0.565   1.708
18114SOL    HW155783   6.321   0.630   1.782
18114SOL    HW255784   6.362   0.485   1.717
18115SOL     OW55785   7.036   1.220   1.633
18115SOL    HW155786   7.027   1.210   1.732
18115SOL    HW255787   7.132   1.213   1.607
18116SOL     OW55788   5.976   1.741   1.560
18116SOL    HW155789   5.885   1.782   1.558
18116SOL    HW255790   5.969   1.647   1.592
18117SOL     OW55791   7.260   0.883   1.254
18117SOL    HW155792   7.233   0.794   1.217
18117SOL    HW255793   7.261   0.951   1.181
18118SOL     OW55794   6.811   0.325   0.449
18118SOL    HW155795   6.876   0.251   0.438
18118SOL    HW255796   6.831   0.375   0.533
18119SOL     OW55797   6.180   0.745   0.652
18119SOL    HW155798   6.230   0.830   0.633
18119SOL    HW255799   6.092   0.747   0.604
18120SOL     OW55800   7.363   0.342   1.642
18120SOL    HW155801   7.346   0.373   1.548
18120SOL    HW255802   7.279   0.305   1.680
18121SOL     OW55803   7.316   0.934   1.517
18121SOL    HW155804   7.354   1.025   1.532
18121SOL    HW255805   7.308   0.917   1.418
18122SOL     OW55806   6.445   1.374   0.016
18122SOL    HW155807   6.399   1.389   0.104
18122SOL    HW255808   6.489   1.459  -0.014
18123SOL     OW55809   6.247   1.790   0.953
18123SOL    HW155810   6.201   1.878   0.940
18123SOL    HW255811   6.346   1.802   0.946
18124SOL     OW55812   6.445   0.956   0.861
18124SOL    HW155813   6.499   0.887   0.909
18124SOL    HW255814   6.413   1.025   0.927
18125SOL     OW55815   6.669   0.984   0.087
18125SOL    HW155816   6.646   1.037   0.005
18125SOL    HW255817   6.750   0.928   0.068
18126SOL     OW55818   7.447   1.569   0.851
18126SOL    HW155819   7.376   1.557   0.781
18126SOL    HW255820   7.448   1.490   0.911
18127SOL     OW55821   5.807   1.314   1.844
18127SOL    HW155822   5.742   1.241   1.823
18127SOL    HW255823   5.811   1.328   1.942
18128SOL     OW55824   5.665   1.240   0.653
18128SOL    HW155825   5.664   1.193   0.741
18128SOL    HW255826   5.747   1.212   0.602
18129SOL     OW55827   6.258   1.391   1.624
18129SOL    HW155828   6.180   1.341   1.662
18129SOL    HW255829   6.255   1.486   1.655
18130SOL     OW55830   7.410   0.192   1.227
18130SOL    HW155831   7.406   0.102   1.271
18130SOL    HW255832   7.413   0.181   1.128
18131SOL     OW55833   6.014   0.424   0.520
18131SOL    HW155834   6.044   0.352   0.458
18131SOL    HW255835   5.975   0.384   0.603
18132SOL     OW55836   7.291   1.487   1.104
18132SOL    HW155837   7.198   1.462   1.077
18132SOL    HW255838   7.317   1.437   1.186
18133SOL     OW55839   5.903   0.547   1.280
18133SOL    HW155840   5.941   0.488   1.352
18133SOL    HW255841   5.943   0.521   1.192
18134SOL     OW55842   6.398   1.586   0.687
18134SOL    HW155843   6.430   1.596   0.593
18134SOL    HW255844   6.319   1.524   0.689
18135SOL     OW55845   7.010   0.214   1.112
18135SOL    HW155846   7.062   0.149   1.167
18135SOL    HW255847   6.961   0.277   1.173
18136SOL     OW55848   6.587   0.034   1.154
18136SOL    HW155849   6.524  -0.038   1.123
18136SOL    HW255850   6.680  -0.002   1.154
18137SOL     OW55851   6.356   1.330   0.301
18137SOL    HW155852   6.310   1.243   0.318
18137SOL    HW255853   6.447   1.327   0.342
18138SOL     OW55854   6.204   1.567   1.284
18138SOL    HW155855   6.199   1.649   1.341
18138SOL    HW255856   6.293   1.564   1.239
18139SOL     OW55857   6.938   0.052   0.168
18139SOL    HW155858   6.973   0.011   0.084
18139SOL    HW255859   6.848   0.014   0.188
18140SOL     OW55860   6.886   0.453   0.691
18140SOL    HW155861   6.827   0.533   0.695
18140SOL    HW255862   6.901   0.418   0.784
18141SOL     OW55863   7.179   0.221   0.882
18141SOL    HW155864   7.095   0.220   0.936
18141SOL    HW255865   7.181   0.304   0.826
18142SOL     OW55866   5.625   1.077   0.300
18142SOL    HW155867   5.724   1.066   0.291
18142SOL    HW255868   5.585   0.991   0.332
18143SOL     OW55869   6.461   1.646   0.337
18143SOL    HW155870   6.384   1.611   0.283
18143SOL    HW255871   6.429   1.717   0.399
18144SOL     OW55872   5.816   0.628   1.975
18144SOL    HW155873   5.723   0.626   2.012
18144SOL    HW255874   5.817   0.589   1.883
18145SOL     OW55875   5.811   0.275   2.858
18145SOL    HW155876   5.846   0.258   2.950
18145SOL    HW255877   5.723   0.230   2.846
18146SOL     OW55878   5.605   0.368   2.509
18146SOL    HW155879   5.523   0.411   2.548
18146SOL    HW255880   5.577   0.295   2.446
18147SOL     OW55881   6.155   1.275   3.027
18147SOL    HW155882   6.062   1.268   2.990
18147SOL    HW255883   6.166   1.364   3.071
18148SOL     OW55884   7.141   1.511   2.565
18148SOL    HW155885   7.084   1.495   2.646
18148SOL    HW255886   7.082   1.521   2.485
18149SOL     OW55887   6.721   0.703   2.579
18149SOL    HW155888   6.778   0.781   2.554
18149SOL    HW255889   6.661   0.729   2.655
18150SOL     OW55890   7.341   0.607   2.093
18150SOL    HW155891   7.329   0.594   1.994
18150SOL    HW255892   7.311   0.526   2.142
18151SOL     OW55893   6.354   1.144   2.885
18151SOL    HW155894   6.276   1.161   2.945
18151SOL    HW255895   6.388   1.231   2.849
18152SOL     OW55896   6.436   0.798   3.685
18152SOL    HW155897   6.432   0.874   3.750
18152SOL    HW255898   6.458   0.834   3.594
18153SOL     OW55899   6.271   1.012   2.527
18153SOL    HW155900   6.340   0.996   2.597
18153SOL    HW255901   6.198   1.069   2.565
18154SOL     OW55902   6.272   1.161   3.665
18154SOL    HW155903   6.332   1.240   3.679
18154SOL    HW255904   6.186   1.192   3.624
18155SOL     OW55905   5.921   1.435   2.923
18155SOL    HW155906   5.843   1.404   2.870
18155SOL    HW255907   5.979   1.493   2.866
18156SOL     OW55908   7.046   1.505   3.201
18156SOL    HW155909   7.070   1.599   3.227
18156SOL    HW255910   7.030   1.451   3.283
18157SOL     OW55911   6.024   0.392   3.361
18157SOL    HW155912   6.106   0.336   3.370
18157SOL    HW255913   5.943   0.334   3.365
18158SOL     OW55914   7.189   0.447   2.599
18158SOL    HW155915   7.115   0.493   2.549
18158SOL    HW255916   7.240   0.515   2.652
18159SOL     OW55917   5.817   1.713   2.345
18159SOL    HW155918   5.851   1.790   2.399
18159SOL    HW255919   5.861   1.713   2.255
18160SOL     OW55920   6.713   1.341   3.552
18160SOL    HW155921   6.760   1.341   3.640
18160SOL    HW255922   6.665   1.254   3.541
18161SOL     OW55923   5.816   1.434   2.400
18161SOL    HW155924   5.790   1.530   2.400
18161SOL    HW255925   5.745   1.380   2.445
18162SOL     OW55926   5.826   1.091   2.748
18162SOL    HW155927   5.840   1.007   2.800
18162SOL    HW255928   5.771   1.155   2.803
18163SOL     OW55929   6.206   1.786   3.301
18163SOL    HW155930   6.114   1.769   3.336
18163SOL    HW255931   6.234   1.878   3.327
18164SOL     OW55932   6.192   0.964   1.985
18164SOL    HW155933   6.199   1.048   1.931
18164SOL    HW255934   6.238   0.977   2.073
18165SOL     OW55935   7.180   0.114   3.342
18165SOL    HW155936   7.162   0.181   3.270
18165SOL    HW255937   7.177   0.160   3.431
18166SOL     OW55938   5.708   0.643   2.425
18166SOL    HW155939   5.663   0.555   2.442
18166SOL    HW255940   5.707   0.697   2.509
18167SOL     OW55941   7.428   1.767   2.221
18167SOL    HW155942   7.482   1.738   2.301
18167SOL    HW255943   7.458   1.857   2.192
18168SOL     OW55944   5.613   1.596   1.979
18168SOL    HW155945   5.594   1.500   2.000
18168SOL    HW255946   5.580   1.654   2.054
18169SOL     OW55947   7.275   0.922   2.474
18169SOL    HW155948   7.370   0.893   2.482
18169SOL    HW255949   7.267   0.987   2.399
18170SOL     OW55950   7.227   1.108   2.294
18170SOL    HW155951   7.313   1.110   2.242
18170SOL    HW255952   7.241   1.155   2.382
18171SOL     OW55953   5.699   0.737   3.459
18171SOL    HW155954   5.787   0.724   3.504
18171SOL    HW255955   5.686   0.834   3.437
18172SOL     OW55956   6.199   1.365   2.588
18172SOL    HW155957   6.150   1.278   2.597
18172SOL    HW255958   6.176   1.408   2.501
18173SOL     OW55959   6.879   1.228   3.285
18173SOL    HW155960   6.916   1.155   3.227
18173SOL    HW255961   6.931   1.233   3.370
18174SOL     OW55962   6.395   0.004   2.364
18174SOL    HW155963   6.435   0.095   2.355
18174SOL    HW255964   6.295   0.012   2.370
18175SOL     OW55965   5.783   0.976   3.126
18175SOL    HW155966   5.872   0.931   3.112
18175SOL    HW255967   5.710   0.911   3.107
18176SOL     OW55968   7.111   0.999   2.052
18176SOL    HW155969   7.048   0.923   2.065
18176SOL    HW255970   7.159   1.017   2.138
18177SOL     OW55971   6.773   1.792   3.478
18177SOL    HW155972   6.797   1.852   3.402
18177SOL    HW255973   6.780   1.697   3.448
18178SOL     OW55974   5.903   0.251   3.663
18178SOL    HW155975   5.974   0.322   3.669
18178SOL    HW255976   5.815   0.290   3.691
18179SOL     OW55977   7.052   1.417   2.815
18179SOL    HW155978   6.993   1.423   2.895
18179SOL    HW255979   7.037   1.329   2.769
18180SOL     OW55980   7.253   1.714   2.434
18180SOL    HW155981   7.212   1.691   2.346
18180SOL    HW255982   7.235   1.640   2.499
18181SOL     OW55983   6.184   0.729   2.132
18181SOL    HW155984   6.208   0.798   2.064
18181SOL    HW255985   6.106   0.762   2.186
18182SOL     OW55986   6.867   0.345   2.806
18182SOL    HW155987   6.781   0.295   2.793
18182SOL    HW255988   6.929   0.291   2.862
18183SOL     OW55989   7.162   1.662   2.169
18183SOL    HW155990   7.251   1.708   2.172
18183SOL    HW255991   7.141   1.638   2.074
18184SOL     OW55992   6.393   0.605   3.327
18184SOL    HW155993   6.346   0.602   3.416
18184SOL    HW255994   6.342   0.550   3.261
18185SOL     OW55995   6.980   0.469   3.536
18185SOL    HW155996   6.960   0.512   3.624
18185SOL    HW255997   7.058   0.407   3.545
18186SOL     OW55998   6.559   0.890   3.434
18186SOL    HW155999   6.605   0.806   3.405
18186SOL    HW256000   6.503   0.924   3.359
18187SOL     OW56001   6.577   0.410   3.104
18187SOL    HW156002   6.500   0.444   3.158
18187SOL    HW256003   6.543   0.359   3.025
18188SOL     OW56004   6.627   0.701   2.291
18188SOL    HW156005   6.653   0.697   2.387
18188SOL    HW256006   6.542   0.650   2.277
18189SOL     OW56007   5.662   0.811   2.651
18189SOL    HW156008   5.761   0.799   2.660
18189SOL    HW256009   5.638   0.906   2.672
18190SOL     OW56010   5.716   1.821   3.433
18190SOL    HW156011   5.706   1.806   3.532
18190SOL    HW256012   5.630   1.857   3.397
18191SOL     OW56013   6.451   0.348   2.057
18191SOL    HW156014   6.510   0.411   2.008
18191SOL    HW256015   6.470   0.254   2.028
18192SOL     OW56016   7.305   0.585   3.693
18192SOL    HW156017   7.279   0.674   3.657
18192SOL    HW256018   7.303   0.517   3.620
18193SOL     OW56019   6.948   1.144   2.407
18193SOL    HW156020   7.031   1.115   2.359
18193SOL    HW256021   6.899   1.211   2.351
18194SOL     OW56022   6.136   0.196   2.747
18194SOL    HW156023   6.131   0.191   2.847
18194SOL    HW256024   6.138   0.292   2.718
18195SOL     OW56025   6.594   1.456   2.339
18195SOL    HW156026   6.548   1.528   2.287
18195SOL    HW256027   6.590   1.476   2.437
18196SOL     OW56028   5.937   1.801   2.715
18196SOL    HW156029   5.987   1.715   2.721
18196SOL    HW256030   6.002   1.878   2.712
18197SOL     OW56031   7.381   1.066   2.735
18197SOL    HW156032   7.319   1.051   2.659
18197SOL    HW256033   7.329   1.077   2.820
18198SOL     OW56034   6.813   1.550   3.368
18198SOL    HW156035   6.819   1.473   3.432
18198SOL    HW256036   6.761   1.524   3.288
18199SOL     OW56037   5.907   0.943   2.104
18199SOL    HW156038   5.989   0.982   2.062
18199SOL    HW256039   5.880   0.861   2.055
18200SOL     OW56040   7.044   0.735   2.590
18200SOL    HW156041   7.039   0.670   2.665
18200SOL    HW256042   7.124   0.794   2.603
18201SOL     OW56043   6.047   1.266   3.589
18201SOL    HW156044   5.997   1.267   3.503
18201SOL    HW256045   5.984   1.248   3.665
18202SOL     OW56046   6.697   1.776   2.099
18202SOL    HW156047   6.637   1.714   2.149
18202SOL    HW256048   6.728   1.732   2.014
18203SOL     OW56049   5.788   0.285   3.360
18203SOL    HW156050   5.708   0.345   3.347
18203SOL    HW256051   5.778   0.236   3.446
18204SOL     OW56052   7.218   1.377   1.943
18204SOL    HW156053   7.186   1.471   1.933
18204SOL    HW256054   7.142   1.314   1.931
18205SOL     OW56055   6.050   1.743   2.185
18205SOL    HW156056   6.083   1.782   2.271
18205SOL    HW256057   6.126   1.736   2.120
18206SOL     OW56058   6.986   0.107   2.288
18206SOL    HW156059   6.962   0.070   2.198
18206SOL    HW256060   7.085   0.123   2.292
18207SOL     OW56061   5.835   1.785   3.103
18207SOL    HW156062   5.892   1.720   3.153
18207SOL    HW256063   5.819   1.752   3.010
18208SOL     OW56064   6.526   1.698   2.766
18208SOL    HW156065   6.606   1.641   2.787
18208SOL    HW256066   6.477   1.658   2.689
18209SOL     OW56067   5.968   0.700   2.342
18209SOL    HW156068   6.013   0.610   2.339
18209SOL    HW256069   5.874   0.689   2.375
18210SOL     OW56070   7.133   0.222   3.591
18210SOL    HW156071   7.128   0.259   3.683
18210SOL    HW256072   7.061   0.153   3.579
18211SOL     OW56073   6.200   0.122   1.979
18211SOL    HW156074   6.298   0.100   1.986
18211SOL    HW256075   6.169   0.105   1.886
18212SOL     OW56076   6.367   0.264   3.611
18212SOL    HW156077   6.434   0.203   3.654
18212SOL    HW256078   6.294   0.283   3.676
18213SOL     OW56079   6.474   1.514   3.057
18213SOL    HW156080   6.451   1.489   2.963
18213SOL    HW256081   6.535   1.445   3.096
18214SOL     OW56082   6.389   1.402   2.786
18214SOL    HW156083   6.479   1.416   2.744
18214SOL    HW256084   6.318   1.404   2.715
18215SOL     OW56085   6.508   0.503   2.761
18215SOL    HW156086   6.483   0.494   2.665
18215SOL    HW256087   6.556   0.421   2.792
18216SOL     OW56088   6.125   0.064   2.374
18216SOL    HW156089   6.044   0.065   2.432
18216SOL    HW256090   6.128   0.147   2.319
18217SOL     OW56091   7.020   1.188   1.903
18217SOL    HW156092   7.052   1.112   1.960
18217SOL    HW256093   6.928   1.215   1.933
18218SOL     OW56094   5.883   0.035   2.033
18218SOL    HW156095   5.932   0.119   2.012
18218SOL    HW256096   5.945  -0.030   2.078
18219SOL     OW56097   6.521   0.236   2.342
18219SOL    HW156098   6.473   0.277   2.264
18219SOL    HW256099   6.620   0.234   2.323
18220SOL     OW56100   6.662   0.683   3.326
18220SOL    HW156101   6.582   0.622   3.329
18220SOL    HW256102   6.743   0.630   3.302
18221SOL     OW56103   6.813   1.570   2.655
18221SOL    HW156104   6.834   1.644   2.590
18221SOL    HW256105   6.881   1.570   2.728
18222SOL     OW56106   6.045   1.152   2.603
18222SOL    HW156107   5.974   1.125   2.668
18222SOL    HW256108   6.019   1.124   2.510
18223SOL     OW56109   6.857   1.797   2.453
18223SOL    HW156110   6.901   1.861   2.389
18223SOL    HW256111   6.807   1.849   2.523
18224SOL     OW56112   6.618   0.549   1.878
18224SOL    HW156113   6.577   0.631   1.839
18224SOL    HW256114   6.682   0.575   1.951
18225SOL     OW56115   5.664   0.556   3.248
18225SOL    HW156116   5.756   0.555   3.207
18225SOL    HW256117   5.658   0.630   3.315
18226SOL     OW56118   6.147   0.222   3.009
18226SOL    HW156119   6.185   0.138   3.046
18226SOL    HW256120   6.059   0.241   3.053
18227SOL     OW56121   6.452   0.454   2.504
18227SOL    HW156122   6.420   0.526   2.442
18227SOL    HW256123   6.476   0.373   2.451
18228SOL     OW56124   6.603   0.039   2.615
18228SOL    HW156125   6.531   0.044   2.546
18228SOL    HW256126   6.579  -0.030   2.684
18229SOL     OW56127   7.015   1.173   2.729
18229SOL    HW156128   6.960   1.089   2.722
18229SOL    HW256129   7.041   1.202   2.637
18230SOL     OW56130   7.052   0.590   2.854
18230SOL    HW156131   7.022   0.495   2.861
18230SOL    HW256132   7.125   0.606   2.920
18231SOL     OW56133   7.443   0.833   2.239
18231SOL    HW156134   7.485   0.769   2.303
18231SOL    HW256135   7.405   0.782   2.161
18232SOL     OW56136   6.074   1.385   2.036
18232SOL    HW156137   5.987   1.370   2.083
18232SOL    HW256138   6.057   1.411   1.941
18233SOL     OW56139   7.250   1.280   2.519
18233SOL    HW156140   7.349   1.288   2.533
18233SOL    HW256141   7.205   1.364   2.550
18234SOL     OW56142   6.976   0.575   1.940
18234SOL    HW156143   6.922   0.554   2.021
18234SOL    HW256144   7.067   0.534   1.949
18235SOL     OW56145   6.113   0.256   2.190
18235SOL    HW156146   6.140   0.197   2.115
18235SOL    HW256147   6.113   0.351   2.159
18236SOL     OW56148   7.340   1.223   3.450
18236SOL    HW156149   7.431   1.184   3.437
18236SOL    HW256150   7.348   1.319   3.474
18237SOL     OW56151   6.650   1.347   3.202
18237SOL    HW156152   6.570   1.324   3.257
18237SOL    HW256153   6.733   1.321   3.251
18238SOL     OW56154   7.178   1.629   3.487
18238SOL    HW156155   7.205   1.663   3.397
18238SOL    HW256156   7.257   1.591   3.533
18239SOL     OW56157   6.697   1.195   2.962
18239SOL    HW156158   6.657   1.239   3.043
18239SOL    HW256159   6.656   1.232   2.879
18240SOL     OW56160   7.224   1.099   2.941
18240SOL    HW156161   7.229   1.180   3.000
18240SOL    HW256162   7.138   1.101   2.890
18241SOL     OW56163   6.501   0.089   3.264
18241SOL    HW156164   6.526   0.069   3.169
18241SOL    HW256165   6.573   0.145   3.306
18242SOL     OW56166   6.566   1.116   3.581
18242SOL    HW156167   6.467   1.122   3.591
18242SOL    HW256168   6.589   1.036   3.525
18243SOL     OW56169   6.291   1.050   2.230
18243SOL    HW156170   6.277   1.057   2.329
18243SOL    HW256171   6.375   0.999   2.212
18244SOL     OW56172   5.996   0.813   3.113
18244SOL    HW156173   6.082   0.825   3.163
18244SOL    HW256174   5.954   0.726   3.140
18245SOL     OW56175   6.860   0.386   3.124
18245SOL    HW156176   6.881   0.460   3.188
18245SOL    HW256177   6.771   0.403   3.081
18246SOL     OW56178   5.650   1.564   3.193
18246SOL    HW156179   5.604   1.646   3.159
18246SOL    HW256180   5.748   1.583   3.202
18247SOL     OW56181   5.953   1.100   2.363
18247SOL    HW156182   5.946   1.183   2.307
18247SOL    HW256183   5.957   1.020   2.303
18248SOL     OW56184   6.152   0.537   2.727
18248SOL    HW156185   6.164   0.603   2.653
18248SOL    HW256186   6.198   0.571   2.810
18249SOL     OW56187   6.838   1.348   2.250
18249SOL    HW156188   6.888   1.425   2.290
18249SOL    HW256189   6.743   1.350   2.282
18250SOL     OW56190   6.858   1.445   3.004
18250SOL    HW156191   6.905   1.458   3.091
18250SOL    HW256192   6.792   1.371   3.013
18251SOL     OW56193   7.168   0.639   2.334
18251SOL    HW156194   7.137   0.700   2.407
18251SOL    HW256195   7.218   0.691   2.265
18252SOL     OW56196   5.940   1.510   3.191
18252SOL    HW156197   5.919   1.466   3.104
18252SOL    HW256198   6.037   1.536   3.194
18253SOL     OW56199   5.988   0.751   3.460
18253SOL    HW156200   6.056   0.806   3.413
18253SOL    HW256201   6.028   0.663   3.487
18254SOL     OW56202   7.173   0.779   3.532
18254SOL    HW156203   7.081   0.817   3.527
18254SOL    HW256204   7.233   0.826   3.467
18255SOL     OW56205   6.599   0.105   3.632
18255SOL    HW156206   6.605   0.190   3.580
18255SOL    HW256207   6.631   0.029   3.575
18256SOL     OW56208   6.090   0.050   3.602
18256SOL    HW156209   6.048  -0.007   3.532
18256SOL    HW256210   6.024   0.119   3.634
18257SOL     OW56211   6.159   0.870   2.891
18257SOL    HW156212   6.203   0.959   2.882
18257SOL    HW256213   6.096   0.870   2.968
18258SOL     OW56214   6.946   0.862   2.907
18258SOL    HW156215   6.871   0.862   2.841
18258SOL    HW256216   6.983   0.770   2.916
18259SOL     OW56217   6.795   0.525   2.137
18259SOL    HW156218   6.808   0.441   2.191
18259SOL    HW256219   6.766   0.599   2.197
18260SOL     OW56220   5.893   0.213   3.093
18260SOL    HW156221   5.870   0.250   3.183
18260SOL    HW256222   5.863   0.118   3.087
18261SOL     OW56223   5.623   1.310   3.144
18261SOL    HW156224   5.676   1.261   3.212
18261SOL    HW256225   5.645   1.408   3.149
18262SOL     OW56226   6.318   0.634   2.926
18262SOL    HW156227   6.377   0.608   2.850
18262SOL    HW256228   6.290   0.730   2.915
18263SOL     OW56229   7.314   0.935   3.716
18263SOL    HW156230   7.268   0.928   3.627
18263SOL    HW256231   7.252   0.979   3.782
18264SOL     OW56232   5.893   0.063   2.480
18264SOL    HW156233   5.882   0.157   2.513
18264SOL    HW256234   5.888   0.000   2.557
18265SOL     OW56235   7.208   0.367   2.236
18265SOL    HW156236   7.210   0.291   2.300
18265SOL    HW256237   7.160   0.444   2.276
18266SOL     OW56238   6.609   0.766   2.828
18266SOL    HW156239   6.624   0.787   2.924
18266SOL    HW256240   6.579   0.671   2.819
18267SOL     OW56241   6.566   1.573   3.562
18267SOL    HW156242   6.546   1.617   3.474
18267SOL    HW256243   6.605   1.482   3.546
18268SOL     OW56244   7.445   1.518   3.467
18268SOL    HW156245   7.459   1.545   3.372
18268SOL    HW256246   7.528   1.540   3.520
18269SOL     OW56247   5.936   0.898   3.666
18269SOL    HW156248   6.012   0.942   3.714
18269SOL    HW256249   5.971   0.851   3.584
18270SOL     OW56250   6.889   0.838   1.904
18270SOL    HW156251   6.923   0.745   1.919
18270SOL    HW256252   6.907   0.865   1.809
18271SOL     OW56253   6.654   1.333   2.711
18271SOL    HW156254   6.661   1.249   2.656
18271SOL    HW256255   6.716   1.402   2.675
18272SOL     OW56256   5.905   0.810   2.811
18272SOL    HW156257   5.998   0.846   2.816
18272SOL    HW256258   5.899   0.725   2.863
18273SOL     OW56259   5.925   0.509   2.868
18273SOL    HW156260   5.873   0.426   2.851
18273SOL    HW256261   6.002   0.514   2.804
18274SOL     OW56262   6.724   0.380   3.540
18274SOL    HW156263   6.679   0.443   3.604
18274SOL    HW256264   6.817   0.411   3.523
18275SOL     OW56265   6.746   0.207   3.339
18275SOL    HW156266   6.746   0.271   3.416
18275SOL    HW256267   6.774   0.255   3.256
18276SOL     OW56268   5.594   1.326   2.062
18276SOL    HW156269   5.501   1.347   2.031
18276SOL    HW256270   5.604   1.227   2.075
18277SOL     OW56271   5.674   1.801   2.789
18277SOL    HW156272   5.632   1.715   2.762
18277SOL    HW256273   5.768   1.804   2.755
18278SOL     OW56274   6.090   1.568   2.772
18278SOL    HW156275   6.156   1.642   2.781
18278SOL    HW256276   6.134   1.489   2.730
18279SOL     OW56277   6.588   0.796   3.100
18279SOL    HW156278   6.629   0.764   3.186
18279SOL    HW256279   6.492   0.769   3.097
18280SOL     OW56280   5.626   0.544   2.976
18280SOL    HW156281   5.711   0.511   2.935
18280SOL    HW256282   5.639   0.559   3.074
18281SOL     OW56283   5.775   0.520   3.584
18281SOL    HW156284   5.834   0.480   3.514
18281SOL    HW256285   5.717   0.591   3.543
18282SOL     OW56286   6.955   0.950   3.522
18282SOL    HW156287   6.994   1.039   3.542
18282SOL    HW256288   6.965   0.930   3.425
18283SOL     OW56289   6.401   0.572   2.187
18283SOL    HW156290   6.408   0.483   2.141
18283SOL    HW256291   6.307   0.606   2.179
18284SOL     OW56292   7.243   0.604   3.068
18284SOL    HW156293   7.205   0.535   3.130
18284SOL    HW256294   7.325   0.568   3.024
18285SOL     OW56295   5.838   1.564   3.606
18285SOL    HW156296   5.808   1.621   3.682
18285SOL    HW256297   5.831   1.467   3.632
18286SOL     OW56298   6.257   0.464   3.131
18286SOL    HW156299   6.223   0.375   3.101
18286SOL    HW256300   6.283   0.518   3.051
18287SOL     OW56301   6.516   1.678   3.327
18287SOL    HW156302   6.492   1.660   3.232
18287SOL    HW256303   6.546   1.772   3.337
18288SOL     OW56304   6.059   0.500   2.053
18288SOL    HW156305   6.120   0.580   2.057
18288SOL    HW256306   5.964   0.531   2.060
18289SOL     OW56307   5.745   1.137   3.328
18289SOL    HW156308   5.767   1.076   3.404
18289SOL    HW256309   5.755   1.088   3.242
18290SOL     OW56310   6.933   1.059   3.096
18290SOL    HW156311   6.957   0.996   3.022
18290SOL    HW256312   6.843   1.099   3.078
18291SOL     OW56313   6.888   0.855   2.171
18291SOL    HW156314   6.802   0.824   2.213
18291SOL    HW256315   6.884   0.841   2.072
18292SOL     OW56316   7.345   1.747   3.016
18292SOL    HW156317   7.406   1.777   2.943
18292SOL    HW256318   7.307   1.658   2.994
18293SOL     OW56319   6.838   1.731   2.990
18293SOL    HW156320   6.922   1.736   2.936
18293SOL    HW256321   6.815   1.635   3.008
18294SOL     OW56322   5.669   1.258   2.884
18294SOL    HW156323   5.664   1.257   2.984
18294SOL    HW256324   5.586   1.217   2.846
18295SOL     OW56325   6.274   1.662   3.578
18295SOL    HW156326   6.218   1.743   3.587
18295SOL    HW256327   6.326   1.666   3.492
18296SOL     OW56328   7.312   0.135   2.385
18296SOL    HW156329   7.385   0.118   2.318
18296SOL    HW256330   7.281   0.048   2.423
18297SOL     OW56331   6.974   1.573   2.339
18297SOL    HW156332   7.041   1.585   2.265
18297SOL    HW256333   6.934   1.662   2.362
18298SOL     OW56334   5.716   1.794   3.713
18298SOL    HW156335   5.675   1.720   3.766
18298SOL    HW256336   5.780   1.845   3.771
18299SOL     OW56337   6.866   0.927   2.534
18299SOL    HW156338   6.926   0.846   2.536
18299SOL    HW256339   6.906   0.996   2.474
18300SOL     OW56340   6.416   1.273   3.284
18300SOL    HW156341   6.411   1.306   3.379
18300SOL    HW256342   6.330   1.292   3.238
18301SOL     OW56343   6.258   1.616   2.016
18301SOL    HW156344   6.267   1.626   1.917
18301SOL    HW256345   6.218   1.527   2.037
18302SOL     OW56346   7.236   1.720   3.256
18302SOL    HW156347   7.289   1.730   3.172
18302SOL    HW256348   7.209   1.810   3.290
18303SOL     OW56349   7.427   0.175   2.825
18303SOL    HW156350   7.466   0.090   2.789
18303SOL    HW256351   7.329   0.177   2.806
18304SOL     OW56352   5.849   0.326   2.582
18304SOL    HW156353   5.770   0.377   2.548
18304SOL    HW256354   5.840   0.311   2.680
18305SOL     OW56355   6.780   1.612   1.893
18305SOL    HW156356   6.786   1.519   1.930
18305SOL    HW256357   6.721   1.612   1.813
18306SOL     OW56358   6.408   1.002   3.234
18306SOL    HW156359   6.448   1.001   3.142
18306SOL    HW256360   6.418   1.094   3.274
18307SOL     OW56361   6.502   0.910   2.153
18307SOL    HW156362   6.565   0.948   2.085
18307SOL    HW256363   6.542   0.827   2.192
18308SOL     OW56364   7.090   1.607   1.906
18308SOL    HW156365   6.998   1.644   1.913
18308SOL    HW256366   7.128   1.627   1.816
18309SOL     OW56367   5.958   1.288   3.352
18309SOL    HW156368   5.945   1.381   3.318
18309SOL    HW256369   5.874   1.236   3.339
18310SOL     OW56370   7.200   1.292   3.151
18310SOL    HW156371   7.260   1.295   3.231
18310SOL    HW256372   7.125   1.356   3.164
18311SOL     OW56373   6.625   1.098   2.558
18311SOL    HW156374   6.555   1.051   2.612
18311SOL    HW256375   6.684   1.030   2.515
18312SOL     OW56376   6.600   0.236   2.833
18312SOL    HW156377   6.592   0.200   2.740
18312SOL    HW256378   6.598   0.160   2.898
18313SOL     OW56379   6.176   1.487   2.353
18313SOL    HW156380   6.218   1.429   2.283
18313SOL    HW256381   6.132   1.566   2.309
18314SOL     OW56382   7.295   0.385   3.243
18314SOL    HW156383   7.368   0.454   3.247
18314SOL    HW256384   7.323   0.310   3.184
18315SOL     OW56385   5.841   1.348   2.152
18315SOL    HW156386   5.745   1.349   2.125
18315SOL    HW256387   5.853   1.401   2.236
18316SOL     OW56388   5.691   1.013   3.588
18316SOL    HW156389   5.614   0.980   3.642
18316SOL    HW256390   5.776   0.983   3.630
18317SOL     OW56391   6.258   0.203   3.351
18317SOL    HW156392   6.348   0.187   3.311
18317SOL    HW256393   6.266   0.208   3.450
18318SOL     OW56394   5.661   0.345   1.895
18318SOL    HW156395   5.569   0.317   1.866
18318SOL    HW256396   5.692   0.422   1.839
18319SOL     OW56397   7.026   0.856   3.260
18319SOL    HW156398   6.969   0.908   3.197
18319SOL    HW256399   7.122   0.868   3.236
18320SOL     OW56400   5.658   0.166   2.180
18320SOL    HW156401   5.641   0.249   2.126
18320SOL    HW256402   5.748   0.129   2.158
18321SOL     OW56403   6.769   1.335   1.981
18321SOL    HW156404   6.670   1.324   1.983
18321SOL    HW256405   6.803   1.350   2.074
18322SOL     OW56406   6.199   0.842   3.293
18322SOL    HW156407   6.255   0.923   3.276
18322SOL    HW256408   6.258   0.762   3.296
18323SOL     OW56409   7.079   1.767   2.821
18323SOL    HW156410   7.112   1.831   2.752
18323SOL    HW256411   7.145   1.761   2.896
18324SOL     OW56412   6.302   0.565   3.570
18324SOL    HW156413   6.321   0.630   3.644
18324SOL    HW256414   6.362   0.485   3.579
18325SOL     OW56415   7.036   1.220   3.495
18325SOL    HW156416   7.027   1.210   3.594
18325SOL    HW256417   7.132   1.213   3.469
18326SOL     OW56418   5.976   1.741   3.422
18326SOL    HW156419   5.885   1.782   3.420
18326SOL    HW256420   5.969   1.647   3.454
18327SOL     OW56421   7.260   0.883   3.116
18327SOL    HW156422   7.233   0.794   3.079
18327SOL    HW256423   7.261   0.951   3.043
18328SOL     OW56424   6.811   0.325   2.311
18328SOL    HW156425   6.876   0.251   2.300
18328SOL    HW256426   6.831   0.375   2.395
18329SOL     OW56427   6.180   0.745   2.514
18329SOL    HW156428   6.230   0.830   2.495
18329SOL    HW256429   6.092   0.747   2.466
18330SOL     OW56430   7.363   0.342   3.504
18330SOL    HW156431   7.346   0.373   3.410
18330SOL    HW256432   7.279   0.305   3.542
18331SOL     OW56433   7.316   0.934   3.379
18331SOL    HW156434   7.354   1.025   3.394
18331SOL    HW256435   7.308   0.917   3.280
18332SOL     OW56436   6.445   1.374   1.878
18332SOL    HW156437   6.399   1.389   1.966
18332SOL    HW256438   6.489   1.459   1.848
18333SOL     OW56439   6.247   1.790   2.815
18333SOL    HW156440   6.201   1.878   2.802
18333SOL    HW256441   6.346   1.802   2.808
18334SOL     OW56442   6.445   0.956   2.723
18334SOL    HW156443   6.499   0.887   2.771
18334SOL    HW256444   6.413   1.025   2.789
18335SOL     OW56445   6.669   0.984   1.949
18335SOL    HW156446   6.646   1.037   1.867
18335SOL    HW256447   6.750   0.928   1.930
18336SOL     OW56448   7.447   1.569   2.713
18336SOL    HW156449   7.376   1.557   2.643
18336SOL    HW256450   7.448   1.490   2.773
18337SOL     OW56451   5.807   1.314   3.706
18337SOL    HW156452   5.742   1.241   3.685
18337SOL    HW256453   5.811   1.328   3.804
18338SOL     OW56454   5.665   1.240   2.515
18338SOL    HW156455   5.664   1.193   2.603
18338SOL    HW256456   5.747   1.212   2.464
18339SOL     OW56457   6.258   1.391   3.486
18339SOL    HW156458   6.180   1.341   3.524
18339SOL    HW256459   6.255   1.486   3.517
18340SOL     OW56460   7.410   0.192   3.089
18340SOL    HW156461   7.406   0.102   3.133
18340SOL    HW256462   7.413   0.181   2.990
18341SOL     OW56463   6.014   0.424   2.382
18341SOL    HW156464   6.044   0.352   2.320
18341SOL    HW256465   5.975   0.384   2.465
18342SOL     OW56466   7.291   1.487   2.966
18342SOL    HW156467   7.198   1.462   2.939
18342SOL    HW256468   7.317   1.437   3.048
18343SOL     OW56469   5.903   0.547   3.142
18343SOL    HW156470   5.941   0.488   3.214
18343SOL    HW256471   5.943   0.521   3.054
18344SOL     OW56472   6.398   1.586   2.549
18344SOL    HW156473   6.430   1.596   2.455
18344SOL    HW256474   6.319   1.524   2.551
18345SOL     OW56475   7.010   0.214   2.974
18345SOL    HW156476   7.062   0.149   3.029
18345SOL    HW256477   6.961   0.277   3.035
18346SOL     OW56478   6.587   0.034   3.016
18346SOL    HW156479   6.524  -0.038   2.985
18346SOL    HW256480   6.680  -0.002   3.016
18347SOL     OW56481   6.356   1.330   2.163
18347SOL    HW156482   6.310   1.243   2.180
18347SOL    HW256483   6.447   1.327   2.204
18348SOL     OW56484   6.204   1.567   3.146
18348SOL    HW156485   6.199   1.649   3.203
18348SOL    HW256486   6.293   1.564   3.101
18349SOL     OW56487   6.938   0.052   2.030
18349SOL    HW156488   6.973   0.011   1.946
18349SOL    HW256489   6.848   0.014   2.050
18350SOL     OW56490   6.886   0.453   2.553
18350SOL    HW156491   6.827   0.533   2.557
18350SOL    HW256492   6.901   0.418   2.646
18351SOL     OW56493   7.179   0.221   2.744
18351SOL    HW156494   7.095   0.220   2.798
18351SOL    HW256495   7.181   0.304   2.688
18352SOL     OW56496   5.625   1.077   2.162
18352SOL    HW156497   5.724   1.066   2.153
18352SOL    HW256498   5.585   0.991   2.194
18353SOL     OW56499   6.461   1.646   2.199
18353SOL    HW156500   6.384   1.611   2.145
18353SOL    HW256501   6.429   1.717   2.261
18354SOL     OW56502   5.816   0.628   3.837
18354SOL    HW156503   5.723   0.626   3.874
18354SOL    HW256504   5.817   0.589   3.745
18355SOL     OW56505   5.811   0.275   4.720
18355SOL    HW156506   5.846   0.258   4.812
18355SOL    HW256507   5.723   0.230   4.708
18356SOL     OW56508   5.605   0.368   4.371
18356SOL    HW156509   5.523   0.411   4.410
18356SOL    HW256510   5.577   0.295   4.308
18357SOL     OW56511   6.155   1.275   4.889
18357SOL    HW156512   6.062   1.268   4.852
18357SOL    HW256513   6.166   1.364   4.933
18358SOL     OW56514   7.141   1.511   4.427
18358SOL    HW156515   7.084   1.495   4.508
18358SOL    HW256516   7.082   1.521   4.347
18359SOL     OW56517   6.721   0.703   4.441
18359SOL    HW156518   6.778   0.781   4.416
18359SOL    HW256519   6.661   0.729   4.517
18360SOL     OW56520   7.341   0.607   3.955
18360SOL    HW156521   7.329   0.594   3.856
18360SOL    HW256522   7.311   0.526   4.004
18361SOL     OW56523   6.354   1.144   4.747
18361SOL    HW156524   6.276   1.161   4.807
18361SOL    HW256525   6.388   1.231   4.711
18362SOL     OW56526   6.436   0.798   5.547
18362SOL    HW156527   6.432   0.874   5.612
18362SOL    HW256528   6.458   0.834   5.456
18363SOL     OW56529   6.271   1.012   4.389
18363SOL    HW156530   6.340   0.996   4.459
18363SOL    HW256531   6.198   1.069   4.427
18364SOL     OW56532   6.272   1.161   5.527
18364SOL    HW156533   6.332   1.240   5.541
18364SOL    HW256534   6.186   1.192   5.486
18365SOL     OW56535   5.921   1.435   4.785
18365SOL    HW156536   5.843   1.404   4.732
18365SOL    HW256537   5.979   1.493   4.728
18366SOL     OW56538   7.046   1.505   5.063
18366SOL    HW156539   7.070   1.599   5.089
18366SOL    HW256540   7.030   1.451   5.145
18367SOL     OW56541   6.024   0.392   5.223
18367SOL    HW156542   6.106   0.336   5.232
18367SOL    HW256543   5.943   0.334   5.227
18368SOL     OW56544   7.189   0.447   4.461
18368SOL    HW156545   7.115   0.493   4.411
18368SOL    HW256546   7.240   0.515   4.514
18369SOL     OW56547   5.817   1.713   4.207
18369SOL    HW156548   5.851   1.790   4.261
18369SOL    HW256549   5.861   1.713   4.117
18370SOL     OW56550   6.713   1.341   5.414
18370SOL    HW156551   6.760   1.341   5.502
18370SOL    HW256552   6.665   1.254   5.403
18371SOL     OW56553   5.816   1.434   4.262
18371SOL    HW156554   5.790   1.530   4.262
18371SOL    HW256555   5.745   1.380   4.307
18372SOL     OW56556   5.826   1.091   4.610
18372SOL    HW156557   5.840   1.007   4.662
18372SOL    HW256558   5.771   1.155   4.665
18373SOL     OW56559   6.206   1.786   5.163
18373SOL    HW156560   6.114   1.769   5.198
18373SOL    HW256561   6.234   1.878   5.189
18374SOL     OW56562   6.192   0.964   3.847
18374SOL    HW156563   6.199   1.048   3.793
18374SOL    HW256564   6.238   0.977   3.935
18375SOL     OW56565   7.180   0.114   5.204
18375SOL    HW156566   7.162   0.181   5.132
18375SOL    HW256567   7.177   0.160   5.293
18376SOL     OW56568   5.708   0.643   4.287
18376SOL    HW156569   5.663   0.555   4.304
18376SOL    HW256570   5.707   0.697   4.371
18377SOL     OW56571   7.428   1.767   4.083
18377SOL    HW156572   7.482   1.738   4.163
18377SOL    HW256573   7.458   1.857   4.054
18378SOL     OW56574   5.613   1.596   3.841
18378SOL    HW156575   5.594   1.500   3.862
18378SOL    HW256576   5.580   1.654   3.916
18379SOL     OW56577   7.275   0.922   4.336
18379SOL    HW156578   7.370   0.893   4.344
18379SOL    HW256579   7.267   0.987   4.261
18380SOL     OW56580   7.227   1.108   4.156
18380SOL    HW156581   7.313   1.110   4.104
18380SOL    HW256582   7.241   1.155   4.244
18381SOL     OW56583   5.699   0.737   5.321
18381SOL    HW156584   5.787   0.724   5.366
18381SOL    HW256585   5.686   0.834   5.299
18382SOL     OW56586   6.199   1.365   4.450
18382SOL    HW156587   6.150   1.278   4.459
18382SOL    HW256588   6.176   1.408   4.363
18383SOL     OW56589   6.879   1.228   5.147
18383SOL    HW156590   6.916   1.155   5.089
18383SOL    HW256591   6.931   1.233   5.232
18384SOL     OW56592   6.395   0.004   4.226
18384SOL    HW156593   6.435   0.095   4.217
18384SOL    HW256594   6.295   0.012   4.232
18385SOL     OW56595   5.783   0.976   4.988
18385SOL    HW156596   5.872   0.931   4.974
18385SOL    HW256597   5.710   0.911   4.969
18386SOL     OW56598   7.111   0.999   3.914
18386SOL    HW156599   7.048   0.923   3.927
18386SOL    HW256600   7.159   1.017   4.000
18387SOL     OW56601   6.773   1.792   5.340
18387SOL    HW156602   6.797   1.852   5.264
18387SOL    HW256603   6.780   1.697   5.310
18388SOL     OW56604   5.903   0.251   5.525
18388SOL    HW156605   5.974   0.322   5.531
18388SOL    HW256606   5.815   0.290   5.553
18389SOL     OW56607   7.052   1.417   4.677
18389SOL    HW156608   6.993   1.423   4.757
18389SOL    HW256609   7.037   1.329   4.631
18390SOL     OW56610   7.253   1.714   4.296
18390SOL    HW156611   7.212   1.691   4.208
18390SOL    HW256612   7.235   1.640   4.361
18391SOL     OW56613   6.184   0.729   3.994
18391SOL    HW156614   6.208   0.798   3.926
18391SOL    HW256615   6.106   0.762   4.048
18392SOL     OW56616   6.867   0.345   4.668
18392SOL    HW156617   6.781   0.295   4.655
18392SOL    HW256618   6.929   0.291   4.724
18393SOL     OW56619   7.162   1.662   4.031
18393SOL    HW156620   7.251   1.708   4.034
18393SOL    HW256621   7.141   1.638   3.936
18394SOL     OW56622   6.393   0.605   5.189
18394SOL    HW156623   6.346   0.602   5.278
18394SOL    HW256624   6.342   0.550   5.123
18395SOL     OW56625   6.980   0.469   5.398
18395SOL    HW156626   6.960   0.512   5.486
18395SOL    HW256627   7.058   0.407   5.407
18396SOL     OW56628   6.559   0.890   5.296
18396SOL    HW156629   6.605   0.806   5.267
18396SOL    HW256630   6.503   0.924   5.221
18397SOL     OW56631   6.577   0.410   4.966
18397SOL    HW156632   6.500   0.444   5.020
18397SOL    HW256633   6.543   0.359   4.887
18398SOL     OW56634   6.627   0.701   4.153
18398SOL    HW156635   6.653   0.697   4.249
18398SOL    HW256636   6.542   0.650   4.139
18399SOL     OW56637   5.662   0.811   4.513
18399SOL    HW156638   5.761   0.799   4.522
18399SOL    HW256639   5.638   0.906   4.534
18400SOL     OW56640   5.716   1.821   5.295
18400SOL    HW156641   5.706   1.806   5.394
18400SOL    HW256642   5.630   1.857   5.259
18401SOL     OW56643   6.451   0.348   3.919
18401SOL    HW156644   6.510   0.411   3.870
18401SOL    HW256645   6.470   0.254   3.890
18402SOL     OW56646   7.305   0.585   5.555
18402SOL    HW156647   7.279   0.674   5.519
18402SOL    HW256648   7.303   0.517   5.482
18403SOL     OW56649   6.948   1.144   4.269
18403SOL    HW156650   7.031   1.115   4.221
18403SOL    HW256651   6.899   1.211   4.213
18404SOL     OW56652   6.136   0.196   4.609
18404SOL    HW156653   6.131   0.191   4.709
18404SOL    HW256654   6.138   0.292   4.580
18405SOL     OW56655   6.594   1.456   4.201
18405SOL    HW156656   6.548   1.528   4.149
18405SOL    HW256657   6.590   1.476   4.299
18406SOL     OW56658   5.937   1.801   4.577
18406SOL    HW156659   5.987   1.715   4.583
18406SOL    HW256660   6.002   1.878   4.574
18407SOL     OW56661   7.381   1.066   4.597
18407SOL    HW156662   7.319   1.051   4.521
18407SOL    HW256663   7.329   1.077   4.682
18408SOL     OW56664   6.813   1.550   5.230
18408SOL    HW156665   6.819   1.473   5.294
18408SOL    HW256666   6.761   1.524   5.150
18409SOL     OW56667   5.907   0.943   3.966
18409SOL    HW156668   5.989   0.982   3.924
18409SOL    HW256669   5.880   0.861   3.917
18410SOL     OW56670   7.044   0.735   4.452
18410SOL    HW156671   7.039   0.670   4.527
18410SOL    HW256672   7.124   0.794   4.465
18411SOL     OW56673   6.047   1.266   5.451
18411SOL    HW156674   5.997   1.267   5.365
18411SOL    HW256675   5.984   1.248   5.527
18412SOL     OW56676   6.697   1.776   3.961
18412SOL    HW156677   6.637   1.714   4.011
18412SOL    HW256678   6.728   1.732   3.876
18413SOL     OW56679   5.788   0.285   5.222
18413SOL    HW156680   5.708   0.345   5.209
18413SOL    HW256681   5.778   0.236   5.308
18414SOL     OW56682   7.218   1.377   3.805
18414SOL    HW156683   7.186   1.471   3.795
18414SOL    HW256684   7.142   1.314   3.793
18415SOL     OW56685   6.050   1.743   4.047
18415SOL    HW156686   6.083   1.782   4.133
18415SOL    HW256687   6.126   1.736   3.982
18416SOL     OW56688   6.986   0.107   4.150
18416SOL    HW156689   6.962   0.070   4.060
18416SOL    HW256690   7.085   0.123   4.154
18417SOL     OW56691   5.835   1.785   4.965
18417SOL    HW156692   5.892   1.720   5.015
18417SOL    HW256693   5.819   1.752   4.872
18418SOL     OW56694   6.526   1.698   4.628
18418SOL    HW156695   6.606   1.641   4.649
18418SOL    HW256696   6.477   1.658   4.551
18419SOL     OW56697   5.968   0.700   4.204
18419SOL    HW156698   6.013   0.610   4.201
18419SOL    HW256699   5.874   0.689   4.237
18420SOL     OW56700   7.133   0.222   5.453
18420SOL    HW156701   7.128   0.259   5.545
18420SOL    HW256702   7.061   0.153   5.441
18421SOL     OW56703   6.200   0.122   3.841
18421SOL    HW156704   6.298   0.100   3.848
18421SOL    HW256705   6.169   0.105   3.748
18422SOL     OW56706   6.367   0.264   5.473
18422SOL    HW156707   6.434   0.203   5.516
18422SOL    HW256708   6.294   0.283   5.538
18423SOL     OW56709   6.474   1.514   4.919
18423SOL    HW156710   6.451   1.489   4.825
18423SOL    HW256711   6.535   1.445   4.958
18424SOL     OW56712   6.937   0.590   5.157
18424SOL    HW156713   6.965   0.547   5.242
18424SOL    HW256714   6.962   0.686   5.158
18425SOL     OW56715   6.389   1.402   4.648
18425SOL    HW156716   6.479   1.416   4.606
18425SOL    HW256717   6.318   1.404   4.577
18426SOL     OW56718   6.508   0.503   4.623
18426SOL    HW156719   6.483   0.494   4.527
18426SOL    HW256720   6.556   0.421   4.654
18427SOL     OW56721   6.125   0.064   4.236
18427SOL    HW156722   6.044   0.065   4.294
18427SOL    HW256723   6.128   0.147   4.181
18428SOL     OW56724   7.020   1.188   3.765
18428SOL    HW156725   7.052   1.112   3.822
18428SOL    HW256726   6.928   1.215   3.795
18429SOL     OW56727   5.883   0.035   3.895
18429SOL    HW156728   5.932   0.119   3.874
18429SOL    HW256729   5.945  -0.030   3.940
18430SOL     OW56730   6.521   0.236   4.204
18430SOL    HW156731   6.473   0.277   4.126
18430SOL    HW256732   6.620   0.234   4.185
18431SOL     OW56733   6.662   0.683   5.188
18431SOL    HW156734   6.582   0.622   5.191
18431SOL    HW256735   6.743   0.630   5.164
18432SOL     OW56736   6.813   1.570   4.517
18432SOL    HW156737   6.834   1.644   4.452
18432SOL    HW256738   6.881   1.570   4.590
18433SOL     OW56739   6.045   1.152   4.465
18433SOL    HW156740   5.974   1.125   4.530
18433SOL    HW256741   6.019   1.124   4.372
18434SOL     OW56742   6.857   1.797   4.315
18434SOL    HW156743   6.901   1.861   4.251
18434SOL    HW256744   6.807   1.849   4.385
18435SOL     OW56745   6.618   0.549   3.740
18435SOL    HW156746   6.577   0.631   3.701
18435SOL    HW256747   6.682   0.575   3.813
18436SOL     OW56748   5.664   0.556   5.110
18436SOL    HW156749   5.756   0.555   5.069
18436SOL    HW256750   5.658   0.630   5.177
18437SOL     OW56751   6.147   0.222   4.871
18437SOL    HW156752   6.185   0.138   4.908
18437SOL    HW256753   6.059   0.241   4.915
18438SOL     OW56754   6.452   0.454   4.366
18438SOL    HW156755   6.420   0.526   4.304
18438SOL    HW256756   6.476   0.373   4.313
18439SOL     OW56757   6.603   0.039   4.477
18439SOL    HW156758   6.531   0.044   4.408
18439SOL    HW256759   6.579  -0.030   4.546
18440SOL     OW56760   7.015   1.173   4.591
18440SOL    HW156761   6.960   1.089   4.584
18440SOL    HW256762   7.041   1.202   4.499
18441SOL     OW56763   7.052   0.590   4.716
18441SOL    HW156764   7.022   0.495   4.723
18441SOL    HW256765   7.125   0.606   4.782
18442SOL     OW56766   7.443   0.833   4.101
18442SOL    HW156767   7.485   0.769   4.165
18442SOL    HW256768   7.405   0.782   4.023
18443SOL     OW56769   6.074   1.385   3.898
18443SOL    HW156770   5.987   1.370   3.945
18443SOL    HW256771   6.057   1.411   3.803
18444SOL     OW56772   7.250   1.280   4.381
18444SOL    HW156773   7.349   1.288   4.395
18444SOL    HW256774   7.205   1.364   4.412
18445SOL     OW56775   6.976   0.575   3.802
18445SOL    HW156776   6.922   0.554   3.883
18445SOL    HW256777   7.067   0.534   3.811
18446SOL     OW56778   6.113   0.256   4.052
18446SOL    HW156779   6.140   0.197   3.977
18446SOL    HW256780   6.113   0.351   4.021
18447SOL     OW56781   7.340   1.223   5.312
18447SOL    HW156782   7.431   1.184   5.299
18447SOL    HW256783   7.348   1.319   5.336
18448SOL     OW56784   6.650   1.347   5.064
18448SOL    HW156785   6.570   1.324   5.119
18448SOL    HW256786   6.733   1.321   5.113
18449SOL     OW56787   7.178   1.629   5.349
18449SOL    HW156788   7.205   1.663   5.259
18449SOL    HW256789   7.257   1.591   5.395
18450SOL     OW56790   6.697   1.195   4.824
18450SOL    HW156791   6.657   1.239   4.905
18450SOL    HW256792   6.656   1.232   4.741
18451SOL     OW56793   7.224   1.099   4.803
18451SOL    HW156794   7.229   1.180   4.862
18451SOL    HW256795   7.138   1.101   4.752
18452SOL     OW56796   6.501   0.089   5.126
18452SOL    HW156797   6.526   0.069   5.031
18452SOL    HW256798   6.573   0.145   5.168
18453SOL     OW56799   6.566   1.116   5.443
18453SOL    HW156800   6.467   1.122   5.453
18453SOL    HW256801   6.589   1.036   5.387
18454SOL     OW56802   6.291   1.050   4.092
18454SOL    HW156803   6.277   1.057   4.191
18454SOL    HW256804   6.375   0.999   4.074
18455SOL     OW56805   5.996   0.813   4.975
18455SOL    HW156806   6.082   0.825   5.025
18455SOL    HW256807   5.954   0.726   5.002
18456SOL     OW56808   6.860   0.386   4.986
18456SOL    HW156809   6.881   0.460   5.050
18456SOL    HW256810   6.771   0.403   4.943
18457SOL     OW56811   5.650   1.564   5.055
18457SOL    HW156812   5.604   1.646   5.021
18457SOL    HW256813   5.748   1.583   5.064
18458SOL     OW56814   5.953   1.100   4.225
18458SOL    HW156815   5.946   1.183   4.169
18458SOL    HW256816   5.957   1.020   4.165
18459SOL     OW56817   6.152   0.537   4.589
18459SOL    HW156818   6.164   0.603   4.515
18459SOL    HW256819   6.198   0.571   4.672
18460SOL     OW56820   6.838   1.348   4.112
18460SOL    HW156821   6.888   1.425   4.152
18460SOL    HW256822   6.743   1.350   4.144
18461SOL     OW56823   6.858   1.445   4.866
18461SOL    HW156824   6.905   1.458   4.953
18461SOL    HW256825   6.792   1.371   4.875
18462SOL     OW56826   7.168   0.639   4.196
18462SOL    HW156827   7.137   0.700   4.269
18462SOL    HW256828   7.218   0.691   4.127
18463SOL     OW56829   5.940   1.510   5.053
18463SOL    HW156830   5.919   1.466   4.966
18463SOL    HW256831   6.037   1.536   5.056
18464SOL     OW56832   5.988   0.751   5.322
18464SOL    HW156833   6.056   0.806   5.275
18464SOL    HW256834   6.028   0.663   5.349
18465SOL     OW56835   7.173   0.779   5.394
18465SOL    HW156836   7.081   0.817   5.389
18465SOL    HW256837   7.233   0.826   5.329
18466SOL     OW56838   6.599   0.105   5.494
18466SOL    HW156839   6.605   0.190   5.442
18466SOL    HW256840   6.631   0.029   5.437
18467SOL     OW56841   6.090   0.050   5.464
18467SOL    HW156842   6.048  -0.007   5.394
18467SOL    HW256843   6.024   0.119   5.496
18468SOL     OW56844   6.159   0.870   4.753
18468SOL    HW156845   6.203   0.959   4.744
18468SOL    HW256846   6.096   0.870   4.830
18469SOL     OW56847   6.946   0.862   4.769
18469SOL    HW156848   6.871   0.862   4.703
18469SOL    HW256849   6.983   0.770   4.778
18470SOL     OW56850   6.795   0.525   3.999
18470SOL    HW156851   6.808   0.441   4.053
18470SOL    HW256852   6.766   0.599   4.059
18471SOL     OW56853   5.893   0.213   4.955
18471SOL    HW156854   5.870   0.250   5.045
18471SOL    HW256855   5.863   0.118   4.949
18472SOL     OW56856   5.623   1.310   5.006
18472SOL    HW156857   5.676   1.261   5.074
18472SOL    HW256858   5.645   1.408   5.011
18473SOL     OW56859   6.318   0.634   4.788
18473SOL    HW156860   6.377   0.608   4.712
18473SOL    HW256861   6.290   0.730   4.777
18474SOL     OW56862   7.314   0.935   5.578
18474SOL    HW156863   7.268   0.928   5.489
18474SOL    HW256864   7.252   0.979   5.644
18475SOL     OW56865   5.893   0.063   4.342
18475SOL    HW156866   5.882   0.157   4.375
18475SOL    HW256867   5.888   0.000   4.419
18476SOL     OW56868   7.208   0.367   4.098
18476SOL    HW156869   7.210   0.291   4.162
18476SOL    HW256870   7.160   0.444   4.138
18477SOL     OW56871   6.609   0.766   4.690
18477SOL    HW156872   6.624   0.787   4.786
18477SOL    HW256873   6.579   0.671   4.681
18478SOL     OW56874   6.566   1.573   5.424
18478SOL    HW156875   6.546   1.617   5.336
18478SOL    HW256876   6.605   1.482   5.408
18479SOL     OW56877   7.445   1.518   5.329
18479SOL    HW156878   7.459   1.545   5.234
18479SOL    HW256879   7.528   1.540   5.382
18480SOL     OW56880   5.936   0.898   5.528
18480SOL    HW156881   6.012   0.942   5.576
18480SOL    HW256882   5.971   0.851   5.446
18481SOL     OW56883   7.126   0.274   3.849
18481SOL    HW156884   7.065   0.199   3.872
18481SOL    HW256885   7.148   0.326   3.932
18482SOL     OW56886   6.889   0.838   3.766
18482SOL    HW156887   6.923   0.745   3.781
18482SOL    HW256888   6.907   0.865   3.671
18483SOL     OW56889   6.654   1.333   4.573
18483SOL    HW156890   6.661   1.249   4.518
18483SOL    HW256891   6.716   1.402   4.537
18484SOL     OW56892   5.905   0.810   4.673
18484SOL    HW156893   5.998   0.846   4.678
18484SOL    HW256894   5.899   0.725   4.725
18485SOL     OW56895   5.925   0.509   4.730
18485SOL    HW156896   5.873   0.426   4.713
18485SOL    HW256897   6.002   0.514   4.666
18486SOL     OW56898   6.724   0.380   5.402
18486SOL    HW156899   6.679   0.443   5.466
18486SOL    HW256900   6.817   0.411   5.385
18487SOL     OW56901   6.746   0.207   5.201
18487SOL    HW156902   6.746   0.271   5.278
18487SOL    HW256903   6.774   0.255   5.118
18488SOL     OW56904   5.594   1.326   3.924
18488SOL    HW156905   5.501   1.347   3.893
18488SOL    HW256906   5.604   1.227   3.937
18489SOL     OW56907   5.674   1.801   4.651
18489SOL    HW156908   5.632   1.715   4.624
18489SOL    HW256909   5.768   1.804   4.617
18490SOL     OW56910   6.090   1.568   4.634
18490SOL    HW156911   6.156   1.642   4.643
18490SOL    HW256912   6.134   1.489   4.592
18491SOL     OW56913   6.588   0.796   4.962
18491SOL    HW156914   6.629   0.764   5.048
18491SOL    HW256915   6.492   0.769   4.959
18492SOL     OW56916   5.626   0.544   4.838
18492SOL    HW156917   5.711   0.511   4.797
18492SOL    HW256918   5.639   0.559   4.936
18493SOL     OW56919   5.775   0.520   5.446
18493SOL    HW156920   5.834   0.480   5.376
18493SOL    HW256921   5.717   0.591   5.405
18494SOL     OW56922   6.955   0.950   5.384
18494SOL    HW156923   6.994   1.039   5.404
18494SOL    HW256924   6.965   0.930   5.287
18495SOL     OW56925   6.401   0.572   4.049
18495SOL    HW156926   6.408   0.483   4.003
18495SOL    HW256927   6.307   0.606   4.041
18496SOL     OW56928   7.243   0.604   4.930
18496SOL    HW156929   7.205   0.535   4.992
18496SOL    HW256930   7.325   0.568   4.886
18497SOL     OW56931   5.838   1.564   5.468
18497SOL    HW156932   5.808   1.621   5.544
18497SOL    HW256933   5.831   1.467   5.494
18498SOL     OW56934   6.257   0.464   4.993
18498SOL    HW156935   6.223   0.375   4.963
18498SOL    HW256936   6.283   0.518   4.913
18499SOL     OW56937   6.516   1.678   5.189
18499SOL    HW156938   6.492   1.660   5.094
18499SOL    HW256939   6.546   1.772   5.199
18500SOL     OW56940   6.059   0.500   3.915
18500SOL    HW156941   6.120   0.580   3.919
18500SOL    HW256942   5.964   0.531   3.922
18501SOL     OW56943   5.745   1.137   5.190
18501SOL    HW156944   5.767   1.076   5.266
18501SOL    HW256945   5.755   1.088   5.104
18502SOL     OW56946   6.933   1.059   4.958
18502SOL    HW156947   6.957   0.996   4.884
18502SOL    HW256948   6.843   1.099   4.940
18503SOL     OW56949   6.888   0.855   4.033
18503SOL    HW156950   6.802   0.824   4.075
18503SOL    HW256951   6.884   0.841   3.934
18504SOL     OW56952   7.345   1.747   4.878
18504SOL    HW156953   7.406   1.777   4.805
18504SOL    HW256954   7.307   1.658   4.856
18505SOL     OW56955   6.838   1.731   4.852
18505SOL    HW156956   6.922   1.736   4.798
18505SOL    HW256957   6.815   1.635   4.870
18506SOL     OW56958   5.669   1.258   4.746
18506SOL    HW156959   5.664   1.257   4.846
18506SOL    HW256960   5.586   1.217   4.708
18507SOL     OW56961   6.274   1.662   5.440
18507SOL    HW156962   6.218   1.743   5.449
18507SOL    HW256963   6.326   1.666   5.354
18508SOL     OW56964   7.312   0.135   4.247
18508SOL    HW156965   7.385   0.118   4.180
18508SOL    HW256966   7.281   0.048   4.285
18509SOL     OW56967   6.974   1.573   4.201
18509SOL    HW156968   7.041   1.585   4.127
18509SOL    HW256969   6.934   1.662   4.224
18510SOL     OW56970   5.716   1.794   5.575
18510SOL    HW156971   5.675   1.720   5.628
18510SOL    HW256972   5.780   1.845   5.633
18511SOL     OW56973   6.866   0.927   4.396
18511SOL    HW156974   6.926   0.846   4.398
18511SOL    HW256975   6.906   0.996   4.336
18512SOL     OW56976   6.416   1.273   5.146
18512SOL    HW156977   6.411   1.306   5.241
18512SOL    HW256978   6.330   1.292   5.100
18513SOL     OW56979   6.258   1.616   3.878
18513SOL    HW156980   6.267   1.626   3.779
18513SOL    HW256981   6.218   1.527   3.899
18514SOL     OW56982   7.236   1.720   5.118
18514SOL    HW156983   7.289   1.730   5.034
18514SOL    HW256984   7.209   1.810   5.152
18515SOL     OW56985   7.427   0.175   4.687
18515SOL    HW156986   7.466   0.090   4.651
18515SOL    HW256987   7.329   0.177   4.668
18516SOL     OW56988   5.849   0.326   4.444
18516SOL    HW156989   5.770   0.377   4.410
18516SOL    HW256990   5.840   0.311   4.542
18517SOL     OW56991   6.780   1.612   3.755
18517SOL    HW156992   6.786   1.519   3.792
18517SOL    HW256993   6.721   1.612   3.675
18518SOL     OW56994   6.408   1.002   5.096
18518SOL    HW156995   6.448   1.001   5.004
18518SOL    HW256996   6.418   1.094   5.136
18519SOL     OW56997   6.502   0.910   4.015
18519SOL    HW156998   6.565   0.948   3.947
18519SOL    HW256999   6.542   0.827   4.054
18520SOL     OW57000   7.090   1.607   3.768
18520SOL    HW157001   6.998   1.644   3.775
18520SOL    HW257002   7.128   1.627   3.678
18521SOL     OW57003   5.958   1.288   5.214
18521SOL    HW157004   5.945   1.381   5.180
18521SOL    HW257005   5.874   1.236   5.201
18522SOL     OW57006   7.200   1.292   5.013
18522SOL    HW157007   7.260   1.295   5.093
18522SOL    HW257008   7.125   1.356   5.026
18523SOL     OW57009   6.625   1.098   4.420
18523SOL    HW157010   6.555   1.051   4.474
18523SOL    HW257011   6.684   1.030   4.377
18524SOL     OW57012   6.600   0.236   4.695
18524SOL    HW157013   6.592   0.200   4.602
18524SOL    HW257014   6.598   0.160   4.760
18525SOL     OW57015   6.176   1.487   4.215
18525SOL    HW157016   6.218   1.429   4.145
18525SOL    HW257017   6.132   1.566   4.171
18526SOL     OW57018   7.295   0.385   5.105
18526SOL    HW157019   7.368   0.454   5.109
18526SOL    HW257020   7.323   0.310   5.046
18527SOL     OW57021   5.841   1.348   4.014
18527SOL    HW157022   5.745   1.349   3.987
18527SOL    HW257023   5.853   1.401   4.098
18528SOL     OW57024   5.691   1.013   5.450
18528SOL    HW157025   5.614   0.980   5.504
18528SOL    HW257026   5.776   0.983   5.492
18529SOL     OW57027   6.258   0.203   5.213
18529SOL    HW157028   6.348   0.187   5.173
18529SOL    HW257029   6.266   0.208   5.312
18530SOL     OW57030   5.661   0.345   3.757
18530SOL    HW157031   5.569   0.317   3.728
18530SOL    HW257032   5.692   0.422   3.701
18531SOL     OW57033   7.026   0.856   5.122
18531SOL    HW157034   6.969   0.908   5.059
18531SOL    HW257035   7.122   0.868   5.098
18532SOL     OW57036   5.658   0.166   4.042
18532SOL    HW157037   5.641   0.249   3.988
18532SOL    HW257038   5.748   0.129   4.020
18533SOL     OW57039   6.769   1.335   3.843
18533SOL    HW157040   6.670   1.324   3.845
18533SOL    HW257041   6.803   1.350   3.936
18534SOL     OW57042   6.199   0.842   5.155
18534SOL    HW157043   6.255   0.923   5.138
18534SOL    HW257044   6.258   0.762   5.158
18535SOL     OW57045   7.079   1.767   4.683
18535SOL    HW157046   7.112   1.831   4.614
18535SOL    HW257047   7.145   1.761   4.758
18536SOL     OW57048   6.302   0.565   5.432
18536SOL    HW157049   6.321   0.630   5.506
18536SOL    HW257050   6.362   0.485   5.441
18537SOL     OW57051   7.036   1.220   5.357
18537SOL    HW157052   7.027   1.210   5.456
18537SOL    HW257053   7.132   1.213   5.331
18538SOL     OW57054   5.976   1.741   5.284
18538SOL    HW157055   5.885   1.782   5.282
18538SOL    HW257056   5.969   1.647   5.316
18539SOL     OW57057   7.260   0.883   4.978
18539SOL    HW157058   7.233   0.794   4.941
18539SOL    HW257059   7.261   0.951   4.905
18540SOL     OW57060   6.811   0.325   4.173
18540SOL    HW157061   6.876   0.251   4.162
18540SOL    HW257062   6.831   0.375   4.257
18541SOL     OW57063   6.180   0.745   4.376
18541SOL    HW157064   6.230   0.830   4.357
18541SOL    HW257065   6.092   0.747   4.328
18542SOL     OW57066   7.363   0.342   5.366
18542SOL    HW157067   7.346   0.373   5.272
18542SOL    HW257068   7.279   0.305   5.404
18543SOL     OW57069   7.316   0.934   5.241
18543SOL    HW157070   7.354   1.025   5.256
18543SOL    HW257071   7.308   0.917   5.142
18544SOL     OW57072   6.445   1.374   3.740
18544SOL    HW157073   6.399   1.389   3.828
18544SOL    HW257074   6.489   1.459   3.710
18545SOL     OW57075   6.247   1.790   4.677
18545SOL    HW157076   6.201   1.878   4.664
18545SOL    HW257077   6.346   1.802   4.670
18546SOL     OW57078   6.445   0.956   4.585
18546SOL    HW157079   6.499   0.887   4.633
18546SOL    HW257080   6.413   1.025   4.651
18547SOL     OW57081   6.669   0.984   3.811
18547SOL    HW157082   6.646   1.037   3.729
18547SOL    HW257083   6.750   0.928   3.792
18548SOL     OW57084   7.447   1.569   4.575
18548SOL    HW157085   7.376   1.557   4.505
18548SOL    HW257086   7.448   1.490   4.635
18549SOL     OW57087   5.807   1.314   5.568
18549SOL    HW157088   5.742   1.241   5.547
18549SOL    HW257089   5.811   1.328   5.666
18550SOL     OW57090   5.665   1.240   4.377
18550SOL    HW157091   5.664   1.193   4.465
18550SOL    HW257092   5.747   1.212   4.326
18551SOL     OW57093   6.258   1.391   5.348
18551SOL    HW157094   6.180   1.341   5.386
18551SOL    HW257095   6.255   1.486   5.379
18552SOL     OW57096   7.410   0.192   4.951
18552SOL    HW157097   7.406   0.102   4.995
18552SOL    HW257098   7.413   0.181   4.852
18553SOL     OW57099   6.014   0.424   4.244
18553SOL    HW157100   6.044   0.352   4.182
18553SOL    HW257101   5.975   0.384   4.327
18554SOL     OW57102   7.291   1.487   4.828
18554SOL    HW157103   7.198   1.462   4.801
18554SOL    HW257104   7.317   1.437   4.910
18555SOL     OW57105   5.903   0.547   5.004
18555SOL    HW157106   5.941   0.488   5.076
18555SOL    HW257107   5.943   0.521   4.916
18556SOL     OW57108   6.398   1.586   4.411
18556SOL    HW157109   6.430   1.596   4.317
18556SOL    HW257110   6.319   1.524   4.413
18557SOL     OW57111   7.010   0.214   4.836
18557SOL    HW157112   7.062   0.149   4.891
18557SOL    HW257113   6.961   0.277   4.897
18558SOL     OW57114   6.587   0.034   4.878
18558SOL    HW157115   6.524  -0.038   4.847
18558SOL    HW257116   6.680  -0.002   4.878
18559SOL     OW57117   6.356   1.330   4.025
18559SOL    HW157118   6.310   1.243   4.042
18559SOL    HW257119   6.447   1.327   4.066
18560SOL     OW57120   6.204   1.567   5.008
18560SOL    HW157121   6.199   1.649   5.065
18560SOL    HW257122   6.293   1.564   4.963
18561SOL     OW57123   6.938   0.052   3.892
18561SOL    HW157124   6.973   0.011   3.808
18561SOL    HW257125   6.848   0.014   3.912
18562SOL     OW57126   6.886   0.453   4.415
18562SOL    HW157127   6.827   0.533   4.419
18562SOL    HW257128   6.901   0.418   4.508
18563SOL     OW57129   7.179   0.221   4.606
18563SOL    HW157130   7.095   0.220   4.660
18563SOL    HW257131   7.181   0.304   4.550
18564SOL     OW57132   5.625   1.077   4.024
18564SOL    HW157133   5.724   1.066   4.015
18564SOL    HW257134   5.585   0.991   4.056
18565SOL     OW57135   6.461   1.646   4.061
18565SOL    HW157136   6.384   1.611   4.007
18565SOL    HW257137   6.429   1.717   4.123
18566SOL     OW57138   5.816   0.628   5.699
18566SOL    HW157139   5.723   0.626   5.736
18566SOL    HW257140   5.817   0.589   5.607
18567SOL     OW57141   5.811   0.275   6.582
18567SOL    HW157142   5.846   0.258   6.674
18567SOL    HW257143   5.723   0.230   6.570
18568SOL     OW57144   5.605   0.368   6.233
18568SOL    HW157145   5.523   0.411   6.272
18568SOL    HW257146   5.577   0.295   6.170
18569SOL     OW57147   6.155   1.275   6.751
18569SOL    HW157148   6.062   1.268   6.714
18569SOL    HW257149   6.166   1.364   6.795
18570SOL     OW57150   7.141   1.511   6.289
18570SOL    HW157151   7.084   1.495   6.370
18570SOL    HW257152   7.082   1.521   6.209
18571SOL     OW57153   6.721   0.703   6.303
18571SOL    HW157154   6.778   0.781   6.278
18571SOL    HW257155   6.661   0.729   6.379
18572SOL     OW57156   7.341   0.607   5.817
18572SOL    HW157157   7.329   0.594   5.718
18572SOL    HW257158   7.311   0.526   5.866
18573SOL     OW57159   6.354   1.144   6.609
18573SOL    HW157160   6.276   1.161   6.669
18573SOL    HW257161   6.388   1.231   6.573
18574SOL     OW57162   6.436   0.798   7.409
18574SOL    HW157163   6.432   0.874   7.474
18574SOL    HW257164   6.458   0.834   7.318
18575SOL     OW57165   6.271   1.012   6.251
18575SOL    HW157166   6.340   0.996   6.321
18575SOL    HW257167   6.198   1.069   6.289
18576SOL     OW57168   6.272   1.161   7.389
18576SOL    HW157169   6.332   1.240   7.403
18576SOL    HW257170   6.186   1.192   7.348
18577SOL     OW57171   5.921   1.435   6.647
18577SOL    HW157172   5.843   1.404   6.594
18577SOL    HW257173   5.979   1.493   6.590
18578SOL     OW57174   7.046   1.505   6.925
18578SOL    HW157175   7.070   1.599   6.951
18578SOL    HW257176   7.030   1.451   7.007
18579SOL     OW57177   6.024   0.392   7.085
18579SOL    HW157178   6.106   0.336   7.094
18579SOL    HW257179   5.943   0.334   7.089
18580SOL     OW57180   7.189   0.447   6.323
18580SOL    HW157181   7.115   0.493   6.273
18580SOL    HW257182   7.240   0.515   6.376
18581SOL     OW57183   5.817   1.713   6.069
18581SOL    HW157184   5.851   1.790   6.123
18581SOL    HW257185   5.861   1.713   5.979
18582SOL     OW57186   6.713   1.341   7.276
18582SOL    HW157187   6.760   1.341   7.364
18582SOL    HW257188   6.665   1.254   7.265
18583SOL     OW57189   5.816   1.434   6.124
18583SOL    HW157190   5.790   1.530   6.124
18583SOL    HW257191   5.745   1.380   6.169
18584SOL     OW57192   5.826   1.091   6.472
18584SOL    HW157193   5.840   1.007   6.524
18584SOL    HW257194   5.771   1.155   6.527
18585SOL     OW57195   6.206   1.786   7.025
18585SOL    HW157196   6.114   1.769   7.060
18585SOL    HW257197   6.234   1.878   7.051
18586SOL     OW57198   6.192   0.964   5.709
18586SOL    HW157199   6.199   1.048   5.655
18586SOL    HW257200   6.238   0.977   5.797
18587SOL     OW57201   7.180   0.114   7.066
18587SOL    HW157202   7.162   0.181   6.994
18587SOL    HW257203   7.177   0.160   7.155
18588SOL     OW57204   5.708   0.643   6.149
18588SOL    HW157205   5.663   0.555   6.166
18588SOL    HW257206   5.707   0.697   6.233
18589SOL     OW57207   7.428   1.767   5.945
18589SOL    HW157208   7.482   1.738   6.025
18589SOL    HW257209   7.458   1.857   5.916
18590SOL     OW57210   5.613   1.596   5.703
18590SOL    HW157211   5.594   1.500   5.724
18590SOL    HW257212   5.580   1.654   5.778
18591SOL     OW57213   7.275   0.922   6.198
18591SOL    HW157214   7.370   0.893   6.206
18591SOL    HW257215   7.267   0.987   6.123
18592SOL     OW57216   7.227   1.108   6.018
18592SOL    HW157217   7.313   1.110   5.966
18592SOL    HW257218   7.241   1.155   6.106
18593SOL     OW57219   5.699   0.737   7.183
18593SOL    HW157220   5.787   0.724   7.228
18593SOL    HW257221   5.686   0.834   7.161
18594SOL     OW57222   6.199   1.365   6.312
18594SOL    HW157223   6.150   1.278   6.321
18594SOL    HW257224   6.176   1.408   6.225
18595SOL     OW57225   6.879   1.228   7.009
18595SOL    HW157226   6.916   1.155   6.951
18595SOL    HW257227   6.931   1.233   7.094
18596SOL     OW57228   6.395   0.004   6.088
18596SOL    HW157229   6.435   0.095   6.079
18596SOL    HW257230   6.295   0.012   6.094
18597SOL     OW57231   5.783   0.976   6.850
18597SOL    HW157232   5.872   0.931   6.836
18597SOL    HW257233   5.710   0.911   6.831
18598SOL     OW57234   7.111   0.999   5.776
18598SOL    HW157235   7.048   0.923   5.789
18598SOL    HW257236   7.159   1.017   5.862
18599SOL     OW57237   6.773   1.792   7.202
18599SOL    HW157238   6.797   1.852   7.126
18599SOL    HW257239   6.780   1.697   7.172
18600SOL     OW57240   5.903   0.251   7.387
18600SOL    HW157241   5.974   0.322   7.393
18600SOL    HW257242   5.815   0.290   7.415
18601SOL     OW57243   7.052   1.417   6.539
18601SOL    HW157244   6.993   1.423   6.619
18601SOL    HW257245   7.037   1.329   6.493
18602SOL     OW57246   7.253   1.714   6.158
18602SOL    HW157247   7.212   1.691   6.070
18602SOL    HW257248   7.235   1.640   6.223
18603SOL     OW57249   6.184   0.729   5.856
18603SOL    HW157250   6.208   0.798   5.788
18603SOL    HW257251   6.106   0.762   5.910
18604SOL     OW57252   6.867   0.345   6.530
18604SOL    HW157253   6.781   0.295   6.517
18604SOL    HW257254   6.929   0.291   6.586
18605SOL     OW57255   7.162   1.662   5.893
18605SOL    HW157256   7.251   1.708   5.896
18605SOL    HW257257   7.141   1.638   5.798
18606SOL     OW57258   6.393   0.605   7.051
18606SOL    HW157259   6.346   0.602   7.140
18606SOL    HW257260   6.342   0.550   6.985
18607SOL     OW57261   6.980   0.469   7.260
18607SOL    HW157262   6.960   0.512   7.348
18607SOL    HW257263   7.058   0.407   7.269
18608SOL     OW57264   6.559   0.890   7.158
18608SOL    HW157265   6.605   0.806   7.129
18608SOL    HW257266   6.503   0.924   7.083
18609SOL     OW57267   6.577   0.410   6.828
18609SOL    HW157268   6.500   0.444   6.882
18609SOL    HW257269   6.543   0.359   6.749
18610SOL     OW57270   6.627   0.701   6.015
18610SOL    HW157271   6.653   0.697   6.111
18610SOL    HW257272   6.542   0.650   6.001
18611SOL     OW57273   5.662   0.811   6.375
18611SOL    HW157274   5.761   0.799   6.384
18611SOL    HW257275   5.638   0.906   6.396
18612SOL     OW57276   5.716   1.821   7.157
18612SOL    HW157277   5.706   1.806   7.256
18612SOL    HW257278   5.630   1.857   7.121
18613SOL     OW57279   6.451   0.348   5.781
18613SOL    HW157280   6.510   0.411   5.732
18613SOL    HW257281   6.470   0.254   5.752
18614SOL     OW57282   7.305   0.585   7.417
18614SOL    HW157283   7.279   0.674   7.381
18614SOL    HW257284   7.303   0.517   7.344
18615SOL     OW57285   6.948   1.144   6.131
18615SOL    HW157286   7.031   1.115   6.083
18615SOL    HW257287   6.899   1.211   6.075
18616SOL     OW57288   6.136   0.196   6.471
18616SOL    HW157289   6.131   0.191   6.571
18616SOL    HW257290   6.138   0.292   6.442
18617SOL     OW57291   6.594   1.456   6.063
18617SOL    HW157292   6.548   1.528   6.011
18617SOL    HW257293   6.590   1.476   6.161
18618SOL     OW57294   5.937   1.801   6.439
18618SOL    HW157295   5.987   1.715   6.445
18618SOL    HW257296   6.002   1.878   6.436
18619SOL     OW57297   7.381   1.066   6.459
18619SOL    HW157298   7.319   1.051   6.383
18619SOL    HW257299   7.329   1.077   6.544
18620SOL     OW57300   6.813   1.550   7.092
18620SOL    HW157301   6.819   1.473   7.156
18620SOL    HW257302   6.761   1.524   7.012
18621SOL     OW57303   5.907   0.943   5.828
18621SOL    HW157304   5.989   0.982   5.786
18621SOL    HW257305   5.880   0.861   5.779
18622SOL     OW57306   7.044   0.735   6.314
18622SOL    HW157307   7.039   0.670   6.389
18622SOL    HW257308   7.124   0.794   6.327
18623SOL     OW57309   6.047   1.266   7.313
18623SOL    HW157310   5.997   1.267   7.227
18623SOL    HW257311   5.984   1.248   7.389
18624SOL     OW57312   6.697   1.776   5.823
18624SOL    HW157313   6.637   1.714   5.873
18624SOL    HW257314   6.728   1.732   5.738
18625SOL     OW57315   5.788   0.285   7.084
18625SOL    HW157316   5.708   0.345   7.071
18625SOL    HW257317   5.778   0.236   7.170
18626SOL     OW57318   7.218   1.377   5.667
18626SOL    HW157319   7.186   1.471   5.657
18626SOL    HW257320   7.142   1.314   5.655
18627SOL     OW57321   6.050   1.743   5.909
18627SOL    HW157322   6.083   1.782   5.995
18627SOL    HW257323   6.126   1.736   5.844
18628SOL     OW57324   6.986   0.107   6.012
18628SOL    HW157325   6.962   0.070   5.922
18628SOL    HW257326   7.085   0.123   6.016
18629SOL     OW57327   5.835   1.785   6.827
18629SOL    HW157328   5.892   1.720   6.877
18629SOL    HW257329   5.819   1.752   6.734
18630SOL     OW57330   6.526   1.698   6.490
18630SOL    HW157331   6.606   1.641   6.511
18630SOL    HW257332   6.477   1.658   6.413
18631SOL     OW57333   5.968   0.700   6.066
18631SOL    HW157334   6.013   0.610   6.063
18631SOL    HW257335   5.874   0.689   6.099
18632SOL     OW57336   7.133   0.222   7.315
18632SOL    HW157337   7.128   0.259   7.407
18632SOL    HW257338   7.061   0.153   7.303
18633SOL     OW57339   6.200   0.122   5.703
18633SOL    HW157340   6.298   0.100   5.710
18633SOL    HW257341   6.169   0.105   5.610
18634SOL     OW57342   6.367   0.264   7.335
18634SOL    HW157343   6.434   0.203   7.378
18634SOL    HW257344   6.294   0.283   7.400
18635SOL     OW57345   6.474   1.514   6.781
18635SOL    HW157346   6.451   1.489   6.687
18635SOL    HW257347   6.535   1.445   6.820
18636SOL     OW57348   6.937   0.590   7.019
18636SOL    HW157349   6.965   0.547   7.104
18636SOL    HW257350   6.962   0.686   7.020
18637SOL     OW57351   6.389   1.402   6.510
18637SOL    HW157352   6.479   1.416   6.468
18637SOL    HW257353   6.318   1.404   6.439
18638SOL     OW57354   6.508   0.503   6.485
18638SOL    HW157355   6.483   0.494   6.389
18638SOL    HW257356   6.556   0.421   6.516
18639SOL     OW57357   6.125   0.064   6.098
18639SOL    HW157358   6.044   0.065   6.156
18639SOL    HW257359   6.128   0.147   6.043
18640SOL     OW57360   7.020   1.188   5.627
18640SOL    HW157361   7.052   1.112   5.684
18640SOL    HW257362   6.928   1.215   5.657
18641SOL     OW57363   5.883   0.035   5.757
18641SOL    HW157364   5.932   0.119   5.736
18641SOL    HW257365   5.945  -0.030   5.802
18642SOL     OW57366   6.521   0.236   6.066
18642SOL    HW157367   6.473   0.277   5.988
18642SOL    HW257368   6.620   0.234   6.047
18643SOL     OW57369   6.662   0.683   7.050
18643SOL    HW157370   6.582   0.622   7.053
18643SOL    HW257371   6.743   0.630   7.026
18644SOL     OW57372   6.813   1.570   6.379
18644SOL    HW157373   6.834   1.644   6.314
18644SOL    HW257374   6.881   1.570   6.452
18645SOL     OW57375   6.045   1.152   6.327
18645SOL    HW157376   5.974   1.125   6.392
18645SOL    HW257377   6.019   1.124   6.234
18646SOL     OW57378   6.857   1.797   6.177
18646SOL    HW157379   6.901   1.861   6.113
18646SOL    HW257380   6.807   1.849   6.247
18647SOL     OW57381   6.618   0.549   5.602
18647SOL    HW157382   6.577   0.631   5.563
18647SOL    HW257383   6.682   0.575   5.675
18648SOL     OW57384   5.664   0.556   6.972
18648SOL    HW157385   5.756   0.555   6.931
18648SOL    HW257386   5.658   0.630   7.039
18649SOL     OW57387   6.147   0.222   6.733
18649SOL    HW157388   6.185   0.138   6.770
18649SOL    HW257389   6.059   0.241   6.777
18650SOL     OW57390   6.452   0.454   6.228
18650SOL    HW157391   6.420   0.526   6.166
18650SOL    HW257392   6.476   0.373   6.175
18651SOL     OW57393   6.603   0.039   6.339
18651SOL    HW157394   6.531   0.044   6.270
18651SOL    HW257395   6.579  -0.030   6.408
18652SOL     OW57396   7.015   1.173   6.453
18652SOL    HW157397   6.960   1.089   6.446
18652SOL    HW257398   7.041   1.202   6.361
18653SOL     OW57399   7.052   0.590   6.578
18653SOL    HW157400   7.022   0.495   6.585
18653SOL    HW257401   7.125   0.606   6.644
18654SOL     OW57402   7.443   0.833   5.963
18654SOL    HW157403   7.485   0.769   6.027
18654SOL    HW257404   7.405   0.782   5.885
18655SOL     OW57405   6.074   1.385   5.760
18655SOL    HW157406   5.987   1.370   5.807
18655SOL    HW257407   6.057   1.411   5.665
18656SOL     OW57408   7.250   1.280   6.243
18656SOL    HW157409   7.349   1.288   6.257
18656SOL    HW257410   7.205   1.364   6.274
18657SOL     OW57411   6.976   0.575   5.664
18657SOL    HW157412   6.922   0.554   5.745
18657SOL    HW257413   7.067   0.534   5.673
18658SOL     OW57414   6.113   0.256   5.914
18658SOL    HW157415   6.140   0.197   5.839
18658SOL    HW257416   6.113   0.351   5.883
18659SOL     OW57417   7.340   1.223   7.174
18659SOL    HW157418   7.431   1.184   7.161
18659SOL    HW257419   7.348   1.319   7.198
18660SOL     OW57420   6.650   1.347   6.926
18660SOL    HW157421   6.570   1.324   6.981
18660SOL    HW257422   6.733   1.321   6.975
18661SOL     OW57423   7.178   1.629   7.211
18661SOL    HW157424   7.205   1.663   7.121
18661SOL    HW257425   7.257   1.591   7.257
18662SOL     OW57426   6.697   1.195   6.686
18662SOL    HW157427   6.657   1.239   6.767
18662SOL    HW257428   6.656   1.232   6.603
18663SOL     OW57429   7.224   1.099   6.665
18663SOL    HW157430   7.229   1.180   6.724
18663SOL    HW257431   7.138   1.101   6.614
18664SOL     OW57432   6.501   0.089   6.988
18664SOL    HW157433   6.526   0.069   6.893
18664SOL    HW257434   6.573   0.145   7.030
18665SOL     OW57435   6.566   1.116   7.305
18665SOL    HW157436   6.467   1.122   7.315
18665SOL    HW257437   6.589   1.036   7.249
18666SOL     OW57438   6.291   1.050   5.954
18666SOL    HW157439   6.277   1.057   6.053
18666SOL    HW257440   6.375   0.999   5.936
18667SOL     OW57441   5.996   0.813   6.837
18667SOL    HW157442   6.082   0.825   6.887
18667SOL    HW257443   5.954   0.726   6.864
18668SOL     OW57444   6.860   0.386   6.848
18668SOL    HW157445   6.881   0.460   6.912
18668SOL    HW257446   6.771   0.403   6.805
18669SOL     OW57447   5.650   1.564   6.917
18669SOL    HW157448   5.604   1.646   6.883
18669SOL    HW257449   5.748   1.583   6.926
18670SOL     OW57450   5.953   1.100   6.087
18670SOL    HW157451   5.946   1.183   6.031
18670SOL    HW257452   5.957   1.020   6.027
18671SOL     OW57453   6.152   0.537   6.451
18671SOL    HW157454   6.164   0.603   6.377
18671SOL    HW257455   6.198   0.571   6.534
18672SOL     OW57456   6.838   1.348   5.974
18672SOL    HW157457   6.888   1.425   6.014
18672SOL    HW257458   6.743   1.350   6.006
18673SOL     OW57459   6.858   1.445   6.728
18673SOL    HW157460   6.905   1.458   6.815
18673SOL    HW257461   6.792   1.371   6.737
18674SOL     OW57462   7.168   0.639   6.058
18674SOL    HW157463   7.137   0.700   6.131
18674SOL    HW257464   7.218   0.691   5.989
18675SOL     OW57465   5.940   1.510   6.915
18675SOL    HW157466   5.919   1.466   6.828
18675SOL    HW257467   6.037   1.536   6.918
18676SOL     OW57468   5.988   0.751   7.184
18676SOL    HW157469   6.056   0.806   7.137
18676SOL    HW257470   6.028   0.663   7.211
18677SOL     OW57471   7.173   0.779   7.256
18677SOL    HW157472   7.081   0.817   7.251
18677SOL    HW257473   7.233   0.826   7.191
18678SOL     OW57474   6.599   0.105   7.356
18678SOL    HW157475   6.605   0.190   7.304
18678SOL    HW257476   6.631   0.029   7.299
18679SOL     OW57477   6.090   0.050   7.326
18679SOL    HW157478   6.048  -0.007   7.256
18679SOL    HW257479   6.024   0.119   7.358
18680SOL     OW57480   6.159   0.870   6.615
18680SOL    HW157481   6.203   0.959   6.606
18680SOL    HW257482   6.096   0.870   6.692
18681SOL     OW57483   6.946   0.862   6.631
18681SOL    HW157484   6.871   0.862   6.565
18681SOL    HW257485   6.983   0.770   6.640
18682SOL     OW57486   6.795   0.525   5.861
18682SOL    HW157487   6.808   0.441   5.915
18682SOL    HW257488   6.766   0.599   5.921
18683SOL     OW57489   5.893   0.213   6.817
18683SOL    HW157490   5.870   0.250   6.907
18683SOL    HW257491   5.863   0.118   6.811
18684SOL     OW57492   5.623   1.310   6.868
18684SOL    HW157493   5.676   1.261   6.936
18684SOL    HW257494   5.645   1.408   6.873
18685SOL     OW57495   6.318   0.634   6.650
18685SOL    HW157496   6.377   0.608   6.574
18685SOL    HW257497   6.290   0.730   6.639
18686SOL     OW57498   7.314   0.935   7.440
18686SOL    HW157499   7.268   0.928   7.351
18686SOL    HW257500   7.252   0.979   7.506
18687SOL     OW57501   5.893   0.063   6.204
18687SOL    HW157502   5.882   0.157   6.237
18687SOL    HW257503   5.888   0.000   6.281
18688SOL     OW57504   7.208   0.367   5.960
18688SOL    HW157505   7.210   0.291   6.024
18688SOL    HW257506   7.160   0.444   6.000
18689SOL     OW57507   6.609   0.766   6.552
18689SOL    HW157508   6.624   0.787   6.648
18689SOL    HW257509   6.579   0.671   6.543
18690SOL     OW57510   6.566   1.573   7.286
18690SOL    HW157511   6.546   1.617   7.198
18690SOL    HW257512   6.605   1.482   7.270
18691SOL     OW57513   7.445   1.518   7.191
18691SOL    HW157514   7.459   1.545   7.096
18691SOL    HW257515   7.528   1.540   7.244
18692SOL     OW57516   5.936   0.898   7.390
18692SOL    HW157517   6.012   0.942   7.438
18692SOL    HW257518   5.971   0.851   7.308
18693SOL     OW57519   7.126   0.274   5.711
18693SOL    HW157520   7.065   0.199   5.734
18693SOL    HW257521   7.148   0.326   5.794
18694SOL     OW57522   6.889   0.838   5.628
18694SOL    HW157523   6.923   0.745   5.643
18694SOL    HW257524   6.907   0.865   5.533
18695SOL     OW57525   6.654   1.333   6.435
18695SOL    HW157526   6.661   1.249   6.380
18695SOL    HW257527   6.716   1.402   6.399
18696SOL     OW57528   5.905   0.810   6.535
18696SOL    HW157529   5.998   0.846   6.540
18696SOL    HW257530   5.899   0.725   6.587
18697SOL     OW57531   5.925   0.509   6.592
18697SOL    HW157532   5.873   0.426   6.575
18697SOL    HW257533   6.002   0.514   6.528
18698SOL     OW57534   6.724   0.380   7.264
18698SOL    HW157535   6.679   0.443   7.328
18698SOL    HW257536   6.817   0.411   7.247
18699SOL     OW57537   6.746   0.207   7.063
18699SOL    HW157538   6.746   0.271   7.140
18699SOL    HW257539   6.774   0.255   6.980
18700SOL     OW57540   5.594   1.326   5.786
18700SOL    HW157541   5.501   1.347   5.755
18700SOL    HW257542   5.604   1.227   5.799
18701SOL     OW57543   5.674   1.801   6.513
18701SOL    HW157544   5.632   1.715   6.486
18701SOL    HW257545   5.768   1.804   6.479
18702SOL     OW57546   6.090   1.568   6.496
18702SOL    HW157547   6.156   1.642   6.505
18702SOL    HW257548   6.134   1.489   6.454
18703SOL     OW57549   6.588   0.796   6.824
18703SOL    HW157550   6.629   0.764   6.910
18703SOL    HW257551   6.492   0.769   6.821
18704SOL     OW57552   5.626   0.544   6.700
18704SOL    HW157553   5.711   0.511   6.659
18704SOL    HW257554   5.639   0.559   6.798
18705SOL     OW57555   5.775   0.520   7.308
18705SOL    HW157556   5.834   0.480   7.238
18705SOL    HW257557   5.717   0.591   7.267
18706SOL     OW57558   6.955   0.950   7.246
18706SOL    HW157559   6.994   1.039   7.266
18706SOL    HW257560   6.965   0.930   7.149
18707SOL     OW57561   6.401   0.572   5.911
18707SOL    HW157562   6.408   0.483   5.865
18707SOL    HW257563   6.307   0.606   5.903
18708SOL     OW57564   7.243   0.604   6.792
18708SOL    HW157565   7.205   0.535   6.854
18708SOL    HW257566   7.325   0.568   6.748
18709SOL     OW57567   5.838   1.564   7.330
18709SOL    HW157568   5.808   1.621   7.406
18709SOL    HW257569   5.831   1.467   7.356
18710SOL     OW57570   6.257   0.464   6.855
18710SOL    HW157571   6.223   0.375   6.825
18710SOL    HW257572   6.283   0.518   6.775
18711SOL     OW57573   6.516   1.678   7.051
18711SOL    HW157574   6.492   1.660   6.956
18711SOL    HW257575   6.546   1.772   7.061
18712SOL     OW57576   6.059   0.500   5.777
18712SOL    HW157577   6.120   0.580   5.781
18712SOL    HW257578   5.964   0.531   5.784
18713SOL     OW57579   5.745   1.137   7.052
18713SOL    HW157580   5.767   1.076   7.128
18713SOL    HW257581   5.755   1.088   6.966
18714SOL     OW57582   6.933   1.059   6.820
18714SOL    HW157583   6.957   0.996   6.746
18714SOL    HW257584   6.843   1.099   6.802
18715SOL     OW57585   6.888   0.855   5.895
18715SOL    HW157586   6.802   0.824   5.937
18715SOL    HW257587   6.884   0.841   5.796
18716SOL     OW57588   7.345   1.747   6.740
18716SOL    HW157589   7.406   1.777   6.667
18716SOL    HW257590   7.307   1.658   6.718
18717SOL     OW57591   6.838   1.731   6.714
18717SOL    HW157592   6.922   1.736   6.660
18717SOL    HW257593   6.815   1.635   6.732
18718SOL     OW57594   5.669   1.258   6.608
18718SOL    HW157595   5.664   1.257   6.708
18718SOL    HW257596   5.586   1.217   6.570
18719SOL     OW57597   6.274   1.662   7.302
18719SOL    HW157598   6.218   1.743   7.311
18719SOL    HW257599   6.326   1.666   7.216
18720SOL     OW57600   7.312   0.135   6.109
18720SOL    HW157601   7.385   0.118   6.042
18720SOL    HW257602   7.281   0.048   6.147
18721SOL     OW57603   6.974   1.573   6.063
18721SOL    HW157604   7.041   1.585   5.989
18721SOL    HW257605   6.934   1.662   6.086
18722SOL     OW57606   5.716   1.794   7.437
18722SOL    HW157607   5.675   1.720   7.490
18722SOL    HW257608   5.780   1.845   7.495
18723SOL     OW57609   6.866   0.927   6.258
18723SOL    HW157610   6.926   0.846   6.260
18723SOL    HW257611   6.906   0.996   6.198
18724SOL     OW57612   6.416   1.273   7.008
18724SOL    HW157613   6.411   1.306   7.103
18724SOL    HW257614   6.330   1.292   6.962
18725SOL     OW57615   6.258   1.616   5.740
18725SOL    HW157616   6.267   1.626   5.641
18725SOL    HW257617   6.218   1.527   5.761
18726SOL     OW57618   7.236   1.720   6.980
18726SOL    HW157619   7.289   1.730   6.896
18726SOL    HW257620   7.209   1.810   7.014
18727SOL     OW57621   7.427   0.175   6.549
18727SOL    HW157622   7.466   0.090   6.513
18727SOL    HW257623   7.329   0.177   6.530
18728SOL     OW57624   5.849   0.326   6.306
18728SOL    HW157625   5.770   0.377   6.272
18728SOL    HW257626   5.840   0.311   6.404
18729SOL     OW57627   6.780   1.612   5.617
18729SOL    HW157628   6.786   1.519   5.654
18729SOL    HW257629   6.721   1.612   5.537
18730SOL     OW57630   6.408   1.002   6.958
18730SOL    HW157631   6.448   1.001   6.866
18730SOL    HW257632   6.418   1.094   6.998
18731SOL     OW57633   6.502   0.910   5.877
18731SOL    HW157634   6.565   0.948   5.809
18731SOL    HW257635   6.542   0.827   5.916
18732SOL     OW57636   7.090   1.607   5.630
18732SOL    HW157637   6.998   1.644   5.637
18732SOL    HW257638   7.128   1.627   5.540
18733SOL     OW57639   5.958   1.288   7.076
18733SOL    HW157640   5.945   1.381   7.042
18733SOL    HW257641   5.874   1.236   7.063
18734SOL     OW57642   7.200   1.292   6.875
18734SOL    HW157643   7.260   1.295   6.955
18734SOL    HW257644   7.125   1.356   6.888
18735SOL     OW57645   6.625   1.098   6.282
18735SOL    HW157646   6.555   1.051   6.336
18735SOL    HW257647   6.684   1.030   6.239
18736SOL     OW57648   6.600   0.236   6.557
18736SOL    HW157649   6.592   0.200   6.464
18736SOL    HW257650   6.598   0.160   6.622
18737SOL     OW57651   6.176   1.487   6.077
18737SOL    HW157652   6.218   1.429   6.007
18737SOL    HW257653   6.132   1.566   6.033
18738SOL     OW57654   7.295   0.385   6.967
18738SOL    HW157655   7.368   0.454   6.971
18738SOL    HW257656   7.323   0.310   6.908
18739SOL     OW57657   5.841   1.348   5.876
18739SOL    HW157658   5.745   1.349   5.849
18739SOL    HW257659   5.853   1.401   5.960
18740SOL     OW57660   5.691   1.013   7.312
18740SOL    HW157661   5.614   0.980   7.366
18740SOL    HW257662   5.776   0.983   7.354
18741SOL     OW57663   6.258   0.203   7.075
18741SOL    HW157664   6.348   0.187   7.035
18741SOL    HW257665   6.266   0.208   7.174
18742SOL     OW57666   5.661   0.345   5.619
18742SOL    HW157667   5.569   0.317   5.590
18742SOL    HW257668   5.692   0.422   5.563
18743SOL     OW57669   7.026   0.856   6.984
18743SOL    HW157670   6.969   0.908   6.921
18743SOL    HW257671   7.122   0.868   6.960
18744SOL     OW57672   5.658   0.166   5.904
18744SOL    HW157673   5.641   0.249   5.850
18744SOL    HW257674   5.748   0.129   5.882
18745SOL     OW57675   6.769   1.335   5.705
18745SOL    HW157676   6.670   1.324   5.707
18745SOL    HW257677   6.803   1.350   5.798
18746SOL     OW57678   6.199   0.842   7.017
18746SOL    HW157679   6.255   0.923   7.000
18746SOL    HW257680   6.258   0.762   7.020
18747SOL     OW57681   7.079   1.767   6.545
18747SOL    HW157682   7.112   1.831   6.476
18747SOL    HW257683   7.145   1.761   6.620
18748SOL     OW57684   6.302   0.565   7.294
18748SOL    HW157685   6.321   0.630   7.368
18748SOL    HW257686   6.362   0.485   7.303
18749SOL     OW57687   7.036   1.220   7.219
18749SOL    HW157688   7.027   1.210   7.318
18749SOL    HW257689   7.132   1.213   7.193
18750SOL     OW57690   5.976   1.741   7.146
18750SOL    HW157691   5.885   1.782   7.144
18750SOL    HW257692   5.969   1.647   7.178
18751SOL     OW57693   7.260   0.883   6.840
18751SOL    HW157694   7.233   0.794   6.803
18751SOL    HW257695   7.261   0.951   6.767
18752SOL     OW57696   6.811   0.325   6.035
18752SOL    HW157697   6.876   0.251   6.024
18752SOL    HW257698   6.831   0.375   6.119
18753SOL     OW57699   6.180   0.745   6.238
18753SOL    HW157700   6.230   0.830   6.219
18753SOL    HW257701   6.092   0.747   6.190
18754SOL     OW57702   7.363   0.342   7.228
18754SOL    HW157703   7.346   0.373   7.134
18754SOL    HW257704   7.279   0.305   7.266
18755SOL     OW57705   7.316   0.934   7.103
18755SOL    HW157706   7.354   1.025   7.118
18755SOL    HW257707   7.308   0.917   7.004
18756SOL     OW57708   6.445   1.374   5.602
18756SOL    HW157709   6.399   1.389   5.690
18756SOL    HW257710   6.489   1.459   5.572
18757SOL     OW57711   6.247   1.790   6.539
18757SOL    HW157712   6.201   1.878   6.526
18757SOL    HW257713   6.346   1.802   6.532
18758SOL     OW57714   6.445   0.956   6.447
18758SOL    HW157715   6.499   0.887   6.495
18758SOL    HW257716   6.413   1.025   6.513
18759SOL     OW57717   6.669   0.984   5.673
18759SOL    HW157718   6.646   1.037   5.591
18759SOL    HW257719   6.750   0.928   5.654
18760SOL     OW57720   7.447   1.569   6.437
18760SOL    HW157721   7.376   1.557   6.367
18760SOL    HW257722   7.448   1.490   6.497
18761SOL     OW57723   5.807   1.314   7.430
18761SOL    HW157724   5.742   1.241   7.409
18761SOL    HW257725   5.811   1.328   7.528
18762SOL     OW57726   5.665   1.240   6.239
18762SOL    HW157727   5.664   1.193   6.327
18762SOL    HW257728   5.747   1.212   6.188
18763SOL     OW57729   6.258   1.391   7.210
18763SOL    HW157730   6.180   1.341   7.248
18763SOL    HW257731   6.255   1.486   7.241
18764SOL     OW57732   7.410   0.192   6.813
18764SOL    HW157733   7.406   0.102   6.857
18764SOL    HW257734   7.413   0.181   6.714
18765SOL     OW57735   6.014   0.424   6.106
18765SOL    HW157736   6.044   0.352   6.044
18765SOL    HW257737   5.975   0.384   6.189
18766SOL     OW57738   7.291   1.487   6.690
18766SOL    HW157739   7.198   1.462   6.663
18766SOL    HW257740   7.317   1.437   6.772
18767SOL     OW57741   5.903   0.547   6.866
18767SOL    HW157742   5.941   0.488   6.938
18767SOL    HW257743   5.943   0.521   6.778
18768SOL     OW57744   6.398   1.586   6.273
18768SOL    HW157745   6.430   1.596   6.179
18768SOL    HW257746   6.319   1.524   6.275
18769SOL     OW57747   7.010   0.214   6.698
18769SOL    HW157748   7.062   0.149   6.753
18769SOL    HW257749   6.961   0.277   6.759
18770SOL     OW57750   6.587   0.034   6.740
18770SOL    HW157751   6.524  -0.038   6.709
18770SOL    HW257752   6.680  -0.002   6.740
18771SOL     OW57753   6.356   1.330   5.887
18771SOL    HW157754   6.310   1.243   5.904
18771SOL    HW257755   6.447   1.327   5.928
18772SOL     OW57756   6.204   1.567   6.870
18772SOL    HW157757   6.199   1.649   6.927
18772SOL    HW257758   6.293   1.564   6.825
18773SOL     OW57759   6.938   0.052   5.754
18773SOL    HW157760   6.973   0.011   5.670
18773SOL    HW257761   6.848   0.014   5.774
18774SOL     OW57762   6.886   0.453   6.277
18774SOL    HW157763   6.827   0.533   6.281
18774SOL    HW257764   6.901   0.418   6.370
18775SOL     OW57765   7.179   0.221   6.468
18775SOL    HW157766   7.095   0.220   6.522
18775SOL    HW257767   7.181   0.304   6.412
18776SOL     OW57768   5.625   1.077   5.886
18776SOL    HW157769   5.724   1.066   5.877
18776SOL    HW257770   5.585   0.991   5.918
18777SOL     OW57771   6.461   1.646   5.923
18777SOL    HW157772   6.384   1.611   5.869
18777SOL    HW257773   6.429   1.717   5.985
18778SOL     OW57774   5.816   0.628   7.561
18778SOL    HW157775   5.723   0.626   7.598
18778SOL    HW257776   5.817   0.589   7.469
18779SOL     OW57777   5.811   0.275   8.444
18779SOL    HW157778   5.846   0.258   8.536
18779SOL    HW257779   5.723   0.230   8.432
18780SOL     OW57780   5.605   0.368   8.095
18780SOL    HW157781   5.523   0.411   8.134
18780SOL    HW257782   5.577   0.295   8.032
18781SOL     OW57783   6.155   1.275   8.613
18781SOL    HW157784   6.062   1.268   8.576
18781SOL    HW257785   6.166   1.364   8.657
18782SOL     OW57786   7.141   1.511   8.151
18782SOL    HW157787   7.084   1.495   8.232
18782SOL    HW257788   7.082   1.521   8.071
18783SOL     OW57789   7.341   0.607   7.679
18783SOL    HW157790   7.329   0.594   7.580
18783SOL    HW257791   7.311   0.526   7.728
18784SOL     OW57792   6.354   1.144   8.471
18784SOL    HW157793   6.276   1.161   8.531
18784SOL    HW257794   6.388   1.231   8.435
18785SOL     OW57795   6.436   0.798   9.271
18785SOL    HW157796   6.432   0.874   9.336
18785SOL    HW257797   6.458   0.834   9.180
18786SOL     OW57798   6.271   1.012   8.113
18786SOL    HW157799   6.340   0.996   8.183
18786SOL    HW257800   6.198   1.069   8.151
18787SOL     OW57801   6.272   1.161   9.251
18787SOL    HW157802   6.332   1.240   9.265
18787SOL    HW257803   6.186   1.192   9.210
18788SOL     OW57804   5.921   1.435   8.509
18788SOL    HW157805   5.843   1.404   8.456
18788SOL    HW257806   5.979   1.493   8.452
18789SOL     OW57807   7.046   1.505   8.787
18789SOL    HW157808   7.070   1.599   8.813
18789SOL    HW257809   7.030   1.451   8.869
18790SOL     OW57810   6.024   0.392   8.947
18790SOL    HW157811   6.106   0.336   8.956
18790SOL    HW257812   5.943   0.334   8.951
18791SOL     OW57813   7.189   0.447   8.185
18791SOL    HW157814   7.115   0.493   8.135
18791SOL    HW257815   7.240   0.515   8.238
18792SOL     OW57816   5.817   1.713   7.931
18792SOL    HW157817   5.851   1.790   7.985
18792SOL    HW257818   5.861   1.713   7.841
18793SOL     OW57819   6.713   1.341   9.138
18793SOL    HW157820   6.760   1.341   9.226
18793SOL    HW257821   6.665   1.254   9.127
18794SOL     OW57822   5.816   1.434   7.986
18794SOL    HW157823   5.790   1.530   7.986
18794SOL    HW257824   5.745   1.380   8.031
18795SOL     OW57825   5.826   1.091   8.334
18795SOL    HW157826   5.840   1.007   8.386
18795SOL    HW257827   5.771   1.155   8.389
18796SOL     OW57828   6.206   1.786   8.887
18796SOL    HW157829   6.114   1.769   8.922
18796SOL    HW257830   6.234   1.878   8.913
18797SOL     OW57831   6.192   0.964   7.571
18797SOL    HW157832   6.199   1.048   7.517
18797SOL    HW257833   6.238   0.977   7.659
18798SOL     OW57834   7.180   0.114   8.928
18798SOL    HW157835   7.162   0.181   8.856
18798SOL    HW257836   7.177   0.160   9.017
18799SOL     OW57837   5.708   0.643   8.011
18799SOL    HW157838   5.663   0.555   8.028
18799SOL    HW257839   5.707   0.697   8.095
18800SOL     OW57840   7.428   1.767   7.807
18800SOL    HW157841   7.482   1.738   7.887
18800SOL    HW257842   7.458   1.857   7.778
18801SOL     OW57843   5.613   1.596   7.565
18801SOL    HW157844   5.594   1.500   7.586
18801SOL    HW257845   5.580   1.654   7.640
18802SOL     OW57846   7.275   0.922   8.060
18802SOL    HW157847   7.370   0.893   8.068
18802SOL    HW257848   7.267   0.987   7.985
18803SOL     OW57849   7.227   1.108   7.880
18803SOL    HW157850   7.313   1.110   7.828
18803SOL    HW257851   7.241   1.155   7.968
18804SOL     OW57852   5.699   0.737   9.045
18804SOL    HW157853   5.787   0.724   9.090
18804SOL    HW257854   5.686   0.834   9.023
18805SOL     OW57855   6.199   1.365   8.174
18805SOL    HW157856   6.150   1.278   8.183
18805SOL    HW257857   6.176   1.408   8.087
18806SOL     OW57858   6.879   1.228   8.871
18806SOL    HW157859   6.916   1.155   8.813
18806SOL    HW257860   6.931   1.233   8.956
18807SOL     OW57861   6.395   0.004   7.950
18807SOL    HW157862   6.435   0.095   7.941
18807SOL    HW257863   6.295   0.012   7.956
18808SOL     OW57864   5.783   0.976   8.712
18808SOL    HW157865   5.872   0.931   8.698
18808SOL    HW257866   5.710   0.911   8.693
18809SOL     OW57867   7.111   0.999   7.638
18809SOL    HW157868   7.048   0.923   7.651
18809SOL    HW257869   7.159   1.017   7.724
18810SOL     OW57870   6.773   1.792   9.064
18810SOL    HW157871   6.797   1.852   8.988
18810SOL    HW257872   6.780   1.697   9.034
18811SOL     OW57873   5.903   0.251   9.249
18811SOL    HW157874   5.974   0.322   9.255
18811SOL    HW257875   5.815   0.290   9.277
18812SOL     OW57876   7.052   1.417   8.401
18812SOL    HW157877   6.993   1.423   8.481
18812SOL    HW257878   7.037   1.329   8.355
18813SOL     OW57879   7.253   1.714   8.020
18813SOL    HW157880   7.212   1.691   7.932
18813SOL    HW257881   7.235   1.640   8.085
18814SOL     OW57882   6.184   0.729   7.718
18814SOL    HW157883   6.208   0.798   7.650
18814SOL    HW257884   6.106   0.762   7.772
18815SOL     OW57885   6.867   0.345   8.392
18815SOL    HW157886   6.781   0.295   8.379
18815SOL    HW257887   6.929   0.291   8.448
18816SOL     OW57888   7.162   1.662   7.755
18816SOL    HW157889   7.251   1.708   7.758
18816SOL    HW257890   7.141   1.638   7.660
18817SOL     OW57891   6.393   0.605   8.913
18817SOL    HW157892   6.346   0.602   9.002
18817SOL    HW257893   6.342   0.550   8.847
18818SOL     OW57894   6.980   0.469   9.122
18818SOL    HW157895   6.960   0.512   9.210
18818SOL    HW257896   7.058   0.407   9.131
18819SOL     OW57897   6.559   0.890   9.020
18819SOL    HW157898   6.605   0.806   8.991
18819SOL    HW257899   6.503   0.924   8.945
18820SOL     OW57900   6.577   0.410   8.690
18820SOL    HW157901   6.500   0.444   8.744
18820SOL    HW257902   6.543   0.359   8.611
18821SOL     OW57903   6.627   0.701   7.877
18821SOL    HW157904   6.653   0.697   7.973
18821SOL    HW257905   6.542   0.650   7.863
18822SOL     OW57906   5.662   0.811   8.237
18822SOL    HW157907   5.761   0.799   8.246
18822SOL    HW257908   5.638   0.906   8.258
18823SOL     OW57909   5.716   1.821   9.019
18823SOL    HW157910   5.706   1.806   9.118
18823SOL    HW257911   5.630   1.857   8.983
18824SOL     OW57912   6.451   0.348   7.643
18824SOL    HW157913   6.510   0.411   7.594
18824SOL    HW257914   6.470   0.254   7.614
18825SOL     OW57915   7.305   0.585   9.279
18825SOL    HW157916   7.279   0.674   9.243
18825SOL    HW257917   7.303   0.517   9.206
18826SOL     OW57918   6.948   1.144   7.993
18826SOL    HW157919   7.031   1.115   7.945
18826SOL    HW257920   6.899   1.211   7.937
18827SOL     OW57921   6.136   0.196   8.333
18827SOL    HW157922   6.131   0.191   8.433
18827SOL    HW257923   6.138   0.292   8.304
18828SOL     OW57924   6.594   1.456   7.925
18828SOL    HW157925   6.548   1.528   7.873
18828SOL    HW257926   6.590   1.476   8.023
18829SOL     OW57927   5.937   1.801   8.301
18829SOL    HW157928   5.987   1.715   8.307
18829SOL    HW257929   6.002   1.878   8.298
18830SOL     OW57930   7.381   1.066   8.321
18830SOL    HW157931   7.319   1.051   8.245
18830SOL    HW257932   7.329   1.077   8.406
18831SOL     OW57933   6.813   1.550   8.954
18831SOL    HW157934   6.819   1.473   9.018
18831SOL    HW257935   6.761   1.524   8.874
18832SOL     OW57936   5.907   0.943   7.690
18832SOL    HW157937   5.989   0.982   7.648
18832SOL    HW257938   5.880   0.861   7.641
18833SOL     OW57939   7.044   0.735   8.176
18833SOL    HW157940   7.039   0.670   8.251
18833SOL    HW257941   7.124   0.794   8.189
18834SOL     OW57942   6.047   1.266   9.175
18834SOL    HW157943   5.997   1.267   9.089
18834SOL    HW257944   5.984   1.248   9.251
18835SOL     OW57945   6.697   1.776   7.685
18835SOL    HW157946   6.637   1.714   7.735
18835SOL    HW257947   6.728   1.732   7.600
18836SOL     OW57948   5.788   0.285   8.946
18836SOL    HW157949   5.708   0.345   8.933
18836SOL    HW257950   5.778   0.236   9.032
18837SOL     OW57951   7.218   1.377   7.529
18837SOL    HW157952   7.186   1.471   7.519
18837SOL    HW257953   7.142   1.314   7.517
18838SOL     OW57954   6.050   1.743   7.771
18838SOL    HW157955   6.083   1.782   7.857
18838SOL    HW257956   6.126   1.736   7.706
18839SOL     OW57957   6.986   0.107   7.874
18839SOL    HW157958   6.962   0.070   7.784
18839SOL    HW257959   7.085   0.123   7.878
18840SOL     OW57960   5.835   1.785   8.689
18840SOL    HW157961   5.892   1.720   8.739
18840SOL    HW257962   5.819   1.752   8.596
18841SOL     OW57963   6.526   1.698   8.352
18841SOL    HW157964   6.606   1.641   8.373
18841SOL    HW257965   6.477   1.658   8.275
18842SOL     OW57966   5.968   0.700   7.928
18842SOL    HW157967   6.013   0.610   7.925
18842SOL    HW257968   5.874   0.689   7.961
18843SOL     OW57969   7.133   0.222   9.177
18843SOL    HW157970   7.128   0.259   9.269
18843SOL    HW257971   7.061   0.153   9.165
18844SOL     OW57972   6.200   0.122   7.565
18844SOL    HW157973   6.298   0.100   7.572
18844SOL    HW257974   6.169   0.105   7.472
18845SOL     OW57975   6.367   0.264   9.197
18845SOL    HW157976   6.434   0.203   9.240
18845SOL    HW257977   6.294   0.283   9.262
18846SOL     OW57978   6.474   1.514   8.643
18846SOL    HW157979   6.451   1.489   8.549
18846SOL    HW257980   6.535   1.445   8.682
18847SOL     OW57981   6.937   0.590   8.881
18847SOL    HW157982   6.965   0.547   8.966
18847SOL    HW257983   6.962   0.686   8.882
18848SOL     OW57984   6.389   1.402   8.372
18848SOL    HW157985   6.479   1.416   8.330
18848SOL    HW257986   6.318   1.404   8.301
18849SOL     OW57987   6.508   0.503   8.347
18849SOL    HW157988   6.483   0.494   8.251
18849SOL    HW257989   6.556   0.421   8.378
18850SOL     OW57990   6.125   0.064   7.960
18850SOL    HW157991   6.044   0.065   8.018
18850SOL    HW257992   6.128   0.147   7.905
18851SOL     OW57993   7.020   1.188   7.489
18851SOL    HW157994   7.052   1.112   7.546
18851SOL    HW257995   6.928   1.215   7.519
18852SOL     OW57996   5.883   0.035   7.619
18852SOL    HW157997   5.932   0.119   7.598
18852SOL    HW257998   5.945  -0.030   7.664
18853SOL     OW57999   6.521   0.236   7.928
18853SOL    HW158000   6.473   0.277   7.850
18853SOL    HW258001   6.620   0.234   7.909
18854SOL     OW58002   6.662   0.683   8.912
18854SOL    HW158003   6.582   0.622   8.915
18854SOL    HW258004   6.743   0.630   8.888
18855SOL     OW58005   6.813   1.570   8.241
18855SOL    HW158006   6.834   1.644   8.176
18855SOL    HW258007   6.881   1.570   8.314
18856SOL     OW58008   6.045   1.152   8.189
18856SOL    HW158009   5.974   1.125   8.254
18856SOL    HW258010   6.019   1.124   8.096
18857SOL     OW58011   6.857   1.797   8.039
18857SOL    HW158012   6.901   1.861   7.975
18857SOL    HW258013   6.807   1.849   8.109
18858SOL     OW58014   6.618   0.549   7.464
18858SOL    HW158015   6.577   0.631   7.425
18858SOL    HW258016   6.682   0.575   7.537
18859SOL     OW58017   5.664   0.556   8.834
18859SOL    HW158018   5.756   0.555   8.793
18859SOL    HW258019   5.658   0.630   8.901
18860SOL     OW58020   6.147   0.222   8.595
18860SOL    HW158021   6.185   0.138   8.632
18860SOL    HW258022   6.059   0.241   8.639
18861SOL     OW58023   6.452   0.454   8.090
18861SOL    HW158024   6.420   0.526   8.028
18861SOL    HW258025   6.476   0.373   8.037
18862SOL     OW58026   6.603   0.039   8.201
18862SOL    HW158027   6.531   0.044   8.132
18862SOL    HW258028   6.579  -0.030   8.270
18863SOL     OW58029   7.015   1.173   8.315
18863SOL    HW158030   6.960   1.089   8.308
18863SOL    HW258031   7.041   1.202   8.223
18864SOL     OW58032   7.052   0.590   8.440
18864SOL    HW158033   7.022   0.495   8.447
18864SOL    HW258034   7.125   0.606   8.506
18865SOL     OW58035   7.443   0.833   7.825
18865SOL    HW158036   7.485   0.769   7.889
18865SOL    HW258037   7.405   0.782   7.747
18866SOL     OW58038   6.074   1.385   7.622
18866SOL    HW158039   5.987   1.370   7.669
18866SOL    HW258040   6.057   1.411   7.527
18867SOL     OW58041   7.250   1.280   8.105
18867SOL    HW158042   7.349   1.288   8.119
18867SOL    HW258043   7.205   1.364   8.136
18868SOL     OW58044   6.976   0.575   7.526
18868SOL    HW158045   6.922   0.554   7.607
18868SOL    HW258046   7.067   0.534   7.535
18869SOL     OW58047   6.113   0.256   7.776
18869SOL    HW158048   6.140   0.197   7.701
18869SOL    HW258049   6.113   0.351   7.745
18870SOL     OW58050   7.340   1.223   9.036
18870SOL    HW158051   7.431   1.184   9.023
18870SOL    HW258052   7.348   1.319   9.060
18871SOL     OW58053   6.650   1.347   8.788
18871SOL    HW158054   6.570   1.324   8.843
18871SOL    HW258055   6.733   1.321   8.837
18872SOL     OW58056   7.178   1.629   9.073
18872SOL    HW158057   7.205   1.663   8.983
18872SOL    HW258058   7.257   1.591   9.119
18873SOL     OW58059   6.697   1.195   8.548
18873SOL    HW158060   6.657   1.239   8.629
18873SOL    HW258061   6.656   1.232   8.465
18874SOL     OW58062   7.224   1.099   8.527
18874SOL    HW158063   7.229   1.180   8.586
18874SOL    HW258064   7.138   1.101   8.476
18875SOL     OW58065   6.501   0.089   8.850
18875SOL    HW158066   6.526   0.069   8.755
18875SOL    HW258067   6.573   0.145   8.892
18876SOL     OW58068   6.566   1.116   9.167
18876SOL    HW158069   6.467   1.122   9.177
18876SOL    HW258070   6.589   1.036   9.111
18877SOL     OW58071   6.291   1.050   7.816
18877SOL    HW158072   6.277   1.057   7.915
18877SOL    HW258073   6.375   0.999   7.798
18878SOL     OW58074   5.996   0.813   8.699
18878SOL    HW158075   6.082   0.825   8.749
18878SOL    HW258076   5.954   0.726   8.726
18879SOL     OW58077   6.860   0.386   8.710
18879SOL    HW158078   6.881   0.460   8.774
18879SOL    HW258079   6.771   0.403   8.667
18880SOL     OW58080   5.650   1.564   8.779
18880SOL    HW158081   5.604   1.646   8.745
18880SOL    HW258082   5.748   1.583   8.788
18881SOL     OW58083   5.953   1.100   7.949
18881SOL    HW158084   5.946   1.183   7.893
18881SOL    HW258085   5.957   1.020   7.889
18882SOL     OW58086   6.152   0.537   8.313
18882SOL    HW158087   6.164   0.603   8.239
18882SOL    HW258088   6.198   0.571   8.396
18883SOL     OW58089   6.838   1.348   7.836
18883SOL    HW158090   6.888   1.425   7.876
18883SOL    HW258091   6.743   1.350   7.868
18884SOL     OW58092   6.858   1.445   8.590
18884SOL    HW158093   6.905   1.458   8.677
18884SOL    HW258094   6.792   1.371   8.599
18885SOL     OW58095   7.168   0.639   7.920
18885SOL    HW158096   7.137   0.700   7.993
18885SOL    HW258097   7.218   0.691   7.851
18886SOL     OW58098   5.940   1.510   8.777
18886SOL    HW158099   5.919   1.466   8.690
18886SOL    HW258100   6.037   1.536   8.780
18887SOL     OW58101   5.988   0.751   9.046
18887SOL    HW158102   6.056   0.806   8.999
18887SOL    HW258103   6.028   0.663   9.073
18888SOL     OW58104   7.173   0.779   9.118
18888SOL    HW158105   7.081   0.817   9.113
18888SOL    HW258106   7.233   0.826   9.053
18889SOL     OW58107   6.599   0.105   9.218
18889SOL    HW158108   6.605   0.190   9.166
18889SOL    HW258109   6.631   0.029   9.161
18890SOL     OW58110   6.090   0.050   9.188
18890SOL    HW158111   6.048  -0.007   9.118
18890SOL    HW258112   6.024   0.119   9.220
18891SOL     OW58113   6.159   0.870   8.477
18891SOL    HW158114   6.203   0.959   8.468
18891SOL    HW258115   6.096   0.870   8.554
18892SOL     OW58116   6.946   0.862   8.493
18892SOL    HW158117   6.871   0.862   8.427
18892SOL    HW258118   6.983   0.770   8.502
18893SOL     OW58119   6.795   0.525   7.723
18893SOL    HW158120   6.808   0.441   7.777
18893SOL    HW258121   6.766   0.599   7.783
18894SOL     OW58122   5.893   0.213   8.679
18894SOL    HW158123   5.870   0.250   8.769
18894SOL    HW258124   5.863   0.118   8.673
18895SOL     OW58125   5.623   1.310   8.730
18895SOL    HW158126   5.676   1.261   8.798
18895SOL    HW258127   5.645   1.408   8.735
18896SOL     OW58128   6.318   0.634   8.512
18896SOL    HW158129   6.377   0.608   8.436
18896SOL    HW258130   6.290   0.730   8.501
18897SOL     OW58131   7.314   0.935   9.302
18897SOL    HW158132   7.268   0.928   9.213
18897SOL    HW258133   7.252   0.979   9.368
18898SOL     OW58134   5.893   0.063   8.066
18898SOL    HW158135   5.882   0.157   8.099
18898SOL    HW258136   5.888   0.000   8.143
18899SOL     OW58137   7.208   0.367   7.822
18899SOL    HW158138   7.210   0.291   7.886
18899SOL    HW258139   7.160   0.444   7.862
18900SOL     OW58140   6.609   0.766   8.414
18900SOL    HW158141   6.624   0.787   8.510
18900SOL    HW258142   6.579   0.671   8.405
18901SOL     OW58143   6.566   1.573   9.148
18901SOL    HW158144   6.546   1.617   9.060
18901SOL    HW258145   6.605   1.482   9.132
18902SOL     OW58146   7.445   1.518   9.053
18902SOL    HW158147   7.459   1.545   8.958
18902SOL    HW258148   7.528   1.540   9.106
18903SOL     OW58149   5.936   0.898   9.252
18903SOL    HW158150   6.012   0.942   9.300
18903SOL    HW258151   5.971   0.851   9.170
18904SOL     OW58152   7.126   0.274   7.573
18904SOL    HW158153   7.065   0.199   7.596
18904SOL    HW258154   7.148   0.326   7.656
18905SOL     OW58155   6.889   0.838   7.490
18905SOL    HW158156   6.923   0.745   7.505
18905SOL    HW258157   6.907   0.865   7.395
18906SOL     OW58158   6.654   1.333   8.297
18906SOL    HW158159   6.661   1.249   8.242
18906SOL    HW258160   6.716   1.402   8.261
18907SOL     OW58161   5.905   0.810   8.397
18907SOL    HW158162   5.998   0.846   8.402
18907SOL    HW258163   5.899   0.725   8.449
18908SOL     OW58164   5.925   0.509   8.454
18908SOL    HW158165   5.873   0.426   8.437
18908SOL    HW258166   6.002   0.514   8.390
18909SOL     OW58167   6.724   0.380   9.126
18909SOL    HW158168   6.679   0.443   9.190
18909SOL    HW258169   6.817   0.411   9.109
18910SOL     OW58170   6.746   0.207   8.925
18910SOL    HW158171   6.746   0.271   9.002
18910SOL    HW258172   6.774   0.255   8.842
18911SOL     OW58173   5.594   1.326   7.648
18911SOL    HW158174   5.501   1.347   7.617
18911SOL    HW258175   5.604   1.227   7.661
18912SOL     OW58176   5.674   1.801   8.375
18912SOL    HW158177   5.632   1.715   8.348
18912SOL    HW258178   5.768   1.804   8.341
18913SOL     OW58179   6.090   1.568   8.358
18913SOL    HW158180   6.156   1.642   8.367
18913SOL    HW258181   6.134   1.489   8.316
18914SOL     OW58182   6.588   0.796   8.686
18914SOL    HW158183   6.629   0.764   8.772
18914SOL    HW258184   6.492   0.769   8.683
18915SOL     OW58185   5.626   0.544   8.562
18915SOL    HW158186   5.711   0.511   8.521
18915SOL    HW258187   5.639   0.559   8.660
18916SOL     OW58188   5.775   0.520   9.170
18916SOL    HW158189   5.834   0.480   9.100
18916SOL    HW258190   5.717   0.591   9.129
18917SOL     OW58191   6.955   0.950   9.108
18917SOL    HW158192   6.994   1.039   9.128
18917SOL    HW258193   6.965   0.930   9.011
18918SOL     OW58194   6.401   0.572   7.773
18918SOL    HW158195   6.408   0.483   7.727
18918SOL    HW258196   6.307   0.606   7.765
18919SOL     OW58197   7.243   0.604   8.654
18919SOL    HW158198   7.205   0.535   8.716
18919SOL    HW258199   7.325   0.568   8.610
18920SOL     OW58200   5.838   1.564   9.192
18920SOL    HW158201   5.808   1.621   9.268
18920SOL    HW258202   5.831   1.467   9.218
18921SOL     OW58203   6.257   0.464   8.717
18921SOL    HW158204   6.223   0.375   8.687
18921SOL    HW258205   6.283   0.518   8.637
18922SOL     OW58206   6.516   1.678   8.913
18922SOL    HW158207   6.492   1.660   8.818
18922SOL    HW258208   6.546   1.772   8.923
18923SOL     OW58209   6.059   0.500   7.639
18923SOL    HW158210   6.120   0.580   7.643
18923SOL    HW258211   5.964   0.531   7.646
18924SOL     OW58212   5.745   1.137   8.914
18924SOL    HW158213   5.767   1.076   8.990
18924SOL    HW258214   5.755   1.088   8.828
18925SOL     OW58215   6.933   1.059   8.682
18925SOL    HW158216   6.957   0.996   8.608
18925SOL    HW258217   6.843   1.099   8.664
18926SOL     OW58218   6.888   0.855   7.757
18926SOL    HW158219   6.802   0.824   7.799
18926SOL    HW258220   6.884   0.841   7.658
18927SOL     OW58221   7.345   1.747   8.602
18927SOL    HW158222   7.406   1.777   8.529
18927SOL    HW258223   7.307   1.658   8.580
18928SOL     OW58224   6.838   1.731   8.576
18928SOL    HW158225   6.922   1.736   8.522
18928SOL    HW258226   6.815   1.635   8.594
18929SOL     OW58227   5.669   1.258   8.470
18929SOL    HW158228   5.664   1.257   8.570
18929SOL    HW258229   5.586   1.217   8.432
18930SOL     OW58230   6.274   1.662   9.164
18930SOL    HW158231   6.218   1.743   9.173
18930SOL    HW258232   6.326   1.666   9.078
18931SOL     OW58233   7.312   0.135   7.971
18931SOL    HW158234   7.385   0.118   7.904
18931SOL    HW258235   7.281   0.048   8.009
18932SOL     OW58236   6.974   1.573   7.925
18932SOL    HW158237   7.041   1.585   7.851
18932SOL    HW258238   6.934   1.662   7.948
18933SOL     OW58239   5.716   1.794   9.299
18933SOL    HW158240   5.675   1.720   9.352
18933SOL    HW258241   5.780   1.845   9.357
18934SOL     OW58242   6.866   0.927   8.120
18934SOL    HW158243   6.926   0.846   8.122
18934SOL    HW258244   6.906   0.996   8.060
18935SOL     OW58245   6.416   1.273   8.870
18935SOL    HW158246   6.411   1.306   8.965
18935SOL    HW258247   6.330   1.292   8.824
18936SOL     OW58248   6.258   1.616   7.602
18936SOL    HW158249   6.267   1.626   7.503
18936SOL    HW258250   6.218   1.527   7.623
18937SOL     OW58251   7.236   1.720   8.842
18937SOL    HW158252   7.289   1.730   8.758
18937SOL    HW258253   7.209   1.810   8.876
18938SOL     OW58254   7.427   0.175   8.411
18938SOL    HW158255   7.466   0.090   8.375
18938SOL    HW258256   7.329   0.177   8.392
18939SOL     OW58257   5.849   0.326   8.168
18939SOL    HW158258   5.770   0.377   8.134
18939SOL    HW258259   5.840   0.311   8.266
18940SOL     OW58260   6.780   1.612   7.479
18940SOL    HW158261   6.786   1.519   7.516
18940SOL    HW258262   6.721   1.612   7.399
18941SOL     OW58263   6.408   1.002   8.820
18941SOL    HW158264   6.448   1.001   8.728
18941SOL    HW258265   6.418   1.094   8.860
18942SOL     OW58266   6.502   0.910   7.739
18942SOL    HW158267   6.565   0.948   7.671
18942SOL    HW258268   6.542   0.827   7.778
18943SOL     OW58269   7.090   1.607   7.492
18943SOL    HW158270   6.998   1.644   7.499
18943SOL    HW258271   7.128   1.627   7.402
18944SOL     OW58272   5.958   1.288   8.938
18944SOL    HW158273   5.945   1.381   8.904
18944SOL    HW258274   5.874   1.236   8.925
18945SOL     OW58275   7.200   1.292   8.737
18945SOL    HW158276   7.260   1.295   8.817
18945SOL    HW258277   7.125   1.356   8.750
18946SOL     OW58278   6.625   1.098   8.144
18946SOL    HW158279   6.555   1.051   8.198
18946SOL    HW258280   6.684   1.030   8.101
18947SOL     OW58281   6.600   0.236   8.419
18947SOL    HW158282   6.592   0.200   8.326
18947SOL    HW258283   6.598   0.160   8.484
18948SOL     OW58284   6.176   1.487   7.939
18948SOL    HW158285   6.218   1.429   7.869
18948SOL    HW258286   6.132   1.566   7.895
18949SOL     OW58287   7.295   0.385   8.829
18949SOL    HW158288   7.368   0.454   8.833
18949SOL    HW258289   7.323   0.310   8.770
18950SOL     OW58290   5.841   1.348   7.738
18950SOL    HW158291   5.745   1.349   7.711
18950SOL    HW258292   5.853   1.401   7.822
18951SOL     OW58293   5.691   1.013   9.174
18951SOL    HW158294   5.614   0.980   9.228
18951SOL    HW258295   5.776   0.983   9.216
18952SOL     OW58296   6.258   0.203   8.937
18952SOL    HW158297   6.348   0.187   8.897
18952SOL    HW258298   6.266   0.208   9.036
18953SOL     OW58299   5.661   0.345   7.481
18953SOL    HW158300   5.569   0.317   7.452
18953SOL    HW258301   5.692   0.422   7.425
18954SOL     OW58302   7.026   0.856   8.846
18954SOL    HW158303   6.969   0.908   8.783
18954SOL    HW258304   7.122   0.868   8.822
18955SOL     OW58305   5.658   0.166   7.766
18955SOL    HW158306   5.641   0.249   7.712
18955SOL    HW258307   5.748   0.129   7.744
18956SOL     OW58308   6.769   1.335   7.567
18956SOL    HW158309   6.670   1.324   7.569
18956SOL    HW258310   6.803   1.350   7.660
18957SOL     OW58311   6.199   0.842   8.879
18957SOL    HW158312   6.255   0.923   8.862
18957SOL    HW258313   6.258   0.762   8.882
18958SOL     OW58314   7.079   1.767   8.407
18958SOL    HW158315   7.112   1.831   8.338
18958SOL    HW258316   7.145   1.761   8.482
18959SOL     OW58317   6.302   0.565   9.156
18959SOL    HW158318   6.321   0.630   9.230
18959SOL    HW258319   6.362   0.485   9.165
18960SOL     OW58320   7.036   1.220   9.081
18960SOL    HW158321   7.027   1.210   9.180
18960SOL    HW258322   7.132   1.213   9.055
18961SOL     OW58323   5.976   1.741   9.008
18961SOL    HW158324   5.885   1.782   9.006
18961SOL    HW258325   5.969   1.647   9.040
18962SOL     OW58326   7.260   0.883   8.702
18962SOL    HW158327   7.233   0.794   8.665
18962SOL    HW258328   7.261   0.951   8.629
18963SOL     OW58329   6.811   0.325   7.897
18963SOL    HW158330   6.876   0.251   7.886
18963SOL    HW258331   6.831   0.375   7.981
18964SOL     OW58332   6.180   0.745   8.100
18964SOL    HW158333   6.230   0.830   8.081
18964SOL    HW258334   6.092   0.747   8.052
18965SOL     OW58335   7.363   0.342   9.090
18965SOL    HW158336   7.346   0.373   8.996
18965SOL    HW258337   7.279   0.305   9.128
18966SOL     OW58338   7.316   0.934   8.965
18966SOL    HW158339   7.354   1.025   8.980
18966SOL    HW258340   7.308   0.917   8.866
18967SOL     OW58341   6.445   1.374   7.464
18967SOL    HW158342   6.399   1.389   7.552
18967SOL    HW258343   6.489   1.459   7.434
18968SOL     OW58344   6.247   1.790   8.401
18968SOL    HW158345   6.201   1.878   8.388
18968SOL    HW258346   6.346   1.802   8.394
18969SOL     OW58347   6.445   0.956   8.309
18969SOL    HW158348   6.499   0.887   8.357
18969SOL    HW258349   6.413   1.025   8.375
18970SOL     OW58350   6.669   0.984   7.535
18970SOL    HW158351   6.646   1.037   7.453
18970SOL    HW258352   6.750   0.928   7.516
18971SOL     OW58353   7.447   1.569   8.299
18971SOL    HW158354   7.376   1.557   8.229
18971SOL    HW258355   7.448   1.490   8.359
18972SOL     OW58356   5.807   1.314   9.292
18972SOL    HW158357   5.742   1.241   9.271
18972SOL    HW258358   5.811   1.328   9.390
18973SOL     OW58359   5.665   1.240   8.101
18973SOL    HW158360   5.664   1.193   8.189
18973SOL    HW258361   5.747   1.212   8.050
18974SOL     OW58362   6.258   1.391   9.072
18974SOL    HW158363   6.180   1.341   9.110
18974SOL    HW258364   6.255   1.486   9.103
18975SOL     OW58365   7.410   0.192   8.675
18975SOL    HW158366   7.406   0.102   8.719
18975SOL    HW258367   7.413   0.181   8.576
18976SOL     OW58368   6.014   0.424   7.968
18976SOL    HW158369   6.044   0.352   7.906
18976SOL    HW258370   5.975   0.384   8.051
18977SOL     OW58371   7.291   1.487   8.552
18977SOL    HW158372   7.198   1.462   8.525
18977SOL    HW258373   7.317   1.437   8.634
18978SOL     OW58374   5.903   0.547   8.728
18978SOL    HW158375   5.941   0.488   8.800
18978SOL    HW258376   5.943   0.521   8.640
18979SOL     OW58377   6.398   1.586   8.135
18979SOL    HW158378   6.430   1.596   8.041
18979SOL    HW258379   6.319   1.524   8.137
18980SOL     OW58380   7.010   0.214   8.560
18980SOL    HW158381   7.062   0.149   8.615
18980SOL    HW258382   6.961   0.277   8.621
18981SOL     OW58383   6.587   0.034   8.602
18981SOL    HW158384   6.524  -0.038   8.571
18981SOL    HW258385   6.680  -0.002   8.602
18982SOL     OW58386   6.356   1.330   7.749
18982SOL    HW158387   6.310   1.243   7.766
18982SOL    HW258388   6.447   1.327   7.790
18983SOL     OW58389   6.204   1.567   8.732
18983SOL    HW158390   6.199   1.649   8.789
18983SOL    HW258391   6.293   1.564   8.687
18984SOL     OW58392   6.938   0.052   7.616
18984SOL    HW158393   6.973   0.011   7.532
18984SOL    HW258394   6.848   0.014   7.636
18985SOL     OW58395   6.886   0.453   8.139
18985SOL    HW158396   6.827   0.533   8.143
18985SOL    HW258397   6.901   0.418   8.232
18986SOL     OW58398   7.179   0.221   8.330
18986SOL    HW158399   7.095   0.220   8.384
18986SOL    HW258400   7.181   0.304   8.274
18987SOL     OW58401   5.625   1.077   7.748
18987SOL    HW158402   5.724   1.066   7.739
18987SOL    HW258403   5.585   0.991   7.780
18988SOL     OW58404   6.461   1.646   7.785
18988SOL    HW158405   6.384   1.611   7.731
18988SOL    HW258406   6.429   1.717   7.847
18989SOL     OW58407   5.816   0.628   9.423
18989SOL    HW158408   5.723   0.626   9.460
18989SOL    HW258409   5.817   0.589   9.331
18990SOL     OW58410   5.811   0.275  10.306
18990SOL    HW158411   5.846   0.258  10.398
18990SOL    HW258412   5.723   0.230  10.294
18991SOL     OW58413   5.605   0.368   9.957
18991SOL    HW158414   5.523   0.411   9.996
18991SOL    HW258415   5.577   0.295   9.894
18992SOL     OW58416   6.155   1.275  10.475
18992SOL    HW158417   6.062   1.268  10.438
18992SOL    HW258418   6.166   1.364  10.519
18993SOL     OW58419   7.141   1.511  10.013
18993SOL    HW158420   7.084   1.495  10.094
18993SOL    HW258421   7.082   1.521   9.933
18994SOL     OW58422   6.721   0.703  10.027
18994SOL    HW158423   6.778   0.781  10.002
18994SOL    HW258424   6.661   0.729  10.103
18995SOL     OW58425   7.341   0.607   9.541
18995SOL    HW158426   7.329   0.594   9.442
18995SOL    HW258427   7.311   0.526   9.590
18996SOL     OW58428   6.354   1.144  10.333
18996SOL    HW158429   6.276   1.161  10.393
18996SOL    HW258430   6.388   1.231  10.297
18997SOL     OW58431   6.436   0.798  11.133
18997SOL    HW158432   6.432   0.874  11.198
18997SOL    HW258433   6.458   0.834  11.042
18998SOL     OW58434   6.271   1.012   9.975
18998SOL    HW158435   6.340   0.996  10.045
18998SOL    HW258436   6.198   1.069  10.013
18999SOL     OW58437   6.272   1.161  11.113
18999SOL    HW158438   6.332   1.240  11.127
18999SOL    HW258439   6.186   1.192  11.072
19000SOL     OW58440   5.921   1.435  10.371
19000SOL    HW158441   5.843   1.404  10.318
19000SOL    HW258442   5.979   1.493  10.314
19001SOL     OW58443   7.046   1.505  10.649
19001SOL    HW158444   7.070   1.599  10.675
19001SOL    HW258445   7.030   1.451  10.731
19002SOL     OW58446   6.024   0.392  10.809
19002SOL    HW158447   6.106   0.336  10.818
19002SOL    HW258448   5.943   0.334  10.813
19003SOL     OW58449   7.189   0.447  10.047
19003SOL    HW158450   7.115   0.493   9.997
19003SOL    HW258451   7.240   0.515  10.100
19004SOL     OW58452   5.817   1.713   9.793
19004SOL    HW158453   5.851   1.790   9.847
19004SOL    HW258454   5.861   1.713   9.703
19005SOL     OW58455   6.713   1.341  11.000
19005SOL    HW158456   6.760   1.341  11.088
19005SOL    HW258457   6.665   1.254  10.989
19006SOL     OW58458   5.816   1.434   9.848
19006SOL    HW158459   5.790   1.530   9.848
19006SOL    HW258460   5.745   1.380   9.893
19007SOL     OW58461   5.826   1.091  10.196
19007SOL    HW158462   5.840   1.007  10.248
19007SOL    HW258463   5.771   1.155  10.251
19008SOL     OW58464   6.206   1.786  10.749
19008SOL    HW158465   6.114   1.769  10.784
19008SOL    HW258466   6.234   1.878  10.775
19009SOL     OW58467   6.192   0.964   9.433
19009SOL    HW158468   6.199   1.048   9.379
19009SOL    HW258469   6.238   0.977   9.521
19010SOL     OW58470   7.180   0.114  10.790
19010SOL    HW158471   7.162   0.181  10.718
19010SOL    HW258472   7.177   0.160  10.879
19011SOL     OW58473   5.708   0.643   9.873
19011SOL    HW158474   5.663   0.555   9.890
19011SOL    HW258475   5.707   0.697   9.957
19012SOL     OW58476   7.428   1.767   9.669
19012SOL    HW158477   7.482   1.738   9.749
19012SOL    HW258478   7.458   1.857   9.640
19013SOL     OW58479   5.613   1.596   9.427
19013SOL    HW158480   5.594   1.500   9.448
19013SOL    HW258481   5.580   1.654   9.502
19014SOL     OW58482   7.275   0.922   9.922
19014SOL    HW158483   7.370   0.893   9.930
19014SOL    HW258484   7.267   0.987   9.847
19015SOL     OW58485   7.227   1.108   9.742
19015SOL    HW158486   7.313   1.110   9.690
19015SOL    HW258487   7.241   1.155   9.830
19016SOL     OW58488   5.699   0.737  10.907
19016SOL    HW158489   5.787   0.724  10.952
19016SOL    HW258490   5.686   0.834  10.885
19017SOL     OW58491   6.199   1.365  10.036
19017SOL    HW158492   6.150   1.278  10.045
19017SOL    HW258493   6.176   1.408   9.949
19018SOL     OW58494   6.879   1.228  10.733
19018SOL    HW158495   6.916   1.155  10.675
19018SOL    HW258496   6.931   1.233  10.818
19019SOL     OW58497   6.395   0.004   9.812
19019SOL    HW158498   6.435   0.095   9.803
19019SOL    HW258499   6.295   0.012   9.818
19020SOL     OW58500   5.783   0.976  10.574
19020SOL    HW158501   5.872   0.931  10.560
19020SOL    HW258502   5.710   0.911  10.555
19021SOL     OW58503   7.111   0.999   9.500
19021SOL    HW158504   7.048   0.923   9.513
19021SOL    HW258505   7.159   1.017   9.586
19022SOL     OW58506   6.773   1.792  10.926
19022SOL    HW158507   6.797   1.852  10.850
19022SOL    HW258508   6.780   1.697  10.896
19023SOL     OW58509   5.903   0.251  11.111
19023SOL    HW158510   5.974   0.322  11.117
19023SOL    HW258511   5.815   0.290  11.139
19024SOL     OW58512   7.052   1.417  10.263
19024SOL    HW158513   6.993   1.423  10.343
19024SOL    HW258514   7.037   1.329  10.217
19025SOL     OW58515   7.253   1.714   9.882
19025SOL    HW158516   7.212   1.691   9.794
19025SOL    HW258517   7.235   1.640   9.947
19026SOL     OW58518   6.184   0.729   9.580
19026SOL    HW158519   6.208   0.798   9.512
19026SOL    HW258520   6.106   0.762   9.634
19027SOL     OW58521   6.867   0.345  10.254
19027SOL    HW158522   6.781   0.295  10.241
19027SOL    HW258523   6.929   0.291  10.310
19028SOL     OW58524   7.162   1.662   9.617
19028SOL    HW158525   7.251   1.708   9.620
19028SOL    HW258526   7.141   1.638   9.522
19029SOL     OW58527   6.393   0.605  10.775
19029SOL    HW158528   6.346   0.602  10.864
19029SOL    HW258529   6.342   0.550  10.709
19030SOL     OW58530   6.980   0.469  10.984
19030SOL    HW158531   6.960   0.512  11.072
19030SOL    HW258532   7.058   0.407  10.993
19031SOL     OW58533   6.559   0.890  10.882
19031SOL    HW158534   6.605   0.806  10.853
19031SOL    HW258535   6.503   0.924  10.807
19032SOL     OW58536   6.577   0.410  10.552
19032SOL    HW158537   6.500   0.444  10.606
19032SOL    HW258538   6.543   0.359  10.473
19033SOL     OW58539   6.627   0.701   9.739
19033SOL    HW158540   6.653   0.697   9.835
19033SOL    HW258541   6.542   0.650   9.725
19034SOL     OW58542   5.662   0.811  10.099
19034SOL    HW158543   5.761   0.799  10.108
19034SOL    HW258544   5.638   0.906  10.120
19035SOL     OW58545   5.716   1.821  10.881
19035SOL    HW158546   5.706   1.806  10.980
19035SOL    HW258547   5.630   1.857  10.845
19036SOL     OW58548   6.451   0.348   9.505
19036SOL    HW158549   6.510   0.411   9.456
19036SOL    HW258550   6.470   0.254   9.476
19037SOL     OW58551   7.305   0.585  11.141
19037SOL    HW158552   7.279   0.674  11.105
19037SOL    HW258553   7.303   0.517  11.068
19038SOL     OW58554   6.948   1.144   9.855
19038SOL    HW158555   7.031   1.115   9.807
19038SOL    HW258556   6.899   1.211   9.799
19039SOL     OW58557   6.136   0.196  10.195
19039SOL    HW158558   6.131   0.191  10.295
19039SOL    HW258559   6.138   0.292  10.166
19040SOL     OW58560   6.594   1.456   9.787
19040SOL    HW158561   6.548   1.528   9.735
19040SOL    HW258562   6.590   1.476   9.885
19041SOL     OW58563   5.937   1.801  10.163
19041SOL    HW158564   5.987   1.715  10.169
19041SOL    HW258565   6.002   1.878  10.160
19042SOL     OW58566   7.381   1.066  10.183
19042SOL    HW158567   7.319   1.051  10.107
19042SOL    HW258568   7.329   1.077  10.268
19043SOL     OW58569   6.813   1.550  10.816
19043SOL    HW158570   6.819   1.473  10.880
19043SOL    HW258571   6.761   1.524  10.736
19044SOL     OW58572   5.907   0.943   9.552
19044SOL    HW158573   5.989   0.982   9.510
19044SOL    HW258574   5.880   0.861   9.503
19045SOL     OW58575   7.044   0.735  10.038
19045SOL    HW158576   7.039   0.670  10.113
19045SOL    HW258577   7.124   0.794  10.051
19046SOL     OW58578   6.047   1.266  11.037
19046SOL    HW158579   5.997   1.267  10.951
19046SOL    HW258580   5.984   1.248  11.113
19047SOL     OW58581   6.697   1.776   9.547
19047SOL    HW158582   6.637   1.714   9.597
19047SOL    HW258583   6.728   1.732   9.462
19048SOL     OW58584   5.788   0.285  10.808
19048SOL    HW158585   5.708   0.345  10.795
19048SOL    HW258586   5.778   0.236  10.894
19049SOL     OW58587   7.218   1.377   9.391
19049SOL    HW158588   7.186   1.471   9.381
19049SOL    HW258589   7.142   1.314   9.379
19050SOL     OW58590   6.050   1.743   9.633
19050SOL    HW158591   6.083   1.782   9.719
19050SOL    HW258592   6.126   1.736   9.568
19051SOL     OW58593   6.986   0.107   9.736
19051SOL    HW158594   6.962   0.070   9.646
19051SOL    HW258595   7.085   0.123   9.740
19052SOL     OW58596   5.835   1.785  10.551
19052SOL    HW158597   5.892   1.720  10.601
19052SOL    HW258598   5.819   1.752  10.458
19053SOL     OW58599   6.526   1.698  10.214
19053SOL    HW158600   6.606   1.641  10.235
19053SOL    HW258601   6.477   1.658  10.137
19054SOL     OW58602   5.968   0.700   9.790
19054SOL    HW158603   6.013   0.610   9.787
19054SOL    HW258604   5.874   0.689   9.823
19055SOL     OW58605   7.133   0.222  11.039
19055SOL    HW158606   7.128   0.259  11.131
19055SOL    HW258607   7.061   0.153  11.027
19056SOL     OW58608   6.200   0.122   9.427
19056SOL    HW158609   6.298   0.100   9.434
19056SOL    HW258610   6.169   0.105   9.334
19057SOL     OW58611   6.367   0.264  11.059
19057SOL    HW158612   6.434   0.203  11.102
19057SOL    HW258613   6.294   0.283  11.124
19058SOL     OW58614   6.474   1.514  10.505
19058SOL    HW158615   6.451   1.489  10.411
19058SOL    HW258616   6.535   1.445  10.544
19059SOL     OW58617   6.937   0.590  10.743
19059SOL    HW158618   6.965   0.547  10.828
19059SOL    HW258619   6.962   0.686  10.744
19060SOL     OW58620   6.389   1.402  10.234
19060SOL    HW158621   6.479   1.416  10.192
19060SOL    HW258622   6.318   1.404  10.163
19061SOL     OW58623   6.508   0.503  10.209
19061SOL    HW158624   6.483   0.494  10.113
19061SOL    HW258625   6.556   0.421  10.240
19062SOL     OW58626   6.125   0.064   9.822
19062SOL    HW158627   6.044   0.065   9.880
19062SOL    HW258628   6.128   0.147   9.767
19063SOL     OW58629   7.020   1.188   9.351
19063SOL    HW158630   7.052   1.112   9.408
19063SOL    HW258631   6.928   1.215   9.381
19064SOL     OW58632   5.883   0.035   9.481
19064SOL    HW158633   5.932   0.119   9.460
19064SOL    HW258634   5.945  -0.030   9.526
19065SOL     OW58635   6.521   0.236   9.790
19065SOL    HW158636   6.473   0.277   9.712
19065SOL    HW258637   6.620   0.234   9.771
19066SOL     OW58638   6.662   0.683  10.774
19066SOL    HW158639   6.582   0.622  10.777
19066SOL    HW258640   6.743   0.630  10.750
19067SOL     OW58641   6.813   1.570  10.103
19067SOL    HW158642   6.834   1.644  10.038
19067SOL    HW258643   6.881   1.570  10.176
19068SOL     OW58644   6.045   1.152  10.051
19068SOL    HW158645   5.974   1.125  10.116
19068SOL    HW258646   6.019   1.124   9.958
19069SOL     OW58647   6.857   1.797   9.901
19069SOL    HW158648   6.901   1.861   9.837
19069SOL    HW258649   6.807   1.849   9.971
19070SOL     OW58650   6.618   0.549   9.326
19070SOL    HW158651   6.577   0.631   9.287
19070SOL    HW258652   6.682   0.575   9.399
19071SOL     OW58653   5.664   0.556  10.696
19071SOL    HW158654   5.756   0.555  10.655
19071SOL    HW258655   5.658   0.630  10.763
19072SOL     OW58656   6.147   0.222  10.457
19072SOL    HW158657   6.185   0.138  10.494
19072SOL    HW258658   6.059   0.241  10.501
19073SOL     OW58659   6.452   0.454   9.952
19073SOL    HW158660   6.420   0.526   9.890
19073SOL    HW258661   6.476   0.373   9.899
19074SOL     OW58662   6.603   0.039  10.063
19074SOL    HW158663   6.531   0.044   9.994
19074SOL    HW258664   6.579  -0.030  10.132
19075SOL     OW58665   7.015   1.173  10.177
19075SOL    HW158666   6.960   1.089  10.170
19075SOL    HW258667   7.041   1.202  10.085
19076SOL     OW58668   7.052   0.590  10.302
19076SOL    HW158669   7.022   0.495  10.309
19076SOL    HW258670   7.125   0.606  10.368
19077SOL     OW58671   7.443   0.833   9.687
19077SOL    HW158672   7.485   0.769   9.751
19077SOL    HW258673   7.405   0.782   9.609
19078SOL     OW58674   6.074   1.385   9.484
19078SOL    HW158675   5.987   1.370   9.531
19078SOL    HW258676   6.057   1.411   9.389
19079SOL     OW58677   7.250   1.280   9.967
19079SOL    HW158678   7.349   1.288   9.981
19079SOL    HW258679   7.205   1.364   9.998
19080SOL     OW58680   6.976   0.575   9.388
19080SOL    HW158681   6.922   0.554   9.469
19080SOL    HW258682   7.067   0.534   9.397
19081SOL     OW58683   6.113   0.256   9.638
19081SOL    HW158684   6.140   0.197   9.563
19081SOL    HW258685   6.113   0.351   9.607
19082SOL     OW58686   7.340   1.223  10.898
19082SOL    HW158687   7.431   1.184  10.885
19082SOL    HW258688   7.348   1.319  10.922
19083SOL     OW58689   6.650   1.347  10.650
19083SOL    HW158690   6.570   1.324  10.705
19083SOL    HW258691   6.733   1.321  10.699
19084SOL     OW58692   7.178   1.629  10.935
19084SOL    HW158693   7.205   1.663  10.845
19084SOL    HW258694   7.257   1.591  10.981
19085SOL     OW58695   6.697   1.195  10.410
19085SOL    HW158696   6.657   1.239  10.491
19085SOL    HW258697   6.656   1.232  10.327
19086SOL     OW58698   7.224   1.099  10.389
19086SOL    HW158699   7.229   1.180  10.448
19086SOL    HW258700   7.138   1.101  10.338
19087SOL     OW58701   6.501   0.089  10.712
19087SOL    HW158702   6.526   0.069  10.617
19087SOL    HW258703   6.573   0.145  10.754
19088SOL     OW58704   6.566   1.116  11.029
19088SOL    HW158705   6.467   1.122  11.039
19088SOL    HW258706   6.589   1.036  10.973
19089SOL     OW58707   6.291   1.050   9.678
19089SOL    HW158708   6.277   1.057   9.777
19089SOL    HW258709   6.375   0.999   9.660
19090SOL     OW58710   5.996   0.813  10.561
19090SOL    HW158711   6.082   0.825  10.611
19090SOL    HW258712   5.954   0.726  10.588
19091SOL     OW58713   6.860   0.386  10.572
19091SOL    HW158714   6.881   0.460  10.636
19091SOL    HW258715   6.771   0.403  10.529
19092SOL     OW58716   5.650   1.564  10.641
19092SOL    HW158717   5.604   1.646  10.607
19092SOL    HW258718   5.748   1.583  10.650
19093SOL     OW58719   5.953   1.100   9.811
19093SOL    HW158720   5.946   1.183   9.755
19093SOL    HW258721   5.957   1.020   9.751
19094SOL     OW58722   6.152   0.537  10.175
19094SOL    HW158723   6.164   0.603  10.101
19094SOL    HW258724   6.198   0.571  10.258
19095SOL     OW58725   6.838   1.348   9.698
19095SOL    HW158726   6.888   1.425   9.738
19095SOL    HW258727   6.743   1.350   9.730
19096SOL     OW58728   6.858   1.445  10.452
19096SOL    HW158729   6.905   1.458  10.539
19096SOL    HW258730   6.792   1.371  10.461
19097SOL     OW58731   7.168   0.639   9.782
19097SOL    HW158732   7.137   0.700   9.855
19097SOL    HW258733   7.218   0.691   9.713
19098SOL     OW58734   5.940   1.510  10.639
19098SOL    HW158735   5.919   1.466  10.552
19098SOL    HW258736   6.037   1.536  10.642
19099SOL     OW58737   5.988   0.751  10.908
19099SOL    HW158738   6.056   0.806  10.861
19099SOL    HW258739   6.028   0.663  10.935
19100SOL     OW58740   7.173   0.779  10.980
19100SOL    HW158741   7.081   0.817  10.975
19100SOL    HW258742   7.233   0.826  10.915
19101SOL     OW58743   6.599   0.105  11.080
19101SOL    HW158744   6.605   0.190  11.028
19101SOL    HW258745   6.631   0.029  11.023
19102SOL     OW58746   6.090   0.050  11.050
19102SOL    HW158747   6.048  -0.007  10.980
19102SOL    HW258748   6.024   0.119  11.082
19103SOL     OW58749   6.159   0.870  10.339
19103SOL    HW158750   6.203   0.959  10.330
19103SOL    HW258751   6.096   0.870  10.416
19104SOL     OW58752   6.946   0.862  10.355
19104SOL    HW158753   6.871   0.862  10.289
19104SOL    HW258754   6.983   0.770  10.364
19105SOL     OW58755   6.795   0.525   9.585
19105SOL    HW158756   6.808   0.441   9.639
19105SOL    HW258757   6.766   0.599   9.645
19106SOL     OW58758   5.893   0.213  10.541
19106SOL    HW158759   5.870   0.250  10.631
19106SOL    HW258760   5.863   0.118  10.535
19107SOL     OW58761   5.623   1.310  10.592
19107SOL    HW158762   5.676   1.261  10.660
19107SOL    HW258763   5.645   1.408  10.597
19108SOL     OW58764   6.318   0.634  10.374
19108SOL    HW158765   6.377   0.608  10.298
19108SOL    HW258766   6.290   0.730  10.363
19109SOL     OW58767   7.314   0.935  11.164
19109SOL    HW158768   7.268   0.928  11.075
19109SOL    HW258769   7.252   0.979  11.230
19110SOL     OW58770   5.893   0.063   9.928
19110SOL    HW158771   5.882   0.157   9.961
19110SOL    HW258772   5.888   0.000  10.005
19111SOL     OW58773   7.208   0.367   9.684
19111SOL    HW158774   7.210   0.291   9.748
19111SOL    HW258775   7.160   0.444   9.724
19112SOL     OW58776   6.609   0.766  10.276
19112SOL    HW158777   6.624   0.787  10.372
19112SOL    HW258778   6.579   0.671  10.267
19113SOL     OW58779   6.566   1.573  11.010
19113SOL    HW158780   6.546   1.617  10.922
19113SOL    HW258781   6.605   1.482  10.994
19114SOL     OW58782   7.445   1.518  10.915
19114SOL    HW158783   7.459   1.545  10.820
19114SOL    HW258784   7.528   1.540  10.968
19115SOL     OW58785   5.936   0.898  11.114
19115SOL    HW158786   6.012   0.942  11.162
19115SOL    HW258787   5.971   0.851  11.032
19116SOL     OW58788   7.126   0.274   9.435
19116SOL    HW158789   7.065   0.199   9.458
19116SOL    HW258790   7.148   0.326   9.518
19117SOL     OW58791   6.889   0.838   9.352
19117SOL    HW158792   6.923   0.745   9.367
19117SOL    HW258793   6.907   0.865   9.257
19118SOL     OW58794   6.654   1.333  10.159
19118SOL    HW158795   6.661   1.249  10.104
19118SOL    HW258796   6.716   1.402  10.123
19119SOL     OW58797   5.905   0.810  10.259
19119SOL    HW158798   5.998   0.846  10.264
19119SOL    HW258799   5.899   0.725  10.311
19120SOL     OW58800   5.925   0.509  10.316
19120SOL    HW158801   5.873   0.426  10.299
19120SOL    HW258802   6.002   0.514  10.252
19121SOL     OW58803   6.724   0.380  10.988
19121SOL    HW158804   6.679   0.443  11.052
19121SOL    HW258805   6.817   0.411  10.971
19122SOL     OW58806   6.746   0.207  10.787
19122SOL    HW158807   6.746   0.271  10.864
19122SOL    HW258808   6.774   0.255  10.704
19123SOL     OW58809   5.594   1.326   9.510
19123SOL    HW158810   5.501   1.347   9.479
19123SOL    HW258811   5.604   1.227   9.523
19124SOL     OW58812   5.674   1.801  10.237
19124SOL    HW158813   5.632   1.715  10.210
19124SOL    HW258814   5.768   1.804  10.203
19125SOL     OW58815   6.090   1.568  10.220
19125SOL    HW158816   6.156   1.642  10.229
19125SOL    HW258817   6.134   1.489  10.178
19126SOL     OW58818   6.588   0.796  10.548
19126SOL    HW158819   6.629   0.764  10.634
19126SOL    HW258820   6.492   0.769  10.545
19127SOL     OW58821   5.626   0.544  10.424
19127SOL    HW158822   5.711   0.511  10.383
19127SOL    HW258823   5.639   0.559  10.522
19128SOL     OW58824   5.775   0.520  11.032
19128SOL    HW158825   5.834   0.480  10.962
19128SOL    HW258826   5.717   0.591  10.991
19129SOL     OW58827   6.955   0.950  10.970
19129SOL    HW158828   6.994   1.039  10.990
19129SOL    HW258829   6.965   0.930  10.873
19130SOL     OW58830   6.401   0.572   9.635
19130SOL    HW158831   6.408   0.483   9.589
19130SOL    HW258832   6.307   0.606   9.627
19131SOL     OW58833   7.243   0.604  10.516
19131SOL    HW158834   7.205   0.535  10.578
19131SOL    HW258835   7.325   0.568  10.472
19132SOL     OW58836   5.838   1.564  11.054
19132SOL    HW158837   5.808   1.621  11.130
19132SOL    HW258838   5.831   1.467  11.080
19133SOL     OW58839   6.257   0.464  10.579
19133SOL    HW158840   6.223   0.375  10.549
19133SOL    HW258841   6.283   0.518  10.499
19134SOL     OW58842   6.516   1.678  10.775
19134SOL    HW158843   6.492   1.660  10.680
19134SOL    HW258844   6.546   1.772  10.785
19135SOL     OW58845   6.059   0.500   9.501
19135SOL    HW158846   6.120   0.580   9.505
19135SOL    HW258847   5.964   0.531   9.508
19136SOL     OW58848   5.745   1.137  10.776
19136SOL    HW158849   5.767   1.076  10.852
19136SOL    HW258850   5.755   1.088  10.690
19137SOL     OW58851   6.933   1.059  10.544
19137SOL    HW158852   6.957   0.996  10.470
19137SOL    HW258853   6.843   1.099  10.526
19138SOL     OW58854   6.888   0.855   9.619
19138SOL    HW158855   6.802   0.824   9.661
19138SOL    HW258856   6.884   0.841   9.520
19139SOL     OW58857   7.345   1.747  10.464
19139SOL    HW158858   7.406   1.777  10.391
19139SOL    HW258859   7.307   1.658  10.442
19140SOL     OW58860   6.838   1.731  10.438
19140SOL    HW158861   6.922   1.736  10.384
19140SOL    HW258862   6.815   1.635  10.456
19141SOL     OW58863   5.669   1.258  10.332
19141SOL    HW158864   5.664   1.257  10.432
19141SOL    HW258865   5.586   1.217  10.294
19142SOL     OW58866   6.274   1.662  11.026
19142SOL    HW158867   6.218   1.743  11.035
19142SOL    HW258868   6.326   1.666  10.940
19143SOL     OW58869   7.312   0.135   9.833
19143SOL    HW158870   7.385   0.118   9.766
19143SOL    HW258871   7.281   0.048   9.871
19144SOL     OW58872   6.974   1.573   9.787
19144SOL    HW158873   7.041   1.585   9.713
19144SOL    HW258874   6.934   1.662   9.810
19145SOL     OW58875   5.716   1.794  11.161
19145SOL    HW158876   5.675   1.720  11.214
19145SOL    HW258877   5.780   1.845  11.219
19146SOL     OW58878   6.866   0.927   9.982
19146SOL    HW158879   6.926   0.846   9.984
19146SOL    HW258880   6.906   0.996   9.922
19147SOL     OW58881   6.416   1.273  10.732
19147SOL    HW158882   6.411   1.306  10.827
19147SOL    HW258883   6.330   1.292  10.686
19148SOL     OW58884   6.258   1.616   9.464
19148SOL    HW158885   6.267   1.626   9.365
19148SOL    HW258886   6.218   1.527   9.485
19149SOL     OW58887   7.236   1.720  10.704
19149SOL    HW158888   7.289   1.730  10.620
19149SOL    HW258889   7.209   1.810  10.738
19150SOL     OW58890   7.427   0.175  10.273
19150SOL    HW158891   7.466   0.090  10.237
19150SOL    HW258892   7.329   0.177  10.254
19151SOL     OW58893   5.849   0.326  10.030
19151SOL    HW158894   5.770   0.377   9.996
19151SOL    HW258895   5.840   0.311  10.128
19152SOL     OW58896   6.780   1.612   9.341
19152SOL    HW158897   6.786   1.519   9.378
19152SOL    HW258898   6.721   1.612   9.261
19153SOL     OW58899   6.408   1.002  10.682
19153SOL    HW158900   6.448   1.001  10.590
19153SOL    HW258901   6.418   1.094  10.722
19154SOL     OW58902   6.502   0.910   9.601
19154SOL    HW158903   6.565   0.948   9.533
19154SOL    HW258904   6.542   0.827   9.640
19155SOL     OW58905   7.090   1.607   9.354
19155SOL    HW158906   6.998   1.644   9.361
19155SOL    HW258907   7.128   1.627   9.264
19156SOL     OW58908   5.958   1.288  10.800
19156SOL    HW158909   5.945   1.381  10.766
19156SOL    HW258910   5.874   1.236  10.787
19157SOL     OW58911   7.200   1.292  10.599
19157SOL    HW158912   7.260   1.295  10.679
19157SOL    HW258913   7.125   1.356  10.612
19158SOL     OW58914   6.625   1.098  10.006
19158SOL    HW158915   6.555   1.051  10.060
19158SOL    HW258916   6.684   1.030   9.963
19159SOL     OW58917   6.600   0.236  10.281
19159SOL    HW158918   6.592   0.200  10.188
19159SOL    HW258919   6.598   0.160  10.346
19160SOL     OW58920   6.176   1.487   9.801
19160SOL    HW158921   6.218   1.429   9.731
19160SOL    HW258922   6.132   1.566   9.757
19161SOL     OW58923   7.295   0.385  10.691
19161SOL    HW158924   7.368   0.454  10.695
19161SOL    HW258925   7.323   0.310  10.632
19162SOL     OW58926   5.841   1.348   9.600
19162SOL    HW158927   5.745   1.349   9.573
19162SOL    HW258928   5.853   1.401   9.684
19163SOL     OW58929   5.691   1.013  11.036
19163SOL    HW158930   5.614   0.980  11.090
19163SOL    HW258931   5.776   0.983  11.078
19164SOL     OW58932   6.258   0.203  10.799
19164SOL    HW158933   6.348   0.187  10.759
19164SOL    HW258934   6.266   0.208  10.898
19165SOL     OW58935   5.661   0.345   9.343
19165SOL    HW158936   5.569   0.317   9.314
19165SOL    HW258937   5.692   0.422   9.287
19166SOL     OW58938   7.026   0.856  10.708
19166SOL    HW158939   6.969   0.908  10.645
19166SOL    HW258940   7.122   0.868  10.684
19167SOL     OW58941   5.658   0.166   9.628
19167SOL    HW158942   5.641   0.249   9.574
19167SOL    HW258943   5.748   0.129   9.606
19168SOL     OW58944   6.769   1.335   9.429
19168SOL    HW158945   6.670   1.324   9.431
19168SOL    HW258946   6.803   1.350   9.522
19169SOL     OW58947   6.199   0.842  10.741
19169SOL    HW158948   6.255   0.923  10.724
19169SOL    HW258949   6.258   0.762  10.744
19170SOL     OW58950   7.079   1.767  10.269
19170SOL    HW158951   7.112   1.831  10.200
19170SOL    HW258952   7.145   1.761  10.344
19171SOL     OW58953   6.302   0.565  11.018
19171SOL    HW158954   6.321   0.630  11.092
19171SOL    HW258955   6.362   0.485  11.027
19172SOL     OW58956   7.036   1.220  10.943
19172SOL    HW158957   7.027   1.210  11.042
19172SOL    HW258958   7.132   1.213  10.917
19173SOL     OW58959   5.976   1.741  10.870
19173SOL    HW158960   5.885   1.782  10.868
19173SOL    HW258961   5.969   1.647  10.902
19174SOL     OW58962   7.260   0.883  10.564
19174SOL    HW158963   7.233   0.794  10.527
19174SOL    HW258964   7.261   0.951  10.491
19175SOL     OW58965   6.811   0.325   9.759
19175SOL    HW158966   6.876   0.251   9.748
19175SOL    HW258967   6.831   0.375   9.843
19176SOL     OW58968   6.180   0.745   9.962
19176SOL    HW158969   6.230   0.830   9.943
19176SOL    HW258970   6.092   0.747   9.914
19177SOL     OW58971   7.363   0.342  10.952
19177SOL    HW158972   7.346   0.373  10.858
19177SOL    HW258973   7.279   0.305  10.990
19178SOL     OW58974   7.316   0.934  10.827
19178SOL    HW158975   7.354   1.025  10.842
19178SOL    HW258976   7.308   0.917  10.728
19179SOL     OW58977   6.445   1.374   9.326
19179SOL    HW158978   6.399   1.389   9.414
19179SOL    HW258979   6.489   1.459   9.296
19180SOL     OW58980   6.247   1.790  10.263
19180SOL    HW158981   6.201   1.878  10.250
19180SOL    HW258982   6.346   1.802  10.256
19181SOL     OW58983   6.445   0.956  10.171
19181SOL    HW158984   6.499   0.887  10.219
19181SOL    HW258985   6.413   1.025  10.237
19182SOL     OW58986   6.669   0.984   9.397
19182SOL    HW158987   6.646   1.037   9.315
19182SOL    HW258988   6.750   0.928   9.378
19183SOL     OW58989   7.447   1.569  10.161
19183SOL    HW158990   7.376   1.557  10.091
19183SOL    HW258991   7.448   1.490  10.221
19184SOL     OW58992   5.665   1.240   9.963
19184SOL    HW158993   5.664   1.193  10.051
19184SOL    HW258994   5.747   1.212   9.912
19185SOL     OW58995   6.258   1.391  10.934
19185SOL    HW158996   6.180   1.341  10.972
19185SOL    HW258997   6.255   1.486  10.965
19186SOL     OW58998   7.410   0.192  10.537
19186SOL    HW158999   7.406   0.102  10.581
19186SOL    HW259000   7.413   0.181  10.438
19187SOL     OW59001   6.014   0.424   9.830
19187SOL    HW159002   6.044   0.352   9.768
19187SOL    HW259003   5.975   0.384   9.913
19188SOL     OW59004   7.291   1.487  10.414
19188SOL    HW159005   7.198   1.462  10.387
19188SOL    HW259006   7.317   1.437  10.496
19189SOL     OW59007   5.903   0.547  10.590
19189SOL    HW159008   5.941   0.488  10.662
19189SOL    HW259009   5.943   0.521  10.502
19190SOL     OW59010   6.398   1.586   9.997
19190SOL    HW159011   6.430   1.596   9.903
19190SOL    HW259012   6.319   1.524   9.999
19191SOL     OW59013   7.010   0.214  10.422
19191SOL    HW159014   7.062   0.149  10.477
19191SOL    HW259015   6.961   0.277  10.483
19192SOL     OW59016   6.587   0.034  10.464
19192SOL    HW159017   6.524  -0.038  10.433
19192SOL    HW259018   6.680  -0.002  10.464
19193SOL     OW59019   6.356   1.330   9.611
19193SOL    HW159020   6.310   1.243   9.628
19193SOL    HW259021   6.447   1.327   9.652
19194SOL     OW59022   6.204   1.567  10.594
19194SOL    HW159023   6.199   1.649  10.651
19194SOL    HW259024   6.293   1.564  10.549
19195SOL     OW59025   6.938   0.052   9.478
19195SOL    HW159026   6.973   0.011   9.394
19195SOL    HW259027   6.848   0.014   9.498
19196SOL     OW59028   6.886   0.453  10.001
19196SOL    HW159029   6.827   0.533  10.005
19196SOL    HW259030   6.901   0.418  10.094
19197SOL     OW59031   7.179   0.221  10.192
19197SOL    HW159032   7.095   0.220  10.246
19197SOL    HW259033   7.181   0.304  10.136
19198SOL     OW59034   5.625   1.077   9.610
19198SOL    HW159035   5.724   1.066   9.601
19198SOL    HW259036   5.585   0.991   9.642
19199SOL     OW59037   6.461   1.646   9.647
19199SOL    HW159038   6.384   1.611   9.593
19199SOL    HW259039   6.429   1.717   9.709
19200SOL     OW59040   5.816   0.628  11.285
19200SOL    HW159041   5.723   0.626  11.322
19200SOL    HW259042   5.817   0.589  11.193
19201SOL     OW59043   5.811   0.275  12.168
19201SOL    HW159044   5.846   0.258  12.260
19201SOL    HW259045   5.723   0.230  12.156
19202SOL     OW59046   5.605   0.368  11.819
19202SOL    HW159047   5.523   0.411  11.858
19202SOL    HW259048   5.577   0.295  11.756
19203SOL     OW59049   6.155   1.275  12.337
19203SOL    HW159050   6.062   1.268  12.300
19203SOL    HW259051   6.166   1.364  12.381
19204SOL     OW59052   7.141   1.511  11.875
19204SOL    HW159053   7.084   1.495  11.956
19204SOL    HW259054   7.082   1.521  11.795
19205SOL     OW59055   6.721   0.703  11.889
19205SOL    HW159056   6.778   0.781  11.864
19205SOL    HW259057   6.661   0.729  11.965
19206SOL     OW59058   7.341   0.607  11.403
19206SOL    HW159059   7.329   0.594  11.304
19206SOL    HW259060   7.311   0.526  11.452
19207SOL     OW59061   6.354   1.144  12.195
19207SOL    HW159062   6.276   1.161  12.255
19207SOL    HW259063   6.388   1.231  12.159
19208SOL     OW59064   6.271   1.012  11.837
19208SOL    HW159065   6.340   0.996  11.907
19208SOL    HW259066   6.198   1.069  11.875
19209SOL     OW59067   5.921   1.435  12.233
19209SOL    HW159068   5.843   1.404  12.180
19209SOL    HW259069   5.979   1.493  12.176
19210SOL     OW59070   7.189   0.447  11.909
19210SOL    HW159071   7.115   0.493  11.859
19210SOL    HW259072   7.240   0.515  11.962
19211SOL     OW59073   5.817   1.713  11.655
19211SOL    HW159074   5.851   1.790  11.709
19211SOL    HW259075   5.861   1.713  11.565
19212SOL     OW59076   5.816   1.434  11.710
19212SOL    HW159077   5.790   1.530  11.710
19212SOL    HW259078   5.745   1.380  11.755
19213SOL     OW59079   5.826   1.091  12.058
19213SOL    HW159080   5.840   1.007  12.110
19213SOL    HW259081   5.771   1.155  12.113
19214SOL     OW59082   6.192   0.964  11.295
19214SOL    HW159083   6.199   1.048  11.241
19214SOL    HW259084   6.238   0.977  11.383
19215SOL     OW59085   5.708   0.643  11.735
19215SOL    HW159086   5.663   0.555  11.752
19215SOL    HW259087   5.707   0.697  11.819
19216SOL     OW59088   7.428   1.767  11.531
19216SOL    HW159089   7.482   1.738  11.611
19216SOL    HW259090   7.458   1.857  11.502
19217SOL     OW59091   5.613   1.596  11.289
19217SOL    HW159092   5.594   1.500  11.310
19217SOL    HW259093   5.580   1.654  11.364
19218SOL     OW59094   7.275   0.922  11.784
19218SOL    HW159095   7.370   0.893  11.792
19218SOL    HW259096   7.267   0.987  11.709
19219SOL     OW59097   7.227   1.108  11.604
19219SOL    HW159098   7.313   1.110  11.552
19219SOL    HW259099   7.241   1.155  11.692
19220SOL     OW59100   5.699   0.737  12.769
19220SOL    HW159101   5.787   0.724  12.814
19220SOL    HW259102   5.686   0.834  12.747
19221SOL     OW59103   6.199   1.365  11.898
19221SOL    HW159104   6.150   1.278  11.907
19221SOL    HW259105   6.176   1.408  11.811
19222SOL     OW59106   6.395   0.004  11.674
19222SOL    HW159107   6.435   0.095  11.665
19222SOL    HW259108   6.295   0.012  11.680
19223SOL     OW59109   5.783   0.976  12.436
19223SOL    HW159110   5.872   0.931  12.422
19223SOL    HW259111   5.710   0.911  12.417
19224SOL     OW59112   7.111   0.999  11.362
19224SOL    HW159113   7.048   0.923  11.375
19224SOL    HW259114   7.159   1.017  11.448
19225SOL     OW59115   7.052   1.417  12.125
19225SOL    HW159116   6.993   1.423  12.205
19225SOL    HW259117   7.037   1.329  12.079
19226SOL     OW59118   7.253   1.714  11.744
19226SOL    HW159119   7.212   1.691  11.656
19226SOL    HW259120   7.235   1.640  11.809
19227SOL     OW59121   6.184   0.729  11.442
19227SOL    HW159122   6.208   0.798  11.374
19227SOL    HW259123   6.106   0.762  11.496
19228SOL     OW59124   6.867   0.345  12.116
19228SOL    HW159125   6.781   0.295  12.103
19228SOL    HW259126   6.929   0.291  12.172
19229SOL     OW59127   7.162   1.662  11.479
19229SOL    HW159128   7.251   1.708  11.482
19229SOL    HW259129   7.141   1.638  11.384
19230SOL     OW59130   6.577   0.410  12.414
19230SOL    HW159131   6.500   0.444  12.468
19230SOL    HW259132   6.543   0.359  12.335
19231SOL     OW59133   6.627   0.701  11.601
19231SOL    HW159134   6.653   0.697  11.697
19231SOL    HW259135   6.542   0.650  11.587
19232SOL     OW59136   5.662   0.811  11.961
19232SOL    HW159137   5.761   0.799  11.970
19232SOL    HW259138   5.638   0.906  11.982
19233SOL     OW59139   6.451   0.348  11.367
19233SOL    HW159140   6.510   0.411  11.318
19233SOL    HW259141   6.470   0.254  11.338
19234SOL     OW59142   6.948   1.144  11.717
19234SOL    HW159143   7.031   1.115  11.669
19234SOL    HW259144   6.899   1.211  11.661
19235SOL     OW59145   6.136   0.196  12.057
19235SOL    HW159146   6.131   0.191  12.157
19235SOL    HW259147   6.138   0.292  12.028
19236SOL     OW59148   6.594   1.456  11.649
19236SOL    HW159149   6.548   1.528  11.597
19236SOL    HW259150   6.590   1.476  11.747
19237SOL     OW59151   5.937   1.801  12.025
19237SOL    HW159152   5.987   1.715  12.031
19237SOL    HW259153   6.002   1.878  12.022
19238SOL     OW59154   7.381   1.066  12.045
19238SOL    HW159155   7.319   1.051  11.969
19238SOL    HW259156   7.329   1.077  12.130
19239SOL     OW59157   5.907   0.943  11.414
19239SOL    HW159158   5.989   0.982  11.372
19239SOL    HW259159   5.880   0.861  11.365
19240SOL     OW59160   7.044   0.735  11.900
19240SOL    HW159161   7.039   0.670  11.975
19240SOL    HW259162   7.124   0.794  11.913
19241SOL     OW59163   6.697   1.776  11.409
19241SOL    HW159164   6.637   1.714  11.459
19241SOL    HW259165   6.728   1.732  11.324
19242SOL     OW59166   7.218   1.377  11.253
19242SOL    HW159167   7.186   1.471  11.243
19242SOL    HW259168   7.142   1.314  11.241
19243SOL     OW59169   6.050   1.743  11.495
19243SOL    HW159170   6.083   1.782  11.581
19243SOL    HW259171   6.126   1.736  11.430
19244SOL     OW59172   6.986   0.107  11.598
19244SOL    HW159173   6.962   0.070  11.508
19244SOL    HW259174   7.085   0.123  11.602
19245SOL     OW59175   5.835   1.785  12.413
19245SOL    HW159176   5.892   1.720  12.463
19245SOL    HW259177   5.819   1.752  12.320
19246SOL     OW59178   6.526   1.698  12.076
19246SOL    HW159179   6.606   1.641  12.097
19246SOL    HW259180   6.477   1.658  11.999
19247SOL     OW59181   5.968   0.700  11.652
19247SOL    HW159182   6.013   0.610  11.649
19247SOL    HW259183   5.874   0.689  11.685
19248SOL     OW59184   6.200   0.122  11.289
19248SOL    HW159185   6.298   0.100  11.296
19248SOL    HW259186   6.169   0.105  11.196
19249SOL     OW59187   6.389   1.402  12.096
19249SOL    HW159188   6.479   1.416  12.054
19249SOL    HW259189   6.318   1.404  12.025
19250SOL     OW59190   6.508   0.503  12.071
19250SOL    HW159191   6.483   0.494  11.975
19250SOL    HW259192   6.556   0.421  12.102
19251SOL     OW59193   6.125   0.064  11.684
19251SOL    HW159194   6.044   0.065  11.742
19251SOL    HW259195   6.128   0.147  11.629
19252SOL     OW59196   7.020   1.188  11.213
19252SOL    HW159197   7.052   1.112  11.270
19252SOL    HW259198   6.928   1.215  11.243
19253SOL     OW59199   5.883   0.035  11.343
19253SOL    HW159200   5.932   0.119  11.322
19253SOL    HW259201   5.945  -0.030  11.388
19254SOL     OW59202   6.521   0.236  11.652
19254SOL    HW159203   6.473   0.277  11.574
19254SOL    HW259204   6.620   0.234  11.633
19255SOL     OW59205   6.813   1.570  11.965
19255SOL    HW159206   6.834   1.644  11.900
19255SOL    HW259207   6.881   1.570  12.038
19256SOL     OW59208   6.045   1.152  11.913
19256SOL    HW159209   5.974   1.125  11.978
19256SOL    HW259210   6.019   1.124  11.820
19257SOL     OW59211   6.857   1.797  11.763
19257SOL    HW159212   6.901   1.861  11.699
19257SOL    HW259213   6.807   1.849  11.833
19258SOL     OW59214   6.618   0.549  11.188
19258SOL    HW159215   6.577   0.631  11.149
19258SOL    HW259216   6.682   0.575  11.261
19259SOL     OW59217   6.147   0.222  12.319
19259SOL    HW159218   6.185   0.138  12.356
19259SOL    HW259219   6.059   0.241  12.363
19260SOL     OW59220   6.452   0.454  11.814
19260SOL    HW159221   6.420   0.526  11.752
19260SOL    HW259222   6.476   0.373  11.761
19261SOL     OW59223   6.603   0.039  11.925
19261SOL    HW159224   6.531   0.044  11.856
19261SOL    HW259225   6.579  -0.030  11.994
19262SOL     OW59226   7.015   1.173  12.039
19262SOL    HW159227   6.960   1.089  12.032
19262SOL    HW259228   7.041   1.202  11.947
19263SOL     OW59229   7.052   0.590  12.164
19263SOL    HW159230   7.022   0.495  12.171
19263SOL    HW259231   7.125   0.606  12.230
19264SOL     OW59232   7.443   0.833  11.549
19264SOL    HW159233   7.485   0.769  11.613
19264SOL    HW259234   7.405   0.782  11.471
19265SOL     OW59235   6.074   1.385  11.346
19265SOL    HW159236   5.987   1.370  11.393
19265SOL    HW259237   6.057   1.411  11.251
19266SOL     OW59238   7.250   1.280  11.829
19266SOL    HW159239   7.349   1.288  11.843
19266SOL    HW259240   7.205   1.364  11.860
19267SOL     OW59241   6.976   0.575  11.250
19267SOL    HW159242   6.922   0.554  11.331
19267SOL    HW259243   7.067   0.534  11.259
19268SOL     OW59244   6.113   0.256  11.500
19268SOL    HW159245   6.140   0.197  11.425
19268SOL    HW259246   6.113   0.351  11.469
19269SOL     OW59247   6.697   1.195  12.272
19269SOL    HW159248   6.657   1.239  12.353
19269SOL    HW259249   6.656   1.232  12.189
19270SOL     OW59250   7.224   1.099  12.251
19270SOL    HW159251   7.229   1.180  12.310
19270SOL    HW259252   7.138   1.101  12.200
19271SOL     OW59253   6.291   1.050  11.540
19271SOL    HW159254   6.277   1.057  11.639
19271SOL    HW259255   6.375   0.999  11.522
19272SOL     OW59256   5.996   0.813  12.423
19272SOL    HW159257   6.082   0.825  12.473
19272SOL    HW259258   5.954   0.726  12.450
19273SOL     OW59259   6.860   0.386  12.434
19273SOL    HW159260   6.881   0.460  12.498
19273SOL    HW259261   6.771   0.403  12.391
19274SOL     OW59262   5.953   1.100  11.673
19274SOL    HW159263   5.946   1.183  11.617
19274SOL    HW259264   5.957   1.020  11.613
19275SOL     OW59265   6.152   0.537  12.037
19275SOL    HW159266   6.164   0.603  11.963
19275SOL    HW259267   6.198   0.571  12.120
19276SOL     OW59268   6.838   1.348  11.560
19276SOL    HW159269   6.888   1.425  11.600
19276SOL    HW259270   6.743   1.350  11.592
19277SOL     OW59271   6.858   1.445  12.314
19277SOL    HW159272   6.905   1.458  12.401
19277SOL    HW259273   6.792   1.371  12.323
19278SOL     OW59274   7.168   0.639  11.644
19278SOL    HW159275   7.137   0.700  11.717
19278SOL    HW259276   7.218   0.691  11.575
19279SOL     OW59277   5.940   1.510  12.501
19279SOL    HW159278   5.919   1.466  12.414
19279SOL    HW259279   6.037   1.536  12.504
19280SOL     OW59280   6.159   0.870  12.201
19280SOL    HW159281   6.203   0.959  12.192
19280SOL    HW259282   6.096   0.870  12.278
19281SOL     OW59283   6.946   0.862  12.217
19281SOL    HW159284   6.871   0.862  12.151
19281SOL    HW259285   6.983   0.770  12.226
19282SOL     OW59286   6.795   0.525  11.447
19282SOL    HW159287   6.808   0.441  11.501
19282SOL    HW259288   6.766   0.599  11.507
19283SOL     OW59289   5.893   0.213  12.403
19283SOL    HW159290   5.870   0.250  12.493
19283SOL    HW259291   5.863   0.118  12.397
19284SOL     OW59292   5.623   1.310  12.454
19284SOL    HW159293   5.676   1.261  12.522
19284SOL    HW259294   5.645   1.408  12.459
19285SOL     OW59295   6.318   0.634  12.236
19285SOL    HW159296   6.377   0.608  12.160
19285SOL    HW259297   6.290   0.730  12.225
19286SOL     OW59298   5.893   0.063  11.790
19286SOL    HW159299   5.882   0.157  11.823
19286SOL    HW259300   5.888   0.000  11.867
19287SOL     OW59301   7.208   0.367  11.546
19287SOL    HW159302   7.210   0.291  11.610
19287SOL    HW259303   7.160   0.444  11.586
19288SOL     OW59304   6.609   0.766  12.138
19288SOL    HW159305   6.624   0.787  12.234
19288SOL    HW259306   6.579   0.671  12.129
19289SOL     OW59307   7.126   0.274  11.297
19289SOL    HW159308   7.065   0.199  11.320
19289SOL    HW259309   7.148   0.326  11.380
19290SOL     OW59310   6.889   0.838  11.214
19290SOL    HW159311   6.923   0.745  11.229
19290SOL    HW259312   6.907   0.865  11.119
19291SOL     OW59313   6.654   1.333  12.021
19291SOL    HW159314   6.661   1.249  11.966
19291SOL    HW259315   6.716   1.402  11.985
19292SOL     OW59316   5.905   0.810  12.121
19292SOL    HW159317   5.998   0.846  12.126
19292SOL    HW259318   5.899   0.725  12.173
19293SOL     OW59319   5.925   0.509  12.178
19293SOL    HW159320   5.873   0.426  12.161
19293SOL    HW259321   6.002   0.514  12.114
19294SOL     OW59322   6.746   0.207  12.649
19294SOL    HW159323   6.746   0.271  12.726
19294SOL    HW259324   6.774   0.255  12.566
19295SOL     OW59325   5.594   1.326  11.372
19295SOL    HW159326   5.501   1.347  11.341
19295SOL    HW259327   5.604   1.227  11.385
19296SOL     OW59328   5.674   1.801  12.099
19296SOL    HW159329   5.632   1.715  12.072
19296SOL    HW259330   5.768   1.804  12.065
19297SOL     OW59331   6.090   1.568  12.082
19297SOL    HW159332   6.156   1.642  12.091
19297SOL    HW259333   6.134   1.489  12.040
19298SOL     OW59334   6.588   0.796  12.410
19298SOL    HW159335   6.629   0.764  12.496
19298SOL    HW259336   6.492   0.769  12.407
19299SOL     OW59337   5.626   0.544  12.286
19299SOL    HW159338   5.711   0.511  12.245
19299SOL    HW259339   5.639   0.559  12.384
19300SOL     OW59340   6.401   0.572  11.497
19300SOL    HW159341   6.408   0.483  11.451
19300SOL    HW259342   6.307   0.606  11.489
19301SOL     OW59343   7.243   0.604  12.378
19301SOL    HW159344   7.205   0.535  12.440
19301SOL    HW259345   7.325   0.568  12.334
19302SOL     OW59346   6.257   0.464  12.441
19302SOL    HW159347   6.223   0.375  12.411
19302SOL    HW259348   6.283   0.518  12.361
19303SOL     OW59349   6.516   1.678  12.637
19303SOL    HW159350   6.492   1.660  12.542
19303SOL    HW259351   6.546   1.772  12.647
19304SOL     OW59352   6.059   0.500  11.363
19304SOL    HW159353   6.120   0.580  11.367
19304SOL    HW259354   5.964   0.531  11.370
19305SOL     OW59355   6.933   1.059  12.406
19305SOL    HW159356   6.957   0.996  12.332
19305SOL    HW259357   6.843   1.099  12.388
19306SOL     OW59358   6.888   0.855  11.481
19306SOL    HW159359   6.802   0.824  11.523
19306SOL    HW259360   6.884   0.841  11.382
19307SOL     OW59361   7.345   1.747  12.326
19307SOL    HW159362   7.406   1.777  12.253
19307SOL    HW259363   7.307   1.658  12.304
19308SOL     OW59364   6.838   1.731  12.300
19308SOL    HW159365   6.922   1.736  12.246
19308SOL    HW259366   6.815   1.635  12.318
19309SOL     OW59367   7.312   0.135  11.695
19309SOL    HW159368   7.385   0.118  11.628
19309SOL    HW259369   7.281   0.048  11.733
19310SOL     OW59370   6.974   1.573  11.649
19310SOL    HW159371   7.041   1.585  11.575
19310SOL    HW259372   6.934   1.662  11.672
19311SOL     OW59373   6.866   0.927  11.844
19311SOL    HW159374   6.926   0.846  11.846
19311SOL    HW259375   6.906   0.996  11.784
19312SOL     OW59376   6.258   1.616  11.326
19312SOL    HW159377   6.267   1.626  11.227
19312SOL    HW259378   6.218   1.527  11.347
19313SOL     OW59379   7.236   1.720  12.566
19313SOL    HW159380   7.289   1.730  12.482
19313SOL    HW259381   7.209   1.810  12.600
19314SOL     OW59382   7.427   0.175  12.135
19314SOL    HW159383   7.466   0.090  12.099
19314SOL    HW259384   7.329   0.177  12.116
19315SOL     OW59385   5.849   0.326  11.892
19315SOL    HW159386   5.770   0.377  11.858
19315SOL    HW259387   5.840   0.311  11.990
19316SOL     OW59388   6.780   1.612  11.203
19316SOL    HW159389   6.786   1.519  11.240
19316SOL    HW259390   6.721   1.612  11.123
19317SOL     OW59391   6.408   1.002  12.544
19317SOL    HW159392   6.448   1.001  12.452
19317SOL    HW259393   6.418   1.094  12.584
19318SOL     OW59394   6.502   0.910  11.463
19318SOL    HW159395   6.565   0.948  11.395
19318SOL    HW259396   6.542   0.827  11.502
19319SOL     OW59397   7.090   1.607  11.216
19319SOL    HW159398   6.998   1.644  11.223
19319SOL    HW259399   7.128   1.627  11.126
19320SOL     OW59400   6.625   1.098  11.868
19320SOL    HW159401   6.555   1.051  11.922
19320SOL    HW259402   6.684   1.030  11.825
19321SOL     OW59403   6.600   0.236  12.143
19321SOL    HW159404   6.592   0.200  12.050
19321SOL    HW259405   6.598   0.160  12.208
19322SOL     OW59406   6.176   1.487  11.663
19322SOL    HW159407   6.218   1.429  11.593
19322SOL    HW259408   6.132   1.566  11.619
19323SOL     OW59409   7.295   0.385  12.553
19323SOL    HW159410   7.368   0.454  12.557
19323SOL    HW259411   7.323   0.310  12.494
19324SOL     OW59412   5.841   1.348  11.462
19324SOL    HW159413   5.745   1.349  11.435
19324SOL    HW259414   5.853   1.401  11.546
19325SOL     OW59415   5.661   0.345  11.205
19325SOL    HW159416   5.569   0.317  11.176
19325SOL    HW259417   5.692   0.422  11.149
19326SOL     OW59418   5.658   0.166  11.490
19326SOL    HW159419   5.641   0.249  11.436
19326SOL    HW259420   5.748   0.129  11.468
19327SOL     OW59421   6.769   1.335  11.291
19327SOL    HW159422   6.670   1.324  11.293
19327SOL    HW259423   6.803   1.350  11.384
19328SOL     OW59424   7.079   1.767  12.131
19328SOL    HW159425   7.112   1.831  12.062
19328SOL    HW259426   7.145   1.761  12.206
19329SOL     OW59427   7.260   0.883  12.426
19329SOL    HW159428   7.233   0.794  12.389
19329SOL    HW259429   7.261   0.951  12.353
19330SOL     OW59430   6.811   0.325  11.621
19330SOL    HW159431   6.876   0.251  11.610
19330SOL    HW259432   6.831   0.375  11.705
19331SOL     OW59433   6.180   0.745  11.824
19331SOL    HW159434   6.230   0.830  11.805
19331SOL    HW259435   6.092   0.747  11.776
19332SOL     OW59436   7.316   0.934  12.689
19332SOL    HW159437   7.354   1.025  12.704
19332SOL    HW259438   7.308   0.917  12.590
19333SOL     OW59439   6.445   1.374  11.188
19333SOL    HW159440   6.399   1.389  11.276
19333SOL    HW259441   6.489   1.459  11.158
19334SOL     OW59442   6.247   1.790  12.125
19334SOL    HW159443   6.201   1.878  12.112
19334SOL    HW259444   6.346   1.802  12.118
19335SOL     OW59445   6.445   0.956  12.033
19335SOL    HW159446   6.499   0.887  12.081
19335SOL    HW259447   6.413   1.025  12.099
19336SOL     OW59448   6.669   0.984  11.259
19336SOL    HW159449   6.646   1.037  11.177
19336SOL    HW259450   6.750   0.928  11.240
19337SOL     OW59451   7.447   1.569  12.023
19337SOL    HW159452   7.376   1.557  11.953
19337SOL    HW259453   7.448   1.490  12.083
19338SOL     OW59454   5.665   1.240  11.825
19338SOL    HW159455   5.664   1.193  11.913
19338SOL    HW259456   5.747   1.212  11.774
19339SOL     OW59457   7.410   0.192  12.399
19339SOL    HW159458   7.406   0.102  12.443
19339SOL    HW259459   7.413   0.181  12.300
19340SOL     OW59460   6.014   0.424  11.692
19340SOL    HW159461   6.044   0.352  11.630
19340SOL    HW259462   5.975   0.384  11.775
19341SOL     OW59463   7.291   1.487  12.276
19341SOL    HW159464   7.198   1.462  12.249
19341SOL    HW259465   7.317   1.437  12.358
19342SOL     OW59466   6.398   1.586  11.859
19342SOL    HW159467   6.430   1.596  11.765
19342SOL    HW259468   6.319   1.524  11.861
19343SOL     OW59469   7.010   0.214  12.284
19343SOL    HW159470   7.062   0.149  12.339
19343SOL    HW259471   6.961   0.277  12.345
19344SOL     OW59472   6.587   0.034  12.326
19344SOL    HW159473   6.524  -0.038  12.295
19344SOL    HW259474   6.680  -0.002  12.326
19345SOL     OW59475   6.356   1.330  11.473
19345SOL    HW159476   6.310   1.243  11.490
19345SOL    HW259477   6.447   1.327  11.514
19346SOL     OW59478   6.938   0.052  11.340
19346SOL    HW159479   6.973   0.011  11.256
19346SOL    HW259480   6.848   0.014  11.360
19347SOL     OW59481   6.886   0.453  11.863
19347SOL    HW159482   6.827   0.533  11.867
19347SOL    HW259483   6.901   0.418  11.956
19348SOL     OW59484   7.179   0.221  12.054
19348SOL    HW159485   7.095   0.220  12.108
19348SOL    HW259486   7.181   0.304  11.998
19349SOL     OW59487   5.625   1.077  11.472
19349SOL    HW159488   5.724   1.066  11.463
19349SOL    HW259489   5.585   0.991  11.504
19350SOL     OW59490   6.461   1.646  11.509
19350SOL    HW159491   6.384   1.611  11.455
19350SOL    HW259492   6.429   1.717  11.571
19351SOL     OW59493   5.816   2.490   0.113
19351SOL    HW159494   5.723   2.488   0.150
19351SOL    HW259495   5.817   2.451   0.021
19352SOL     OW59496   5.811   2.137   0.996
19352SOL    HW159497   5.846   2.120   1.088
19352SOL    HW259498   5.723   2.092   0.984
19353SOL     OW59499   5.605   2.230   0.647
19353SOL    HW159500   5.523   2.273   0.686
19353SOL    HW259501   5.577   2.157   0.584
19354SOL     OW59502   6.155   3.137   1.165
19354SOL    HW159503   6.062   3.130   1.128
19354SOL    HW259504   6.166   3.226   1.209
19355SOL     OW59505   7.141   3.373   0.703
19355SOL    HW159506   7.084   3.357   0.784
19355SOL    HW259507   7.082   3.383   0.623
19356SOL     OW59508   6.721   2.565   0.717
19356SOL    HW159509   6.778   2.643   0.692
19356SOL    HW259510   6.661   2.591   0.793
19357SOL     OW59511   7.341   2.469   0.231
19357SOL    HW159512   7.329   2.456   0.132
19357SOL    HW259513   7.311   2.388   0.280
19358SOL     OW59514   6.354   3.006   1.023
19358SOL    HW159515   6.276   3.023   1.083
19358SOL    HW259516   6.388   3.093   0.987
19359SOL     OW59517   6.436   2.660   1.823
19359SOL    HW159518   6.432   2.736   1.888
19359SOL    HW259519   6.458   2.696   1.732
19360SOL     OW59520   6.271   2.874   0.665
19360SOL    HW159521   6.340   2.858   0.735
19360SOL    HW259522   6.198   2.931   0.703
19361SOL     OW59523   6.272   3.023   1.803
19361SOL    HW159524   6.332   3.102   1.817
19361SOL    HW259525   6.186   3.054   1.762
19362SOL     OW59526   5.921   3.297   1.061
19362SOL    HW159527   5.843   3.266   1.008
19362SOL    HW259528   5.979   3.355   1.004
19363SOL     OW59529   7.046   3.367   1.339
19363SOL    HW159530   7.070   3.461   1.365
19363SOL    HW259531   7.030   3.313   1.421
19364SOL     OW59532   6.024   2.254   1.499
19364SOL    HW159533   6.106   2.198   1.508
19364SOL    HW259534   5.943   2.196   1.503
19365SOL     OW59535   7.189   2.309   0.737
19365SOL    HW159536   7.115   2.355   0.687
19365SOL    HW259537   7.240   2.377   0.790
19366SOL     OW59538   5.817   3.575   0.483
19366SOL    HW159539   5.851   3.652   0.537
19366SOL    HW259540   5.861   3.575   0.393
19367SOL     OW59541   6.713   3.203   1.690
19367SOL    HW159542   6.760   3.203   1.778
19367SOL    HW259543   6.665   3.116   1.679
19368SOL     OW59544   5.816   3.296   0.538
19368SOL    HW159545   5.790   3.392   0.538
19368SOL    HW259546   5.745   3.242   0.583
19369SOL     OW59547   5.826   2.953   0.886
19369SOL    HW159548   5.840   2.869   0.938
19369SOL    HW259549   5.771   3.017   0.941
19370SOL     OW59550   6.206   3.648   1.439
19370SOL    HW159551   6.114   3.631   1.474
19370SOL    HW259552   6.234   3.740   1.465
19371SOL     OW59553   6.192   2.826   0.123
19371SOL    HW159554   6.199   2.910   0.069
19371SOL    HW259555   6.238   2.839   0.211
19372SOL     OW59556   7.180   1.976   1.480
19372SOL    HW159557   7.162   2.043   1.408
19372SOL    HW259558   7.177   2.022   1.569
19373SOL     OW59559   5.708   2.505   0.563
19373SOL    HW159560   5.663   2.417   0.580
19373SOL    HW259561   5.707   2.559   0.647
19374SOL     OW59562   7.428   3.629   0.359
19374SOL    HW159563   7.482   3.600   0.439
19374SOL    HW259564   7.458   3.719   0.330
19375SOL     OW59565   5.613   3.458   0.117
19375SOL    HW159566   5.594   3.362   0.138
19375SOL    HW259567   5.580   3.516   0.192
19376SOL     OW59568   7.275   2.784   0.612
19376SOL    HW159569   7.370   2.755   0.620
19376SOL    HW259570   7.267   2.849   0.537
19377SOL     OW59571   7.227   2.970   0.432
19377SOL    HW159572   7.313   2.972   0.380
19377SOL    HW259573   7.241   3.017   0.520
19378SOL     OW59574   5.699   2.599   1.597
19378SOL    HW159575   5.787   2.586   1.642
19378SOL    HW259576   5.686   2.696   1.575
19379SOL     OW59577   6.199   3.227   0.726
19379SOL    HW159578   6.150   3.140   0.735
19379SOL    HW259579   6.176   3.270   0.639
19380SOL     OW59580   6.879   3.090   1.423
19380SOL    HW159581   6.916   3.017   1.365
19380SOL    HW259582   6.931   3.095   1.508
19381SOL     OW59583   6.395   1.866   0.502
19381SOL    HW159584   6.435   1.957   0.493
19381SOL    HW259585   6.295   1.874   0.508
19382SOL     OW59586   5.783   2.838   1.264
19382SOL    HW159587   5.872   2.793   1.250
19382SOL    HW259588   5.710   2.773   1.245
19383SOL     OW59589   7.111   2.861   0.190
19383SOL    HW159590   7.048   2.785   0.203
19383SOL    HW259591   7.159   2.879   0.276
19384SOL     OW59592   6.773   3.654   1.616
19384SOL    HW159593   6.797   3.714   1.540
19384SOL    HW259594   6.780   3.559   1.586
19385SOL     OW59595   5.903   2.113   1.801
19385SOL    HW159596   5.974   2.184   1.807
19385SOL    HW259597   5.815   2.152   1.829
19386SOL     OW59598   7.052   3.279   0.953
19386SOL    HW159599   6.993   3.285   1.033
19386SOL    HW259600   7.037   3.191   0.907
19387SOL     OW59601   7.253   3.576   0.572
19387SOL    HW159602   7.212   3.553   0.484
19387SOL    HW259603   7.235   3.502   0.637
19388SOL     OW59604   6.184   2.591   0.270
19388SOL    HW159605   6.208   2.660   0.202
19388SOL    HW259606   6.106   2.624   0.324
19389SOL     OW59607   6.867   2.207   0.944
19389SOL    HW159608   6.781   2.157   0.931
19389SOL    HW259609   6.929   2.153   1.000
19390SOL     OW59610   7.162   3.524   0.307
19390SOL    HW159611   7.251   3.570   0.310
19390SOL    HW259612   7.141   3.500   0.212
19391SOL     OW59613   6.393   2.467   1.465
19391SOL    HW159614   6.346   2.464   1.554
19391SOL    HW259615   6.342   2.412   1.399
19392SOL     OW59616   6.980   2.331   1.674
19392SOL    HW159617   6.960   2.374   1.762
19392SOL    HW259618   7.058   2.269   1.683
19393SOL     OW59619   6.559   2.752   1.572
19393SOL    HW159620   6.605   2.668   1.543
19393SOL    HW259621   6.503   2.786   1.497
19394SOL     OW59622   6.577   2.272   1.242
19394SOL    HW159623   6.500   2.306   1.296
19394SOL    HW259624   6.543   2.221   1.163
19395SOL     OW59625   6.627   2.563   0.429
19395SOL    HW159626   6.653   2.559   0.525
19395SOL    HW259627   6.542   2.512   0.415
19396SOL     OW59628   5.662   2.673   0.789
19396SOL    HW159629   5.761   2.661   0.798
19396SOL    HW259630   5.638   2.768   0.810
19397SOL     OW59631   5.716   3.683   1.571
19397SOL    HW159632   5.706   3.668   1.670
19397SOL    HW259633   5.630   3.719   1.535
19398SOL     OW59634   6.451   2.210   0.195
19398SOL    HW159635   6.510   2.273   0.146
19398SOL    HW259636   6.470   2.116   0.166
19399SOL     OW59637   7.305   2.447   1.831
19399SOL    HW159638   7.279   2.536   1.795
19399SOL    HW259639   7.303   2.379   1.758
19400SOL     OW59640   6.948   3.006   0.545
19400SOL    HW159641   7.031   2.977   0.497
19400SOL    HW259642   6.899   3.073   0.489
19401SOL     OW59643   6.136   2.058   0.885
19401SOL    HW159644   6.131   2.053   0.985
19401SOL    HW259645   6.138   2.154   0.856
19402SOL     OW59646   6.594   3.318   0.477
19402SOL    HW159647   6.548   3.390   0.425
19402SOL    HW259648   6.590   3.338   0.575
19403SOL     OW59649   5.937   3.663   0.853
19403SOL    HW159650   5.987   3.577   0.859
19403SOL    HW259651   6.002   3.740   0.850
19404SOL     OW59652   7.381   2.928   0.873
19404SOL    HW159653   7.319   2.913   0.797
19404SOL    HW259654   7.329   2.939   0.958
19405SOL     OW59655   6.813   3.412   1.506
19405SOL    HW159656   6.819   3.335   1.570
19405SOL    HW259657   6.761   3.386   1.426
19406SOL     OW59658   5.907   2.805   0.242
19406SOL    HW159659   5.989   2.844   0.200
19406SOL    HW259660   5.880   2.723   0.193
19407SOL     OW59661   7.044   2.597   0.728
19407SOL    HW159662   7.039   2.532   0.803
19407SOL    HW259663   7.124   2.656   0.741
19408SOL     OW59664   6.047   3.128   1.727
19408SOL    HW159665   5.997   3.129   1.641
19408SOL    HW259666   5.984   3.110   1.803
19409SOL     OW59667   6.697   3.638   0.237
19409SOL    HW159668   6.637   3.576   0.287
19409SOL    HW259669   6.728   3.594   0.152
19410SOL     OW59670   5.788   2.147   1.498
19410SOL    HW159671   5.708   2.207   1.485
19410SOL    HW259672   5.778   2.098   1.584
19411SOL     OW59673   7.218   3.239   0.081
19411SOL    HW159674   7.186   3.333   0.071
19411SOL    HW259675   7.142   3.176   0.069
19412SOL     OW59676   6.050   3.605   0.323
19412SOL    HW159677   6.083   3.644   0.409
19412SOL    HW259678   6.126   3.598   0.258
19413SOL     OW59679   6.986   1.969   0.426
19413SOL    HW159680   6.962   1.932   0.336
19413SOL    HW259681   7.085   1.985   0.430
19414SOL     OW59682   5.835   3.647   1.241
19414SOL    HW159683   5.892   3.582   1.291
19414SOL    HW259684   5.819   3.614   1.148
19415SOL     OW59685   6.526   3.560   0.904
19415SOL    HW159686   6.606   3.503   0.925
19415SOL    HW259687   6.477   3.520   0.827
19416SOL     OW59688   5.968   2.562   0.480
19416SOL    HW159689   6.013   2.472   0.477
19416SOL    HW259690   5.874   2.551   0.513
19417SOL     OW59691   7.133   2.084   1.729
19417SOL    HW159692   7.128   2.121   1.821
19417SOL    HW259693   7.061   2.015   1.717
19418SOL     OW59694   6.200   1.984   0.117
19418SOL    HW159695   6.298   1.962   0.124
19418SOL    HW259696   6.169   1.967   0.024
19419SOL     OW59697   6.367   2.126   1.749
19419SOL    HW159698   6.434   2.065   1.792
19419SOL    HW259699   6.294   2.145   1.814
19420SOL     OW59700   6.474   3.376   1.195
19420SOL    HW159701   6.451   3.351   1.101
19420SOL    HW259702   6.535   3.307   1.234
19421SOL     OW59703   6.937   2.452   1.433
19421SOL    HW159704   6.965   2.409   1.518
19421SOL    HW259705   6.962   2.548   1.434
19422SOL     OW59706   6.389   3.264   0.924
19422SOL    HW159707   6.479   3.278   0.882
19422SOL    HW259708   6.318   3.266   0.853
19423SOL     OW59709   6.508   2.365   0.899
19423SOL    HW159710   6.483   2.356   0.803
19423SOL    HW259711   6.556   2.283   0.930
19424SOL     OW59712   6.125   1.926   0.512
19424SOL    HW159713   6.044   1.927   0.570
19424SOL    HW259714   6.128   2.009   0.457
19425SOL     OW59715   7.020   3.050   0.041
19425SOL    HW159716   7.052   2.974   0.098
19425SOL    HW259717   6.928   3.077   0.071
19426SOL     OW59718   5.883   1.897   0.171
19426SOL    HW159719   5.932   1.981   0.150
19426SOL    HW259720   5.945   1.832   0.216
19427SOL     OW59721   6.521   2.098   0.480
19427SOL    HW159722   6.473   2.139   0.402
19427SOL    HW259723   6.620   2.096   0.461
19428SOL     OW59724   6.662   2.545   1.464
19428SOL    HW159725   6.582   2.484   1.467
19428SOL    HW259726   6.743   2.492   1.440
19429SOL     OW59727   6.813   3.432   0.793
19429SOL    HW159728   6.834   3.506   0.728
19429SOL    HW259729   6.881   3.432   0.866
19430SOL     OW59730   6.045   3.014   0.741
19430SOL    HW159731   5.974   2.987   0.806
19430SOL    HW259732   6.019   2.986   0.648
19431SOL     OW59733   6.857   3.659   0.591
19431SOL    HW159734   6.901   3.723   0.527
19431SOL    HW259735   6.807   3.711   0.661
19432SOL     OW59736   6.618   2.411   0.016
19432SOL    HW159737   6.577   2.493  -0.023
19432SOL    HW259738   6.682   2.437   0.089
19433SOL     OW59739   5.664   2.418   1.386
19433SOL    HW159740   5.756   2.417   1.345
19433SOL    HW259741   5.658   2.492   1.453
19434SOL     OW59742   6.147   2.084   1.147
19434SOL    HW159743   6.185   2.000   1.184
19434SOL    HW259744   6.059   2.103   1.191
19435SOL     OW59745   6.452   2.316   0.642
19435SOL    HW159746   6.420   2.388   0.580
19435SOL    HW259747   6.476   2.235   0.589
19436SOL     OW59748   6.603   1.901   0.753
19436SOL    HW159749   6.531   1.906   0.684
19436SOL    HW259750   6.579   1.832   0.822
19437SOL     OW59751   7.015   3.035   0.867
19437SOL    HW159752   6.960   2.951   0.860
19437SOL    HW259753   7.041   3.064   0.775
19438SOL     OW59754   7.052   2.452   0.992
19438SOL    HW159755   7.022   2.357   0.999
19438SOL    HW259756   7.125   2.468   1.058
19439SOL     OW59757   7.443   2.695   0.377
19439SOL    HW159758   7.485   2.631   0.441
19439SOL    HW259759   7.405   2.644   0.299
19440SOL     OW59760   6.074   3.247   0.174
19440SOL    HW159761   5.987   3.232   0.221
19440SOL    HW259762   6.057   3.273   0.079
19441SOL     OW59763   7.250   3.142   0.657
19441SOL    HW159764   7.349   3.150   0.671
19441SOL    HW259765   7.205   3.226   0.688
19442SOL     OW59766   6.976   2.437   0.078
19442SOL    HW159767   6.922   2.416   0.159
19442SOL    HW259768   7.067   2.396   0.087
19443SOL     OW59769   6.113   2.118   0.328
19443SOL    HW159770   6.140   2.059   0.253
19443SOL    HW259771   6.113   2.213   0.297
19444SOL     OW59772   7.340   3.085   1.588
19444SOL    HW159773   7.431   3.046   1.575
19444SOL    HW259774   7.348   3.181   1.612
19445SOL     OW59775   6.650   3.209   1.340
19445SOL    HW159776   6.570   3.186   1.395
19445SOL    HW259777   6.733   3.183   1.389
19446SOL     OW59778   7.178   3.491   1.625
19446SOL    HW159779   7.205   3.525   1.535
19446SOL    HW259780   7.257   3.453   1.671
19447SOL     OW59781   6.697   3.057   1.100
19447SOL    HW159782   6.657   3.101   1.181
19447SOL    HW259783   6.656   3.094   1.017
19448SOL     OW59784   7.224   2.961   1.079
19448SOL    HW159785   7.229   3.042   1.138
19448SOL    HW259786   7.138   2.963   1.028
19449SOL     OW59787   6.501   1.951   1.402
19449SOL    HW159788   6.526   1.931   1.307
19449SOL    HW259789   6.573   2.007   1.444
19450SOL     OW59790   6.566   2.978   1.719
19450SOL    HW159791   6.467   2.984   1.729
19450SOL    HW259792   6.589   2.898   1.663
19451SOL     OW59793   6.291   2.912   0.368
19451SOL    HW159794   6.277   2.919   0.467
19451SOL    HW259795   6.375   2.861   0.350
19452SOL     OW59796   5.996   2.675   1.251
19452SOL    HW159797   6.082   2.687   1.301
19452SOL    HW259798   5.954   2.588   1.278
19453SOL     OW59799   6.860   2.248   1.262
19453SOL    HW159800   6.881   2.322   1.326
19453SOL    HW259801   6.771   2.265   1.219
19454SOL     OW59802   5.650   3.426   1.331
19454SOL    HW159803   5.604   3.508   1.297
19454SOL    HW259804   5.748   3.445   1.340
19455SOL     OW59805   5.953   2.962   0.501
19455SOL    HW159806   5.946   3.045   0.445
19455SOL    HW259807   5.957   2.882   0.441
19456SOL     OW59808   6.152   2.399   0.865
19456SOL    HW159809   6.164   2.465   0.791
19456SOL    HW259810   6.198   2.433   0.948
19457SOL     OW59811   6.838   3.210   0.388
19457SOL    HW159812   6.888   3.287   0.428
19457SOL    HW259813   6.743   3.212   0.420
19458SOL     OW59814   6.858   3.307   1.142
19458SOL    HW159815   6.905   3.320   1.229
19458SOL    HW259816   6.792   3.233   1.151
19459SOL     OW59817   7.168   2.501   0.472
19459SOL    HW159818   7.137   2.562   0.545
19459SOL    HW259819   7.218   2.553   0.403
19460SOL     OW59820   5.940   3.372   1.329
19460SOL    HW159821   5.919   3.328   1.242
19460SOL    HW259822   6.037   3.398   1.332
19461SOL     OW59823   5.988   2.613   1.598
19461SOL    HW159824   6.056   2.668   1.551
19461SOL    HW259825   6.028   2.525   1.625
19462SOL     OW59826   7.173   2.641   1.670
19462SOL    HW159827   7.081   2.679   1.665
19462SOL    HW259828   7.233   2.688   1.605
19463SOL     OW59829   6.599   1.967   1.770
19463SOL    HW159830   6.605   2.052   1.718
19463SOL    HW259831   6.631   1.891   1.713
19464SOL     OW59832   6.090   1.912   1.740
19464SOL    HW159833   6.048   1.855   1.670
19464SOL    HW259834   6.024   1.981   1.772
19465SOL     OW59835   6.159   2.732   1.029
19465SOL    HW159836   6.203   2.821   1.020
19465SOL    HW259837   6.096   2.732   1.106
19466SOL     OW59838   6.946   2.724   1.045
19466SOL    HW159839   6.871   2.724   0.979
19466SOL    HW259840   6.983   2.632   1.054
19467SOL     OW59841   6.795   2.387   0.275
19467SOL    HW159842   6.808   2.303   0.329
19467SOL    HW259843   6.766   2.461   0.335
19468SOL     OW59844   5.893   2.075   1.231
19468SOL    HW159845   5.870   2.112   1.321
19468SOL    HW259846   5.863   1.980   1.225
19469SOL     OW59847   5.623   3.172   1.282
19469SOL    HW159848   5.676   3.123   1.350
19469SOL    HW259849   5.645   3.270   1.287
19470SOL     OW59850   6.318   2.496   1.064
19470SOL    HW159851   6.377   2.470   0.988
19470SOL    HW259852   6.290   2.592   1.053
19471SOL     OW59853   7.314   2.797   1.854
19471SOL    HW159854   7.268   2.790   1.765
19471SOL    HW259855   7.252   2.841   1.920
19472SOL     OW59856   5.893   1.925   0.618
19472SOL    HW159857   5.882   2.019   0.651
19472SOL    HW259858   5.888   1.862   0.695
19473SOL     OW59859   7.208   2.229   0.374
19473SOL    HW159860   7.210   2.153   0.438
19473SOL    HW259861   7.160   2.306   0.414
19474SOL     OW59862   6.609   2.628   0.966
19474SOL    HW159863   6.624   2.649   1.062
19474SOL    HW259864   6.579   2.533   0.957
19475SOL     OW59865   6.566   3.435   1.700
19475SOL    HW159866   6.546   3.479   1.612
19475SOL    HW259867   6.605   3.344   1.684
19476SOL     OW59868   7.445   3.380   1.605
19476SOL    HW159869   7.459   3.407   1.510
19476SOL    HW259870   7.528   3.402   1.658
19477SOL     OW59871   5.936   2.760   1.804
19477SOL    HW159872   6.012   2.804   1.852
19477SOL    HW259873   5.971   2.713   1.722
19478SOL     OW59874   7.126   2.136   0.125
19478SOL    HW159875   7.065   2.061   0.148
19478SOL    HW259876   7.148   2.188   0.208
19479SOL     OW59877   6.889   2.700   0.042
19479SOL    HW159878   6.923   2.607   0.057
19479SOL    HW259879   6.907   2.727  -0.053
19480SOL     OW59880   6.654   3.195   0.849
19480SOL    HW159881   6.661   3.111   0.794
19480SOL    HW259882   6.716   3.264   0.813
19481SOL     OW59883   5.905   2.672   0.949
19481SOL    HW159884   5.998   2.708   0.954
19481SOL    HW259885   5.899   2.587   1.001
19482SOL     OW59886   5.925   2.371   1.006
19482SOL    HW159887   5.873   2.288   0.989
19482SOL    HW259888   6.002   2.376   0.942
19483SOL     OW59889   6.724   2.242   1.678
19483SOL    HW159890   6.679   2.305   1.742
19483SOL    HW259891   6.817   2.273   1.661
19484SOL     OW59892   6.746   2.069   1.477
19484SOL    HW159893   6.746   2.133   1.554
19484SOL    HW259894   6.774   2.117   1.394
19485SOL     OW59895   5.674   3.663   0.927
19485SOL    HW159896   5.632   3.577   0.900
19485SOL    HW259897   5.768   3.666   0.893
19486SOL     OW59898   6.090   3.430   0.910
19486SOL    HW159899   6.156   3.504   0.919
19486SOL    HW259900   6.134   3.351   0.868
19487SOL     OW59901   6.588   2.658   1.238
19487SOL    HW159902   6.629   2.626   1.324
19487SOL    HW259903   6.492   2.631   1.235
19488SOL     OW59904   5.626   2.406   1.114
19488SOL    HW159905   5.711   2.373   1.073
19488SOL    HW259906   5.639   2.421   1.212
19489SOL     OW59907   5.775   2.382   1.722
19489SOL    HW159908   5.834   2.342   1.652
19489SOL    HW259909   5.717   2.453   1.681
19490SOL     OW59910   6.955   2.812   1.660
19490SOL    HW159911   6.994   2.901   1.680
19490SOL    HW259912   6.965   2.792   1.563
19491SOL     OW59913   6.401   2.434   0.325
19491SOL    HW159914   6.408   2.345   0.279
19491SOL    HW259915   6.307   2.468   0.317
19492SOL     OW59916   7.243   2.466   1.206
19492SOL    HW159917   7.205   2.397   1.268
19492SOL    HW259918   7.325   2.430   1.162
19493SOL     OW59919   5.838   3.426   1.744
19493SOL    HW159920   5.808   3.483   1.820
19493SOL    HW259921   5.831   3.329   1.770
19494SOL     OW59922   6.257   2.326   1.269
19494SOL    HW159923   6.223   2.237   1.239
19494SOL    HW259924   6.283   2.380   1.189
19495SOL     OW59925   6.516   3.540   1.465
19495SOL    HW159926   6.492   3.522   1.370
19495SOL    HW259927   6.546   3.634   1.475
19496SOL     OW59928   6.059   2.362   0.191
19496SOL    HW159929   6.120   2.442   0.195
19496SOL    HW259930   5.964   2.393   0.198
19497SOL     OW59931   5.745   2.999   1.466
19497SOL    HW159932   5.767   2.938   1.542
19497SOL    HW259933   5.755   2.950   1.380
19498SOL     OW59934   6.933   2.921   1.234
19498SOL    HW159935   6.957   2.858   1.160
19498SOL    HW259936   6.843   2.961   1.216
19499SOL     OW59937   6.888   2.717   0.309
19499SOL    HW159938   6.802   2.686   0.351
19499SOL    HW259939   6.884   2.703   0.210
19500SOL     OW59940   7.345   3.609   1.154
19500SOL    HW159941   7.406   3.639   1.081
19500SOL    HW259942   7.307   3.520   1.132
19501SOL     OW59943   6.838   3.593   1.128
19501SOL    HW159944   6.922   3.598   1.074
19501SOL    HW259945   6.815   3.497   1.146
19502SOL     OW59946   5.669   3.120   1.022
19502SOL    HW159947   5.664   3.119   1.122
19502SOL    HW259948   5.586   3.079   0.984
19503SOL     OW59949   6.274   3.524   1.716
19503SOL    HW159950   6.218   3.605   1.725
19503SOL    HW259951   6.326   3.528   1.630
19504SOL     OW59952   6.489   1.948   0.133
19504SOL    HW159953   6.540   1.949   0.047
19504SOL    HW259954   6.545   1.906   0.204
19505SOL     OW59955   7.312   1.997   0.523
19505SOL    HW159956   7.385   1.980   0.456
19505SOL    HW259957   7.281   1.910   0.561
19506SOL     OW59958   6.974   3.435   0.477
19506SOL    HW159959   7.041   3.447   0.403
19506SOL    HW259960   6.934   3.524   0.500
19507SOL     OW59961   5.716   3.656   1.851
19507SOL    HW159962   5.675   3.582   1.904
19507SOL    HW259963   5.780   3.707   1.909
19508SOL     OW59964   6.866   2.789   0.672
19508SOL    HW159965   6.926   2.708   0.674
19508SOL    HW259966   6.906   2.858   0.612
19509SOL     OW59967   6.416   3.135   1.422
19509SOL    HW159968   6.411   3.168   1.517
19509SOL    HW259969   6.330   3.154   1.376
19510SOL     OW59970   6.258   3.478   0.154
19510SOL    HW159971   6.267   3.488   0.055
19510SOL    HW259972   6.218   3.389   0.175
19511SOL     OW59973   7.236   3.582   1.394
19511SOL    HW159974   7.289   3.592   1.310
19511SOL    HW259975   7.209   3.672   1.428
19512SOL     OW59976   7.427   2.037   0.963
19512SOL    HW159977   7.466   1.952   0.927
19512SOL    HW259978   7.329   2.039   0.944
19513SOL     OW59979   5.849   2.188   0.720
19513SOL    HW159980   5.770   2.239   0.686
19513SOL    HW259981   5.840   2.173   0.818
19514SOL     OW59982   6.780   3.474   0.031
19514SOL    HW159983   6.786   3.381   0.068
19514SOL    HW259984   6.721   3.474  -0.049
19515SOL     OW59985   6.408   2.864   1.372
19515SOL    HW159986   6.448   2.863   1.280
19515SOL    HW259987   6.418   2.956   1.412
19516SOL     OW59988   6.502   2.772   0.291
19516SOL    HW159989   6.565   2.810   0.223
19516SOL    HW259990   6.542   2.689   0.330
19517SOL     OW59991   7.090   3.469   0.044
19517SOL    HW159992   6.998   3.506   0.051
19517SOL    HW259993   7.128   3.489  -0.046
19518SOL     OW59994   5.958   3.150   1.490
19518SOL    HW159995   5.945   3.243   1.456
19518SOL    HW259996   5.874   3.098   1.477
19519SOL     OW59997   7.200   3.154   1.289
19519SOL    HW159998   7.260   3.157   1.369
19519SOL    HW259999   7.125   3.218   1.302
19520SOL     OW60000   6.625   2.960   0.696
19520SOL    HW160001   6.555   2.913   0.750
19520SOL    HW260002   6.684   2.892   0.653
19521SOL     OW60003   6.600   2.098   0.971
19521SOL    HW160004   6.592   2.062   0.878
19521SOL    HW260005   6.598   2.022   1.036
19522SOL     OW60006   6.176   3.349   0.491
19522SOL    HW160007   6.218   3.291   0.421
19522SOL    HW260008   6.132   3.428   0.447
19523SOL     OW60009   7.295   2.247   1.381
19523SOL    HW160010   7.368   2.316   1.385
19523SOL    HW260011   7.323   2.172   1.322
19524SOL     OW60012   5.841   3.210   0.290
19524SOL    HW160013   5.745   3.211   0.263
19524SOL    HW260014   5.853   3.263   0.374
19525SOL     OW60015   5.691   2.875   1.726
19525SOL    HW160016   5.614   2.842   1.780
19525SOL    HW260017   5.776   2.845   1.768
19526SOL     OW60018   6.258   2.065   1.489
19526SOL    HW160019   6.348   2.049   1.449
19526SOL    HW260020   6.266   2.070   1.588
19527SOL     OW60021   7.026   2.718   1.398
19527SOL    HW160022   6.969   2.770   1.335
19527SOL    HW260023   7.122   2.730   1.374
19528SOL     OW60024   5.658   2.028   0.318
19528SOL    HW160025   5.641   2.111   0.264
19528SOL    HW260026   5.748   1.991   0.296
19529SOL     OW60027   6.769   3.197   0.119
19529SOL    HW160028   6.670   3.186   0.121
19529SOL    HW260029   6.803   3.212   0.212
19530SOL     OW60030   6.199   2.704   1.431
19530SOL    HW160031   6.255   2.785   1.414
19530SOL    HW260032   6.258   2.624   1.434
19531SOL     OW60033   7.079   3.629   0.959
19531SOL    HW160034   7.112   3.693   0.890
19531SOL    HW260035   7.145   3.623   1.034
19532SOL     OW60036   6.302   2.427   1.708
19532SOL    HW160037   6.321   2.492   1.782
19532SOL    HW260038   6.362   2.347   1.717
19533SOL     OW60039   7.036   3.082   1.633
19533SOL    HW160040   7.027   3.072   1.732
19533SOL    HW260041   7.132   3.075   1.607
19534SOL     OW60042   5.976   3.603   1.560
19534SOL    HW160043   5.885   3.644   1.558
19534SOL    HW260044   5.969   3.509   1.592
19535SOL     OW60045   7.260   2.745   1.254
19535SOL    HW160046   7.233   2.656   1.217
19535SOL    HW260047   7.261   2.813   1.181
19536SOL     OW60048   6.811   2.187   0.449
19536SOL    HW160049   6.876   2.113   0.438
19536SOL    HW260050   6.831   2.237   0.533
19537SOL     OW60051   6.180   2.607   0.652
19537SOL    HW160052   6.230   2.692   0.633
19537SOL    HW260053   6.092   2.609   0.604
19538SOL     OW60054   7.363   2.204   1.642
19538SOL    HW160055   7.346   2.235   1.548
19538SOL    HW260056   7.279   2.167   1.680
19539SOL     OW60057   7.316   2.796   1.517
19539SOL    HW160058   7.354   2.887   1.532
19539SOL    HW260059   7.308   2.779   1.418
19540SOL     OW60060   6.445   3.236   0.016
19540SOL    HW160061   6.399   3.251   0.104
19540SOL    HW260062   6.489   3.321  -0.014
19541SOL     OW60063   6.247   3.652   0.953
19541SOL    HW160064   6.201   3.740   0.940
19541SOL    HW260065   6.346   3.664   0.946
19542SOL     OW60066   6.445   2.818   0.861
19542SOL    HW160067   6.499   2.749   0.909
19542SOL    HW260068   6.413   2.887   0.927
19543SOL     OW60069   6.669   2.846   0.087
19543SOL    HW160070   6.646   2.899   0.005
19543SOL    HW260071   6.750   2.790   0.068
19544SOL     OW60072   7.447   3.431   0.851
19544SOL    HW160073   7.376   3.419   0.781
19544SOL    HW260074   7.448   3.352   0.911
19545SOL     OW60075   5.807   3.176   1.844
19545SOL    HW160076   5.742   3.103   1.823
19545SOL    HW260077   5.811   3.190   1.942
19546SOL     OW60078   5.665   3.102   0.653
19546SOL    HW160079   5.664   3.055   0.741
19546SOL    HW260080   5.747   3.074   0.602
19547SOL     OW60081   6.258   3.253   1.624
19547SOL    HW160082   6.180   3.203   1.662
19547SOL    HW260083   6.255   3.348   1.655
19548SOL     OW60084   7.410   2.054   1.227
19548SOL    HW160085   7.406   1.964   1.271
19548SOL    HW260086   7.413   2.043   1.128
19549SOL     OW60087   6.014   2.286   0.520
19549SOL    HW160088   6.044   2.214   0.458
19549SOL    HW260089   5.975   2.246   0.603
19550SOL     OW60090   7.291   3.349   1.104
19550SOL    HW160091   7.198   3.324   1.077
19550SOL    HW260092   7.317   3.299   1.186
19551SOL     OW60093   5.903   2.409   1.280
19551SOL    HW160094   5.941   2.350   1.352
19551SOL    HW260095   5.943   2.383   1.192
19552SOL     OW60096   6.398   3.448   0.687
19552SOL    HW160097   6.430   3.458   0.593
19552SOL    HW260098   6.319   3.386   0.689
19553SOL     OW60099   7.010   2.076   1.112
19553SOL    HW160100   7.062   2.011   1.167
19553SOL    HW260101   6.961   2.139   1.173
19554SOL     OW60102   6.587   1.896   1.154
19554SOL    HW160103   6.524   1.824   1.123
19554SOL    HW260104   6.680   1.860   1.154
19555SOL     OW60105   6.356   3.192   0.301
19555SOL    HW160106   6.310   3.105   0.318
19555SOL    HW260107   6.447   3.189   0.342
19556SOL     OW60108   6.204   3.429   1.284
19556SOL    HW160109   6.199   3.511   1.341
19556SOL    HW260110   6.293   3.426   1.239
19557SOL     OW60111   6.938   1.914   0.168
19557SOL    HW160112   6.973   1.873   0.084
19557SOL    HW260113   6.848   1.876   0.188
19558SOL     OW60114   6.886   2.315   0.691
19558SOL    HW160115   6.827   2.395   0.695
19558SOL    HW260116   6.901   2.280   0.784
19559SOL     OW60117   7.179   2.083   0.882
19559SOL    HW160118   7.095   2.082   0.936
19559SOL    HW260119   7.181   2.166   0.826
19560SOL     OW60120   5.625   2.939   0.300
19560SOL    HW160121   5.724   2.928   0.291
19560SOL    HW260122   5.585   2.853   0.332
19561SOL     OW60123   6.461   3.508   0.337
19561SOL    HW160124   6.384   3.473   0.283
19561SOL    HW260125   6.429   3.579   0.399
19562SOL     OW60126   5.816   2.490   1.975
19562SOL    HW160127   5.723   2.488   2.012
19562SOL    HW260128   5.817   2.451   1.883
19563SOL     OW60129   5.811   2.137   2.858
19563SOL    HW160130   5.846   2.120   2.950
19563SOL    HW260131   5.723   2.092   2.846
19564SOL     OW60132   5.605   2.230   2.509
19564SOL    HW160133   5.523   2.273   2.548
19564SOL    HW260134   5.577   2.157   2.446
19565SOL     OW60135   6.155   3.137   3.027
19565SOL    HW160136   6.062   3.130   2.990
19565SOL    HW260137   6.166   3.226   3.071
19566SOL     OW60138   7.141   3.373   2.565
19566SOL    HW160139   7.084   3.357   2.646
19566SOL    HW260140   7.082   3.383   2.485
19567SOL     OW60141   6.721   2.565   2.579
19567SOL    HW160142   6.778   2.643   2.554
19567SOL    HW260143   6.661   2.591   2.655
19568SOL     OW60144   7.341   2.469   2.093
19568SOL    HW160145   7.329   2.456   1.994
19568SOL    HW260146   7.311   2.388   2.142
19569SOL     OW60147   6.354   3.006   2.885
19569SOL    HW160148   6.276   3.023   2.945
19569SOL    HW260149   6.388   3.093   2.849
19570SOL     OW60150   6.436   2.660   3.685
19570SOL    HW160151   6.432   2.736   3.750
19570SOL    HW260152   6.458   2.696   3.594
19571SOL     OW60153   6.271   2.874   2.527
19571SOL    HW160154   6.340   2.858   2.597
19571SOL    HW260155   6.198   2.931   2.565
19572SOL     OW60156   6.272   3.023   3.665
19572SOL    HW160157   6.332   3.102   3.679
19572SOL    HW260158   6.186   3.054   3.624
19573SOL     OW60159   5.921   3.297   2.923
19573SOL    HW160160   5.843   3.266   2.870
19573SOL    HW260161   5.979   3.355   2.866
19574SOL     OW60162   7.046   3.367   3.201
19574SOL    HW160163   7.070   3.461   3.227
19574SOL    HW260164   7.030   3.313   3.283
19575SOL     OW60165   6.024   2.254   3.361
19575SOL    HW160166   6.106   2.198   3.370
19575SOL    HW260167   5.943   2.196   3.365
19576SOL     OW60168   7.189   2.309   2.599
19576SOL    HW160169   7.115   2.355   2.549
19576SOL    HW260170   7.240   2.377   2.652
19577SOL     OW60171   5.817   3.575   2.345
19577SOL    HW160172   5.851   3.652   2.399
19577SOL    HW260173   5.861   3.575   2.255
19578SOL     OW60174   6.713   3.203   3.552
19578SOL    HW160175   6.760   3.203   3.640
19578SOL    HW260176   6.665   3.116   3.541
19579SOL     OW60177   5.816   3.296   2.400
19579SOL    HW160178   5.790   3.392   2.400
19579SOL    HW260179   5.745   3.242   2.445
19580SOL     OW60180   5.826   2.953   2.748
19580SOL    HW160181   5.840   2.869   2.800
19580SOL    HW260182   5.771   3.017   2.803
19581SOL     OW60183   6.206   3.648   3.301
19581SOL    HW160184   6.114   3.631   3.336
19581SOL    HW260185   6.234   3.740   3.327
19582SOL     OW60186   6.192   2.826   1.985
19582SOL    HW160187   6.199   2.910   1.931
19582SOL    HW260188   6.238   2.839   2.073
19583SOL     OW60189   7.180   1.976   3.342
19583SOL    HW160190   7.162   2.043   3.270
19583SOL    HW260191   7.177   2.022   3.431
19584SOL     OW60192   5.708   2.505   2.425
19584SOL    HW160193   5.663   2.417   2.442
19584SOL    HW260194   5.707   2.559   2.509
19585SOL     OW60195   7.428   3.629   2.221
19585SOL    HW160196   7.482   3.600   2.301
19585SOL    HW260197   7.458   3.719   2.192
19586SOL     OW60198   5.613   3.458   1.979
19586SOL    HW160199   5.594   3.362   2.000
19586SOL    HW260200   5.580   3.516   2.054
19587SOL     OW60201   7.275   2.784   2.474
19587SOL    HW160202   7.370   2.755   2.482
19587SOL    HW260203   7.267   2.849   2.399
19588SOL     OW60204   7.227   2.970   2.294
19588SOL    HW160205   7.313   2.972   2.242
19588SOL    HW260206   7.241   3.017   2.382
19589SOL     OW60207   5.699   2.599   3.459
19589SOL    HW160208   5.787   2.586   3.504
19589SOL    HW260209   5.686   2.696   3.437
19590SOL     OW60210   6.199   3.227   2.588
19590SOL    HW160211   6.150   3.140   2.597
19590SOL    HW260212   6.176   3.270   2.501
19591SOL     OW60213   6.879   3.090   3.285
19591SOL    HW160214   6.916   3.017   3.227
19591SOL    HW260215   6.931   3.095   3.370
19592SOL     OW60216   6.395   1.866   2.364
19592SOL    HW160217   6.435   1.957   2.355
19592SOL    HW260218   6.295   1.874   2.370
19593SOL     OW60219   5.783   2.838   3.126
19593SOL    HW160220   5.872   2.793   3.112
19593SOL    HW260221   5.710   2.773   3.107
19594SOL     OW60222   7.111   2.861   2.052
19594SOL    HW160223   7.048   2.785   2.065
19594SOL    HW260224   7.159   2.879   2.138
19595SOL     OW60225   6.773   3.654   3.478
19595SOL    HW160226   6.797   3.714   3.402
19595SOL    HW260227   6.780   3.559   3.448
19596SOL     OW60228   5.903   2.113   3.663
19596SOL    HW160229   5.974   2.184   3.669
19596SOL    HW260230   5.815   2.152   3.691
19597SOL     OW60231   7.052   3.279   2.815
19597SOL    HW160232   6.993   3.285   2.895
19597SOL    HW260233   7.037   3.191   2.769
19598SOL     OW60234   7.253   3.576   2.434
19598SOL    HW160235   7.212   3.553   2.346
19598SOL    HW260236   7.235   3.502   2.499
19599SOL     OW60237   6.184   2.591   2.132
19599SOL    HW160238   6.208   2.660   2.064
19599SOL    HW260239   6.106   2.624   2.186
19600SOL     OW60240   6.867   2.207   2.806
19600SOL    HW160241   6.781   2.157   2.793
19600SOL    HW260242   6.929   2.153   2.862
19601SOL     OW60243   7.162   3.524   2.169
19601SOL    HW160244   7.251   3.570   2.172
19601SOL    HW260245   7.141   3.500   2.074
19602SOL     OW60246   6.393   2.467   3.327
19602SOL    HW160247   6.346   2.464   3.416
19602SOL    HW260248   6.342   2.412   3.261
19603SOL     OW60249   6.980   2.331   3.536
19603SOL    HW160250   6.960   2.374   3.624
19603SOL    HW260251   7.058   2.269   3.545
19604SOL     OW60252   6.559   2.752   3.434
19604SOL    HW160253   6.605   2.668   3.405
19604SOL    HW260254   6.503   2.786   3.359
19605SOL     OW60255   6.577   2.272   3.104
19605SOL    HW160256   6.500   2.306   3.158
19605SOL    HW260257   6.543   2.221   3.025
19606SOL     OW60258   6.627   2.563   2.291
19606SOL    HW160259   6.653   2.559   2.387
19606SOL    HW260260   6.542   2.512   2.277
19607SOL     OW60261   5.662   2.673   2.651
19607SOL    HW160262   5.761   2.661   2.660
19607SOL    HW260263   5.638   2.768   2.672
19608SOL     OW60264   5.716   3.683   3.433
19608SOL    HW160265   5.706   3.668   3.532
19608SOL    HW260266   5.630   3.719   3.397
19609SOL     OW60267   6.451   2.210   2.057
19609SOL    HW160268   6.510   2.273   2.008
19609SOL    HW260269   6.470   2.116   2.028
19610SOL     OW60270   7.305   2.447   3.693
19610SOL    HW160271   7.279   2.536   3.657
19610SOL    HW260272   7.303   2.379   3.620
19611SOL     OW60273   6.948   3.006   2.407
19611SOL    HW160274   7.031   2.977   2.359
19611SOL    HW260275   6.899   3.073   2.351
19612SOL     OW60276   6.136   2.058   2.747
19612SOL    HW160277   6.131   2.053   2.847
19612SOL    HW260278   6.138   2.154   2.718
19613SOL     OW60279   6.594   3.318   2.339
19613SOL    HW160280   6.548   3.390   2.287
19613SOL    HW260281   6.590   3.338   2.437
19614SOL     OW60282   5.937   3.663   2.715
19614SOL    HW160283   5.987   3.577   2.721
19614SOL    HW260284   6.002   3.740   2.712
19615SOL     OW60285   7.381   2.928   2.735
19615SOL    HW160286   7.319   2.913   2.659
19615SOL    HW260287   7.329   2.939   2.820
19616SOL     OW60288   6.813   3.412   3.368
19616SOL    HW160289   6.819   3.335   3.432
19616SOL    HW260290   6.761   3.386   3.288
19617SOL     OW60291   5.907   2.805   2.104
19617SOL    HW160292   5.989   2.844   2.062
19617SOL    HW260293   5.880   2.723   2.055
19618SOL     OW60294   7.044   2.597   2.590
19618SOL    HW160295   7.039   2.532   2.665
19618SOL    HW260296   7.124   2.656   2.603
19619SOL     OW60297   6.047   3.128   3.589
19619SOL    HW160298   5.997   3.129   3.503
19619SOL    HW260299   5.984   3.110   3.665
19620SOL     OW60300   6.697   3.638   2.099
19620SOL    HW160301   6.637   3.576   2.149
19620SOL    HW260302   6.728   3.594   2.014
19621SOL     OW60303   5.788   2.147   3.360
19621SOL    HW160304   5.708   2.207   3.347
19621SOL    HW260305   5.778   2.098   3.446
19622SOL     OW60306   7.218   3.239   1.943
19622SOL    HW160307   7.186   3.333   1.933
19622SOL    HW260308   7.142   3.176   1.931
19623SOL     OW60309   6.050   3.605   2.185
19623SOL    HW160310   6.083   3.644   2.271
19623SOL    HW260311   6.126   3.598   2.120
19624SOL     OW60312   6.986   1.969   2.288
19624SOL    HW160313   6.962   1.932   2.198
19624SOL    HW260314   7.085   1.985   2.292
19625SOL     OW60315   5.835   3.647   3.103
19625SOL    HW160316   5.892   3.582   3.153
19625SOL    HW260317   5.819   3.614   3.010
19626SOL     OW60318   6.526   3.560   2.766
19626SOL    HW160319   6.606   3.503   2.787
19626SOL    HW260320   6.477   3.520   2.689
19627SOL     OW60321   5.968   2.562   2.342
19627SOL    HW160322   6.013   2.472   2.339
19627SOL    HW260323   5.874   2.551   2.375
19628SOL     OW60324   7.133   2.084   3.591
19628SOL    HW160325   7.128   2.121   3.683
19628SOL    HW260326   7.061   2.015   3.579
19629SOL     OW60327   6.200   1.984   1.979
19629SOL    HW160328   6.298   1.962   1.986
19629SOL    HW260329   6.169   1.967   1.886
19630SOL     OW60330   6.367   2.126   3.611
19630SOL    HW160331   6.434   2.065   3.654
19630SOL    HW260332   6.294   2.145   3.676
19631SOL     OW60333   6.474   3.376   3.057
19631SOL    HW160334   6.451   3.351   2.963
19631SOL    HW260335   6.535   3.307   3.096
19632SOL     OW60336   6.937   2.452   3.295
19632SOL    HW160337   6.965   2.409   3.380
19632SOL    HW260338   6.962   2.548   3.296
19633SOL     OW60339   6.389   3.264   2.786
19633SOL    HW160340   6.479   3.278   2.744
19633SOL    HW260341   6.318   3.266   2.715
19634SOL     OW60342   6.508   2.365   2.761
19634SOL    HW160343   6.483   2.356   2.665
19634SOL    HW260344   6.556   2.283   2.792
19635SOL     OW60345   6.125   1.926   2.374
19635SOL    HW160346   6.044   1.927   2.432
19635SOL    HW260347   6.128   2.009   2.319
19636SOL     OW60348   7.020   3.050   1.903
19636SOL    HW160349   7.052   2.974   1.960
19636SOL    HW260350   6.928   3.077   1.933
19637SOL     OW60351   5.883   1.897   2.033
19637SOL    HW160352   5.932   1.981   2.012
19637SOL    HW260353   5.945   1.832   2.078
19638SOL     OW60354   6.521   2.098   2.342
19638SOL    HW160355   6.473   2.139   2.264
19638SOL    HW260356   6.620   2.096   2.323
19639SOL     OW60357   6.662   2.545   3.326
19639SOL    HW160358   6.582   2.484   3.329
19639SOL    HW260359   6.743   2.492   3.302
19640SOL     OW60360   6.813   3.432   2.655
19640SOL    HW160361   6.834   3.506   2.590
19640SOL    HW260362   6.881   3.432   2.728
19641SOL     OW60363   6.045   3.014   2.603
19641SOL    HW160364   5.974   2.987   2.668
19641SOL    HW260365   6.019   2.986   2.510
19642SOL     OW60366   6.857   3.659   2.453
19642SOL    HW160367   6.901   3.723   2.389
19642SOL    HW260368   6.807   3.711   2.523
19643SOL     OW60369   6.618   2.411   1.878
19643SOL    HW160370   6.577   2.493   1.839
19643SOL    HW260371   6.682   2.437   1.951
19644SOL     OW60372   5.664   2.418   3.248
19644SOL    HW160373   5.756   2.417   3.207
19644SOL    HW260374   5.658   2.492   3.315
19645SOL     OW60375   6.147   2.084   3.009
19645SOL    HW160376   6.185   2.000   3.046
19645SOL    HW260377   6.059   2.103   3.053
19646SOL     OW60378   6.452   2.316   2.504
19646SOL    HW160379   6.420   2.388   2.442
19646SOL    HW260380   6.476   2.235   2.451
19647SOL     OW60381   6.603   1.901   2.615
19647SOL    HW160382   6.531   1.906   2.546
19647SOL    HW260383   6.579   1.832   2.684
19648SOL     OW60384   7.015   3.035   2.729
19648SOL    HW160385   6.960   2.951   2.722
19648SOL    HW260386   7.041   3.064   2.637
19649SOL     OW60387   7.052   2.452   2.854
19649SOL    HW160388   7.022   2.357   2.861
19649SOL    HW260389   7.125   2.468   2.920
19650SOL     OW60390   7.443   2.695   2.239
19650SOL    HW160391   7.485   2.631   2.303
19650SOL    HW260392   7.405   2.644   2.161
19651SOL     OW60393   6.074   3.247   2.036
19651SOL    HW160394   5.987   3.232   2.083
19651SOL    HW260395   6.057   3.273   1.941
19652SOL     OW60396   7.250   3.142   2.519
19652SOL    HW160397   7.349   3.150   2.533
19652SOL    HW260398   7.205   3.226   2.550
19653SOL     OW60399   6.976   2.437   1.940
19653SOL    HW160400   6.922   2.416   2.021
19653SOL    HW260401   7.067   2.396   1.949
19654SOL     OW60402   6.113   2.118   2.190
19654SOL    HW160403   6.140   2.059   2.115
19654SOL    HW260404   6.113   2.213   2.159
19655SOL     OW60405   7.340   3.085   3.450
19655SOL    HW160406   7.431   3.046   3.437
19655SOL    HW260407   7.348   3.181   3.474
19656SOL     OW60408   6.650   3.209   3.202
19656SOL    HW160409   6.570   3.186   3.257
19656SOL    HW260410   6.733   3.183   3.251
19657SOL     OW60411   7.178   3.491   3.487
19657SOL    HW160412   7.205   3.525   3.397
19657SOL    HW260413   7.257   3.453   3.533
19658SOL     OW60414   6.697   3.057   2.962
19658SOL    HW160415   6.657   3.101   3.043
19658SOL    HW260416   6.656   3.094   2.879
19659SOL     OW60417   7.224   2.961   2.941
19659SOL    HW160418   7.229   3.042   3.000
19659SOL    HW260419   7.138   2.963   2.890
19660SOL     OW60420   6.501   1.951   3.264
19660SOL    HW160421   6.526   1.931   3.169
19660SOL    HW260422   6.573   2.007   3.306
19661SOL     OW60423   6.566   2.978   3.581
19661SOL    HW160424   6.467   2.984   3.591
19661SOL    HW260425   6.589   2.898   3.525
19662SOL     OW60426   6.291   2.912   2.230
19662SOL    HW160427   6.277   2.919   2.329
19662SOL    HW260428   6.375   2.861   2.212
19663SOL     OW60429   5.996   2.675   3.113
19663SOL    HW160430   6.082   2.687   3.163
19663SOL    HW260431   5.954   2.588   3.140
19664SOL     OW60432   6.860   2.248   3.124
19664SOL    HW160433   6.881   2.322   3.188
19664SOL    HW260434   6.771   2.265   3.081
19665SOL     OW60435   5.650   3.426   3.193
19665SOL    HW160436   5.604   3.508   3.159
19665SOL    HW260437   5.748   3.445   3.202
19666SOL     OW60438   5.953   2.962   2.363
19666SOL    HW160439   5.946   3.045   2.307
19666SOL    HW260440   5.957   2.882   2.303
19667SOL     OW60441   6.152   2.399   2.727
19667SOL    HW160442   6.164   2.465   2.653
19667SOL    HW260443   6.198   2.433   2.810
19668SOL     OW60444   6.838   3.210   2.250
19668SOL    HW160445   6.888   3.287   2.290
19668SOL    HW260446   6.743   3.212   2.282
19669SOL     OW60447   6.858   3.307   3.004
19669SOL    HW160448   6.905   3.320   3.091
19669SOL    HW260449   6.792   3.233   3.013
19670SOL     OW60450   7.168   2.501   2.334
19670SOL    HW160451   7.137   2.562   2.407
19670SOL    HW260452   7.218   2.553   2.265
19671SOL     OW60453   5.940   3.372   3.191
19671SOL    HW160454   5.919   3.328   3.104
19671SOL    HW260455   6.037   3.398   3.194
19672SOL     OW60456   5.988   2.613   3.460
19672SOL    HW160457   6.056   2.668   3.413
19672SOL    HW260458   6.028   2.525   3.487
19673SOL     OW60459   7.173   2.641   3.532
19673SOL    HW160460   7.081   2.679   3.527
19673SOL    HW260461   7.233   2.688   3.467
19674SOL     OW60462   6.599   1.967   3.632
19674SOL    HW160463   6.605   2.052   3.580
19674SOL    HW260464   6.631   1.891   3.575
19675SOL     OW60465   6.090   1.912   3.602
19675SOL    HW160466   6.048   1.855   3.532
19675SOL    HW260467   6.024   1.981   3.634
19676SOL     OW60468   6.159   2.732   2.891
19676SOL    HW160469   6.203   2.821   2.882
19676SOL    HW260470   6.096   2.732   2.968
19677SOL     OW60471   6.946   2.724   2.907
19677SOL    HW160472   6.871   2.724   2.841
19677SOL    HW260473   6.983   2.632   2.916
19678SOL     OW60474   6.795   2.387   2.137
19678SOL    HW160475   6.808   2.303   2.191
19678SOL    HW260476   6.766   2.461   2.197
19679SOL     OW60477   5.893   2.075   3.093
19679SOL    HW160478   5.870   2.112   3.183
19679SOL    HW260479   5.863   1.980   3.087
19680SOL     OW60480   5.623   3.172   3.144
19680SOL    HW160481   5.676   3.123   3.212
19680SOL    HW260482   5.645   3.270   3.149
19681SOL     OW60483   6.318   2.496   2.926
19681SOL    HW160484   6.377   2.470   2.850
19681SOL    HW260485   6.290   2.592   2.915
19682SOL     OW60486   7.314   2.797   3.716
19682SOL    HW160487   7.268   2.790   3.627
19682SOL    HW260488   7.252   2.841   3.782
19683SOL     OW60489   5.893   1.925   2.480
19683SOL    HW160490   5.882   2.019   2.513
19683SOL    HW260491   5.888   1.862   2.557
19684SOL     OW60492   7.208   2.229   2.236
19684SOL    HW160493   7.210   2.153   2.300
19684SOL    HW260494   7.160   2.306   2.276
19685SOL     OW60495   6.609   2.628   2.828
19685SOL    HW160496   6.624   2.649   2.924
19685SOL    HW260497   6.579   2.533   2.819
19686SOL     OW60498   6.566   3.435   3.562
19686SOL    HW160499   6.546   3.479   3.474
19686SOL    HW260500   6.605   3.344   3.546
19687SOL     OW60501   7.445   3.380   3.467
19687SOL    HW160502   7.459   3.407   3.372
19687SOL    HW260503   7.528   3.402   3.520
19688SOL     OW60504   5.936   2.760   3.666
19688SOL    HW160505   6.012   2.804   3.714
19688SOL    HW260506   5.971   2.713   3.584
19689SOL     OW60507   7.126   2.136   1.987
19689SOL    HW160508   7.065   2.061   2.010
19689SOL    HW260509   7.148   2.188   2.070
19690SOL     OW60510   6.889   2.700   1.904
19690SOL    HW160511   6.923   2.607   1.919
19690SOL    HW260512   6.907   2.727   1.809
19691SOL     OW60513   6.654   3.195   2.711
19691SOL    HW160514   6.661   3.111   2.656
19691SOL    HW260515   6.716   3.264   2.675
19692SOL     OW60516   5.905   2.672   2.811
19692SOL    HW160517   5.998   2.708   2.816
19692SOL    HW260518   5.899   2.587   2.863
19693SOL     OW60519   5.925   2.371   2.868
19693SOL    HW160520   5.873   2.288   2.851
19693SOL    HW260521   6.002   2.376   2.804
19694SOL     OW60522   6.724   2.242   3.540
19694SOL    HW160523   6.679   2.305   3.604
19694SOL    HW260524   6.817   2.273   3.523
19695SOL     OW60525   6.746   2.069   3.339
19695SOL    HW160526   6.746   2.133   3.416
19695SOL    HW260527   6.774   2.117   3.256
19696SOL     OW60528   5.594   3.188   2.062
19696SOL    HW160529   5.501   3.209   2.031
19696SOL    HW260530   5.604   3.089   2.075
19697SOL     OW60531   5.674   3.663   2.789
19697SOL    HW160532   5.632   3.577   2.762
19697SOL    HW260533   5.768   3.666   2.755
19698SOL     OW60534   6.090   3.430   2.772
19698SOL    HW160535   6.156   3.504   2.781
19698SOL    HW260536   6.134   3.351   2.730
19699SOL     OW60537   6.588   2.658   3.100
19699SOL    HW160538   6.629   2.626   3.186
19699SOL    HW260539   6.492   2.631   3.097
19700SOL     OW60540   5.626   2.406   2.976
19700SOL    HW160541   5.711   2.373   2.935
19700SOL    HW260542   5.639   2.421   3.074
19701SOL     OW60543   5.775   2.382   3.584
19701SOL    HW160544   5.834   2.342   3.514
19701SOL    HW260545   5.717   2.453   3.543
19702SOL     OW60546   6.955   2.812   3.522
19702SOL    HW160547   6.994   2.901   3.542
19702SOL    HW260548   6.965   2.792   3.425
19703SOL     OW60549   6.401   2.434   2.187
19703SOL    HW160550   6.408   2.345   2.141
19703SOL    HW260551   6.307   2.468   2.179
19704SOL     OW60552   7.243   2.466   3.068
19704SOL    HW160553   7.205   2.397   3.130
19704SOL    HW260554   7.325   2.430   3.024
19705SOL     OW60555   5.838   3.426   3.606
19705SOL    HW160556   5.808   3.483   3.682
19705SOL    HW260557   5.831   3.329   3.632
19706SOL     OW60558   6.257   2.326   3.131
19706SOL    HW160559   6.223   2.237   3.101
19706SOL    HW260560   6.283   2.380   3.051
19707SOL     OW60561   6.516   3.540   3.327
19707SOL    HW160562   6.492   3.522   3.232
19707SOL    HW260563   6.546   3.634   3.337
19708SOL     OW60564   6.059   2.362   2.053
19708SOL    HW160565   6.120   2.442   2.057
19708SOL    HW260566   5.964   2.393   2.060
19709SOL     OW60567   5.745   2.999   3.328
19709SOL    HW160568   5.767   2.938   3.404
19709SOL    HW260569   5.755   2.950   3.242
19710SOL     OW60570   6.933   2.921   3.096
19710SOL    HW160571   6.957   2.858   3.022
19710SOL    HW260572   6.843   2.961   3.078
19711SOL     OW60573   6.888   2.717   2.171
19711SOL    HW160574   6.802   2.686   2.213
19711SOL    HW260575   6.884   2.703   2.072
19712SOL     OW60576   7.345   3.609   3.016
19712SOL    HW160577   7.406   3.639   2.943
19712SOL    HW260578   7.307   3.520   2.994
19713SOL     OW60579   6.838   3.593   2.990
19713SOL    HW160580   6.922   3.598   2.936
19713SOL    HW260581   6.815   3.497   3.008
19714SOL     OW60582   5.669   3.120   2.884
19714SOL    HW160583   5.664   3.119   2.984
19714SOL    HW260584   5.586   3.079   2.846
19715SOL     OW60585   6.274   3.524   3.578
19715SOL    HW160586   6.218   3.605   3.587
19715SOL    HW260587   6.326   3.528   3.492
19716SOL     OW60588   7.312   1.997   2.385
19716SOL    HW160589   7.385   1.980   2.318
19716SOL    HW260590   7.281   1.910   2.423
19717SOL     OW60591   6.974   3.435   2.339
19717SOL    HW160592   7.041   3.447   2.265
19717SOL    HW260593   6.934   3.524   2.362
19718SOL     OW60594   5.716   3.656   3.713
19718SOL    HW160595   5.675   3.582   3.766
19718SOL    HW260596   5.780   3.707   3.771
19719SOL     OW60597   6.866   2.789   2.534
19719SOL    HW160598   6.926   2.708   2.536
19719SOL    HW260599   6.906   2.858   2.474
19720SOL     OW60600   6.416   3.135   3.284
19720SOL    HW160601   6.411   3.168   3.379
19720SOL    HW260602   6.330   3.154   3.238
19721SOL     OW60603   6.258   3.478   2.016
19721SOL    HW160604   6.267   3.488   1.917
19721SOL    HW260605   6.218   3.389   2.037
19722SOL     OW60606   7.236   3.582   3.256
19722SOL    HW160607   7.289   3.592   3.172
19722SOL    HW260608   7.209   3.672   3.290
19723SOL     OW60609   7.427   2.037   2.825
19723SOL    HW160610   7.466   1.952   2.789
19723SOL    HW260611   7.329   2.039   2.806
19724SOL     OW60612   5.849   2.188   2.582
19724SOL    HW160613   5.770   2.239   2.548
19724SOL    HW260614   5.840   2.173   2.680
19725SOL     OW60615   6.780   3.474   1.893
19725SOL    HW160616   6.786   3.381   1.930
19725SOL    HW260617   6.721   3.474   1.813
19726SOL     OW60618   6.408   2.864   3.234
19726SOL    HW160619   6.448   2.863   3.142
19726SOL    HW260620   6.418   2.956   3.274
19727SOL     OW60621   6.502   2.772   2.153
19727SOL    HW160622   6.565   2.810   2.085
19727SOL    HW260623   6.542   2.689   2.192
19728SOL     OW60624   7.090   3.469   1.906
19728SOL    HW160625   6.998   3.506   1.913
19728SOL    HW260626   7.128   3.489   1.816
19729SOL     OW60627   5.958   3.150   3.352
19729SOL    HW160628   5.945   3.243   3.318
19729SOL    HW260629   5.874   3.098   3.339
19730SOL     OW60630   7.200   3.154   3.151
19730SOL    HW160631   7.260   3.157   3.231
19730SOL    HW260632   7.125   3.218   3.164
19731SOL     OW60633   6.625   2.960   2.558
19731SOL    HW160634   6.555   2.913   2.612
19731SOL    HW260635   6.684   2.892   2.515
19732SOL     OW60636   6.600   2.098   2.833
19732SOL    HW160637   6.592   2.062   2.740
19732SOL    HW260638   6.598   2.022   2.898
19733SOL     OW60639   6.176   3.349   2.353
19733SOL    HW160640   6.218   3.291   2.283
19733SOL    HW260641   6.132   3.428   2.309
19734SOL     OW60642   7.295   2.247   3.243
19734SOL    HW160643   7.368   2.316   3.247
19734SOL    HW260644   7.323   2.172   3.184
19735SOL     OW60645   5.841   3.210   2.152
19735SOL    HW160646   5.745   3.211   2.125
19735SOL    HW260647   5.853   3.263   2.236
19736SOL     OW60648   5.691   2.875   3.588
19736SOL    HW160649   5.614   2.842   3.642
19736SOL    HW260650   5.776   2.845   3.630
19737SOL     OW60651   6.258   2.065   3.351
19737SOL    HW160652   6.348   2.049   3.311
19737SOL    HW260653   6.266   2.070   3.450
19738SOL     OW60654   5.661   2.207   1.895
19738SOL    HW160655   5.569   2.179   1.866
19738SOL    HW260656   5.692   2.284   1.839
19739SOL     OW60657   7.026   2.718   3.260
19739SOL    HW160658   6.969   2.770   3.197
19739SOL    HW260659   7.122   2.730   3.236
19740SOL     OW60660   5.658   2.028   2.180
19740SOL    HW160661   5.641   2.111   2.126
19740SOL    HW260662   5.748   1.991   2.158
19741SOL     OW60663   6.769   3.197   1.981
19741SOL    HW160664   6.670   3.186   1.983
19741SOL    HW260665   6.803   3.212   2.074
19742SOL     OW60666   6.199   2.704   3.293
19742SOL    HW160667   6.255   2.785   3.276
19742SOL    HW260668   6.258   2.624   3.296
19743SOL     OW60669   7.079   3.629   2.821
19743SOL    HW160670   7.112   3.693   2.752
19743SOL    HW260671   7.145   3.623   2.896
19744SOL     OW60672   6.302   2.427   3.570
19744SOL    HW160673   6.321   2.492   3.644
19744SOL    HW260674   6.362   2.347   3.579
19745SOL     OW60675   7.036   3.082   3.495
19745SOL    HW160676   7.027   3.072   3.594
19745SOL    HW260677   7.132   3.075   3.469
19746SOL     OW60678   5.976   3.603   3.422
19746SOL    HW160679   5.885   3.644   3.420
19746SOL    HW260680   5.969   3.509   3.454
19747SOL     OW60681   7.260   2.745   3.116
19747SOL    HW160682   7.233   2.656   3.079
19747SOL    HW260683   7.261   2.813   3.043
19748SOL     OW60684   6.811   2.187   2.311
19748SOL    HW160685   6.876   2.113   2.300
19748SOL    HW260686   6.831   2.237   2.395
19749SOL     OW60687   6.180   2.607   2.514
19749SOL    HW160688   6.230   2.692   2.495
19749SOL    HW260689   6.092   2.609   2.466
19750SOL     OW60690   7.363   2.204   3.504
19750SOL    HW160691   7.346   2.235   3.410
19750SOL    HW260692   7.279   2.167   3.542
19751SOL     OW60693   7.316   2.796   3.379
19751SOL    HW160694   7.354   2.887   3.394
19751SOL    HW260695   7.308   2.779   3.280
19752SOL     OW60696   6.445   3.236   1.878
19752SOL    HW160697   6.399   3.251   1.966
19752SOL    HW260698   6.489   3.321   1.848
19753SOL     OW60699   6.247   3.652   2.815
19753SOL    HW160700   6.201   3.740   2.802
19753SOL    HW260701   6.346   3.664   2.808
19754SOL     OW60702   6.445   2.818   2.723
19754SOL    HW160703   6.499   2.749   2.771
19754SOL    HW260704   6.413   2.887   2.789
19755SOL     OW60705   6.669   2.846   1.949
19755SOL    HW160706   6.646   2.899   1.867
19755SOL    HW260707   6.750   2.790   1.930
19756SOL     OW60708   7.447   3.431   2.713
19756SOL    HW160709   7.376   3.419   2.643
19756SOL    HW260710   7.448   3.352   2.773
19757SOL     OW60711   5.807   3.176   3.706
19757SOL    HW160712   5.742   3.103   3.685
19757SOL    HW260713   5.811   3.190   3.804
19758SOL     OW60714   5.665   3.102   2.515
19758SOL    HW160715   5.664   3.055   2.603
19758SOL    HW260716   5.747   3.074   2.464
19759SOL     OW60717   6.258   3.253   3.486
19759SOL    HW160718   6.180   3.203   3.524
19759SOL    HW260719   6.255   3.348   3.517
19760SOL     OW60720   7.410   2.054   3.089
19760SOL    HW160721   7.406   1.964   3.133
19760SOL    HW260722   7.413   2.043   2.990
19761SOL     OW60723   6.014   2.286   2.382
19761SOL    HW160724   6.044   2.214   2.320
19761SOL    HW260725   5.975   2.246   2.465
19762SOL     OW60726   7.291   3.349   2.966
19762SOL    HW160727   7.198   3.324   2.939
19762SOL    HW260728   7.317   3.299   3.048
19763SOL     OW60729   5.903   2.409   3.142
19763SOL    HW160730   5.941   2.350   3.214
19763SOL    HW260731   5.943   2.383   3.054
19764SOL     OW60732   6.398   3.448   2.549
19764SOL    HW160733   6.430   3.458   2.455
19764SOL    HW260734   6.319   3.386   2.551
19765SOL     OW60735   7.010   2.076   2.974
19765SOL    HW160736   7.062   2.011   3.029
19765SOL    HW260737   6.961   2.139   3.035
19766SOL     OW60738   6.587   1.896   3.016
19766SOL    HW160739   6.524   1.824   2.985
19766SOL    HW260740   6.680   1.860   3.016
19767SOL     OW60741   6.356   3.192   2.163
19767SOL    HW160742   6.310   3.105   2.180
19767SOL    HW260743   6.447   3.189   2.204
19768SOL     OW60744   6.204   3.429   3.146
19768SOL    HW160745   6.199   3.511   3.203
19768SOL    HW260746   6.293   3.426   3.101
19769SOL     OW60747   6.938   1.914   2.030
19769SOL    HW160748   6.973   1.873   1.946
19769SOL    HW260749   6.848   1.876   2.050
19770SOL     OW60750   6.886   2.315   2.553
19770SOL    HW160751   6.827   2.395   2.557
19770SOL    HW260752   6.901   2.280   2.646
19771SOL     OW60753   7.179   2.083   2.744
19771SOL    HW160754   7.095   2.082   2.798
19771SOL    HW260755   7.181   2.166   2.688
19772SOL     OW60756   5.625   2.939   2.162
19772SOL    HW160757   5.724   2.928   2.153
19772SOL    HW260758   5.585   2.853   2.194
19773SOL     OW60759   6.461   3.508   2.199
19773SOL    HW160760   6.384   3.473   2.145
19773SOL    HW260761   6.429   3.579   2.261
19774SOL     OW60762   5.816   2.490   3.837
19774SOL    HW160763   5.723   2.488   3.874
19774SOL    HW260764   5.817   2.451   3.745
19775SOL     OW60765   5.811   2.137   4.720
19775SOL    HW160766   5.846   2.120   4.812
19775SOL    HW260767   5.723   2.092   4.708
19776SOL     OW60768   5.605   2.230   4.371
19776SOL    HW160769   5.523   2.273   4.410
19776SOL    HW260770   5.577   2.157   4.308
19777SOL     OW60771   6.155   3.137   4.889
19777SOL    HW160772   6.062   3.130   4.852
19777SOL    HW260773   6.166   3.226   4.933
19778SOL     OW60774   7.141   3.373   4.427
19778SOL    HW160775   7.084   3.357   4.508
19778SOL    HW260776   7.082   3.383   4.347
19779SOL     OW60777   6.721   2.565   4.441
19779SOL    HW160778   6.778   2.643   4.416
19779SOL    HW260779   6.661   2.591   4.517
19780SOL     OW60780   7.341   2.469   3.955
19780SOL    HW160781   7.329   2.456   3.856
19780SOL    HW260782   7.311   2.388   4.004
19781SOL     OW60783   6.354   3.006   4.747
19781SOL    HW160784   6.276   3.023   4.807
19781SOL    HW260785   6.388   3.093   4.711
19782SOL     OW60786   6.436   2.660   5.547
19782SOL    HW160787   6.432   2.736   5.612
19782SOL    HW260788   6.458   2.696   5.456
19783SOL     OW60789   6.271   2.874   4.389
19783SOL    HW160790   6.340   2.858   4.459
19783SOL    HW260791   6.198   2.931   4.427
19784SOL     OW60792   6.272   3.023   5.527
19784SOL    HW160793   6.332   3.102   5.541
19784SOL    HW260794   6.186   3.054   5.486
19785SOL     OW60795   5.921   3.297   4.785
19785SOL    HW160796   5.843   3.266   4.732
19785SOL    HW260797   5.979   3.355   4.728
19786SOL     OW60798   7.046   3.367   5.063
19786SOL    HW160799   7.070   3.461   5.089
19786SOL    HW260800   7.030   3.313   5.145
19787SOL     OW60801   6.024   2.254   5.223
19787SOL    HW160802   6.106   2.198   5.232
19787SOL    HW260803   5.943   2.196   5.227
19788SOL     OW60804   7.189   2.309   4.461
19788SOL    HW160805   7.115   2.355   4.411
19788SOL    HW260806   7.240   2.377   4.514
19789SOL     OW60807   5.817   3.575   4.207
19789SOL    HW160808   5.851   3.652   4.261
19789SOL    HW260809   5.861   3.575   4.117
19790SOL     OW60810   6.713   3.203   5.414
19790SOL    HW160811   6.760   3.203   5.502
19790SOL    HW260812   6.665   3.116   5.403
19791SOL     OW60813   5.816   3.296   4.262
19791SOL    HW160814   5.790   3.392   4.262
19791SOL    HW260815   5.745   3.242   4.307
19792SOL     OW60816   5.826   2.953   4.610
19792SOL    HW160817   5.840   2.869   4.662
19792SOL    HW260818   5.771   3.017   4.665
19793SOL     OW60819   6.206   3.648   5.163
19793SOL    HW160820   6.114   3.631   5.198
19793SOL    HW260821   6.234   3.740   5.189
19794SOL     OW60822   6.192   2.826   3.847
19794SOL    HW160823   6.199   2.910   3.793
19794SOL    HW260824   6.238   2.839   3.935
19795SOL     OW60825   7.180   1.976   5.204
19795SOL    HW160826   7.162   2.043   5.132
19795SOL    HW260827   7.177   2.022   5.293
19796SOL     OW60828   5.708   2.505   4.287
19796SOL    HW160829   5.663   2.417   4.304
19796SOL    HW260830   5.707   2.559   4.371
19797SOL     OW60831   7.428   3.629   4.083
19797SOL    HW160832   7.482   3.600   4.163
19797SOL    HW260833   7.458   3.719   4.054
19798SOL     OW60834   5.613   3.458   3.841
19798SOL    HW160835   5.594   3.362   3.862
19798SOL    HW260836   5.580   3.516   3.916
19799SOL     OW60837   7.275   2.784   4.336
19799SOL    HW160838   7.370   2.755   4.344
19799SOL    HW260839   7.267   2.849   4.261
19800SOL     OW60840   7.227   2.970   4.156
19800SOL    HW160841   7.313   2.972   4.104
19800SOL    HW260842   7.241   3.017   4.244
19801SOL     OW60843   5.699   2.599   5.321
19801SOL    HW160844   5.787   2.586   5.366
19801SOL    HW260845   5.686   2.696   5.299
19802SOL     OW60846   6.199   3.227   4.450
19802SOL    HW160847   6.150   3.140   4.459
19802SOL    HW260848   6.176   3.270   4.363
19803SOL     OW60849   6.879   3.090   5.147
19803SOL    HW160850   6.916   3.017   5.089
19803SOL    HW260851   6.931   3.095   5.232
19804SOL     OW60852   6.395   1.866   4.226
19804SOL    HW160853   6.435   1.957   4.217
19804SOL    HW260854   6.295   1.874   4.232
19805SOL     OW60855   5.783   2.838   4.988
19805SOL    HW160856   5.872   2.793   4.974
19805SOL    HW260857   5.710   2.773   4.969
19806SOL     OW60858   7.111   2.861   3.914
19806SOL    HW160859   7.048   2.785   3.927
19806SOL    HW260860   7.159   2.879   4.000
19807SOL     OW60861   6.773   3.654   5.340
19807SOL    HW160862   6.797   3.714   5.264
19807SOL    HW260863   6.780   3.559   5.310
19808SOL     OW60864   5.903   2.113   5.525
19808SOL    HW160865   5.974   2.184   5.531
19808SOL    HW260866   5.815   2.152   5.553
19809SOL     OW60867   7.253   3.576   4.296
19809SOL    HW160868   7.212   3.553   4.208
19809SOL    HW260869   7.235   3.502   4.361
19810SOL     OW60870   6.184   2.591   3.994
19810SOL    HW160871   6.208   2.660   3.926
19810SOL    HW260872   6.106   2.624   4.048
19811SOL     OW60873   6.867   2.207   4.668
19811SOL    HW160874   6.781   2.157   4.655
19811SOL    HW260875   6.929   2.153   4.724
19812SOL     OW60876   7.162   3.524   4.031
19812SOL    HW160877   7.251   3.570   4.034
19812SOL    HW260878   7.141   3.500   3.936
19813SOL     OW60879   6.393   2.467   5.189
19813SOL    HW160880   6.346   2.464   5.278
19813SOL    HW260881   6.342   2.412   5.123
19814SOL     OW60882   6.980   2.331   5.398
19814SOL    HW160883   6.960   2.374   5.486
19814SOL    HW260884   7.058   2.269   5.407
19815SOL     OW60885   6.559   2.752   5.296
19815SOL    HW160886   6.605   2.668   5.267
19815SOL    HW260887   6.503   2.786   5.221
19816SOL     OW60888   6.577   2.272   4.966
19816SOL    HW160889   6.500   2.306   5.020
19816SOL    HW260890   6.543   2.221   4.887
19817SOL     OW60891   6.627   2.563   4.153
19817SOL    HW160892   6.653   2.559   4.249
19817SOL    HW260893   6.542   2.512   4.139
19818SOL     OW60894   5.662   2.673   4.513
19818SOL    HW160895   5.761   2.661   4.522
19818SOL    HW260896   5.638   2.768   4.534
19819SOL     OW60897   5.716   3.683   5.295
19819SOL    HW160898   5.706   3.668   5.394
19819SOL    HW260899   5.630   3.719   5.259
19820SOL     OW60900   6.451   2.210   3.919
19820SOL    HW160901   6.510   2.273   3.870
19820SOL    HW260902   6.470   2.116   3.890
19821SOL     OW60903   7.305   2.447   5.555
19821SOL    HW160904   7.279   2.536   5.519
19821SOL    HW260905   7.303   2.379   5.482
19822SOL     OW60906   6.948   3.006   4.269
19822SOL    HW160907   7.031   2.977   4.221
19822SOL    HW260908   6.899   3.073   4.213
19823SOL     OW60909   6.136   2.058   4.609
19823SOL    HW160910   6.131   2.053   4.709
19823SOL    HW260911   6.138   2.154   4.580
19824SOL     OW60912   6.594   3.318   4.201
19824SOL    HW160913   6.548   3.390   4.149
19824SOL    HW260914   6.590   3.338   4.299
19825SOL     OW60915   5.937   3.663   4.577
19825SOL    HW160916   5.987   3.577   4.583
19825SOL    HW260917   6.002   3.740   4.574
19826SOL     OW60918   7.381   2.928   4.597
19826SOL    HW160919   7.319   2.913   4.521
19826SOL    HW260920   7.329   2.939   4.682
19827SOL     OW60921   6.813   3.412   5.230
19827SOL    HW160922   6.819   3.335   5.294
19827SOL    HW260923   6.761   3.386   5.150
19828SOL     OW60924   5.907   2.805   3.966
19828SOL    HW160925   5.989   2.844   3.924
19828SOL    HW260926   5.880   2.723   3.917
19829SOL     OW60927   7.044   2.597   4.452
19829SOL    HW160928   7.039   2.532   4.527
19829SOL    HW260929   7.124   2.656   4.465
19830SOL     OW60930   6.047   3.128   5.451
19830SOL    HW160931   5.997   3.129   5.365
19830SOL    HW260932   5.984   3.110   5.527
19831SOL     OW60933   6.697   3.638   3.961
19831SOL    HW160934   6.637   3.576   4.011
19831SOL    HW260935   6.728   3.594   3.876
19832SOL     OW60936   5.788   2.147   5.222
19832SOL    HW160937   5.708   2.207   5.209
19832SOL    HW260938   5.778   2.098   5.308
19833SOL     OW60939   7.218   3.239   3.805
19833SOL    HW160940   7.186   3.333   3.795
19833SOL    HW260941   7.142   3.176   3.793
19834SOL     OW60942   6.050   3.605   4.047
19834SOL    HW160943   6.083   3.644   4.133
19834SOL    HW260944   6.126   3.598   3.982
19835SOL     OW60945   6.986   1.969   4.150
19835SOL    HW160946   6.962   1.932   4.060
19835SOL    HW260947   7.085   1.985   4.154
19836SOL     OW60948   5.835   3.647   4.965
19836SOL    HW160949   5.892   3.582   5.015
19836SOL    HW260950   5.819   3.614   4.872
19837SOL     OW60951   6.526   3.560   4.628
19837SOL    HW160952   6.606   3.503   4.649
19837SOL    HW260953   6.477   3.520   4.551
19838SOL     OW60954   5.968   2.562   4.204
19838SOL    HW160955   6.013   2.472   4.201
19838SOL    HW260956   5.874   2.551   4.237
19839SOL     OW60957   7.133   2.084   5.453
19839SOL    HW160958   7.128   2.121   5.545
19839SOL    HW260959   7.061   2.015   5.441
19840SOL     OW60960   6.200   1.984   3.841
19840SOL    HW160961   6.298   1.962   3.848
19840SOL    HW260962   6.169   1.967   3.748
19841SOL     OW60963   6.367   2.126   5.473
19841SOL    HW160964   6.434   2.065   5.516
19841SOL    HW260965   6.294   2.145   5.538
19842SOL     OW60966   6.474   3.376   4.919
19842SOL    HW160967   6.451   3.351   4.825
19842SOL    HW260968   6.535   3.307   4.958
19843SOL     OW60969   6.937   2.452   5.157
19843SOL    HW160970   6.965   2.409   5.242
19843SOL    HW260971   6.962   2.548   5.158
19844SOL     OW60972   6.389   3.264   4.648
19844SOL    HW160973   6.479   3.278   4.606
19844SOL    HW260974   6.318   3.266   4.577
19845SOL     OW60975   6.508   2.365   4.623
19845SOL    HW160976   6.483   2.356   4.527
19845SOL    HW260977   6.556   2.283   4.654
19846SOL     OW60978   6.125   1.926   4.236
19846SOL    HW160979   6.044   1.927   4.294
19846SOL    HW260980   6.128   2.009   4.181
19847SOL     OW60981   7.020   3.050   3.765
19847SOL    HW160982   7.052   2.974   3.822
19847SOL    HW260983   6.928   3.077   3.795
19848SOL     OW60984   5.883   1.897   3.895
19848SOL    HW160985   5.932   1.981   3.874
19848SOL    HW260986   5.945   1.832   3.940
19849SOL     OW60987   6.521   2.098   4.204
19849SOL    HW160988   6.473   2.139   4.126
19849SOL    HW260989   6.620   2.096   4.185
19850SOL     OW60990   6.662   2.545   5.188
19850SOL    HW160991   6.582   2.484   5.191
19850SOL    HW260992   6.743   2.492   5.164
19851SOL     OW60993   6.813   3.432   4.517
19851SOL    HW160994   6.834   3.506   4.452
19851SOL    HW260995   6.881   3.432   4.590
19852SOL     OW60996   6.045   3.014   4.465
19852SOL    HW160997   5.974   2.987   4.530
19852SOL    HW260998   6.019   2.986   4.372
19853SOL     OW60999   6.857   3.659   4.315
19853SOL    HW161000   6.901   3.723   4.251
19853SOL    HW261001   6.807   3.711   4.385
19854SOL     OW61002   6.618   2.411   3.740
19854SOL    HW161003   6.577   2.493   3.701
19854SOL    HW261004   6.682   2.437   3.813
19855SOL     OW61005   5.664   2.418   5.110
19855SOL    HW161006   5.756   2.417   5.069
19855SOL    HW261007   5.658   2.492   5.177
19856SOL     OW61008   6.147   2.084   4.871
19856SOL    HW161009   6.185   2.000   4.908
19856SOL    HW261010   6.059   2.103   4.915
19857SOL     OW61011   6.452   2.316   4.366
19857SOL    HW161012   6.420   2.388   4.304
19857SOL    HW261013   6.476   2.235   4.313
19858SOL     OW61014   6.603   1.901   4.477
19858SOL    HW161015   6.531   1.906   4.408
19858SOL    HW261016   6.579   1.832   4.546
19859SOL     OW61017   7.015   3.035   4.591
19859SOL    HW161018   6.960   2.951   4.584
19859SOL    HW261019   7.041   3.064   4.499
19860SOL     OW61020   7.052   2.452   4.716
19860SOL    HW161021   7.022   2.357   4.723
19860SOL    HW261022   7.125   2.468   4.782
19861SOL     OW61023   7.443   2.695   4.101
19861SOL    HW161024   7.485   2.631   4.165
19861SOL    HW261025   7.405   2.644   4.023
19862SOL     OW61026   6.074   3.247   3.898
19862SOL    HW161027   5.987   3.232   3.945
19862SOL    HW261028   6.057   3.273   3.803
19863SOL     OW61029   7.250   3.142   4.381
19863SOL    HW161030   7.349   3.150   4.395
19863SOL    HW261031   7.205   3.226   4.412
19864SOL     OW61032   6.976   2.437   3.802
19864SOL    HW161033   6.922   2.416   3.883
19864SOL    HW261034   7.067   2.396   3.811
19865SOL     OW61035   6.113   2.118   4.052
19865SOL    HW161036   6.140   2.059   3.977
19865SOL    HW261037   6.113   2.213   4.021
19866SOL     OW61038   7.340   3.085   5.312
19866SOL    HW161039   7.431   3.046   5.299
19866SOL    HW261040   7.348   3.181   5.336
19867SOL     OW61041   6.650   3.209   5.064
19867SOL    HW161042   6.570   3.186   5.119
19867SOL    HW261043   6.733   3.183   5.113
19868SOL     OW61044   7.178   3.491   5.349
19868SOL    HW161045   7.205   3.525   5.259
19868SOL    HW261046   7.257   3.453   5.395
19869SOL     OW61047   6.697   3.057   4.824
19869SOL    HW161048   6.657   3.101   4.905
19869SOL    HW261049   6.656   3.094   4.741
19870SOL     OW61050   7.224   2.961   4.803
19870SOL    HW161051   7.229   3.042   4.862
19870SOL    HW261052   7.138   2.963   4.752
19871SOL     OW61053   6.501   1.951   5.126
19871SOL    HW161054   6.526   1.931   5.031
19871SOL    HW261055   6.573   2.007   5.168
19872SOL     OW61056   6.566   2.978   5.443
19872SOL    HW161057   6.467   2.984   5.453
19872SOL    HW261058   6.589   2.898   5.387
19873SOL     OW61059   6.291   2.912   4.092
19873SOL    HW161060   6.277   2.919   4.191
19873SOL    HW261061   6.375   2.861   4.074
19874SOL     OW61062   5.996   2.675   4.975
19874SOL    HW161063   6.082   2.687   5.025
19874SOL    HW261064   5.954   2.588   5.002
19875SOL     OW61065   6.860   2.248   4.986
19875SOL    HW161066   6.881   2.322   5.050
19875SOL    HW261067   6.771   2.265   4.943
19876SOL     OW61068   5.650   3.426   5.055
19876SOL    HW161069   5.604   3.508   5.021
19876SOL    HW261070   5.748   3.445   5.064
19877SOL     OW61071   5.953   2.962   4.225
19877SOL    HW161072   5.946   3.045   4.169
19877SOL    HW261073   5.957   2.882   4.165
19878SOL     OW61074   6.152   2.399   4.589
19878SOL    HW161075   6.164   2.465   4.515
19878SOL    HW261076   6.198   2.433   4.672
19879SOL     OW61077   6.838   3.210   4.112
19879SOL    HW161078   6.888   3.287   4.152
19879SOL    HW261079   6.743   3.212   4.144
19880SOL     OW61080   6.858   3.307   4.866
19880SOL    HW161081   6.905   3.320   4.953
19880SOL    HW261082   6.792   3.233   4.875
19881SOL     OW61083   7.168   2.501   4.196
19881SOL    HW161084   7.137   2.562   4.269
19881SOL    HW261085   7.218   2.553   4.127
19882SOL     OW61086   5.940   3.372   5.053
19882SOL    HW161087   5.919   3.328   4.966
19882SOL    HW261088   6.037   3.398   5.056
19883SOL     OW61089   5.988   2.613   5.322
19883SOL    HW161090   6.056   2.668   5.275
19883SOL    HW261091   6.028   2.525   5.349
19884SOL     OW61092   7.173   2.641   5.394
19884SOL    HW161093   7.081   2.679   5.389
19884SOL    HW261094   7.233   2.688   5.329
19885SOL     OW61095   6.599   1.967   5.494
19885SOL    HW161096   6.605   2.052   5.442
19885SOL    HW261097   6.631   1.891   5.437
19886SOL     OW61098   6.090   1.912   5.464
19886SOL    HW161099   6.048   1.855   5.394
19886SOL    HW261100   6.024   1.981   5.496
19887SOL     OW61101   6.159   2.732   4.753
19887SOL    HW161102   6.203   2.821   4.744
19887SOL    HW261103   6.096   2.732   4.830
19888SOL     OW61104   6.946   2.724   4.769
19888SOL    HW161105   6.871   2.724   4.703
19888SOL    HW261106   6.983   2.632   4.778
19889SOL     OW61107   6.795   2.387   3.999
19889SOL    HW161108   6.808   2.303   4.053
19889SOL    HW261109   6.766   2.461   4.059
19890SOL     OW61110   5.893   2.075   4.955
19890SOL    HW161111   5.870   2.112   5.045
19890SOL    HW261112   5.863   1.980   4.949
19891SOL     OW61113   5.623   3.172   5.006
19891SOL    HW161114   5.676   3.123   5.074
19891SOL    HW261115   5.645   3.270   5.011
19892SOL     OW61116   6.318   2.496   4.788
19892SOL    HW161117   6.377   2.470   4.712
19892SOL    HW261118   6.290   2.592   4.777
19893SOL     OW61119   7.314   2.797   5.578
19893SOL    HW161120   7.268   2.790   5.489
19893SOL    HW261121   7.252   2.841   5.644
19894SOL     OW61122   5.893   1.925   4.342
19894SOL    HW161123   5.882   2.019   4.375
19894SOL    HW261124   5.888   1.862   4.419
19895SOL     OW61125   7.208   2.229   4.098
19895SOL    HW161126   7.210   2.153   4.162
19895SOL    HW261127   7.160   2.306   4.138
19896SOL     OW61128   6.609   2.628   4.690
19896SOL    HW161129   6.624   2.649   4.786
19896SOL    HW261130   6.579   2.533   4.681
19897SOL     OW61131   6.566   3.435   5.424
19897SOL    HW161132   6.546   3.479   5.336
19897SOL    HW261133   6.605   3.344   5.408
19898SOL     OW61134   7.445   3.380   5.329
19898SOL    HW161135   7.459   3.407   5.234
19898SOL    HW261136   7.528   3.402   5.382
19899SOL     OW61137   5.936   2.760   5.528
19899SOL    HW161138   6.012   2.804   5.576
19899SOL    HW261139   5.971   2.713   5.446
19900SOL     OW61140   7.126   2.136   3.849
19900SOL    HW161141   7.065   2.061   3.872
19900SOL    HW261142   7.148   2.188   3.932
19901SOL     OW61143   6.889   2.700   3.766
19901SOL    HW161144   6.923   2.607   3.781
19901SOL    HW261145   6.907   2.727   3.671
19902SOL     OW61146   6.654   3.195   4.573
19902SOL    HW161147   6.661   3.111   4.518
19902SOL    HW261148   6.716   3.264   4.537
19903SOL     OW61149   5.905   2.672   4.673
19903SOL    HW161150   5.998   2.708   4.678
19903SOL    HW261151   5.899   2.587   4.725
19904SOL     OW61152   5.925   2.371   4.730
19904SOL    HW161153   5.873   2.288   4.713
19904SOL    HW261154   6.002   2.376   4.666
19905SOL     OW61155   6.724   2.242   5.402
19905SOL    HW161156   6.679   2.305   5.466
19905SOL    HW261157   6.817   2.273   5.385
19906SOL     OW61158   6.746   2.069   5.201
19906SOL    HW161159   6.746   2.133   5.278
19906SOL    HW261160   6.774   2.117   5.118
19907SOL     OW61161   5.594   3.188   3.924
19907SOL    HW161162   5.501   3.209   3.893
19907SOL    HW261163   5.604   3.089   3.937
19908SOL     OW61164   5.674   3.663   4.651
19908SOL    HW161165   5.632   3.577   4.624
19908SOL    HW261166   5.768   3.666   4.617
19909SOL     OW61167   6.090   3.430   4.634
19909SOL    HW161168   6.156   3.504   4.643
19909SOL    HW261169   6.134   3.351   4.592
19910SOL     OW61170   6.588   2.658   4.962
19910SOL    HW161171   6.629   2.626   5.048
19910SOL    HW261172   6.492   2.631   4.959
19911SOL     OW61173   5.626   2.406   4.838
19911SOL    HW161174   5.711   2.373   4.797
19911SOL    HW261175   5.639   2.421   4.936
19912SOL     OW61176   5.775   2.382   5.446
19912SOL    HW161177   5.834   2.342   5.376
19912SOL    HW261178   5.717   2.453   5.405
19913SOL     OW61179   6.955   2.812   5.384
19913SOL    HW161180   6.994   2.901   5.404
19913SOL    HW261181   6.965   2.792   5.287
19914SOL     OW61182   6.401   2.434   4.049
19914SOL    HW161183   6.408   2.345   4.003
19914SOL    HW261184   6.307   2.468   4.041
19915SOL     OW61185   7.243   2.466   4.930
19915SOL    HW161186   7.205   2.397   4.992
19915SOL    HW261187   7.325   2.430   4.886
19916SOL     OW61188   5.838   3.426   5.468
19916SOL    HW161189   5.808   3.483   5.544
19916SOL    HW261190   5.831   3.329   5.494
19917SOL     OW61191   6.257   2.326   4.993
19917SOL    HW161192   6.223   2.237   4.963
19917SOL    HW261193   6.283   2.380   4.913
19918SOL     OW61194   6.516   3.540   5.189
19918SOL    HW161195   6.492   3.522   5.094
19918SOL    HW261196   6.546   3.634   5.199
19919SOL     OW61197   6.059   2.362   3.915
19919SOL    HW161198   6.120   2.442   3.919
19919SOL    HW261199   5.964   2.393   3.922
19920SOL     OW61200   5.745   2.999   5.190
19920SOL    HW161201   5.767   2.938   5.266
19920SOL    HW261202   5.755   2.950   5.104
19921SOL     OW61203   6.933   2.921   4.958
19921SOL    HW161204   6.957   2.858   4.884
19921SOL    HW261205   6.843   2.961   4.940
19922SOL     OW61206   6.888   2.717   4.033
19922SOL    HW161207   6.802   2.686   4.075
19922SOL    HW261208   6.884   2.703   3.934
19923SOL     OW61209   7.345   3.609   4.878
19923SOL    HW161210   7.406   3.639   4.805
19923SOL    HW261211   7.307   3.520   4.856
19924SOL     OW61212   6.838   3.593   4.852
19924SOL    HW161213   6.922   3.598   4.798
19924SOL    HW261214   6.815   3.497   4.870
19925SOL     OW61215   5.669   3.120   4.746
19925SOL    HW161216   5.664   3.119   4.846
19925SOL    HW261217   5.586   3.079   4.708
19926SOL     OW61218   6.274   3.524   5.440
19926SOL    HW161219   6.218   3.605   5.449
19926SOL    HW261220   6.326   3.528   5.354
19927SOL     OW61221   7.312   1.997   4.247
19927SOL    HW161222   7.385   1.980   4.180
19927SOL    HW261223   7.281   1.910   4.285
19928SOL     OW61224   6.974   3.435   4.201
19928SOL    HW161225   7.041   3.447   4.127
19928SOL    HW261226   6.934   3.524   4.224
19929SOL     OW61227   5.716   3.656   5.575
19929SOL    HW161228   5.675   3.582   5.628
19929SOL    HW261229   5.780   3.707   5.633
19930SOL     OW61230   6.866   2.789   4.396
19930SOL    HW161231   6.926   2.708   4.398
19930SOL    HW261232   6.906   2.858   4.336
19931SOL     OW61233   6.416   3.135   5.146
19931SOL    HW161234   6.411   3.168   5.241
19931SOL    HW261235   6.330   3.154   5.100
19932SOL     OW61236   6.258   3.478   3.878
19932SOL    HW161237   6.267   3.488   3.779
19932SOL    HW261238   6.218   3.389   3.899
19933SOL     OW61239   7.236   3.582   5.118
19933SOL    HW161240   7.289   3.592   5.034
19933SOL    HW261241   7.209   3.672   5.152
19934SOL     OW61242   7.427   2.037   4.687
19934SOL    HW161243   7.466   1.952   4.651
19934SOL    HW261244   7.329   2.039   4.668
19935SOL     OW61245   5.849   2.188   4.444
19935SOL    HW161246   5.770   2.239   4.410
19935SOL    HW261247   5.840   2.173   4.542
19936SOL     OW61248   6.780   3.474   3.755
19936SOL    HW161249   6.786   3.381   3.792
19936SOL    HW261250   6.721   3.474   3.675
19937SOL     OW61251   6.408   2.864   5.096
19937SOL    HW161252   6.448   2.863   5.004
19937SOL    HW261253   6.418   2.956   5.136
19938SOL     OW61254   6.502   2.772   4.015
19938SOL    HW161255   6.565   2.810   3.947
19938SOL    HW261256   6.542   2.689   4.054
19939SOL     OW61257   7.090   3.469   3.768
19939SOL    HW161258   6.998   3.506   3.775
19939SOL    HW261259   7.128   3.489   3.678
19940SOL     OW61260   5.958   3.150   5.214
19940SOL    HW161261   5.945   3.243   5.180
19940SOL    HW261262   5.874   3.098   5.201
19941SOL     OW61263   7.200   3.154   5.013
19941SOL    HW161264   7.260   3.157   5.093
19941SOL    HW261265   7.125   3.218   5.026
19942SOL     OW61266   6.625   2.960   4.420
19942SOL    HW161267   6.555   2.913   4.474
19942SOL    HW261268   6.684   2.892   4.377
19943SOL     OW61269   6.600   2.098   4.695
19943SOL    HW161270   6.592   2.062   4.602
19943SOL    HW261271   6.598   2.022   4.760
19944SOL     OW61272   6.176   3.349   4.215
19944SOL    HW161273   6.218   3.291   4.145
19944SOL    HW261274   6.132   3.428   4.171
19945SOL     OW61275   7.295   2.247   5.105
19945SOL    HW161276   7.368   2.316   5.109
19945SOL    HW261277   7.323   2.172   5.046
19946SOL     OW61278   5.841   3.210   4.014
19946SOL    HW161279   5.745   3.211   3.987
19946SOL    HW261280   5.853   3.263   4.098
19947SOL     OW61281   5.691   2.875   5.450
19947SOL    HW161282   5.614   2.842   5.504
19947SOL    HW261283   5.776   2.845   5.492
19948SOL     OW61284   6.258   2.065   5.213
19948SOL    HW161285   6.348   2.049   5.173
19948SOL    HW261286   6.266   2.070   5.312
19949SOL     OW61287   7.026   2.718   5.122
19949SOL    HW161288   6.969   2.770   5.059
19949SOL    HW261289   7.122   2.730   5.098
19950SOL     OW61290   5.658   2.028   4.042
19950SOL    HW161291   5.641   2.111   3.988
19950SOL    HW261292   5.748   1.991   4.020
19951SOL     OW61293   6.769   3.197   3.843
19951SOL    HW161294   6.670   3.186   3.845
19951SOL    HW261295   6.803   3.212   3.936
19952SOL     OW61296   6.199   2.704   5.155
19952SOL    HW161297   6.255   2.785   5.138
19952SOL    HW261298   6.258   2.624   5.158
19953SOL     OW61299   7.079   3.629   4.683
19953SOL    HW161300   7.112   3.693   4.614
19953SOL    HW261301   7.145   3.623   4.758
19954SOL     OW61302   6.302   2.427   5.432
19954SOL    HW161303   6.321   2.492   5.506
19954SOL    HW261304   6.362   2.347   5.441
19955SOL     OW61305   7.036   3.082   5.357
19955SOL    HW161306   7.027   3.072   5.456
19955SOL    HW261307   7.132   3.075   5.331
19956SOL     OW61308   5.976   3.603   5.284
19956SOL    HW161309   5.885   3.644   5.282
19956SOL    HW261310   5.969   3.509   5.316
19957SOL     OW61311   7.260   2.745   4.978
19957SOL    HW161312   7.233   2.656   4.941
19957SOL    HW261313   7.261   2.813   4.905
19958SOL     OW61314   6.811   2.187   4.173
19958SOL    HW161315   6.876   2.113   4.162
19958SOL    HW261316   6.831   2.237   4.257
19959SOL     OW61317   6.180   2.607   4.376
19959SOL    HW161318   6.230   2.692   4.357
19959SOL    HW261319   6.092   2.609   4.328
19960SOL     OW61320   7.363   2.204   5.366
19960SOL    HW161321   7.346   2.235   5.272
19960SOL    HW261322   7.279   2.167   5.404
19961SOL     OW61323   7.316   2.796   5.241
19961SOL    HW161324   7.354   2.887   5.256
19961SOL    HW261325   7.308   2.779   5.142
19962SOL     OW61326   6.445   3.236   3.740
19962SOL    HW161327   6.399   3.251   3.828
19962SOL    HW261328   6.489   3.321   3.710
19963SOL     OW61329   6.247   3.652   4.677
19963SOL    HW161330   6.201   3.740   4.664
19963SOL    HW261331   6.346   3.664   4.670
19964SOL     OW61332   6.445   2.818   4.585
19964SOL    HW161333   6.499   2.749   4.633
19964SOL    HW261334   6.413   2.887   4.651
19965SOL     OW61335   6.669   2.846   3.811
19965SOL    HW161336   6.646   2.899   3.729
19965SOL    HW261337   6.750   2.790   3.792
19966SOL     OW61338   7.447   3.431   4.575
19966SOL    HW161339   7.376   3.419   4.505
19966SOL    HW261340   7.448   3.352   4.635
19967SOL     OW61341   5.807   3.176   5.568
19967SOL    HW161342   5.742   3.103   5.547
19967SOL    HW261343   5.811   3.190   5.666
19968SOL     OW61344   5.665   3.102   4.377
19968SOL    HW161345   5.664   3.055   4.465
19968SOL    HW261346   5.747   3.074   4.326
19969SOL     OW61347   6.258   3.253   5.348
19969SOL    HW161348   6.180   3.203   5.386
19969SOL    HW261349   6.255   3.348   5.379
19970SOL     OW61350   7.410   2.054   4.951
19970SOL    HW161351   7.406   1.964   4.995
19970SOL    HW261352   7.413   2.043   4.852
19971SOL     OW61353   6.014   2.286   4.244
19971SOL    HW161354   6.044   2.214   4.182
19971SOL    HW261355   5.975   2.246   4.327
19972SOL     OW61356   7.291   3.349   4.828
19972SOL    HW161357   7.198   3.324   4.801
19972SOL    HW261358   7.317   3.299   4.910
19973SOL     OW61359   5.903   2.409   5.004
19973SOL    HW161360   5.941   2.350   5.076
19973SOL    HW261361   5.943   2.383   4.916
19974SOL     OW61362   6.398   3.448   4.411
19974SOL    HW161363   6.430   3.458   4.317
19974SOL    HW261364   6.319   3.386   4.413
19975SOL     OW61365   7.010   2.076   4.836
19975SOL    HW161366   7.062   2.011   4.891
19975SOL    HW261367   6.961   2.139   4.897
19976SOL     OW61368   6.587   1.896   4.878
19976SOL    HW161369   6.524   1.824   4.847
19976SOL    HW261370   6.680   1.860   4.878
19977SOL     OW61371   6.356   3.192   4.025
19977SOL    HW161372   6.310   3.105   4.042
19977SOL    HW261373   6.447   3.189   4.066
19978SOL     OW61374   6.204   3.429   5.008
19978SOL    HW161375   6.199   3.511   5.065
19978SOL    HW261376   6.293   3.426   4.963
19979SOL     OW61377   6.938   1.914   3.892
19979SOL    HW161378   6.973   1.873   3.808
19979SOL    HW261379   6.848   1.876   3.912
19980SOL     OW61380   6.886   2.315   4.415
19980SOL    HW161381   6.827   2.395   4.419
19980SOL    HW261382   6.901   2.280   4.508
19981SOL     OW61383   7.179   2.083   4.606
19981SOL    HW161384   7.095   2.082   4.660
19981SOL    HW261385   7.181   2.166   4.550
19982SOL     OW61386   5.625   2.939   4.024
19982SOL    HW161387   5.724   2.928   4.015
19982SOL    HW261388   5.585   2.853   4.056
19983SOL     OW61389   6.461   3.508   4.061
19983SOL    HW161390   6.384   3.473   4.007
19983SOL    HW261391   6.429   3.579   4.123
19984SOL     OW61392   5.816   2.490   5.699
19984SOL    HW161393   5.723   2.488   5.736
19984SOL    HW261394   5.817   2.451   5.607
19985SOL     OW61395   5.811   2.137   6.582
19985SOL    HW161396   5.846   2.120   6.674
19985SOL    HW261397   5.723   2.092   6.570
19986SOL     OW61398   5.605   2.230   6.233
19986SOL    HW161399   5.523   2.273   6.272
19986SOL    HW261400   5.577   2.157   6.170
19987SOL     OW61401   6.155   3.137   6.751
19987SOL    HW161402   6.062   3.130   6.714
19987SOL    HW261403   6.166   3.226   6.795
19988SOL     OW61404   7.141   3.373   6.289
19988SOL    HW161405   7.084   3.357   6.370
19988SOL    HW261406   7.082   3.383   6.209
19989SOL     OW61407   6.721   2.565   6.303
19989SOL    HW161408   6.778   2.643   6.278
19989SOL    HW261409   6.661   2.591   6.379
19990SOL     OW61410   7.341   2.469   5.817
19990SOL    HW161411   7.329   2.456   5.718
19990SOL    HW261412   7.311   2.388   5.866
19991SOL     OW61413   6.354   3.006   6.609
19991SOL    HW161414   6.276   3.023   6.669
19991SOL    HW261415   6.388   3.093   6.573
19992SOL     OW61416   6.436   2.660   7.409
19992SOL    HW161417   6.432   2.736   7.474
19992SOL    HW261418   6.458   2.696   7.318
19993SOL     OW61419   6.271   2.874   6.251
19993SOL    HW161420   6.340   2.858   6.321
19993SOL    HW261421   6.198   2.931   6.289
19994SOL     OW61422   6.272   3.023   7.389
19994SOL    HW161423   6.332   3.102   7.403
19994SOL    HW261424   6.186   3.054   7.348
19995SOL     OW61425   5.921   3.297   6.647
19995SOL    HW161426   5.843   3.266   6.594
19995SOL    HW261427   5.979   3.355   6.590
19996SOL     OW61428   7.046   3.367   6.925
19996SOL    HW161429   7.070   3.461   6.951
19996SOL    HW261430   7.030   3.313   7.007
19997SOL     OW61431   6.024   2.254   7.085
19997SOL    HW161432   6.106   2.198   7.094
19997SOL    HW261433   5.943   2.196   7.089
19998SOL     OW61434   7.189   2.309   6.323
19998SOL    HW161435   7.115   2.355   6.273
19998SOL    HW261436   7.240   2.377   6.376
19999SOL     OW61437   5.817   3.575   6.069
19999SOL    HW161438   5.851   3.652   6.123
19999SOL    HW261439   5.861   3.575   5.979
20000SOL     OW61440   6.713   3.203   7.276
20000SOL    HW161441   6.760   3.203   7.364
20000SOL    HW261442   6.665   3.116   7.265
20001SOL     OW61443   5.816   3.296   6.124
20001SOL    HW161444   5.790   3.392   6.124
20001SOL    HW261445   5.745   3.242   6.169
20002SOL     OW61446   5.826   2.953   6.472
20002SOL    HW161447   5.840   2.869   6.524
20002SOL    HW261448   5.771   3.017   6.527
20003SOL     OW61449   6.206   3.648   7.025
20003SOL    HW161450   6.114   3.631   7.060
20003SOL    HW261451   6.234   3.740   7.051
20004SOL     OW61452   6.192   2.826   5.709
20004SOL    HW161453   6.199   2.910   5.655
20004SOL    HW261454   6.238   2.839   5.797
20005SOL     OW61455   7.180   1.976   7.066
20005SOL    HW161456   7.162   2.043   6.994
20005SOL    HW261457   7.177   2.022   7.155
20006SOL     OW61458   5.708   2.505   6.149
20006SOL    HW161459   5.663   2.417   6.166
20006SOL    HW261460   5.707   2.559   6.233
20007SOL     OW61461   7.428   3.629   5.945
20007SOL    HW161462   7.482   3.600   6.025
20007SOL    HW261463   7.458   3.719   5.916
20008SOL     OW61464   5.613   3.458   5.703
20008SOL    HW161465   5.594   3.362   5.724
20008SOL    HW261466   5.580   3.516   5.778
20009SOL     OW61467   7.275   2.784   6.198
20009SOL    HW161468   7.370   2.755   6.206
20009SOL    HW261469   7.267   2.849   6.123
20010SOL     OW61470   7.227   2.970   6.018
20010SOL    HW161471   7.313   2.972   5.966
20010SOL    HW261472   7.241   3.017   6.106
20011SOL     OW61473   5.699   2.599   7.183
20011SOL    HW161474   5.787   2.586   7.228
20011SOL    HW261475   5.686   2.696   7.161
20012SOL     OW61476   6.199   3.227   6.312
20012SOL    HW161477   6.150   3.140   6.321
20012SOL    HW261478   6.176   3.270   6.225
20013SOL     OW61479   6.879   3.090   7.009
20013SOL    HW161480   6.916   3.017   6.951
20013SOL    HW261481   6.931   3.095   7.094
20014SOL     OW61482   6.395   1.866   6.088
20014SOL    HW161483   6.435   1.957   6.079
20014SOL    HW261484   6.295   1.874   6.094
20015SOL     OW61485   5.783   2.838   6.850
20015SOL    HW161486   5.872   2.793   6.836
20015SOL    HW261487   5.710   2.773   6.831
20016SOL     OW61488   7.111   2.861   5.776
20016SOL    HW161489   7.048   2.785   5.789
20016SOL    HW261490   7.159   2.879   5.862
20017SOL     OW61491   6.773   3.654   7.202
20017SOL    HW161492   6.797   3.714   7.126
20017SOL    HW261493   6.780   3.559   7.172
20018SOL     OW61494   5.903   2.113   7.387
20018SOL    HW161495   5.974   2.184   7.393
20018SOL    HW261496   5.815   2.152   7.415
20019SOL     OW61497   7.052   3.279   6.539
20019SOL    HW161498   6.993   3.285   6.619
20019SOL    HW261499   7.037   3.191   6.493
20020SOL     OW61500   7.253   3.576   6.158
20020SOL    HW161501   7.212   3.553   6.070
20020SOL    HW261502   7.235   3.502   6.223
20021SOL     OW61503   6.184   2.591   5.856
20021SOL    HW161504   6.208   2.660   5.788
20021SOL    HW261505   6.106   2.624   5.910
20022SOL     OW61506   6.867   2.207   6.530
20022SOL    HW161507   6.781   2.157   6.517
20022SOL    HW261508   6.929   2.153   6.586
20023SOL     OW61509   7.162   3.524   5.893
20023SOL    HW161510   7.251   3.570   5.896
20023SOL    HW261511   7.141   3.500   5.798
20024SOL     OW61512   6.393   2.467   7.051
20024SOL    HW161513   6.346   2.464   7.140
20024SOL    HW261514   6.342   2.412   6.985
20025SOL     OW61515   6.980   2.331   7.260
20025SOL    HW161516   6.960   2.374   7.348
20025SOL    HW261517   7.058   2.269   7.269
20026SOL     OW61518   6.559   2.752   7.158
20026SOL    HW161519   6.605   2.668   7.129
20026SOL    HW261520   6.503   2.786   7.083
20027SOL     OW61521   6.577   2.272   6.828
20027SOL    HW161522   6.500   2.306   6.882
20027SOL    HW261523   6.543   2.221   6.749
20028SOL     OW61524   6.627   2.563   6.015
20028SOL    HW161525   6.653   2.559   6.111
20028SOL    HW261526   6.542   2.512   6.001
20029SOL     OW61527   5.662   2.673   6.375
20029SOL    HW161528   5.761   2.661   6.384
20029SOL    HW261529   5.638   2.768   6.396
20030SOL     OW61530   5.716   3.683   7.157
20030SOL    HW161531   5.706   3.668   7.256
20030SOL    HW261532   5.630   3.719   7.121
20031SOL     OW61533   6.451   2.210   5.781
20031SOL    HW161534   6.510   2.273   5.732
20031SOL    HW261535   6.470   2.116   5.752
20032SOL     OW61536   7.305   2.447   7.417
20032SOL    HW161537   7.279   2.536   7.381
20032SOL    HW261538   7.303   2.379   7.344
20033SOL     OW61539   6.948   3.006   6.131
20033SOL    HW161540   7.031   2.977   6.083
20033SOL    HW261541   6.899   3.073   6.075
20034SOL     OW61542   6.136   2.058   6.471
20034SOL    HW161543   6.131   2.053   6.571
20034SOL    HW261544   6.138   2.154   6.442
20035SOL     OW61545   6.594   3.318   6.063
20035SOL    HW161546   6.548   3.390   6.011
20035SOL    HW261547   6.590   3.338   6.161
20036SOL     OW61548   5.937   3.663   6.439
20036SOL    HW161549   5.987   3.577   6.445
20036SOL    HW261550   6.002   3.740   6.436
20037SOL     OW61551   7.381   2.928   6.459
20037SOL    HW161552   7.319   2.913   6.383
20037SOL    HW261553   7.329   2.939   6.544
20038SOL     OW61554   6.813   3.412   7.092
20038SOL    HW161555   6.819   3.335   7.156
20038SOL    HW261556   6.761   3.386   7.012
20039SOL     OW61557   5.907   2.805   5.828
20039SOL    HW161558   5.989   2.844   5.786
20039SOL    HW261559   5.880   2.723   5.779
20040SOL     OW61560   7.044   2.597   6.314
20040SOL    HW161561   7.039   2.532   6.389
20040SOL    HW261562   7.124   2.656   6.327
20041SOL     OW61563   6.047   3.128   7.313
20041SOL    HW161564   5.997   3.129   7.227
20041SOL    HW261565   5.984   3.110   7.389
20042SOL     OW61566   6.697   3.638   5.823
20042SOL    HW161567   6.637   3.576   5.873
20042SOL    HW261568   6.728   3.594   5.738
20043SOL     OW61569   5.788   2.147   7.084
20043SOL    HW161570   5.708   2.207   7.071
20043SOL    HW261571   5.778   2.098   7.170
20044SOL     OW61572   7.218   3.239   5.667
20044SOL    HW161573   7.186   3.333   5.657
20044SOL    HW261574   7.142   3.176   5.655
20045SOL     OW61575   6.050   3.605   5.909
20045SOL    HW161576   6.083   3.644   5.995
20045SOL    HW261577   6.126   3.598   5.844
20046SOL     OW61578   6.986   1.969   6.012
20046SOL    HW161579   6.962   1.932   5.922
20046SOL    HW261580   7.085   1.985   6.016
20047SOL     OW61581   5.835   3.647   6.827
20047SOL    HW161582   5.892   3.582   6.877
20047SOL    HW261583   5.819   3.614   6.734
20048SOL     OW61584   6.526   3.560   6.490
20048SOL    HW161585   6.606   3.503   6.511
20048SOL    HW261586   6.477   3.520   6.413
20049SOL     OW61587   5.968   2.562   6.066
20049SOL    HW161588   6.013   2.472   6.063
20049SOL    HW261589   5.874   2.551   6.099
20050SOL     OW61590   7.133   2.084   7.315
20050SOL    HW161591   7.128   2.121   7.407
20050SOL    HW261592   7.061   2.015   7.303
20051SOL     OW61593   6.200   1.984   5.703
20051SOL    HW161594   6.298   1.962   5.710
20051SOL    HW261595   6.169   1.967   5.610
20052SOL     OW61596   6.367   2.126   7.335
20052SOL    HW161597   6.434   2.065   7.378
20052SOL    HW261598   6.294   2.145   7.400
20053SOL     OW61599   6.474   3.376   6.781
20053SOL    HW161600   6.451   3.351   6.687
20053SOL    HW261601   6.535   3.307   6.820
20054SOL     OW61602   6.937   2.452   7.019
20054SOL    HW161603   6.965   2.409   7.104
20054SOL    HW261604   6.962   2.548   7.020
20055SOL     OW61605   6.389   3.264   6.510
20055SOL    HW161606   6.479   3.278   6.468
20055SOL    HW261607   6.318   3.266   6.439
20056SOL     OW61608   6.508   2.365   6.485
20056SOL    HW161609   6.483   2.356   6.389
20056SOL    HW261610   6.556   2.283   6.516
20057SOL     OW61611   6.125   1.926   6.098
20057SOL    HW161612   6.044   1.927   6.156
20057SOL    HW261613   6.128   2.009   6.043
20058SOL     OW61614   7.020   3.050   5.627
20058SOL    HW161615   7.052   2.974   5.684
20058SOL    HW261616   6.928   3.077   5.657
20059SOL     OW61617   5.883   1.897   5.757
20059SOL    HW161618   5.932   1.981   5.736
20059SOL    HW261619   5.945   1.832   5.802
20060SOL     OW61620   6.521   2.098   6.066
20060SOL    HW161621   6.473   2.139   5.988
20060SOL    HW261622   6.620   2.096   6.047
20061SOL     OW61623   6.662   2.545   7.050
20061SOL    HW161624   6.582   2.484   7.053
20061SOL    HW261625   6.743   2.492   7.026
20062SOL     OW61626   6.813   3.432   6.379
20062SOL    HW161627   6.834   3.506   6.314
20062SOL    HW261628   6.881   3.432   6.452
20063SOL     OW61629   6.045   3.014   6.327
20063SOL    HW161630   5.974   2.987   6.392
20063SOL    HW261631   6.019   2.986   6.234
20064SOL     OW61632   6.857   3.659   6.177
20064SOL    HW161633   6.901   3.723   6.113
20064SOL    HW261634   6.807   3.711   6.247
20065SOL     OW61635   6.618   2.411   5.602
20065SOL    HW161636   6.577   2.493   5.563
20065SOL    HW261637   6.682   2.437   5.675
20066SOL     OW61638   5.664   2.418   6.972
20066SOL    HW161639   5.756   2.417   6.931
20066SOL    HW261640   5.658   2.492   7.039
20067SOL     OW61641   6.147   2.084   6.733
20067SOL    HW161642   6.185   2.000   6.770
20067SOL    HW261643   6.059   2.103   6.777
20068SOL     OW61644   6.452   2.316   6.228
20068SOL    HW161645   6.420   2.388   6.166
20068SOL    HW261646   6.476   2.235   6.175
20069SOL     OW61647   6.603   1.901   6.339
20069SOL    HW161648   6.531   1.906   6.270
20069SOL    HW261649   6.579   1.832   6.408
20070SOL     OW61650   7.015   3.035   6.453
20070SOL    HW161651   6.960   2.951   6.446
20070SOL    HW261652   7.041   3.064   6.361
20071SOL     OW61653   7.052   2.452   6.578
20071SOL    HW161654   7.022   2.357   6.585
20071SOL    HW261655   7.125   2.468   6.644
20072SOL     OW61656   7.443   2.695   5.963
20072SOL    HW161657   7.485   2.631   6.027
20072SOL    HW261658   7.405   2.644   5.885
20073SOL     OW61659   6.074   3.247   5.760
20073SOL    HW161660   5.987   3.232   5.807
20073SOL    HW261661   6.057   3.273   5.665
20074SOL     OW61662   7.250   3.142   6.243
20074SOL    HW161663   7.349   3.150   6.257
20074SOL    HW261664   7.205   3.226   6.274
20075SOL     OW61665   6.976   2.437   5.664
20075SOL    HW161666   6.922   2.416   5.745
20075SOL    HW261667   7.067   2.396   5.673
20076SOL     OW61668   6.113   2.118   5.914
20076SOL    HW161669   6.140   2.059   5.839
20076SOL    HW261670   6.113   2.213   5.883
20077SOL     OW61671   7.340   3.085   7.174
20077SOL    HW161672   7.431   3.046   7.161
20077SOL    HW261673   7.348   3.181   7.198
20078SOL     OW61674   6.650   3.209   6.926
20078SOL    HW161675   6.570   3.186   6.981
20078SOL    HW261676   6.733   3.183   6.975
20079SOL     OW61677   7.178   3.491   7.211
20079SOL    HW161678   7.205   3.525   7.121
20079SOL    HW261679   7.257   3.453   7.257
20080SOL     OW61680   6.697   3.057   6.686
20080SOL    HW161681   6.657   3.101   6.767
20080SOL    HW261682   6.656   3.094   6.603
20081SOL     OW61683   7.224   2.961   6.665
20081SOL    HW161684   7.229   3.042   6.724
20081SOL    HW261685   7.138   2.963   6.614
20082SOL     OW61686   6.501   1.951   6.988
20082SOL    HW161687   6.526   1.931   6.893
20082SOL    HW261688   6.573   2.007   7.030
20083SOL     OW61689   6.566   2.978   7.305
20083SOL    HW161690   6.467   2.984   7.315
20083SOL    HW261691   6.589   2.898   7.249
20084SOL     OW61692   6.291   2.912   5.954
20084SOL    HW161693   6.277   2.919   6.053
20084SOL    HW261694   6.375   2.861   5.936
20085SOL     OW61695   5.996   2.675   6.837
20085SOL    HW161696   6.082   2.687   6.887
20085SOL    HW261697   5.954   2.588   6.864
20086SOL     OW61698   6.860   2.248   6.848
20086SOL    HW161699   6.881   2.322   6.912
20086SOL    HW261700   6.771   2.265   6.805
20087SOL     OW61701   5.650   3.426   6.917
20087SOL    HW161702   5.604   3.508   6.883
20087SOL    HW261703   5.748   3.445   6.926
20088SOL     OW61704   5.953   2.962   6.087
20088SOL    HW161705   5.946   3.045   6.031
20088SOL    HW261706   5.957   2.882   6.027
20089SOL     OW61707   6.152   2.399   6.451
20089SOL    HW161708   6.164   2.465   6.377
20089SOL    HW261709   6.198   2.433   6.534
20090SOL     OW61710   6.838   3.210   5.974
20090SOL    HW161711   6.888   3.287   6.014
20090SOL    HW261712   6.743   3.212   6.006
20091SOL     OW61713   6.858   3.307   6.728
20091SOL    HW161714   6.905   3.320   6.815
20091SOL    HW261715   6.792   3.233   6.737
20092SOL     OW61716   7.168   2.501   6.058
20092SOL    HW161717   7.137   2.562   6.131
20092SOL    HW261718   7.218   2.553   5.989
20093SOL     OW61719   5.940   3.372   6.915
20093SOL    HW161720   5.919   3.328   6.828
20093SOL    HW261721   6.037   3.398   6.918
20094SOL     OW61722   5.988   2.613   7.184
20094SOL    HW161723   6.056   2.668   7.137
20094SOL    HW261724   6.028   2.525   7.211
20095SOL     OW61725   7.173   2.641   7.256
20095SOL    HW161726   7.081   2.679   7.251
20095SOL    HW261727   7.233   2.688   7.191
20096SOL     OW61728   6.599   1.967   7.356
20096SOL    HW161729   6.605   2.052   7.304
20096SOL    HW261730   6.631   1.891   7.299
20097SOL     OW61731   6.090   1.912   7.326
20097SOL    HW161732   6.048   1.855   7.256
20097SOL    HW261733   6.024   1.981   7.358
20098SOL     OW61734   6.159   2.732   6.615
20098SOL    HW161735   6.203   2.821   6.606
20098SOL    HW261736   6.096   2.732   6.692
20099SOL     OW61737   6.946   2.724   6.631
20099SOL    HW161738   6.871   2.724   6.565
20099SOL    HW261739   6.983   2.632   6.640
20100SOL     OW61740   6.795   2.387   5.861
20100SOL    HW161741   6.808   2.303   5.915
20100SOL    HW261742   6.766   2.461   5.921
20101SOL     OW61743   5.893   2.075   6.817
20101SOL    HW161744   5.870   2.112   6.907
20101SOL    HW261745   5.863   1.980   6.811
20102SOL     OW61746   5.623   3.172   6.868
20102SOL    HW161747   5.676   3.123   6.936
20102SOL    HW261748   5.645   3.270   6.873
20103SOL     OW61749   6.318   2.496   6.650
20103SOL    HW161750   6.377   2.470   6.574
20103SOL    HW261751   6.290   2.592   6.639
20104SOL     OW61752   7.314   2.797   7.440
20104SOL    HW161753   7.268   2.790   7.351
20104SOL    HW261754   7.252   2.841   7.506
20105SOL     OW61755   5.893   1.925   6.204
20105SOL    HW161756   5.882   2.019   6.237
20105SOL    HW261757   5.888   1.862   6.281
20106SOL     OW61758   7.208   2.229   5.960
20106SOL    HW161759   7.210   2.153   6.024
20106SOL    HW261760   7.160   2.306   6.000
20107SOL     OW61761   6.609   2.628   6.552
20107SOL    HW161762   6.624   2.649   6.648
20107SOL    HW261763   6.579   2.533   6.543
20108SOL     OW61764   6.566   3.435   7.286
20108SOL    HW161765   6.546   3.479   7.198
20108SOL    HW261766   6.605   3.344   7.270
20109SOL     OW61767   7.445   3.380   7.191
20109SOL    HW161768   7.459   3.407   7.096
20109SOL    HW261769   7.528   3.402   7.244
20110SOL     OW61770   5.936   2.760   7.390
20110SOL    HW161771   6.012   2.804   7.438
20110SOL    HW261772   5.971   2.713   7.308
20111SOL     OW61773   7.126   2.136   5.711
20111SOL    HW161774   7.065   2.061   5.734
20111SOL    HW261775   7.148   2.188   5.794
20112SOL     OW61776   6.889   2.700   5.628
20112SOL    HW161777   6.923   2.607   5.643
20112SOL    HW261778   6.907   2.727   5.533
20113SOL     OW61779   6.654   3.195   6.435
20113SOL    HW161780   6.661   3.111   6.380
20113SOL    HW261781   6.716   3.264   6.399
20114SOL     OW61782   5.905   2.672   6.535
20114SOL    HW161783   5.998   2.708   6.540
20114SOL    HW261784   5.899   2.587   6.587
20115SOL     OW61785   5.925   2.371   6.592
20115SOL    HW161786   5.873   2.288   6.575
20115SOL    HW261787   6.002   2.376   6.528
20116SOL     OW61788   6.724   2.242   7.264
20116SOL    HW161789   6.679   2.305   7.328
20116SOL    HW261790   6.817   2.273   7.247
20117SOL     OW61791   6.746   2.069   7.063
20117SOL    HW161792   6.746   2.133   7.140
20117SOL    HW261793   6.774   2.117   6.980
20118SOL     OW61794   5.594   3.188   5.786
20118SOL    HW161795   5.501   3.209   5.755
20118SOL    HW261796   5.604   3.089   5.799
20119SOL     OW61797   5.674   3.663   6.513
20119SOL    HW161798   5.632   3.577   6.486
20119SOL    HW261799   5.768   3.666   6.479
20120SOL     OW61800   6.090   3.430   6.496
20120SOL    HW161801   6.156   3.504   6.505
20120SOL    HW261802   6.134   3.351   6.454
20121SOL     OW61803   6.588   2.658   6.824
20121SOL    HW161804   6.629   2.626   6.910
20121SOL    HW261805   6.492   2.631   6.821
20122SOL     OW61806   5.626   2.406   6.700
20122SOL    HW161807   5.711   2.373   6.659
20122SOL    HW261808   5.639   2.421   6.798
20123SOL     OW61809   5.775   2.382   7.308
20123SOL    HW161810   5.834   2.342   7.238
20123SOL    HW261811   5.717   2.453   7.267
20124SOL     OW61812   6.955   2.812   7.246
20124SOL    HW161813   6.994   2.901   7.266
20124SOL    HW261814   6.965   2.792   7.149
20125SOL     OW61815   6.401   2.434   5.911
20125SOL    HW161816   6.408   2.345   5.865
20125SOL    HW261817   6.307   2.468   5.903
20126SOL     OW61818   7.243   2.466   6.792
20126SOL    HW161819   7.205   2.397   6.854
20126SOL    HW261820   7.325   2.430   6.748
20127SOL     OW61821   5.838   3.426   7.330
20127SOL    HW161822   5.808   3.483   7.406
20127SOL    HW261823   5.831   3.329   7.356
20128SOL     OW61824   6.257   2.326   6.855
20128SOL    HW161825   6.223   2.237   6.825
20128SOL    HW261826   6.283   2.380   6.775
20129SOL     OW61827   6.516   3.540   7.051
20129SOL    HW161828   6.492   3.522   6.956
20129SOL    HW261829   6.546   3.634   7.061
20130SOL     OW61830   6.059   2.362   5.777
20130SOL    HW161831   6.120   2.442   5.781
20130SOL    HW261832   5.964   2.393   5.784
20131SOL     OW61833   5.745   2.999   7.052
20131SOL    HW161834   5.767   2.938   7.128
20131SOL    HW261835   5.755   2.950   6.966
20132SOL     OW61836   6.933   2.921   6.820
20132SOL    HW161837   6.957   2.858   6.746
20132SOL    HW261838   6.843   2.961   6.802
20133SOL     OW61839   6.888   2.717   5.895
20133SOL    HW161840   6.802   2.686   5.937
20133SOL    HW261841   6.884   2.703   5.796
20134SOL     OW61842   7.345   3.609   6.740
20134SOL    HW161843   7.406   3.639   6.667
20134SOL    HW261844   7.307   3.520   6.718
20135SOL     OW61845   6.838   3.593   6.714
20135SOL    HW161846   6.922   3.598   6.660
20135SOL    HW261847   6.815   3.497   6.732
20136SOL     OW61848   5.669   3.120   6.608
20136SOL    HW161849   5.664   3.119   6.708
20136SOL    HW261850   5.586   3.079   6.570
20137SOL     OW61851   6.274   3.524   7.302
20137SOL    HW161852   6.218   3.605   7.311
20137SOL    HW261853   6.326   3.528   7.216
20138SOL     OW61854   7.312   1.997   6.109
20138SOL    HW161855   7.385   1.980   6.042
20138SOL    HW261856   7.281   1.910   6.147
20139SOL     OW61857   6.974   3.435   6.063
20139SOL    HW161858   7.041   3.447   5.989
20139SOL    HW261859   6.934   3.524   6.086
20140SOL     OW61860   5.716   3.656   7.437
20140SOL    HW161861   5.675   3.582   7.490
20140SOL    HW261862   5.780   3.707   7.495
20141SOL     OW61863   6.866   2.789   6.258
20141SOL    HW161864   6.926   2.708   6.260
20141SOL    HW261865   6.906   2.858   6.198
20142SOL     OW61866   6.416   3.135   7.008
20142SOL    HW161867   6.411   3.168   7.103
20142SOL    HW261868   6.330   3.154   6.962
20143SOL     OW61869   6.258   3.478   5.740
20143SOL    HW161870   6.267   3.488   5.641
20143SOL    HW261871   6.218   3.389   5.761
20144SOL     OW61872   7.236   3.582   6.980
20144SOL    HW161873   7.289   3.592   6.896
20144SOL    HW261874   7.209   3.672   7.014
20145SOL     OW61875   7.427   2.037   6.549
20145SOL    HW161876   7.466   1.952   6.513
20145SOL    HW261877   7.329   2.039   6.530
20146SOL     OW61878   5.849   2.188   6.306
20146SOL    HW161879   5.770   2.239   6.272
20146SOL    HW261880   5.840   2.173   6.404
20147SOL     OW61881   6.780   3.474   5.617
20147SOL    HW161882   6.786   3.381   5.654
20147SOL    HW261883   6.721   3.474   5.537
20148SOL     OW61884   6.408   2.864   6.958
20148SOL    HW161885   6.448   2.863   6.866
20148SOL    HW261886   6.418   2.956   6.998
20149SOL     OW61887   6.502   2.772   5.877
20149SOL    HW161888   6.565   2.810   5.809
20149SOL    HW261889   6.542   2.689   5.916
20150SOL     OW61890   7.090   3.469   5.630
20150SOL    HW161891   6.998   3.506   5.637
20150SOL    HW261892   7.128   3.489   5.540
20151SOL     OW61893   5.958   3.150   7.076
20151SOL    HW161894   5.945   3.243   7.042
20151SOL    HW261895   5.874   3.098   7.063
20152SOL     OW61896   7.200   3.154   6.875
20152SOL    HW161897   7.260   3.157   6.955
20152SOL    HW261898   7.125   3.218   6.888
20153SOL     OW61899   6.625   2.960   6.282
20153SOL    HW161900   6.555   2.913   6.336
20153SOL    HW261901   6.684   2.892   6.239
20154SOL     OW61902   6.600   2.098   6.557
20154SOL    HW161903   6.592   2.062   6.464
20154SOL    HW261904   6.598   2.022   6.622
20155SOL     OW61905   6.176   3.349   6.077
20155SOL    HW161906   6.218   3.291   6.007
20155SOL    HW261907   6.132   3.428   6.033
20156SOL     OW61908   7.295   2.247   6.967
20156SOL    HW161909   7.368   2.316   6.971
20156SOL    HW261910   7.323   2.172   6.908
20157SOL     OW61911   5.841   3.210   5.876
20157SOL    HW161912   5.745   3.211   5.849
20157SOL    HW261913   5.853   3.263   5.960
20158SOL     OW61914   5.691   2.875   7.312
20158SOL    HW161915   5.614   2.842   7.366
20158SOL    HW261916   5.776   2.845   7.354
20159SOL     OW61917   6.258   2.065   7.075
20159SOL    HW161918   6.348   2.049   7.035
20159SOL    HW261919   6.266   2.070   7.174
20160SOL     OW61920   5.661   2.207   5.619
20160SOL    HW161921   5.569   2.179   5.590
20160SOL    HW261922   5.692   2.284   5.563
20161SOL     OW61923   7.026   2.718   6.984
20161SOL    HW161924   6.969   2.770   6.921
20161SOL    HW261925   7.122   2.730   6.960
20162SOL     OW61926   5.658   2.028   5.904
20162SOL    HW161927   5.641   2.111   5.850
20162SOL    HW261928   5.748   1.991   5.882
20163SOL     OW61929   6.769   3.197   5.705
20163SOL    HW161930   6.670   3.186   5.707
20163SOL    HW261931   6.803   3.212   5.798
20164SOL     OW61932   6.199   2.704   7.017
20164SOL    HW161933   6.255   2.785   7.000
20164SOL    HW261934   6.258   2.624   7.020
20165SOL     OW61935   7.079   3.629   6.545
20165SOL    HW161936   7.112   3.693   6.476
20165SOL    HW261937   7.145   3.623   6.620
20166SOL     OW61938   6.302   2.427   7.294
20166SOL    HW161939   6.321   2.492   7.368
20166SOL    HW261940   6.362   2.347   7.303
20167SOL     OW61941   7.036   3.082   7.219
20167SOL    HW161942   7.027   3.072   7.318
20167SOL    HW261943   7.132   3.075   7.193
20168SOL     OW61944   5.976   3.603   7.146
20168SOL    HW161945   5.885   3.644   7.144
20168SOL    HW261946   5.969   3.509   7.178
20169SOL     OW61947   7.260   2.745   6.840
20169SOL    HW161948   7.233   2.656   6.803
20169SOL    HW261949   7.261   2.813   6.767
20170SOL     OW61950   6.811   2.187   6.035
20170SOL    HW161951   6.876   2.113   6.024
20170SOL    HW261952   6.831   2.237   6.119
20171SOL     OW61953   6.180   2.607   6.238
20171SOL    HW161954   6.230   2.692   6.219
20171SOL    HW261955   6.092   2.609   6.190
20172SOL     OW61956   7.363   2.204   7.228
20172SOL    HW161957   7.346   2.235   7.134
20172SOL    HW261958   7.279   2.167   7.266
20173SOL     OW61959   7.316   2.796   7.103
20173SOL    HW161960   7.354   2.887   7.118
20173SOL    HW261961   7.308   2.779   7.004
20174SOL     OW61962   6.445   3.236   5.602
20174SOL    HW161963   6.399   3.251   5.690
20174SOL    HW261964   6.489   3.321   5.572
20175SOL     OW61965   6.247   3.652   6.539
20175SOL    HW161966   6.201   3.740   6.526
20175SOL    HW261967   6.346   3.664   6.532
20176SOL     OW61968   6.445   2.818   6.447
20176SOL    HW161969   6.499   2.749   6.495
20176SOL    HW261970   6.413   2.887   6.513
20177SOL     OW61971   6.669   2.846   5.673
20177SOL    HW161972   6.646   2.899   5.591
20177SOL    HW261973   6.750   2.790   5.654
20178SOL     OW61974   7.447   3.431   6.437
20178SOL    HW161975   7.376   3.419   6.367
20178SOL    HW261976   7.448   3.352   6.497
20179SOL     OW61977   5.807   3.176   7.430
20179SOL    HW161978   5.742   3.103   7.409
20179SOL    HW261979   5.811   3.190   7.528
20180SOL     OW61980   5.665   3.102   6.239
20180SOL    HW161981   5.664   3.055   6.327
20180SOL    HW261982   5.747   3.074   6.188
20181SOL     OW61983   6.258   3.253   7.210
20181SOL    HW161984   6.180   3.203   7.248
20181SOL    HW261985   6.255   3.348   7.241
20182SOL     OW61986   7.410   2.054   6.813
20182SOL    HW161987   7.406   1.964   6.857
20182SOL    HW261988   7.413   2.043   6.714
20183SOL     OW61989   6.014   2.286   6.106
20183SOL    HW161990   6.044   2.214   6.044
20183SOL    HW261991   5.975   2.246   6.189
20184SOL     OW61992   7.291   3.349   6.690
20184SOL    HW161993   7.198   3.324   6.663
20184SOL    HW261994   7.317   3.299   6.772
20185SOL     OW61995   5.903   2.409   6.866
20185SOL    HW161996   5.941   2.350   6.938
20185SOL    HW261997   5.943   2.383   6.778
20186SOL     OW61998   6.398   3.448   6.273
20186SOL    HW161999   6.430   3.458   6.179
20186SOL    HW262000   6.319   3.386   6.275
20187SOL     OW62001   7.010   2.076   6.698
20187SOL    HW162002   7.062   2.011   6.753
20187SOL    HW262003   6.961   2.139   6.759
20188SOL     OW62004   6.587   1.896   6.740
20188SOL    HW162005   6.524   1.824   6.709
20188SOL    HW262006   6.680   1.860   6.740
20189SOL     OW62007   6.356   3.192   5.887
20189SOL    HW162008   6.310   3.105   5.904
20189SOL    HW262009   6.447   3.189   5.928
20190SOL     OW62010   6.204   3.429   6.870
20190SOL    HW162011   6.199   3.511   6.927
20190SOL    HW262012   6.293   3.426   6.825
20191SOL     OW62013   6.938   1.914   5.754
20191SOL    HW162014   6.973   1.873   5.670
20191SOL    HW262015   6.848   1.876   5.774
20192SOL     OW62016   6.886   2.315   6.277
20192SOL    HW162017   6.827   2.395   6.281
20192SOL    HW262018   6.901   2.280   6.370
20193SOL     OW62019   7.179   2.083   6.468
20193SOL    HW162020   7.095   2.082   6.522
20193SOL    HW262021   7.181   2.166   6.412
20194SOL     OW62022   5.625   2.939   5.886
20194SOL    HW162023   5.724   2.928   5.877
20194SOL    HW262024   5.585   2.853   5.918
20195SOL     OW62025   6.461   3.508   5.923
20195SOL    HW162026   6.384   3.473   5.869
20195SOL    HW262027   6.429   3.579   5.985
20196SOL     OW62028   5.816   2.490   7.561
20196SOL    HW162029   5.723   2.488   7.598
20196SOL    HW262030   5.817   2.451   7.469
20197SOL     OW62031   5.811   2.137   8.444
20197SOL    HW162032   5.846   2.120   8.536
20197SOL    HW262033   5.723   2.092   8.432
20198SOL     OW62034   5.605   2.230   8.095
20198SOL    HW162035   5.523   2.273   8.134
20198SOL    HW262036   5.577   2.157   8.032
20199SOL     OW62037   6.155   3.137   8.613
20199SOL    HW162038   6.062   3.130   8.576
20199SOL    HW262039   6.166   3.226   8.657
20200SOL     OW62040   7.141   3.373   8.151
20200SOL    HW162041   7.084   3.357   8.232
20200SOL    HW262042   7.082   3.383   8.071
20201SOL     OW62043   6.721   2.565   8.165
20201SOL    HW162044   6.778   2.643   8.140
20201SOL    HW262045   6.661   2.591   8.241
20202SOL     OW62046   7.341   2.469   7.679
20202SOL    HW162047   7.329   2.456   7.580
20202SOL    HW262048   7.311   2.388   7.728
20203SOL     OW62049   6.354   3.006   8.471
20203SOL    HW162050   6.276   3.023   8.531
20203SOL    HW262051   6.388   3.093   8.435
20204SOL     OW62052   6.436   2.660   9.271
20204SOL    HW162053   6.432   2.736   9.336
20204SOL    HW262054   6.458   2.696   9.180
20205SOL     OW62055   6.271   2.874   8.113
20205SOL    HW162056   6.340   2.858   8.183
20205SOL    HW262057   6.198   2.931   8.151
20206SOL     OW62058   6.272   3.023   9.251
20206SOL    HW162059   6.332   3.102   9.265
20206SOL    HW262060   6.186   3.054   9.210
20207SOL     OW62061   5.921   3.297   8.509
20207SOL    HW162062   5.843   3.266   8.456
20207SOL    HW262063   5.979   3.355   8.452
20208SOL     OW62064   7.046   3.367   8.787
20208SOL    HW162065   7.070   3.461   8.813
20208SOL    HW262066   7.030   3.313   8.869
20209SOL     OW62067   6.024   2.254   8.947
20209SOL    HW162068   6.106   2.198   8.956
20209SOL    HW262069   5.943   2.196   8.951
20210SOL     OW62070   7.189   2.309   8.185
20210SOL    HW162071   7.115   2.355   8.135
20210SOL    HW262072   7.240   2.377   8.238
20211SOL     OW62073   5.817   3.575   7.931
20211SOL    HW162074   5.851   3.652   7.985
20211SOL    HW262075   5.861   3.575   7.841
20212SOL     OW62076   6.713   3.203   9.138
20212SOL    HW162077   6.760   3.203   9.226
20212SOL    HW262078   6.665   3.116   9.127
20213SOL     OW62079   5.816   3.296   7.986
20213SOL    HW162080   5.790   3.392   7.986
20213SOL    HW262081   5.745   3.242   8.031
20214SOL     OW62082   5.826   2.953   8.334
20214SOL    HW162083   5.840   2.869   8.386
20214SOL    HW262084   5.771   3.017   8.389
20215SOL     OW62085   6.206   3.648   8.887
20215SOL    HW162086   6.114   3.631   8.922
20215SOL    HW262087   6.234   3.740   8.913
20216SOL     OW62088   6.192   2.826   7.571
20216SOL    HW162089   6.199   2.910   7.517
20216SOL    HW262090   6.238   2.839   7.659
20217SOL     OW62091   7.180   1.976   8.928
20217SOL    HW162092   7.162   2.043   8.856
20217SOL    HW262093   7.177   2.022   9.017
20218SOL     OW62094   5.708   2.505   8.011
20218SOL    HW162095   5.663   2.417   8.028
20218SOL    HW262096   5.707   2.559   8.095
20219SOL     OW62097   7.428   3.629   7.807
20219SOL    HW162098   7.482   3.600   7.887
20219SOL    HW262099   7.458   3.719   7.778
20220SOL     OW62100   5.613   3.458   7.565
20220SOL    HW162101   5.594   3.362   7.586
20220SOL    HW262102   5.580   3.516   7.640
20221SOL     OW62103   7.275   2.784   8.060
20221SOL    HW162104   7.370   2.755   8.068
20221SOL    HW262105   7.267   2.849   7.985
20222SOL     OW62106   7.227   2.970   7.880
20222SOL    HW162107   7.313   2.972   7.828
20222SOL    HW262108   7.241   3.017   7.968
20223SOL     OW62109   5.699   2.599   9.045
20223SOL    HW162110   5.787   2.586   9.090
20223SOL    HW262111   5.686   2.696   9.023
20224SOL     OW62112   6.199   3.227   8.174
20224SOL    HW162113   6.150   3.140   8.183
20224SOL    HW262114   6.176   3.270   8.087
20225SOL     OW62115   6.879   3.090   8.871
20225SOL    HW162116   6.916   3.017   8.813
20225SOL    HW262117   6.931   3.095   8.956
20226SOL     OW62118   6.395   1.866   7.950
20226SOL    HW162119   6.435   1.957   7.941
20226SOL    HW262120   6.295   1.874   7.956
20227SOL     OW62121   5.783   2.838   8.712
20227SOL    HW162122   5.872   2.793   8.698
20227SOL    HW262123   5.710   2.773   8.693
20228SOL     OW62124   7.111   2.861   7.638
20228SOL    HW162125   7.048   2.785   7.651
20228SOL    HW262126   7.159   2.879   7.724
20229SOL     OW62127   6.773   3.654   9.064
20229SOL    HW162128   6.797   3.714   8.988
20229SOL    HW262129   6.780   3.559   9.034
20230SOL     OW62130   5.903   2.113   9.249
20230SOL    HW162131   5.974   2.184   9.255
20230SOL    HW262132   5.815   2.152   9.277
20231SOL     OW62133   7.052   3.279   8.401
20231SOL    HW162134   6.993   3.285   8.481
20231SOL    HW262135   7.037   3.191   8.355
20232SOL     OW62136   7.253   3.576   8.020
20232SOL    HW162137   7.212   3.553   7.932
20232SOL    HW262138   7.235   3.502   8.085
20233SOL     OW62139   6.184   2.591   7.718
20233SOL    HW162140   6.208   2.660   7.650
20233SOL    HW262141   6.106   2.624   7.772
20234SOL     OW62142   6.867   2.207   8.392
20234SOL    HW162143   6.781   2.157   8.379
20234SOL    HW262144   6.929   2.153   8.448
20235SOL     OW62145   7.162   3.524   7.755
20235SOL    HW162146   7.251   3.570   7.758
20235SOL    HW262147   7.141   3.500   7.660
20236SOL     OW62148   6.393   2.467   8.913
20236SOL    HW162149   6.346   2.464   9.002
20236SOL    HW262150   6.342   2.412   8.847
20237SOL     OW62151   6.980   2.331   9.122
20237SOL    HW162152   6.960   2.374   9.210
20237SOL    HW262153   7.058   2.269   9.131
20238SOL     OW62154   6.559   2.752   9.020
20238SOL    HW162155   6.605   2.668   8.991
20238SOL    HW262156   6.503   2.786   8.945
20239SOL     OW62157   6.577   2.272   8.690
20239SOL    HW162158   6.500   2.306   8.744
20239SOL    HW262159   6.543   2.221   8.611
20240SOL     OW62160   6.627   2.563   7.877
20240SOL    HW162161   6.653   2.559   7.973
20240SOL    HW262162   6.542   2.512   7.863
20241SOL     OW62163   5.662   2.673   8.237
20241SOL    HW162164   5.761   2.661   8.246
20241SOL    HW262165   5.638   2.768   8.258
20242SOL     OW62166   5.716   3.683   9.019
20242SOL    HW162167   5.706   3.668   9.118
20242SOL    HW262168   5.630   3.719   8.983
20243SOL     OW62169   6.451   2.210   7.643
20243SOL    HW162170   6.510   2.273   7.594
20243SOL    HW262171   6.470   2.116   7.614
20244SOL     OW62172   7.305   2.447   9.279
20244SOL    HW162173   7.279   2.536   9.243
20244SOL    HW262174   7.303   2.379   9.206
20245SOL     OW62175   6.948   3.006   7.993
20245SOL    HW162176   7.031   2.977   7.945
20245SOL    HW262177   6.899   3.073   7.937
20246SOL     OW62178   6.136   2.058   8.333
20246SOL    HW162179   6.131   2.053   8.433
20246SOL    HW262180   6.138   2.154   8.304
20247SOL     OW62181   6.594   3.318   7.925
20247SOL    HW162182   6.548   3.390   7.873
20247SOL    HW262183   6.590   3.338   8.023
20248SOL     OW62184   5.937   3.663   8.301
20248SOL    HW162185   5.987   3.577   8.307
20248SOL    HW262186   6.002   3.740   8.298
20249SOL     OW62187   7.381   2.928   8.321
20249SOL    HW162188   7.319   2.913   8.245
20249SOL    HW262189   7.329   2.939   8.406
20250SOL     OW62190   6.813   3.412   8.954
20250SOL    HW162191   6.819   3.335   9.018
20250SOL    HW262192   6.761   3.386   8.874
20251SOL     OW62193   5.907   2.805   7.690
20251SOL    HW162194   5.989   2.844   7.648
20251SOL    HW262195   5.880   2.723   7.641
20252SOL     OW62196   7.044   2.597   8.176
20252SOL    HW162197   7.039   2.532   8.251
20252SOL    HW262198   7.124   2.656   8.189
20253SOL     OW62199   6.047   3.128   9.175
20253SOL    HW162200   5.997   3.129   9.089
20253SOL    HW262201   5.984   3.110   9.251
20254SOL     OW62202   6.697   3.638   7.685
20254SOL    HW162203   6.637   3.576   7.735
20254SOL    HW262204   6.728   3.594   7.600
20255SOL     OW62205   5.788   2.147   8.946
20255SOL    HW162206   5.708   2.207   8.933
20255SOL    HW262207   5.778   2.098   9.032
20256SOL     OW62208   7.218   3.239   7.529
20256SOL    HW162209   7.186   3.333   7.519
20256SOL    HW262210   7.142   3.176   7.517
20257SOL     OW62211   6.050   3.605   7.771
20257SOL    HW162212   6.083   3.644   7.857
20257SOL    HW262213   6.126   3.598   7.706
20258SOL     OW62214   6.986   1.969   7.874
20258SOL    HW162215   6.962   1.932   7.784
20258SOL    HW262216   7.085   1.985   7.878
20259SOL     OW62217   5.835   3.647   8.689
20259SOL    HW162218   5.892   3.582   8.739
20259SOL    HW262219   5.819   3.614   8.596
20260SOL     OW62220   6.526   3.560   8.352
20260SOL    HW162221   6.606   3.503   8.373
20260SOL    HW262222   6.477   3.520   8.275
20261SOL     OW62223   5.968   2.562   7.928
20261SOL    HW162224   6.013   2.472   7.925
20261SOL    HW262225   5.874   2.551   7.961
20262SOL     OW62226   7.133   2.084   9.177
20262SOL    HW162227   7.128   2.121   9.269
20262SOL    HW262228   7.061   2.015   9.165
20263SOL     OW62229   6.200   1.984   7.565
20263SOL    HW162230   6.298   1.962   7.572
20263SOL    HW262231   6.169   1.967   7.472
20264SOL     OW62232   6.367   2.126   9.197
20264SOL    HW162233   6.434   2.065   9.240
20264SOL    HW262234   6.294   2.145   9.262
20265SOL     OW62235   6.474   3.376   8.643
20265SOL    HW162236   6.451   3.351   8.549
20265SOL    HW262237   6.535   3.307   8.682
20266SOL     OW62238   6.937   2.452   8.881
20266SOL    HW162239   6.965   2.409   8.966
20266SOL    HW262240   6.962   2.548   8.882
20267SOL     OW62241   6.389   3.264   8.372
20267SOL    HW162242   6.479   3.278   8.330
20267SOL    HW262243   6.318   3.266   8.301
20268SOL     OW62244   6.508   2.365   8.347
20268SOL    HW162245   6.483   2.356   8.251
20268SOL    HW262246   6.556   2.283   8.378
20269SOL     OW62247   6.125   1.926   7.960
20269SOL    HW162248   6.044   1.927   8.018
20269SOL    HW262249   6.128   2.009   7.905
20270SOL     OW62250   7.020   3.050   7.489
20270SOL    HW162251   7.052   2.974   7.546
20270SOL    HW262252   6.928   3.077   7.519
20271SOL     OW62253   5.883   1.897   7.619
20271SOL    HW162254   5.932   1.981   7.598
20271SOL    HW262255   5.945   1.832   7.664
20272SOL     OW62256   6.521   2.098   7.928
20272SOL    HW162257   6.473   2.139   7.850
20272SOL    HW262258   6.620   2.096   7.909
20273SOL     OW62259   6.662   2.545   8.912
20273SOL    HW162260   6.582   2.484   8.915
20273SOL    HW262261   6.743   2.492   8.888
20274SOL     OW62262   6.813   3.432   8.241
20274SOL    HW162263   6.834   3.506   8.176
20274SOL    HW262264   6.881   3.432   8.314
20275SOL     OW62265   6.045   3.014   8.189
20275SOL    HW162266   5.974   2.987   8.254
20275SOL    HW262267   6.019   2.986   8.096
20276SOL     OW62268   6.857   3.659   8.039
20276SOL    HW162269   6.901   3.723   7.975
20276SOL    HW262270   6.807   3.711   8.109
20277SOL     OW62271   6.618   2.411   7.464
20277SOL    HW162272   6.577   2.493   7.425
20277SOL    HW262273   6.682   2.437   7.537
20278SOL     OW62274   5.664   2.418   8.834
20278SOL    HW162275   5.756   2.417   8.793
20278SOL    HW262276   5.658   2.492   8.901
20279SOL     OW62277   6.147   2.084   8.595
20279SOL    HW162278   6.185   2.000   8.632
20279SOL    HW262279   6.059   2.103   8.639
20280SOL     OW62280   6.452   2.316   8.090
20280SOL    HW162281   6.420   2.388   8.028
20280SOL    HW262282   6.476   2.235   8.037
20281SOL     OW62283   6.603   1.901   8.201
20281SOL    HW162284   6.531   1.906   8.132
20281SOL    HW262285   6.579   1.832   8.270
20282SOL     OW62286   7.015   3.035   8.315
20282SOL    HW162287   6.960   2.951   8.308
20282SOL    HW262288   7.041   3.064   8.223
20283SOL     OW62289   7.052   2.452   8.440
20283SOL    HW162290   7.022   2.357   8.447
20283SOL    HW262291   7.125   2.468   8.506
20284SOL     OW62292   7.443   2.695   7.825
20284SOL    HW162293   7.485   2.631   7.889
20284SOL    HW262294   7.405   2.644   7.747
20285SOL     OW62295   6.074   3.247   7.622
20285SOL    HW162296   5.987   3.232   7.669
20285SOL    HW262297   6.057   3.273   7.527
20286SOL     OW62298   7.250   3.142   8.105
20286SOL    HW162299   7.349   3.150   8.119
20286SOL    HW262300   7.205   3.226   8.136
20287SOL     OW62301   6.976   2.437   7.526
20287SOL    HW162302   6.922   2.416   7.607
20287SOL    HW262303   7.067   2.396   7.535
20288SOL     OW62304   6.113   2.118   7.776
20288SOL    HW162305   6.140   2.059   7.701
20288SOL    HW262306   6.113   2.213   7.745
20289SOL     OW62307   7.340   3.085   9.036
20289SOL    HW162308   7.431   3.046   9.023
20289SOL    HW262309   7.348   3.181   9.060
20290SOL     OW62310   6.650   3.209   8.788
20290SOL    HW162311   6.570   3.186   8.843
20290SOL    HW262312   6.733   3.183   8.837
20291SOL     OW62313   7.178   3.491   9.073
20291SOL    HW162314   7.205   3.525   8.983
20291SOL    HW262315   7.257   3.453   9.119
20292SOL     OW62316   6.697   3.057   8.548
20292SOL    HW162317   6.657   3.101   8.629
20292SOL    HW262318   6.656   3.094   8.465
20293SOL     OW62319   7.224   2.961   8.527
20293SOL    HW162320   7.229   3.042   8.586
20293SOL    HW262321   7.138   2.963   8.476
20294SOL     OW62322   6.501   1.951   8.850
20294SOL    HW162323   6.526   1.931   8.755
20294SOL    HW262324   6.573   2.007   8.892
20295SOL     OW62325   6.566   2.978   9.167
20295SOL    HW162326   6.467   2.984   9.177
20295SOL    HW262327   6.589   2.898   9.111
20296SOL     OW62328   6.291   2.912   7.816
20296SOL    HW162329   6.277   2.919   7.915
20296SOL    HW262330   6.375   2.861   7.798
20297SOL     OW62331   5.996   2.675   8.699
20297SOL    HW162332   6.082   2.687   8.749
20297SOL    HW262333   5.954   2.588   8.726
20298SOL     OW62334   6.860   2.248   8.710
20298SOL    HW162335   6.881   2.322   8.774
20298SOL    HW262336   6.771   2.265   8.667
20299SOL     OW62337   5.650   3.426   8.779
20299SOL    HW162338   5.604   3.508   8.745
20299SOL    HW262339   5.748   3.445   8.788
20300SOL     OW62340   5.953   2.962   7.949
20300SOL    HW162341   5.946   3.045   7.893
20300SOL    HW262342   5.957   2.882   7.889
20301SOL     OW62343   6.152   2.399   8.313
20301SOL    HW162344   6.164   2.465   8.239
20301SOL    HW262345   6.198   2.433   8.396
20302SOL     OW62346   6.838   3.210   7.836
20302SOL    HW162347   6.888   3.287   7.876
20302SOL    HW262348   6.743   3.212   7.868
20303SOL     OW62349   6.858   3.307   8.590
20303SOL    HW162350   6.905   3.320   8.677
20303SOL    HW262351   6.792   3.233   8.599
20304SOL     OW62352   7.168   2.501   7.920
20304SOL    HW162353   7.137   2.562   7.993
20304SOL    HW262354   7.218   2.553   7.851
20305SOL     OW62355   5.940   3.372   8.777
20305SOL    HW162356   5.919   3.328   8.690
20305SOL    HW262357   6.037   3.398   8.780
20306SOL     OW62358   5.988   2.613   9.046
20306SOL    HW162359   6.056   2.668   8.999
20306SOL    HW262360   6.028   2.525   9.073
20307SOL     OW62361   7.173   2.641   9.118
20307SOL    HW162362   7.081   2.679   9.113
20307SOL    HW262363   7.233   2.688   9.053
20308SOL     OW62364   6.599   1.967   9.218
20308SOL    HW162365   6.605   2.052   9.166
20308SOL    HW262366   6.631   1.891   9.161
20309SOL     OW62367   6.090   1.912   9.188
20309SOL    HW162368   6.048   1.855   9.118
20309SOL    HW262369   6.024   1.981   9.220
20310SOL     OW62370   6.159   2.732   8.477
20310SOL    HW162371   6.203   2.821   8.468
20310SOL    HW262372   6.096   2.732   8.554
20311SOL     OW62373   6.946   2.724   8.493
20311SOL    HW162374   6.871   2.724   8.427
20311SOL    HW262375   6.983   2.632   8.502
20312SOL     OW62376   6.795   2.387   7.723
20312SOL    HW162377   6.808   2.303   7.777
20312SOL    HW262378   6.766   2.461   7.783
20313SOL     OW62379   5.893   2.075   8.679
20313SOL    HW162380   5.870   2.112   8.769
20313SOL    HW262381   5.863   1.980   8.673
20314SOL     OW62382   5.623   3.172   8.730
20314SOL    HW162383   5.676   3.123   8.798
20314SOL    HW262384   5.645   3.270   8.735
20315SOL     OW62385   6.318   2.496   8.512
20315SOL    HW162386   6.377   2.470   8.436
20315SOL    HW262387   6.290   2.592   8.501
20316SOL     OW62388   7.314   2.797   9.302
20316SOL    HW162389   7.268   2.790   9.213
20316SOL    HW262390   7.252   2.841   9.368
20317SOL     OW62391   5.893   1.925   8.066
20317SOL    HW162392   5.882   2.019   8.099
20317SOL    HW262393   5.888   1.862   8.143
20318SOL     OW62394   7.208   2.229   7.822
20318SOL    HW162395   7.210   2.153   7.886
20318SOL    HW262396   7.160   2.306   7.862
20319SOL     OW62397   6.609   2.628   8.414
20319SOL    HW162398   6.624   2.649   8.510
20319SOL    HW262399   6.579   2.533   8.405
20320SOL     OW62400   6.566   3.435   9.148
20320SOL    HW162401   6.546   3.479   9.060
20320SOL    HW262402   6.605   3.344   9.132
20321SOL     OW62403   7.445   3.380   9.053
20321SOL    HW162404   7.459   3.407   8.958
20321SOL    HW262405   7.528   3.402   9.106
20322SOL     OW62406   5.936   2.760   9.252
20322SOL    HW162407   6.012   2.804   9.300
20322SOL    HW262408   5.971   2.713   9.170
20323SOL     OW62409   7.126   2.136   7.573
20323SOL    HW162410   7.065   2.061   7.596
20323SOL    HW262411   7.148   2.188   7.656
20324SOL     OW62412   6.889   2.700   7.490
20324SOL    HW162413   6.923   2.607   7.505
20324SOL    HW262414   6.907   2.727   7.395
20325SOL     OW62415   6.654   3.195   8.297
20325SOL    HW162416   6.661   3.111   8.242
20325SOL    HW262417   6.716   3.264   8.261
20326SOL     OW62418   5.905   2.672   8.397
20326SOL    HW162419   5.998   2.708   8.402
20326SOL    HW262420   5.899   2.587   8.449
20327SOL     OW62421   5.925   2.371   8.454
20327SOL    HW162422   5.873   2.288   8.437
20327SOL    HW262423   6.002   2.376   8.390
20328SOL     OW62424   6.724   2.242   9.126
20328SOL    HW162425   6.679   2.305   9.190
20328SOL    HW262426   6.817   2.273   9.109
20329SOL     OW62427   6.746   2.069   8.925
20329SOL    HW162428   6.746   2.133   9.002
20329SOL    HW262429   6.774   2.117   8.842
20330SOL     OW62430   5.594   3.188   7.648
20330SOL    HW162431   5.501   3.209   7.617
20330SOL    HW262432   5.604   3.089   7.661
20331SOL     OW62433   5.674   3.663   8.375
20331SOL    HW162434   5.632   3.577   8.348
20331SOL    HW262435   5.768   3.666   8.341
20332SOL     OW62436   6.090   3.430   8.358
20332SOL    HW162437   6.156   3.504   8.367
20332SOL    HW262438   6.134   3.351   8.316
20333SOL     OW62439   6.588   2.658   8.686
20333SOL    HW162440   6.629   2.626   8.772
20333SOL    HW262441   6.492   2.631   8.683
20334SOL     OW62442   5.626   2.406   8.562
20334SOL    HW162443   5.711   2.373   8.521
20334SOL    HW262444   5.639   2.421   8.660
20335SOL     OW62445   5.775   2.382   9.170
20335SOL    HW162446   5.834   2.342   9.100
20335SOL    HW262447   5.717   2.453   9.129
20336SOL     OW62448   6.955   2.812   9.108
20336SOL    HW162449   6.994   2.901   9.128
20336SOL    HW262450   6.965   2.792   9.011
20337SOL     OW62451   6.401   2.434   7.773
20337SOL    HW162452   6.408   2.345   7.727
20337SOL    HW262453   6.307   2.468   7.765
20338SOL     OW62454   7.243   2.466   8.654
20338SOL    HW162455   7.205   2.397   8.716
20338SOL    HW262456   7.325   2.430   8.610
20339SOL     OW62457   5.838   3.426   9.192
20339SOL    HW162458   5.808   3.483   9.268
20339SOL    HW262459   5.831   3.329   9.218
20340SOL     OW62460   6.257   2.326   8.717
20340SOL    HW162461   6.223   2.237   8.687
20340SOL    HW262462   6.283   2.380   8.637
20341SOL     OW62463   6.516   3.540   8.913
20341SOL    HW162464   6.492   3.522   8.818
20341SOL    HW262465   6.546   3.634   8.923
20342SOL     OW62466   6.059   2.362   7.639
20342SOL    HW162467   6.120   2.442   7.643
20342SOL    HW262468   5.964   2.393   7.646
20343SOL     OW62469   5.745   2.999   8.914
20343SOL    HW162470   5.767   2.938   8.990
20343SOL    HW262471   5.755   2.950   8.828
20344SOL     OW62472   6.933   2.921   8.682
20344SOL    HW162473   6.957   2.858   8.608
20344SOL    HW262474   6.843   2.961   8.664
20345SOL     OW62475   6.888   2.717   7.757
20345SOL    HW162476   6.802   2.686   7.799
20345SOL    HW262477   6.884   2.703   7.658
20346SOL     OW62478   7.345   3.609   8.602
20346SOL    HW162479   7.406   3.639   8.529
20346SOL    HW262480   7.307   3.520   8.580
20347SOL     OW62481   6.838   3.593   8.576
20347SOL    HW162482   6.922   3.598   8.522
20347SOL    HW262483   6.815   3.497   8.594
20348SOL     OW62484   5.669   3.120   8.470
20348SOL    HW162485   5.664   3.119   8.570
20348SOL    HW262486   5.586   3.079   8.432
20349SOL     OW62487   6.274   3.524   9.164
20349SOL    HW162488   6.218   3.605   9.173
20349SOL    HW262489   6.326   3.528   9.078
20350SOL     OW62490   7.312   1.997   7.971
20350SOL    HW162491   7.385   1.980   7.904
20350SOL    HW262492   7.281   1.910   8.009
20351SOL     OW62493   6.974   3.435   7.925
20351SOL    HW162494   7.041   3.447   7.851
20351SOL    HW262495   6.934   3.524   7.948
20352SOL     OW62496   5.716   3.656   9.299
20352SOL    HW162497   5.675   3.582   9.352
20352SOL    HW262498   5.780   3.707   9.357
20353SOL     OW62499   6.866   2.789   8.120
20353SOL    HW162500   6.926   2.708   8.122
20353SOL    HW262501   6.906   2.858   8.060
20354SOL     OW62502   6.416   3.135   8.870
20354SOL    HW162503   6.411   3.168   8.965
20354SOL    HW262504   6.330   3.154   8.824
20355SOL     OW62505   6.258   3.478   7.602
20355SOL    HW162506   6.267   3.488   7.503
20355SOL    HW262507   6.218   3.389   7.623
20356SOL     OW62508   7.236   3.582   8.842
20356SOL    HW162509   7.289   3.592   8.758
20356SOL    HW262510   7.209   3.672   8.876
20357SOL     OW62511   7.427   2.037   8.411
20357SOL    HW162512   7.466   1.952   8.375
20357SOL    HW262513   7.329   2.039   8.392
20358SOL     OW62514   5.849   2.188   8.168
20358SOL    HW162515   5.770   2.239   8.134
20358SOL    HW262516   5.840   2.173   8.266
20359SOL     OW62517   6.780   3.474   7.479
20359SOL    HW162518   6.786   3.381   7.516
20359SOL    HW262519   6.721   3.474   7.399
20360SOL     OW62520   6.408   2.864   8.820
20360SOL    HW162521   6.448   2.863   8.728
20360SOL    HW262522   6.418   2.956   8.860
20361SOL     OW62523   6.502   2.772   7.739
20361SOL    HW162524   6.565   2.810   7.671
20361SOL    HW262525   6.542   2.689   7.778
20362SOL     OW62526   7.090   3.469   7.492
20362SOL    HW162527   6.998   3.506   7.499
20362SOL    HW262528   7.128   3.489   7.402
20363SOL     OW62529   5.958   3.150   8.938
20363SOL    HW162530   5.945   3.243   8.904
20363SOL    HW262531   5.874   3.098   8.925
20364SOL     OW62532   7.200   3.154   8.737
20364SOL    HW162533   7.260   3.157   8.817
20364SOL    HW262534   7.125   3.218   8.750
20365SOL     OW62535   6.625   2.960   8.144
20365SOL    HW162536   6.555   2.913   8.198
20365SOL    HW262537   6.684   2.892   8.101
20366SOL     OW62538   6.600   2.098   8.419
20366SOL    HW162539   6.592   2.062   8.326
20366SOL    HW262540   6.598   2.022   8.484
20367SOL     OW62541   6.176   3.349   7.939
20367SOL    HW162542   6.218   3.291   7.869
20367SOL    HW262543   6.132   3.428   7.895
20368SOL     OW62544   7.295   2.247   8.829
20368SOL    HW162545   7.368   2.316   8.833
20368SOL    HW262546   7.323   2.172   8.770
20369SOL     OW62547   5.841   3.210   7.738
20369SOL    HW162548   5.745   3.211   7.711
20369SOL    HW262549   5.853   3.263   7.822
20370SOL     OW62550   5.691   2.875   9.174
20370SOL    HW162551   5.614   2.842   9.228
20370SOL    HW262552   5.776   2.845   9.216
20371SOL     OW62553   6.258   2.065   8.937
20371SOL    HW162554   6.348   2.049   8.897
20371SOL    HW262555   6.266   2.070   9.036
20372SOL     OW62556   5.661   2.207   7.481
20372SOL    HW162557   5.569   2.179   7.452
20372SOL    HW262558   5.692   2.284   7.425
20373SOL     OW62559   7.026   2.718   8.846
20373SOL    HW162560   6.969   2.770   8.783
20373SOL    HW262561   7.122   2.730   8.822
20374SOL     OW62562   5.658   2.028   7.766
20374SOL    HW162563   5.641   2.111   7.712
20374SOL    HW262564   5.748   1.991   7.744
20375SOL     OW62565   6.769   3.197   7.567
20375SOL    HW162566   6.670   3.186   7.569
20375SOL    HW262567   6.803   3.212   7.660
20376SOL     OW62568   6.199   2.704   8.879
20376SOL    HW162569   6.255   2.785   8.862
20376SOL    HW262570   6.258   2.624   8.882
20377SOL     OW62571   7.079   3.629   8.407
20377SOL    HW162572   7.112   3.693   8.338
20377SOL    HW262573   7.145   3.623   8.482
20378SOL     OW62574   6.302   2.427   9.156
20378SOL    HW162575   6.321   2.492   9.230
20378SOL    HW262576   6.362   2.347   9.165
20379SOL     OW62577   7.036   3.082   9.081
20379SOL    HW162578   7.027   3.072   9.180
20379SOL    HW262579   7.132   3.075   9.055
20380SOL     OW62580   5.976   3.603   9.008
20380SOL    HW162581   5.885   3.644   9.006
20380SOL    HW262582   5.969   3.509   9.040
20381SOL     OW62583   7.260   2.745   8.702
20381SOL    HW162584   7.233   2.656   8.665
20381SOL    HW262585   7.261   2.813   8.629
20382SOL     OW62586   6.811   2.187   7.897
20382SOL    HW162587   6.876   2.113   7.886
20382SOL    HW262588   6.831   2.237   7.981
20383SOL     OW62589   6.180   2.607   8.100
20383SOL    HW162590   6.230   2.692   8.081
20383SOL    HW262591   6.092   2.609   8.052
20384SOL     OW62592   7.363   2.204   9.090
20384SOL    HW162593   7.346   2.235   8.996
20384SOL    HW262594   7.279   2.167   9.128
20385SOL     OW62595   7.316   2.796   8.965
20385SOL    HW162596   7.354   2.887   8.980
20385SOL    HW262597   7.308   2.779   8.866
20386SOL     OW62598   6.445   3.236   7.464
20386SOL    HW162599   6.399   3.251   7.552
20386SOL    HW262600   6.489   3.321   7.434
20387SOL     OW62601   6.247   3.652   8.401
20387SOL    HW162602   6.201   3.740   8.388
20387SOL    HW262603   6.346   3.664   8.394
20388SOL     OW62604   6.445   2.818   8.309
20388SOL    HW162605   6.499   2.749   8.357
20388SOL    HW262606   6.413   2.887   8.375
20389SOL     OW62607   6.669   2.846   7.535
20389SOL    HW162608   6.646   2.899   7.453
20389SOL    HW262609   6.750   2.790   7.516
20390SOL     OW62610   7.447   3.431   8.299
20390SOL    HW162611   7.376   3.419   8.229
20390SOL    HW262612   7.448   3.352   8.359
20391SOL     OW62613   5.807   3.176   9.292
20391SOL    HW162614   5.742   3.103   9.271
20391SOL    HW262615   5.811   3.190   9.390
20392SOL     OW62616   5.665   3.102   8.101
20392SOL    HW162617   5.664   3.055   8.189
20392SOL    HW262618   5.747   3.074   8.050
20393SOL     OW62619   6.258   3.253   9.072
20393SOL    HW162620   6.180   3.203   9.110
20393SOL    HW262621   6.255   3.348   9.103
20394SOL     OW62622   7.410   2.054   8.675
20394SOL    HW162623   7.406   1.964   8.719
20394SOL    HW262624   7.413   2.043   8.576
20395SOL     OW62625   6.014   2.286   7.968
20395SOL    HW162626   6.044   2.214   7.906
20395SOL    HW262627   5.975   2.246   8.051
20396SOL     OW62628   7.291   3.349   8.552
20396SOL    HW162629   7.198   3.324   8.525
20396SOL    HW262630   7.317   3.299   8.634
20397SOL     OW62631   5.903   2.409   8.728
20397SOL    HW162632   5.941   2.350   8.800
20397SOL    HW262633   5.943   2.383   8.640
20398SOL     OW62634   6.398   3.448   8.135
20398SOL    HW162635   6.430   3.458   8.041
20398SOL    HW262636   6.319   3.386   8.137
20399SOL     OW62637   7.010   2.076   8.560
20399SOL    HW162638   7.062   2.011   8.615
20399SOL    HW262639   6.961   2.139   8.621
20400SOL     OW62640   6.587   1.896   8.602
20400SOL    HW162641   6.524   1.824   8.571
20400SOL    HW262642   6.680   1.860   8.602
20401SOL     OW62643   6.356   3.192   7.749
20401SOL    HW162644   6.310   3.105   7.766
20401SOL    HW262645   6.447   3.189   7.790
20402SOL     OW62646   6.204   3.429   8.732
20402SOL    HW162647   6.199   3.511   8.789
20402SOL    HW262648   6.293   3.426   8.687
20403SOL     OW62649   6.938   1.914   7.616
20403SOL    HW162650   6.973   1.873   7.532
20403SOL    HW262651   6.848   1.876   7.636
20404SOL     OW62652   6.886   2.315   8.139
20404SOL    HW162653   6.827   2.395   8.143
20404SOL    HW262654   6.901   2.280   8.232
20405SOL     OW62655   7.179   2.083   8.330
20405SOL    HW162656   7.095   2.082   8.384
20405SOL    HW262657   7.181   2.166   8.274
20406SOL     OW62658   5.625   2.939   7.748
20406SOL    HW162659   5.724   2.928   7.739
20406SOL    HW262660   5.585   2.853   7.780
20407SOL     OW62661   6.461   3.508   7.785
20407SOL    HW162662   6.384   3.473   7.731
20407SOL    HW262663   6.429   3.579   7.847
20408SOL     OW62664   5.816   2.490   9.423
20408SOL    HW162665   5.723   2.488   9.460
20408SOL    HW262666   5.817   2.451   9.331
20409SOL     OW62667   5.811   2.137  10.306
20409SOL    HW162668   5.846   2.120  10.398
20409SOL    HW262669   5.723   2.092  10.294
20410SOL     OW62670   5.605   2.230   9.957
20410SOL    HW162671   5.523   2.273   9.996
20410SOL    HW262672   5.577   2.157   9.894
20411SOL     OW62673   6.155   3.137  10.475
20411SOL    HW162674   6.062   3.130  10.438
20411SOL    HW262675   6.166   3.226  10.519
20412SOL     OW62676   7.141   3.373  10.013
20412SOL    HW162677   7.084   3.357  10.094
20412SOL    HW262678   7.082   3.383   9.933
20413SOL     OW62679   6.721   2.565  10.027
20413SOL    HW162680   6.778   2.643  10.002
20413SOL    HW262681   6.661   2.591  10.103
20414SOL     OW62682   7.341   2.469   9.541
20414SOL    HW162683   7.329   2.456   9.442
20414SOL    HW262684   7.311   2.388   9.590
20415SOL     OW62685   6.354   3.006  10.333
20415SOL    HW162686   6.276   3.023  10.393
20415SOL    HW262687   6.388   3.093  10.297
20416SOL     OW62688   6.436   2.660  11.133
20416SOL    HW162689   6.432   2.736  11.198
20416SOL    HW262690   6.458   2.696  11.042
20417SOL     OW62691   6.271   2.874   9.975
20417SOL    HW162692   6.340   2.858  10.045
20417SOL    HW262693   6.198   2.931  10.013
20418SOL     OW62694   6.272   3.023  11.113
20418SOL    HW162695   6.332   3.102  11.127
20418SOL    HW262696   6.186   3.054  11.072
20419SOL     OW62697   5.921   3.297  10.371
20419SOL    HW162698   5.843   3.266  10.318
20419SOL    HW262699   5.979   3.355  10.314
20420SOL     OW62700   7.046   3.367  10.649
20420SOL    HW162701   7.070   3.461  10.675
20420SOL    HW262702   7.030   3.313  10.731
20421SOL     OW62703   6.024   2.254  10.809
20421SOL    HW162704   6.106   2.198  10.818
20421SOL    HW262705   5.943   2.196  10.813
20422SOL     OW62706   7.189   2.309  10.047
20422SOL    HW162707   7.115   2.355   9.997
20422SOL    HW262708   7.240   2.377  10.100
20423SOL     OW62709   5.817   3.575   9.793
20423SOL    HW162710   5.851   3.652   9.847
20423SOL    HW262711   5.861   3.575   9.703
20424SOL     OW62712   6.713   3.203  11.000
20424SOL    HW162713   6.760   3.203  11.088
20424SOL    HW262714   6.665   3.116  10.989
20425SOL     OW62715   5.816   3.296   9.848
20425SOL    HW162716   5.790   3.392   9.848
20425SOL    HW262717   5.745   3.242   9.893
20426SOL     OW62718   5.826   2.953  10.196
20426SOL    HW162719   5.840   2.869  10.248
20426SOL    HW262720   5.771   3.017  10.251
20427SOL     OW62721   6.206   3.648  10.749
20427SOL    HW162722   6.114   3.631  10.784
20427SOL    HW262723   6.234   3.740  10.775
20428SOL     OW62724   6.192   2.826   9.433
20428SOL    HW162725   6.199   2.910   9.379
20428SOL    HW262726   6.238   2.839   9.521
20429SOL     OW62727   7.180   1.976  10.790
20429SOL    HW162728   7.162   2.043  10.718
20429SOL    HW262729   7.177   2.022  10.879
20430SOL     OW62730   5.708   2.505   9.873
20430SOL    HW162731   5.663   2.417   9.890
20430SOL    HW262732   5.707   2.559   9.957
20431SOL     OW62733   7.428   3.629   9.669
20431SOL    HW162734   7.482   3.600   9.749
20431SOL    HW262735   7.458   3.719   9.640
20432SOL     OW62736   5.613   3.458   9.427
20432SOL    HW162737   5.594   3.362   9.448
20432SOL    HW262738   5.580   3.516   9.502
20433SOL     OW62739   7.275   2.784   9.922
20433SOL    HW162740   7.370   2.755   9.930
20433SOL    HW262741   7.267   2.849   9.847
20434SOL     OW62742   7.227   2.970   9.742
20434SOL    HW162743   7.313   2.972   9.690
20434SOL    HW262744   7.241   3.017   9.830
20435SOL     OW62745   5.699   2.599  10.907
20435SOL    HW162746   5.787   2.586  10.952
20435SOL    HW262747   5.686   2.696  10.885
20436SOL     OW62748   6.199   3.227  10.036
20436SOL    HW162749   6.150   3.140  10.045
20436SOL    HW262750   6.176   3.270   9.949
20437SOL     OW62751   6.879   3.090  10.733
20437SOL    HW162752   6.916   3.017  10.675
20437SOL    HW262753   6.931   3.095  10.818
20438SOL     OW62754   6.395   1.866   9.812
20438SOL    HW162755   6.435   1.957   9.803
20438SOL    HW262756   6.295   1.874   9.818
20439SOL     OW62757   5.783   2.838  10.574
20439SOL    HW162758   5.872   2.793  10.560
20439SOL    HW262759   5.710   2.773  10.555
20440SOL     OW62760   7.111   2.861   9.500
20440SOL    HW162761   7.048   2.785   9.513
20440SOL    HW262762   7.159   2.879   9.586
20441SOL     OW62763   6.773   3.654  10.926
20441SOL    HW162764   6.797   3.714  10.850
20441SOL    HW262765   6.780   3.559  10.896
20442SOL     OW62766   5.903   2.113  11.111
20442SOL    HW162767   5.974   2.184  11.117
20442SOL    HW262768   5.815   2.152  11.139
20443SOL     OW62769   7.052   3.279  10.263
20443SOL    HW162770   6.993   3.285  10.343
20443SOL    HW262771   7.037   3.191  10.217
20444SOL     OW62772   7.253   3.576   9.882
20444SOL    HW162773   7.212   3.553   9.794
20444SOL    HW262774   7.235   3.502   9.947
20445SOL     OW62775   6.184   2.591   9.580
20445SOL    HW162776   6.208   2.660   9.512
20445SOL    HW262777   6.106   2.624   9.634
20446SOL     OW62778   6.867   2.207  10.254
20446SOL    HW162779   6.781   2.157  10.241
20446SOL    HW262780   6.929   2.153  10.310
20447SOL     OW62781   7.162   3.524   9.617
20447SOL    HW162782   7.251   3.570   9.620
20447SOL    HW262783   7.141   3.500   9.522
20448SOL     OW62784   6.393   2.467  10.775
20448SOL    HW162785   6.346   2.464  10.864
20448SOL    HW262786   6.342   2.412  10.709
20449SOL     OW62787   6.980   2.331  10.984
20449SOL    HW162788   6.960   2.374  11.072
20449SOL    HW262789   7.058   2.269  10.993
20450SOL     OW62790   6.559   2.752  10.882
20450SOL    HW162791   6.605   2.668  10.853
20450SOL    HW262792   6.503   2.786  10.807
20451SOL     OW62793   6.577   2.272  10.552
20451SOL    HW162794   6.500   2.306  10.606
20451SOL    HW262795   6.543   2.221  10.473
20452SOL     OW62796   6.627   2.563   9.739
20452SOL    HW162797   6.653   2.559   9.835
20452SOL    HW262798   6.542   2.512   9.725
20453SOL     OW62799   5.662   2.673  10.099
20453SOL    HW162800   5.761   2.661  10.108
20453SOL    HW262801   5.638   2.768  10.120
20454SOL     OW62802   5.716   3.683  10.881
20454SOL    HW162803   5.706   3.668  10.980
20454SOL    HW262804   5.630   3.719  10.845
20455SOL     OW62805   6.451   2.210   9.505
20455SOL    HW162806   6.510   2.273   9.456
20455SOL    HW262807   6.470   2.116   9.476
20456SOL     OW62808   7.305   2.447  11.141
20456SOL    HW162809   7.279   2.536  11.105
20456SOL    HW262810   7.303   2.379  11.068
20457SOL     OW62811   6.948   3.006   9.855
20457SOL    HW162812   7.031   2.977   9.807
20457SOL    HW262813   6.899   3.073   9.799
20458SOL     OW62814   6.136   2.058  10.195
20458SOL    HW162815   6.131   2.053  10.295
20458SOL    HW262816   6.138   2.154  10.166
20459SOL     OW62817   6.594   3.318   9.787
20459SOL    HW162818   6.548   3.390   9.735
20459SOL    HW262819   6.590   3.338   9.885
20460SOL     OW62820   5.937   3.663  10.163
20460SOL    HW162821   5.987   3.577  10.169
20460SOL    HW262822   6.002   3.740  10.160
20461SOL     OW62823   7.381   2.928  10.183
20461SOL    HW162824   7.319   2.913  10.107
20461SOL    HW262825   7.329   2.939  10.268
20462SOL     OW62826   6.813   3.412  10.816
20462SOL    HW162827   6.819   3.335  10.880
20462SOL    HW262828   6.761   3.386  10.736
20463SOL     OW62829   5.907   2.805   9.552
20463SOL    HW162830   5.989   2.844   9.510
20463SOL    HW262831   5.880   2.723   9.503
20464SOL     OW62832   7.044   2.597  10.038
20464SOL    HW162833   7.039   2.532  10.113
20464SOL    HW262834   7.124   2.656  10.051
20465SOL     OW62835   6.047   3.128  11.037
20465SOL    HW162836   5.997   3.129  10.951
20465SOL    HW262837   5.984   3.110  11.113
20466SOL     OW62838   6.697   3.638   9.547
20466SOL    HW162839   6.637   3.576   9.597
20466SOL    HW262840   6.728   3.594   9.462
20467SOL     OW62841   5.788   2.147  10.808
20467SOL    HW162842   5.708   2.207  10.795
20467SOL    HW262843   5.778   2.098  10.894
20468SOL     OW62844   7.218   3.239   9.391
20468SOL    HW162845   7.186   3.333   9.381
20468SOL    HW262846   7.142   3.176   9.379
20469SOL     OW62847   6.050   3.605   9.633
20469SOL    HW162848   6.083   3.644   9.719
20469SOL    HW262849   6.126   3.598   9.568
20470SOL     OW62850   6.986   1.969   9.736
20470SOL    HW162851   6.962   1.932   9.646
20470SOL    HW262852   7.085   1.985   9.740
20471SOL     OW62853   5.835   3.647  10.551
20471SOL    HW162854   5.892   3.582  10.601
20471SOL    HW262855   5.819   3.614  10.458
20472SOL     OW62856   6.526   3.560  10.214
20472SOL    HW162857   6.606   3.503  10.235
20472SOL    HW262858   6.477   3.520  10.137
20473SOL     OW62859   5.968   2.562   9.790
20473SOL    HW162860   6.013   2.472   9.787
20473SOL    HW262861   5.874   2.551   9.823
20474SOL     OW62862   7.133   2.084  11.039
20474SOL    HW162863   7.128   2.121  11.131
20474SOL    HW262864   7.061   2.015  11.027
20475SOL     OW62865   6.200   1.984   9.427
20475SOL    HW162866   6.298   1.962   9.434
20475SOL    HW262867   6.169   1.967   9.334
20476SOL     OW62868   6.367   2.126  11.059
20476SOL    HW162869   6.434   2.065  11.102
20476SOL    HW262870   6.294   2.145  11.124
20477SOL     OW62871   6.474   3.376  10.505
20477SOL    HW162872   6.451   3.351  10.411
20477SOL    HW262873   6.535   3.307  10.544
20478SOL     OW62874   6.937   2.452  10.743
20478SOL    HW162875   6.965   2.409  10.828
20478SOL    HW262876   6.962   2.548  10.744
20479SOL     OW62877   6.389   3.264  10.234
20479SOL    HW162878   6.479   3.278  10.192
20479SOL    HW262879   6.318   3.266  10.163
20480SOL     OW62880   6.508   2.365  10.209
20480SOL    HW162881   6.483   2.356  10.113
20480SOL    HW262882   6.556   2.283  10.240
20481SOL     OW62883   6.125   1.926   9.822
20481SOL    HW162884   6.044   1.927   9.880
20481SOL    HW262885   6.128   2.009   9.767
20482SOL     OW62886   7.020   3.050   9.351
20482SOL    HW162887   7.052   2.974   9.408
20482SOL    HW262888   6.928   3.077   9.381
20483SOL     OW62889   5.883   1.897   9.481
20483SOL    HW162890   5.932   1.981   9.460
20483SOL    HW262891   5.945   1.832   9.526
20484SOL     OW62892   6.521   2.098   9.790
20484SOL    HW162893   6.473   2.139   9.712
20484SOL    HW262894   6.620   2.096   9.771
20485SOL     OW62895   6.662   2.545  10.774
20485SOL    HW162896   6.582   2.484  10.777
20485SOL    HW262897   6.743   2.492  10.750
20486SOL     OW62898   6.813   3.432  10.103
20486SOL    HW162899   6.834   3.506  10.038
20486SOL    HW262900   6.881   3.432  10.176
20487SOL     OW62901   6.045   3.014  10.051
20487SOL    HW162902   5.974   2.987  10.116
20487SOL    HW262903   6.019   2.986   9.958
20488SOL     OW62904   6.857   3.659   9.901
20488SOL    HW162905   6.901   3.723   9.837
20488SOL    HW262906   6.807   3.711   9.971
20489SOL     OW62907   6.618   2.411   9.326
20489SOL    HW162908   6.577   2.493   9.287
20489SOL    HW262909   6.682   2.437   9.399
20490SOL     OW62910   5.664   2.418  10.696
20490SOL    HW162911   5.756   2.417  10.655
20490SOL    HW262912   5.658   2.492  10.763
20491SOL     OW62913   6.147   2.084  10.457
20491SOL    HW162914   6.185   2.000  10.494
20491SOL    HW262915   6.059   2.103  10.501
20492SOL     OW62916   6.452   2.316   9.952
20492SOL    HW162917   6.420   2.388   9.890
20492SOL    HW262918   6.476   2.235   9.899
20493SOL     OW62919   6.603   1.901  10.063
20493SOL    HW162920   6.531   1.906   9.994
20493SOL    HW262921   6.579   1.832  10.132
20494SOL     OW62922   7.015   3.035  10.177
20494SOL    HW162923   6.960   2.951  10.170
20494SOL    HW262924   7.041   3.064  10.085
20495SOL     OW62925   7.052   2.452  10.302
20495SOL    HW162926   7.022   2.357  10.309
20495SOL    HW262927   7.125   2.468  10.368
20496SOL     OW62928   7.443   2.695   9.687
20496SOL    HW162929   7.485   2.631   9.751
20496SOL    HW262930   7.405   2.644   9.609
20497SOL     OW62931   6.074   3.247   9.484
20497SOL    HW162932   5.987   3.232   9.531
20497SOL    HW262933   6.057   3.273   9.389
20498SOL     OW62934   7.250   3.142   9.967
20498SOL    HW162935   7.349   3.150   9.981
20498SOL    HW262936   7.205   3.226   9.998
20499SOL     OW62937   6.976   2.437   9.388
20499SOL    HW162938   6.922   2.416   9.469
20499SOL    HW262939   7.067   2.396   9.397
20500SOL     OW62940   6.113   2.118   9.638
20500SOL    HW162941   6.140   2.059   9.563
20500SOL    HW262942   6.113   2.213   9.607
20501SOL     OW62943   7.340   3.085  10.898
20501SOL    HW162944   7.431   3.046  10.885
20501SOL    HW262945   7.348   3.181  10.922
20502SOL     OW62946   6.650   3.209  10.650
20502SOL    HW162947   6.570   3.186  10.705
20502SOL    HW262948   6.733   3.183  10.699
20503SOL     OW62949   7.178   3.491  10.935
20503SOL    HW162950   7.205   3.525  10.845
20503SOL    HW262951   7.257   3.453  10.981
20504SOL     OW62952   6.697   3.057  10.410
20504SOL    HW162953   6.657   3.101  10.491
20504SOL    HW262954   6.656   3.094  10.327
20505SOL     OW62955   7.224   2.961  10.389
20505SOL    HW162956   7.229   3.042  10.448
20505SOL    HW262957   7.138   2.963  10.338
20506SOL     OW62958   6.501   1.951  10.712
20506SOL    HW162959   6.526   1.931  10.617
20506SOL    HW262960   6.573   2.007  10.754
20507SOL     OW62961   6.566   2.978  11.029
20507SOL    HW162962   6.467   2.984  11.039
20507SOL    HW262963   6.589   2.898  10.973
20508SOL     OW62964   6.291   2.912   9.678
20508SOL    HW162965   6.277   2.919   9.777
20508SOL    HW262966   6.375   2.861   9.660
20509SOL     OW62967   5.996   2.675  10.561
20509SOL    HW162968   6.082   2.687  10.611
20509SOL    HW262969   5.954   2.588  10.588
20510SOL     OW62970   6.860   2.248  10.572
20510SOL    HW162971   6.881   2.322  10.636
20510SOL    HW262972   6.771   2.265  10.529
20511SOL     OW62973   5.650   3.426  10.641
20511SOL    HW162974   5.604   3.508  10.607
20511SOL    HW262975   5.748   3.445  10.650
20512SOL     OW62976   5.953   2.962   9.811
20512SOL    HW162977   5.946   3.045   9.755
20512SOL    HW262978   5.957   2.882   9.751
20513SOL     OW62979   6.152   2.399  10.175
20513SOL    HW162980   6.164   2.465  10.101
20513SOL    HW262981   6.198   2.433  10.258
20514SOL     OW62982   6.838   3.210   9.698
20514SOL    HW162983   6.888   3.287   9.738
20514SOL    HW262984   6.743   3.212   9.730
20515SOL     OW62985   6.858   3.307  10.452
20515SOL    HW162986   6.905   3.320  10.539
20515SOL    HW262987   6.792   3.233  10.461
20516SOL     OW62988   7.168   2.501   9.782
20516SOL    HW162989   7.137   2.562   9.855
20516SOL    HW262990   7.218   2.553   9.713
20517SOL     OW62991   5.940   3.372  10.639
20517SOL    HW162992   5.919   3.328  10.552
20517SOL    HW262993   6.037   3.398  10.642
20518SOL     OW62994   5.988   2.613  10.908
20518SOL    HW162995   6.056   2.668  10.861
20518SOL    HW262996   6.028   2.525  10.935
20519SOL     OW62997   7.173   2.641  10.980
20519SOL    HW162998   7.081   2.679  10.975
20519SOL    HW262999   7.233   2.688  10.915
20520SOL     OW63000   6.599   1.967  11.080
20520SOL    HW163001   6.605   2.052  11.028
20520SOL    HW263002   6.631   1.891  11.023
20521SOL     OW63003   6.090   1.912  11.050
20521SOL    HW163004   6.048   1.855  10.980
20521SOL    HW263005   6.024   1.981  11.082
20522SOL     OW63006   6.159   2.732  10.339
20522SOL    HW163007   6.203   2.821  10.330
20522SOL    HW263008   6.096   2.732  10.416
20523SOL     OW63009   6.946   2.724  10.355
20523SOL    HW163010   6.871   2.724  10.289
20523SOL    HW263011   6.983   2.632  10.364
20524SOL     OW63012   6.795   2.387   9.585
20524SOL    HW163013   6.808   2.303   9.639
20524SOL    HW263014   6.766   2.461   9.645
20525SOL     OW63015   5.893   2.075  10.541
20525SOL    HW163016   5.870   2.112  10.631
20525SOL    HW263017   5.863   1.980  10.535
20526SOL     OW63018   5.623   3.172  10.592
20526SOL    HW163019   5.676   3.123  10.660
20526SOL    HW263020   5.645   3.270  10.597
20527SOL     OW63021   6.318   2.496  10.374
20527SOL    HW163022   6.377   2.470  10.298
20527SOL    HW263023   6.290   2.592  10.363
20528SOL     OW63024   7.314   2.797  11.164
20528SOL    HW163025   7.268   2.790  11.075
20528SOL    HW263026   7.252   2.841  11.230
20529SOL     OW63027   5.893   1.925   9.928
20529SOL    HW163028   5.882   2.019   9.961
20529SOL    HW263029   5.888   1.862  10.005
20530SOL     OW63030   7.208   2.229   9.684
20530SOL    HW163031   7.210   2.153   9.748
20530SOL    HW263032   7.160   2.306   9.724
20531SOL     OW63033   6.609   2.628  10.276
20531SOL    HW163034   6.624   2.649  10.372
20531SOL    HW263035   6.579   2.533  10.267
20532SOL     OW63036   6.566   3.435  11.010
20532SOL    HW163037   6.546   3.479  10.922
20532SOL    HW263038   6.605   3.344  10.994
20533SOL     OW63039   7.445   3.380  10.915
20533SOL    HW163040   7.459   3.407  10.820
20533SOL    HW263041   7.528   3.402  10.968
20534SOL     OW63042   5.936   2.760  11.114
20534SOL    HW163043   6.012   2.804  11.162
20534SOL    HW263044   5.971   2.713  11.032
20535SOL     OW63045   7.126   2.136   9.435
20535SOL    HW163046   7.065   2.061   9.458
20535SOL    HW263047   7.148   2.188   9.518
20536SOL     OW63048   6.889   2.700   9.352
20536SOL    HW163049   6.923   2.607   9.367
20536SOL    HW263050   6.907   2.727   9.257
20537SOL     OW63051   6.654   3.195  10.159
20537SOL    HW163052   6.661   3.111  10.104
20537SOL    HW263053   6.716   3.264  10.123
20538SOL     OW63054   5.905   2.672  10.259
20538SOL    HW163055   5.998   2.708  10.264
20538SOL    HW263056   5.899   2.587  10.311
20539SOL     OW63057   5.925   2.371  10.316
20539SOL    HW163058   5.873   2.288  10.299
20539SOL    HW263059   6.002   2.376  10.252
20540SOL     OW63060   6.724   2.242  10.988
20540SOL    HW163061   6.679   2.305  11.052
20540SOL    HW263062   6.817   2.273  10.971
20541SOL     OW63063   6.746   2.069  10.787
20541SOL    HW163064   6.746   2.133  10.864
20541SOL    HW263065   6.774   2.117  10.704
20542SOL     OW63066   5.594   3.188   9.510
20542SOL    HW163067   5.501   3.209   9.479
20542SOL    HW263068   5.604   3.089   9.523
20543SOL     OW63069   5.674   3.663  10.237
20543SOL    HW163070   5.632   3.577  10.210
20543SOL    HW263071   5.768   3.666  10.203
20544SOL     OW63072   6.090   3.430  10.220
20544SOL    HW163073   6.156   3.504  10.229
20544SOL    HW263074   6.134   3.351  10.178
20545SOL     OW63075   6.588   2.658  10.548
20545SOL    HW163076   6.629   2.626  10.634
20545SOL    HW263077   6.492   2.631  10.545
20546SOL     OW63078   5.626   2.406  10.424
20546SOL    HW163079   5.711   2.373  10.383
20546SOL    HW263080   5.639   2.421  10.522
20547SOL     OW63081   5.775   2.382  11.032
20547SOL    HW163082   5.834   2.342  10.962
20547SOL    HW263083   5.717   2.453  10.991
20548SOL     OW63084   6.955   2.812  10.970
20548SOL    HW163085   6.994   2.901  10.990
20548SOL    HW263086   6.965   2.792  10.873
20549SOL     OW63087   6.401   2.434   9.635
20549SOL    HW163088   6.408   2.345   9.589
20549SOL    HW263089   6.307   2.468   9.627
20550SOL     OW63090   7.243   2.466  10.516
20550SOL    HW163091   7.205   2.397  10.578
20550SOL    HW263092   7.325   2.430  10.472
20551SOL     OW63093   5.838   3.426  11.054
20551SOL    HW163094   5.808   3.483  11.130
20551SOL    HW263095   5.831   3.329  11.080
20552SOL     OW63096   6.257   2.326  10.579
20552SOL    HW163097   6.223   2.237  10.549
20552SOL    HW263098   6.283   2.380  10.499
20553SOL     OW63099   6.516   3.540  10.775
20553SOL    HW163100   6.492   3.522  10.680
20553SOL    HW263101   6.546   3.634  10.785
20554SOL     OW63102   6.059   2.362   9.501
20554SOL    HW163103   6.120   2.442   9.505
20554SOL    HW263104   5.964   2.393   9.508
20555SOL     OW63105   5.745   2.999  10.776
20555SOL    HW163106   5.767   2.938  10.852
20555SOL    HW263107   5.755   2.950  10.690
20556SOL     OW63108   6.933   2.921  10.544
20556SOL    HW163109   6.957   2.858  10.470
20556SOL    HW263110   6.843   2.961  10.526
20557SOL     OW63111   6.888   2.717   9.619
20557SOL    HW163112   6.802   2.686   9.661
20557SOL    HW263113   6.884   2.703   9.520
20558SOL     OW63114   7.345   3.609  10.464
20558SOL    HW163115   7.406   3.639  10.391
20558SOL    HW263116   7.307   3.520  10.442
20559SOL     OW63117   6.838   3.593  10.438
20559SOL    HW163118   6.922   3.598  10.384
20559SOL    HW263119   6.815   3.497  10.456
20560SOL     OW63120   5.669   3.120  10.332
20560SOL    HW163121   5.664   3.119  10.432
20560SOL    HW263122   5.586   3.079  10.294
20561SOL     OW63123   6.274   3.524  11.026
20561SOL    HW163124   6.218   3.605  11.035
20561SOL    HW263125   6.326   3.528  10.940
20562SOL     OW63126   7.312   1.997   9.833
20562SOL    HW163127   7.385   1.980   9.766
20562SOL    HW263128   7.281   1.910   9.871
20563SOL     OW63129   6.974   3.435   9.787
20563SOL    HW163130   7.041   3.447   9.713
20563SOL    HW263131   6.934   3.524   9.810
20564SOL     OW63132   5.716   3.656  11.161
20564SOL    HW163133   5.675   3.582  11.214
20564SOL    HW263134   5.780   3.707  11.219
20565SOL     OW63135   6.866   2.789   9.982
20565SOL    HW163136   6.926   2.708   9.984
20565SOL    HW263137   6.906   2.858   9.922
20566SOL     OW63138   6.416   3.135  10.732
20566SOL    HW163139   6.411   3.168  10.827
20566SOL    HW263140   6.330   3.154  10.686
20567SOL     OW63141   6.258   3.478   9.464
20567SOL    HW163142   6.267   3.488   9.365
20567SOL    HW263143   6.218   3.389   9.485
20568SOL     OW63144   7.236   3.582  10.704
20568SOL    HW163145   7.289   3.592  10.620
20568SOL    HW263146   7.209   3.672  10.738
20569SOL     OW63147   7.427   2.037  10.273
20569SOL    HW163148   7.466   1.952  10.237
20569SOL    HW263149   7.329   2.039  10.254
20570SOL     OW63150   5.849   2.188  10.030
20570SOL    HW163151   5.770   2.239   9.996
20570SOL    HW263152   5.840   2.173  10.128
20571SOL     OW63153   6.780   3.474   9.341
20571SOL    HW163154   6.786   3.381   9.378
20571SOL    HW263155   6.721   3.474   9.261
20572SOL     OW63156   6.408   2.864  10.682
20572SOL    HW163157   6.448   2.863  10.590
20572SOL    HW263158   6.418   2.956  10.722
20573SOL     OW63159   6.502   2.772   9.601
20573SOL    HW163160   6.565   2.810   9.533
20573SOL    HW263161   6.542   2.689   9.640
20574SOL     OW63162   7.090   3.469   9.354
20574SOL    HW163163   6.998   3.506   9.361
20574SOL    HW263164   7.128   3.489   9.264
20575SOL     OW63165   5.958   3.150  10.800
20575SOL    HW163166   5.945   3.243  10.766
20575SOL    HW263167   5.874   3.098  10.787
20576SOL     OW63168   7.200   3.154  10.599
20576SOL    HW163169   7.260   3.157  10.679
20576SOL    HW263170   7.125   3.218  10.612
20577SOL     OW63171   6.625   2.960  10.006
20577SOL    HW163172   6.555   2.913  10.060
20577SOL    HW263173   6.684   2.892   9.963
20578SOL     OW63174   6.600   2.098  10.281
20578SOL    HW163175   6.592   2.062  10.188
20578SOL    HW263176   6.598   2.022  10.346
20579SOL     OW63177   6.176   3.349   9.801
20579SOL    HW163178   6.218   3.291   9.731
20579SOL    HW263179   6.132   3.428   9.757
20580SOL     OW63180   7.295   2.247  10.691
20580SOL    HW163181   7.368   2.316  10.695
20580SOL    HW263182   7.323   2.172  10.632
20581SOL     OW63183   5.841   3.210   9.600
20581SOL    HW163184   5.745   3.211   9.573
20581SOL    HW263185   5.853   3.263   9.684
20582SOL     OW63186   5.691   2.875  11.036
20582SOL    HW163187   5.614   2.842  11.090
20582SOL    HW263188   5.776   2.845  11.078
20583SOL     OW63189   6.258   2.065  10.799
20583SOL    HW163190   6.348   2.049  10.759
20583SOL    HW263191   6.266   2.070  10.898
20584SOL     OW63192   5.661   2.207   9.343
20584SOL    HW163193   5.569   2.179   9.314
20584SOL    HW263194   5.692   2.284   9.287
20585SOL     OW63195   7.026   2.718  10.708
20585SOL    HW163196   6.969   2.770  10.645
20585SOL    HW263197   7.122   2.730  10.684
20586SOL     OW63198   5.658   2.028   9.628
20586SOL    HW163199   5.641   2.111   9.574
20586SOL    HW263200   5.748   1.991   9.606
20587SOL     OW63201   6.769   3.197   9.429
20587SOL    HW163202   6.670   3.186   9.431
20587SOL    HW263203   6.803   3.212   9.522
20588SOL     OW63204   6.199   2.704  10.741
20588SOL    HW163205   6.255   2.785  10.724
20588SOL    HW263206   6.258   2.624  10.744
20589SOL     OW63207   7.079   3.629  10.269
20589SOL    HW163208   7.112   3.693  10.200
20589SOL    HW263209   7.145   3.623  10.344
20590SOL     OW63210   6.302   2.427  11.018
20590SOL    HW163211   6.321   2.492  11.092
20590SOL    HW263212   6.362   2.347  11.027
20591SOL     OW63213   7.036   3.082  10.943
20591SOL    HW163214   7.027   3.072  11.042
20591SOL    HW263215   7.132   3.075  10.917
20592SOL     OW63216   5.976   3.603  10.870
20592SOL    HW163217   5.885   3.644  10.868
20592SOL    HW263218   5.969   3.509  10.902
20593SOL     OW63219   7.260   2.745  10.564
20593SOL    HW163220   7.233   2.656  10.527
20593SOL    HW263221   7.261   2.813  10.491
20594SOL     OW63222   6.811   2.187   9.759
20594SOL    HW163223   6.876   2.113   9.748
20594SOL    HW263224   6.831   2.237   9.843
20595SOL     OW63225   6.180   2.607   9.962
20595SOL    HW163226   6.230   2.692   9.943
20595SOL    HW263227   6.092   2.609   9.914
20596SOL     OW63228   7.363   2.204  10.952
20596SOL    HW163229   7.346   2.235  10.858
20596SOL    HW263230   7.279   2.167  10.990
20597SOL     OW63231   7.316   2.796  10.827
20597SOL    HW163232   7.354   2.887  10.842
20597SOL    HW263233   7.308   2.779  10.728
20598SOL     OW63234   6.445   3.236   9.326
20598SOL    HW163235   6.399   3.251   9.414
20598SOL    HW263236   6.489   3.321   9.296
20599SOL     OW63237   6.247   3.652  10.263
20599SOL    HW163238   6.201   3.740  10.250
20599SOL    HW263239   6.346   3.664  10.256
20600SOL     OW63240   6.445   2.818  10.171
20600SOL    HW163241   6.499   2.749  10.219
20600SOL    HW263242   6.413   2.887  10.237
20601SOL     OW63243   6.669   2.846   9.397
20601SOL    HW163244   6.646   2.899   9.315
20601SOL    HW263245   6.750   2.790   9.378
20602SOL     OW63246   7.447   3.431  10.161
20602SOL    HW163247   7.376   3.419  10.091
20602SOL    HW263248   7.448   3.352  10.221
20603SOL     OW63249   5.807   3.176  11.154
20603SOL    HW163250   5.742   3.103  11.133
20603SOL    HW263251   5.811   3.190  11.252
20604SOL     OW63252   5.665   3.102   9.963
20604SOL    HW163253   5.664   3.055  10.051
20604SOL    HW263254   5.747   3.074   9.912
20605SOL     OW63255   6.258   3.253  10.934
20605SOL    HW163256   6.180   3.203  10.972
20605SOL    HW263257   6.255   3.348  10.965
20606SOL     OW63258   7.410   2.054  10.537
20606SOL    HW163259   7.406   1.964  10.581
20606SOL    HW263260   7.413   2.043  10.438
20607SOL     OW63261   6.014   2.286   9.830
20607SOL    HW163262   6.044   2.214   9.768
20607SOL    HW263263   5.975   2.246   9.913
20608SOL     OW63264   7.291   3.349  10.414
20608SOL    HW163265   7.198   3.324  10.387
20608SOL    HW263266   7.317   3.299  10.496
20609SOL     OW63267   5.903   2.409  10.590
20609SOL    HW163268   5.941   2.350  10.662
20609SOL    HW263269   5.943   2.383  10.502
20610SOL     OW63270   6.398   3.448   9.997
20610SOL    HW163271   6.430   3.458   9.903
20610SOL    HW263272   6.319   3.386   9.999
20611SOL     OW63273   7.010   2.076  10.422
20611SOL    HW163274   7.062   2.011  10.477
20611SOL    HW263275   6.961   2.139  10.483
20612SOL     OW63276   6.587   1.896  10.464
20612SOL    HW163277   6.524   1.824  10.433
20612SOL    HW263278   6.680   1.860  10.464
20613SOL     OW63279   6.356   3.192   9.611
20613SOL    HW163280   6.310   3.105   9.628
20613SOL    HW263281   6.447   3.189   9.652
20614SOL     OW63282   6.204   3.429  10.594
20614SOL    HW163283   6.199   3.511  10.651
20614SOL    HW263284   6.293   3.426  10.549
20615SOL     OW63285   6.938   1.914   9.478
20615SOL    HW163286   6.973   1.873   9.394
20615SOL    HW263287   6.848   1.876   9.498
20616SOL     OW63288   6.886   2.315  10.001
20616SOL    HW163289   6.827   2.395  10.005
20616SOL    HW263290   6.901   2.280  10.094
20617SOL     OW63291   7.179   2.083  10.192
20617SOL    HW163292   7.095   2.082  10.246
20617SOL    HW263293   7.181   2.166  10.136
20618SOL     OW63294   5.625   2.939   9.610
20618SOL    HW163295   5.724   2.928   9.601
20618SOL    HW263296   5.585   2.853   9.642
20619SOL     OW63297   6.461   3.508   9.647
20619SOL    HW163298   6.384   3.473   9.593
20619SOL    HW263299   6.429   3.579   9.709
20620SOL     OW63300   5.816   2.490  11.285
20620SOL    HW163301   5.723   2.488  11.322
20620SOL    HW263302   5.817   2.451  11.193
20621SOL     OW63303   5.811   2.137  12.168
20621SOL    HW163304   5.846   2.120  12.260
20621SOL    HW263305   5.723   2.092  12.156
20622SOL     OW63306   5.605   2.230  11.819
20622SOL    HW163307   5.523   2.273  11.858
20622SOL    HW263308   5.577   2.157  11.756
20623SOL     OW63309   6.155   3.137  12.337
20623SOL    HW163310   6.062   3.130  12.300
20623SOL    HW263311   6.166   3.226  12.381
20624SOL     OW63312   7.141   3.373  11.875
20624SOL    HW163313   7.084   3.357  11.956
20624SOL    HW263314   7.082   3.383  11.795
20625SOL     OW63315   6.721   2.565  11.889
20625SOL    HW163316   6.778   2.643  11.864
20625SOL    HW263317   6.661   2.591  11.965
20626SOL     OW63318   7.341   2.469  11.403
20626SOL    HW163319   7.329   2.456  11.304
20626SOL    HW263320   7.311   2.388  11.452
20627SOL     OW63321   6.354   3.006  12.195
20627SOL    HW163322   6.276   3.023  12.255
20627SOL    HW263323   6.388   3.093  12.159
20628SOL     OW63324   6.271   2.874  11.837
20628SOL    HW163325   6.340   2.858  11.907
20628SOL    HW263326   6.198   2.931  11.875
20629SOL     OW63327   5.921   3.297  12.233
20629SOL    HW163328   5.843   3.266  12.180
20629SOL    HW263329   5.979   3.355  12.176
20630SOL     OW63330   7.189   2.309  11.909
20630SOL    HW163331   7.115   2.355  11.859
20630SOL    HW263332   7.240   2.377  11.962
20631SOL     OW63333   5.817   3.575  11.655
20631SOL    HW163334   5.851   3.652  11.709
20631SOL    HW263335   5.861   3.575  11.565
20632SOL     OW63336   5.816   3.296  11.710
20632SOL    HW163337   5.790   3.392  11.710
20632SOL    HW263338   5.745   3.242  11.755
20633SOL     OW63339   5.826   2.953  12.058
20633SOL    HW163340   5.840   2.869  12.110
20633SOL    HW263341   5.771   3.017  12.113
20634SOL     OW63342   6.192   2.826  11.295
20634SOL    HW163343   6.199   2.910  11.241
20634SOL    HW263344   6.238   2.839  11.383
20635SOL     OW63345   5.708   2.505  11.735
20635SOL    HW163346   5.663   2.417  11.752
20635SOL    HW263347   5.707   2.559  11.819
20636SOL     OW63348   7.428   3.629  11.531
20636SOL    HW163349   7.482   3.600  11.611
20636SOL    HW263350   7.458   3.719  11.502
20637SOL     OW63351   5.613   3.458  11.289
20637SOL    HW163352   5.594   3.362  11.310
20637SOL    HW263353   5.580   3.516  11.364
20638SOL     OW63354   7.275   2.784  11.784
20638SOL    HW163355   7.370   2.755  11.792
20638SOL    HW263356   7.267   2.849  11.709
20639SOL     OW63357   7.227   2.970  11.604
20639SOL    HW163358   7.313   2.972  11.552
20639SOL    HW263359   7.241   3.017  11.692
20640SOL     OW63360   5.699   2.599  12.769
20640SOL    HW163361   5.787   2.586  12.814
20640SOL    HW263362   5.686   2.696  12.747
20641SOL     OW63363   6.199   3.227  11.898
20641SOL    HW163364   6.150   3.140  11.907
20641SOL    HW263365   6.176   3.270  11.811
20642SOL     OW63366   6.395   1.866  11.674
20642SOL    HW163367   6.435   1.957  11.665
20642SOL    HW263368   6.295   1.874  11.680
20643SOL     OW63369   5.783   2.838  12.436
20643SOL    HW163370   5.872   2.793  12.422
20643SOL    HW263371   5.710   2.773  12.417
20644SOL     OW63372   7.111   2.861  11.362
20644SOL    HW163373   7.048   2.785  11.375
20644SOL    HW263374   7.159   2.879  11.448
20645SOL     OW63375   7.052   3.279  12.125
20645SOL    HW163376   6.993   3.285  12.205
20645SOL    HW263377   7.037   3.191  12.079
20646SOL     OW63378   7.253   3.576  11.744
20646SOL    HW163379   7.212   3.553  11.656
20646SOL    HW263380   7.235   3.502  11.809
20647SOL     OW63381   6.184   2.591  11.442
20647SOL    HW163382   6.208   2.660  11.374
20647SOL    HW263383   6.106   2.624  11.496
20648SOL     OW63384   6.867   2.207  12.116
20648SOL    HW163385   6.781   2.157  12.103
20648SOL    HW263386   6.929   2.153  12.172
20649SOL     OW63387   7.162   3.524  11.479
20649SOL    HW163388   7.251   3.570  11.482
20649SOL    HW263389   7.141   3.500  11.384
20650SOL     OW63390   6.577   2.272  12.414
20650SOL    HW163391   6.500   2.306  12.468
20650SOL    HW263392   6.543   2.221  12.335
20651SOL     OW63393   6.627   2.563  11.601
20651SOL    HW163394   6.653   2.559  11.697
20651SOL    HW263395   6.542   2.512  11.587
20652SOL     OW63396   5.662   2.673  11.961
20652SOL    HW163397   5.761   2.661  11.970
20652SOL    HW263398   5.638   2.768  11.982
20653SOL     OW63399   6.451   2.210  11.367
20653SOL    HW163400   6.510   2.273  11.318
20653SOL    HW263401   6.470   2.116  11.338
20654SOL     OW63402   6.948   3.006  11.717
20654SOL    HW163403   7.031   2.977  11.669
20654SOL    HW263404   6.899   3.073  11.661
20655SOL     OW63405   6.136   2.058  12.057
20655SOL    HW163406   6.131   2.053  12.157
20655SOL    HW263407   6.138   2.154  12.028
20656SOL     OW63408   6.594   3.318  11.649
20656SOL    HW163409   6.548   3.390  11.597
20656SOL    HW263410   6.590   3.338  11.747
20657SOL     OW63411   5.937   3.663  12.025
20657SOL    HW163412   5.987   3.577  12.031
20657SOL    HW263413   6.002   3.740  12.022
20658SOL     OW63414   7.381   2.928  12.045
20658SOL    HW163415   7.319   2.913  11.969
20658SOL    HW263416   7.329   2.939  12.130
20659SOL     OW63417   5.907   2.805  11.414
20659SOL    HW163418   5.989   2.844  11.372
20659SOL    HW263419   5.880   2.723  11.365
20660SOL     OW63420   7.044   2.597  11.900
20660SOL    HW163421   7.039   2.532  11.975
20660SOL    HW263422   7.124   2.656  11.913
20661SOL     OW63423   6.697   3.638  11.409
20661SOL    HW163424   6.637   3.576  11.459
20661SOL    HW263425   6.728   3.594  11.324
20662SOL     OW63426   7.218   3.239  11.253
20662SOL    HW163427   7.186   3.333  11.243
20662SOL    HW263428   7.142   3.176  11.241
20663SOL     OW63429   6.050   3.605  11.495
20663SOL    HW163430   6.083   3.644  11.581
20663SOL    HW263431   6.126   3.598  11.430
20664SOL     OW63432   6.986   1.969  11.598
20664SOL    HW163433   6.962   1.932  11.508
20664SOL    HW263434   7.085   1.985  11.602
20665SOL     OW63435   5.835   3.647  12.413
20665SOL    HW163436   5.892   3.582  12.463
20665SOL    HW263437   5.819   3.614  12.320
20666SOL     OW63438   6.526   3.560  12.076
20666SOL    HW163439   6.606   3.503  12.097
20666SOL    HW263440   6.477   3.520  11.999
20667SOL     OW63441   5.968   2.562  11.652
20667SOL    HW163442   6.013   2.472  11.649
20667SOL    HW263443   5.874   2.551  11.685
20668SOL     OW63444   6.200   1.984  11.289
20668SOL    HW163445   6.298   1.962  11.296
20668SOL    HW263446   6.169   1.967  11.196
20669SOL     OW63447   6.389   3.264  12.096
20669SOL    HW163448   6.479   3.278  12.054
20669SOL    HW263449   6.318   3.266  12.025
20670SOL     OW63450   6.508   2.365  12.071
20670SOL    HW163451   6.483   2.356  11.975
20670SOL    HW263452   6.556   2.283  12.102
20671SOL     OW63453   6.125   1.926  11.684
20671SOL    HW163454   6.044   1.927  11.742
20671SOL    HW263455   6.128   2.009  11.629
20672SOL     OW63456   7.020   3.050  11.213
20672SOL    HW163457   7.052   2.974  11.270
20672SOL    HW263458   6.928   3.077  11.243
20673SOL     OW63459   5.883   1.897  11.343
20673SOL    HW163460   5.932   1.981  11.322
20673SOL    HW263461   5.945   1.832  11.388
20674SOL     OW63462   6.521   2.098  11.652
20674SOL    HW163463   6.473   2.139  11.574
20674SOL    HW263464   6.620   2.096  11.633
20675SOL     OW63465   6.813   3.432  11.965
20675SOL    HW163466   6.834   3.506  11.900
20675SOL    HW263467   6.881   3.432  12.038
20676SOL     OW63468   6.045   3.014  11.913
20676SOL    HW163469   5.974   2.987  11.978
20676SOL    HW263470   6.019   2.986  11.820
20677SOL     OW63471   6.857   3.659  11.763
20677SOL    HW163472   6.901   3.723  11.699
20677SOL    HW263473   6.807   3.711  11.833
20678SOL     OW63474   6.618   2.411  11.188
20678SOL    HW163475   6.577   2.493  11.149
20678SOL    HW263476   6.682   2.437  11.261
20679SOL     OW63477   6.147   2.084  12.319
20679SOL    HW163478   6.185   2.000  12.356
20679SOL    HW263479   6.059   2.103  12.363
20680SOL     OW63480   6.452   2.316  11.814
20680SOL    HW163481   6.420   2.388  11.752
20680SOL    HW263482   6.476   2.235  11.761
20681SOL     OW63483   6.603   1.901  11.925
20681SOL    HW163484   6.531   1.906  11.856
20681SOL    HW263485   6.579   1.832  11.994
20682SOL     OW63486   7.015   3.035  12.039
20682SOL    HW163487   6.960   2.951  12.032
20682SOL    HW263488   7.041   3.064  11.947
20683SOL     OW63489   7.052   2.452  12.164
20683SOL    HW163490   7.022   2.357  12.171
20683SOL    HW263491   7.125   2.468  12.230
20684SOL     OW63492   7.443   2.695  11.549
20684SOL    HW163493   7.485   2.631  11.613
20684SOL    HW263494   7.405   2.644  11.471
20685SOL     OW63495   6.074   3.247  11.346
20685SOL    HW163496   5.987   3.232  11.393
20685SOL    HW263497   6.057   3.273  11.251
20686SOL     OW63498   7.250   3.142  11.829
20686SOL    HW163499   7.349   3.150  11.843
20686SOL    HW263500   7.205   3.226  11.860
20687SOL     OW63501   6.976   2.437  11.250
20687SOL    HW163502   6.922   2.416  11.331
20687SOL    HW263503   7.067   2.396  11.259
20688SOL     OW63504   6.113   2.118  11.500
20688SOL    HW163505   6.140   2.059  11.425
20688SOL    HW263506   6.113   2.213  11.469
20689SOL     OW63507   6.697   3.057  12.272
20689SOL    HW163508   6.657   3.101  12.353
20689SOL    HW263509   6.656   3.094  12.189
20690SOL     OW63510   7.224   2.961  12.251
20690SOL    HW163511   7.229   3.042  12.310
20690SOL    HW263512   7.138   2.963  12.200
20691SOL     OW63513   6.291   2.912  11.540
20691SOL    HW163514   6.277   2.919  11.639
20691SOL    HW263515   6.375   2.861  11.522
20692SOL     OW63516   5.996   2.675  12.423
20692SOL    HW163517   6.082   2.687  12.473
20692SOL    HW263518   5.954   2.588  12.450
20693SOL     OW63519   6.860   2.248  12.434
20693SOL    HW163520   6.881   2.322  12.498
20693SOL    HW263521   6.771   2.265  12.391
20694SOL     OW63522   5.953   2.962  11.673
20694SOL    HW163523   5.946   3.045  11.617
20694SOL    HW263524   5.957   2.882  11.613
20695SOL     OW63525   6.152   2.399  12.037
20695SOL    HW163526   6.164   2.465  11.963
20695SOL    HW263527   6.198   2.433  12.120
20696SOL     OW63528   6.838   3.210  11.560
20696SOL    HW163529   6.888   3.287  11.600
20696SOL    HW263530   6.743   3.212  11.592
20697SOL     OW63531   6.858   3.307  12.314
20697SOL    HW163532   6.905   3.320  12.401
20697SOL    HW263533   6.792   3.233  12.323
20698SOL     OW63534   7.168   2.501  11.644
20698SOL    HW163535   7.137   2.562  11.717
20698SOL    HW263536   7.218   2.553  11.575
20699SOL     OW63537   5.940   3.372  12.501
20699SOL    HW163538   5.919   3.328  12.414
20699SOL    HW263539   6.037   3.398  12.504
20700SOL     OW63540   6.159   2.732  12.201
20700SOL    HW163541   6.203   2.821  12.192
20700SOL    HW263542   6.096   2.732  12.278
20701SOL     OW63543   6.946   2.724  12.217
20701SOL    HW163544   6.871   2.724  12.151
20701SOL    HW263545   6.983   2.632  12.226
20702SOL     OW63546   6.795   2.387  11.447
20702SOL    HW163547   6.808   2.303  11.501
20702SOL    HW263548   6.766   2.461  11.507
20703SOL     OW63549   5.893   2.075  12.403
20703SOL    HW163550   5.870   2.112  12.493
20703SOL    HW263551   5.863   1.980  12.397
20704SOL     OW63552   5.623   3.172  12.454
20704SOL    HW163553   5.676   3.123  12.522
20704SOL    HW263554   5.645   3.270  12.459
20705SOL     OW63555   6.318   2.496  12.236
20705SOL    HW163556   6.377   2.470  12.160
20705SOL    HW263557   6.290   2.592  12.225
20706SOL     OW63558   5.893   1.925  11.790
20706SOL    HW163559   5.882   2.019  11.823
20706SOL    HW263560   5.888   1.862  11.867
20707SOL     OW63561   7.208   2.229  11.546
20707SOL    HW163562   7.210   2.153  11.610
20707SOL    HW263563   7.160   2.306  11.586
20708SOL     OW63564   6.609   2.628  12.138
20708SOL    HW163565   6.624   2.649  12.234
20708SOL    HW263566   6.579   2.533  12.129
20709SOL     OW63567   7.126   2.136  11.297
20709SOL    HW163568   7.065   2.061  11.320
20709SOL    HW263569   7.148   2.188  11.380
20710SOL     OW63570   6.889   2.700  11.214
20710SOL    HW163571   6.923   2.607  11.229
20710SOL    HW263572   6.907   2.727  11.119
20711SOL     OW63573   6.654   3.195  12.021
20711SOL    HW163574   6.661   3.111  11.966
20711SOL    HW263575   6.716   3.264  11.985
20712SOL     OW63576   5.905   2.672  12.121
20712SOL    HW163577   5.998   2.708  12.126
20712SOL    HW263578   5.899   2.587  12.173
20713SOL     OW63579   5.925   2.371  12.178
20713SOL    HW163580   5.873   2.288  12.161
20713SOL    HW263581   6.002   2.376  12.114
20714SOL     OW63582   6.746   2.069  12.649
20714SOL    HW163583   6.746   2.133  12.726
20714SOL    HW263584   6.774   2.117  12.566
20715SOL     OW63585   5.594   3.188  11.372
20715SOL    HW163586   5.501   3.209  11.341
20715SOL    HW263587   5.604   3.089  11.385
20716SOL     OW63588   5.674   3.663  12.099
20716SOL    HW163589   5.632   3.577  12.072
20716SOL    HW263590   5.768   3.666  12.065
20717SOL     OW63591   6.090   3.430  12.082
20717SOL    HW163592   6.156   3.504  12.091
20717SOL    HW263593   6.134   3.351  12.040
20718SOL     OW63594   6.588   2.658  12.410
20718SOL    HW163595   6.629   2.626  12.496
20718SOL    HW263596   6.492   2.631  12.407
20719SOL     OW63597   5.626   2.406  12.286
20719SOL    HW163598   5.711   2.373  12.245
20719SOL    HW263599   5.639   2.421  12.384
20720SOL     OW63600   6.401   2.434  11.497
20720SOL    HW163601   6.408   2.345  11.451
20720SOL    HW263602   6.307   2.468  11.489
20721SOL     OW63603   7.243   2.466  12.378
20721SOL    HW163604   7.205   2.397  12.440
20721SOL    HW263605   7.325   2.430  12.334
20722SOL     OW63606   6.257   2.326  12.441
20722SOL    HW163607   6.223   2.237  12.411
20722SOL    HW263608   6.283   2.380  12.361
20723SOL     OW63609   6.516   3.540  12.637
20723SOL    HW163610   6.492   3.522  12.542
20723SOL    HW263611   6.546   3.634  12.647
20724SOL     OW63612   6.059   2.362  11.363
20724SOL    HW163613   6.120   2.442  11.367
20724SOL    HW263614   5.964   2.393  11.370
20725SOL     OW63615   6.933   2.921  12.406
20725SOL    HW163616   6.957   2.858  12.332
20725SOL    HW263617   6.843   2.961  12.388
20726SOL     OW63618   6.888   2.717  11.481
20726SOL    HW163619   6.802   2.686  11.523
20726SOL    HW263620   6.884   2.703  11.382
20727SOL     OW63621   7.345   3.609  12.326
20727SOL    HW163622   7.406   3.639  12.253
20727SOL    HW263623   7.307   3.520  12.304
20728SOL     OW63624   6.838   3.593  12.300
20728SOL    HW163625   6.922   3.598  12.246
20728SOL    HW263626   6.815   3.497  12.318
20729SOL     OW63627   5.669   3.120  12.194
20729SOL    HW163628   5.664   3.119  12.294
20729SOL    HW263629   5.586   3.079  12.156
20730SOL     OW63630   7.312   1.997  11.695
20730SOL    HW163631   7.385   1.980  11.628
20730SOL    HW263632   7.281   1.910  11.733
20731SOL     OW63633   6.974   3.435  11.649
20731SOL    HW163634   7.041   3.447  11.575
20731SOL    HW263635   6.934   3.524  11.672
20732SOL     OW63636   6.866   2.789  11.844
20732SOL    HW163637   6.926   2.708  11.846
20732SOL    HW263638   6.906   2.858  11.784
20733SOL     OW63639   6.258   3.478  11.326
20733SOL    HW163640   6.267   3.488  11.227
20733SOL    HW263641   6.218   3.389  11.347
20734SOL     OW63642   7.236   3.582  12.566
20734SOL    HW163643   7.289   3.592  12.482
20734SOL    HW263644   7.209   3.672  12.600
20735SOL     OW63645   7.427   2.037  12.135
20735SOL    HW163646   7.466   1.952  12.099
20735SOL    HW263647   7.329   2.039  12.116
20736SOL     OW63648   5.849   2.188  11.892
20736SOL    HW163649   5.770   2.239  11.858
20736SOL    HW263650   5.840   2.173  11.990
20737SOL     OW63651   6.780   3.474  11.203
20737SOL    HW163652   6.786   3.381  11.240
20737SOL    HW263653   6.721   3.474  11.123
20738SOL     OW63654   6.408   2.864  12.544
20738SOL    HW163655   6.448   2.863  12.452
20738SOL    HW263656   6.418   2.956  12.584
20739SOL     OW63657   6.502   2.772  11.463
20739SOL    HW163658   6.565   2.810  11.395
20739SOL    HW263659   6.542   2.689  11.502
20740SOL     OW63660   7.090   3.469  11.216
20740SOL    HW163661   6.998   3.506  11.223
20740SOL    HW263662   7.128   3.489  11.126
20741SOL     OW63663   6.625   2.960  11.868
20741SOL    HW163664   6.555   2.913  11.922
20741SOL    HW263665   6.684   2.892  11.825
20742SOL     OW63666   6.600   2.098  12.143
20742SOL    HW163667   6.592   2.062  12.050
20742SOL    HW263668   6.598   2.022  12.208
20743SOL     OW63669   6.176   3.349  11.663
20743SOL    HW163670   6.218   3.291  11.593
20743SOL    HW263671   6.132   3.428  11.619
20744SOL     OW63672   7.295   2.247  12.553
20744SOL    HW163673   7.368   2.316  12.557
20744SOL    HW263674   7.323   2.172  12.494
20745SOL     OW63675   5.841   3.210  11.462
20745SOL    HW163676   5.745   3.211  11.435
20745SOL    HW263677   5.853   3.263  11.546
20746SOL     OW63678   5.661   2.207  11.205
20746SOL    HW163679   5.569   2.179  11.176
20746SOL    HW263680   5.692   2.284  11.149
20747SOL     OW63681   5.658   2.028  11.490
20747SOL    HW163682   5.641   2.111  11.436
20747SOL    HW263683   5.748   1.991  11.468
20748SOL     OW63684   6.769   3.197  11.291
20748SOL    HW163685   6.670   3.186  11.293
20748SOL    HW263686   6.803   3.212  11.384
20749SOL     OW63687   7.079   3.629  12.131
20749SOL    HW163688   7.112   3.693  12.062
20749SOL    HW263689   7.145   3.623  12.206
20750SOL     OW63690   7.260   2.745  12.426
20750SOL    HW163691   7.233   2.656  12.389
20750SOL    HW263692   7.261   2.813  12.353
20751SOL     OW63693   6.811   2.187  11.621
20751SOL    HW163694   6.876   2.113  11.610
20751SOL    HW263695   6.831   2.237  11.705
20752SOL     OW63696   6.180   2.607  11.824
20752SOL    HW163697   6.230   2.692  11.805
20752SOL    HW263698   6.092   2.609  11.776
20753SOL     OW63699   7.316   2.796  12.689
20753SOL    HW163700   7.354   2.887  12.704
20753SOL    HW263701   7.308   2.779  12.590
20754SOL     OW63702   6.445   3.236  11.188
20754SOL    HW163703   6.399   3.251  11.276
20754SOL    HW263704   6.489   3.321  11.158
20755SOL     OW63705   6.247   3.652  12.125
20755SOL    HW163706   6.201   3.740  12.112
20755SOL    HW263707   6.346   3.664  12.118
20756SOL     OW63708   6.445   2.818  12.033
20756SOL    HW163709   6.499   2.749  12.081
20756SOL    HW263710   6.413   2.887  12.099
20757SOL     OW63711   6.669   2.846  11.259
20757SOL    HW163712   6.646   2.899  11.177
20757SOL    HW263713   6.750   2.790  11.240
20758SOL     OW63714   7.447   3.431  12.023
20758SOL    HW163715   7.376   3.419  11.953
20758SOL    HW263716   7.448   3.352  12.083
20759SOL     OW63717   5.665   3.102  11.825
20759SOL    HW163718   5.664   3.055  11.913
20759SOL    HW263719   5.747   3.074  11.774
20760SOL     OW63720   7.410   2.054  12.399
20760SOL    HW163721   7.406   1.964  12.443
20760SOL    HW263722   7.413   2.043  12.300
20761SOL     OW63723   6.014   2.286  11.692
20761SOL    HW163724   6.044   2.214  11.630
20761SOL    HW263725   5.975   2.246  11.775
20762SOL     OW63726   7.291   3.349  12.276
20762SOL    HW163727   7.198   3.324  12.249
20762SOL    HW263728   7.317   3.299  12.358
20763SOL     OW63729   6.398   3.448  11.859
20763SOL    HW163730   6.430   3.458  11.765
20763SOL    HW263731   6.319   3.386  11.861
20764SOL     OW63732   7.010   2.076  12.284
20764SOL    HW163733   7.062   2.011  12.339
20764SOL    HW263734   6.961   2.139  12.345
20765SOL     OW63735   6.587   1.896  12.326
20765SOL    HW163736   6.524   1.824  12.295
20765SOL    HW263737   6.680   1.860  12.326
20766SOL     OW63738   6.356   3.192  11.473
20766SOL    HW163739   6.310   3.105  11.490
20766SOL    HW263740   6.447   3.189  11.514
20767SOL     OW63741   6.938   1.914  11.340
20767SOL    HW163742   6.973   1.873  11.256
20767SOL    HW263743   6.848   1.876  11.360
20768SOL     OW63744   6.886   2.315  11.863
20768SOL    HW163745   6.827   2.395  11.867
20768SOL    HW263746   6.901   2.280  11.956
20769SOL     OW63747   7.179   2.083  12.054
20769SOL    HW163748   7.095   2.082  12.108
20769SOL    HW263749   7.181   2.166  11.998
20770SOL     OW63750   5.625   2.939  11.472
20770SOL    HW163751   5.724   2.928  11.463
20770SOL    HW263752   5.585   2.853  11.504
20771SOL     OW63753   6.461   3.508  11.509
20771SOL    HW163754   6.384   3.473  11.455
20771SOL    HW263755   6.429   3.579  11.571
20772SOL     OW63756   5.816   4.352   0.113
20772SOL    HW163757   5.723   4.350   0.150
20772SOL    HW263758   5.817   4.313   0.021
20773SOL     OW63759   5.811   3.999   0.996
20773SOL    HW163760   5.846   3.982   1.088
20773SOL    HW263761   5.723   3.954   0.984
20774SOL     OW63762   5.605   4.092   0.647
20774SOL    HW163763   5.523   4.135   0.686
20774SOL    HW263764   5.577   4.019   0.584
20775SOL     OW63765   6.155   4.999   1.165
20775SOL    HW163766   6.062   4.992   1.128
20775SOL    HW263767   6.166   5.088   1.209
20776SOL     OW63768   7.141   5.235   0.703
20776SOL    HW163769   7.084   5.219   0.784
20776SOL    HW263770   7.082   5.245   0.623
20777SOL     OW63771   6.721   4.427   0.717
20777SOL    HW163772   6.778   4.505   0.692
20777SOL    HW263773   6.661   4.453   0.793
20778SOL     OW63774   7.341   4.331   0.231
20778SOL    HW163775   7.329   4.318   0.132
20778SOL    HW263776   7.311   4.250   0.280
20779SOL     OW63777   6.354   4.868   1.023
20779SOL    HW163778   6.276   4.885   1.083
20779SOL    HW263779   6.388   4.955   0.987
20780SOL     OW63780   6.436   4.522   1.823
20780SOL    HW163781   6.432   4.598   1.888
20780SOL    HW263782   6.458   4.558   1.732
20781SOL     OW63783   6.271   4.736   0.665
20781SOL    HW163784   6.340   4.720   0.735
20781SOL    HW263785   6.198   4.793   0.703
20782SOL     OW63786   6.272   4.885   1.803
20782SOL    HW163787   6.332   4.964   1.817
20782SOL    HW263788   6.186   4.916   1.762
20783SOL     OW63789   5.921   5.159   1.061
20783SOL    HW163790   5.843   5.128   1.008
20783SOL    HW263791   5.979   5.217   1.004
20784SOL     OW63792   7.046   5.229   1.339
20784SOL    HW163793   7.070   5.323   1.365
20784SOL    HW263794   7.030   5.175   1.421
20785SOL     OW63795   6.024   4.116   1.499
20785SOL    HW163796   6.106   4.060   1.508
20785SOL    HW263797   5.943   4.058   1.503
20786SOL     OW63798   7.189   4.171   0.737
20786SOL    HW163799   7.115   4.217   0.687
20786SOL    HW263800   7.240   4.239   0.790
20787SOL     OW63801   5.817   5.437   0.483
20787SOL    HW163802   5.851   5.514   0.537
20787SOL    HW263803   5.861   5.437   0.393
20788SOL     OW63804   6.713   5.065   1.690
20788SOL    HW163805   6.760   5.065   1.778
20788SOL    HW263806   6.665   4.978   1.679
20789SOL     OW63807   5.826   4.815   0.886
20789SOL    HW163808   5.840   4.731   0.938
20789SOL    HW263809   5.771   4.879   0.941
20790SOL     OW63810   6.206   5.510   1.439
20790SOL    HW163811   6.114   5.493   1.474
20790SOL    HW263812   6.234   5.602   1.465
20791SOL     OW63813   6.192   4.688   0.123
20791SOL    HW163814   6.199   4.772   0.069
20791SOL    HW263815   6.238   4.701   0.211
20792SOL     OW63816   7.180   3.838   1.480
20792SOL    HW163817   7.162   3.905   1.408
20792SOL    HW263818   7.177   3.884   1.569
20793SOL     OW63819   5.708   4.367   0.563
20793SOL    HW163820   5.663   4.279   0.580
20793SOL    HW263821   5.707   4.421   0.647
20794SOL     OW63822   7.428   5.491   0.359
20794SOL    HW163823   7.482   5.462   0.439
20794SOL    HW263824   7.458   5.581   0.330
20795SOL     OW63825   5.613   5.320   0.117
20795SOL    HW163826   5.594   5.224   0.138
20795SOL    HW263827   5.580   5.378   0.192
20796SOL     OW63828   7.275   4.646   0.612
20796SOL    HW163829   7.370   4.617   0.620
20796SOL    HW263830   7.267   4.711   0.537
20797SOL     OW63831   7.227   4.832   0.432
20797SOL    HW163832   7.313   4.834   0.380
20797SOL    HW263833   7.241   4.879   0.520
20798SOL     OW63834   5.699   4.461   1.597
20798SOL    HW163835   5.787   4.448   1.642
20798SOL    HW263836   5.686   4.558   1.575
20799SOL     OW63837   6.199   5.089   0.726
20799SOL    HW163838   6.150   5.002   0.735
20799SOL    HW263839   6.176   5.132   0.639
20800SOL     OW63840   6.879   4.952   1.423
20800SOL    HW163841   6.916   4.879   1.365
20800SOL    HW263842   6.931   4.957   1.508
20801SOL     OW63843   6.395   3.728   0.502
20801SOL    HW163844   6.435   3.819   0.493
20801SOL    HW263845   6.295   3.736   0.508
20802SOL     OW63846   5.783   4.700   1.264
20802SOL    HW163847   5.872   4.655   1.250
20802SOL    HW263848   5.710   4.635   1.245
20803SOL     OW63849   7.111   4.723   0.190
20803SOL    HW163850   7.048   4.647   0.203
20803SOL    HW263851   7.159   4.741   0.276
20804SOL     OW63852   6.773   5.516   1.616
20804SOL    HW163853   6.797   5.576   1.540
20804SOL    HW263854   6.780   5.421   1.586
20805SOL     OW63855   5.903   3.975   1.801
20805SOL    HW163856   5.974   4.046   1.807
20805SOL    HW263857   5.815   4.014   1.829
20806SOL     OW63858   7.052   5.141   0.953
20806SOL    HW163859   6.993   5.147   1.033
20806SOL    HW263860   7.037   5.053   0.907
20807SOL     OW63861   7.253   5.438   0.572
20807SOL    HW163862   7.212   5.415   0.484
20807SOL    HW263863   7.235   5.364   0.637
20808SOL     OW63864   6.184   4.453   0.270
20808SOL    HW163865   6.208   4.522   0.202
20808SOL    HW263866   6.106   4.486   0.324
20809SOL     OW63867   6.867   4.069   0.944
20809SOL    HW163868   6.781   4.019   0.931
20809SOL    HW263869   6.929   4.015   1.000
20810SOL     OW63870   7.162   5.386   0.307
20810SOL    HW163871   7.251   5.432   0.310
20810SOL    HW263872   7.141   5.362   0.212
20811SOL     OW63873   6.393   4.329   1.465
20811SOL    HW163874   6.346   4.326   1.554
20811SOL    HW263875   6.342   4.274   1.399
20812SOL     OW63876   6.980   4.193   1.674
20812SOL    HW163877   6.960   4.236   1.762
20812SOL    HW263878   7.058   4.131   1.683
20813SOL     OW63879   6.559   4.614   1.572
20813SOL    HW163880   6.605   4.530   1.543
20813SOL    HW263881   6.503   4.648   1.497
20814SOL     OW63882   6.577   4.134   1.242
20814SOL    HW163883   6.500   4.168   1.296
20814SOL    HW263884   6.543   4.083   1.163
20815SOL     OW63885   6.627   4.425   0.429
20815SOL    HW163886   6.653   4.421   0.525
20815SOL    HW263887   6.542   4.374   0.415
20816SOL     OW63888   5.662   4.535   0.789
20816SOL    HW163889   5.761   4.523   0.798
20816SOL    HW263890   5.638   4.630   0.810
20817SOL     OW63891   5.716   5.545   1.571
20817SOL    HW163892   5.706   5.530   1.670
20817SOL    HW263893   5.630   5.581   1.535
20818SOL     OW63894   6.451   4.072   0.195
20818SOL    HW163895   6.510   4.135   0.146
20818SOL    HW263896   6.470   3.978   0.166
20819SOL     OW63897   7.305   4.309   1.831
20819SOL    HW163898   7.279   4.398   1.795
20819SOL    HW263899   7.303   4.241   1.758
20820SOL     OW63900   6.948   4.868   0.545
20820SOL    HW163901   7.031   4.839   0.497
20820SOL    HW263902   6.899   4.935   0.489
20821SOL     OW63903   6.136   3.920   0.885
20821SOL    HW163904   6.131   3.915   0.985
20821SOL    HW263905   6.138   4.016   0.856
20822SOL     OW63906   6.594   5.180   0.477
20822SOL    HW163907   6.548   5.252   0.425
20822SOL    HW263908   6.590   5.200   0.575
20823SOL     OW63909   5.937   5.525   0.853
20823SOL    HW163910   5.987   5.439   0.859
20823SOL    HW263911   6.002   5.602   0.850
20824SOL     OW63912   7.381   4.790   0.873
20824SOL    HW163913   7.319   4.775   0.797
20824SOL    HW263914   7.329   4.801   0.958
20825SOL     OW63915   6.813   5.274   1.506
20825SOL    HW163916   6.819   5.197   1.570
20825SOL    HW263917   6.761   5.248   1.426
20826SOL     OW63918   5.907   4.667   0.242
20826SOL    HW163919   5.989   4.706   0.200
20826SOL    HW263920   5.880   4.585   0.193
20827SOL     OW63921   7.044   4.459   0.728
20827SOL    HW163922   7.039   4.394   0.803
20827SOL    HW263923   7.124   4.518   0.741
20828SOL     OW63924   6.047   4.990   1.727
20828SOL    HW163925   5.997   4.991   1.641
20828SOL    HW263926   5.984   4.972   1.803
20829SOL     OW63927   6.697   5.500   0.237
20829SOL    HW163928   6.637   5.438   0.287
20829SOL    HW263929   6.728   5.456   0.152
20830SOL     OW63930   5.788   4.009   1.498
20830SOL    HW163931   5.708   4.069   1.485
20830SOL    HW263932   5.778   3.960   1.584
20831SOL     OW63933   7.218   5.101   0.081
20831SOL    HW163934   7.186   5.195   0.071
20831SOL    HW263935   7.142   5.038   0.069
20832SOL     OW63936   6.050   5.467   0.323
20832SOL    HW163937   6.083   5.506   0.409
20832SOL    HW263938   6.126   5.460   0.258
20833SOL     OW63939   6.986   3.831   0.426
20833SOL    HW163940   6.962   3.794   0.336
20833SOL    HW263941   7.085   3.847   0.430
20834SOL     OW63942   5.835   5.509   1.241
20834SOL    HW163943   5.892   5.444   1.291
20834SOL    HW263944   5.819   5.476   1.148
20835SOL     OW63945   6.526   5.422   0.904
20835SOL    HW163946   6.606   5.365   0.925
20835SOL    HW263947   6.477   5.382   0.827
20836SOL     OW63948   5.968   4.424   0.480
20836SOL    HW163949   6.013   4.334   0.477
20836SOL    HW263950   5.874   4.413   0.513
20837SOL     OW63951   7.133   3.946   1.729
20837SOL    HW163952   7.128   3.983   1.821
20837SOL    HW263953   7.061   3.877   1.717
20838SOL     OW63954   6.200   3.846   0.117
20838SOL    HW163955   6.298   3.824   0.124
20838SOL    HW263956   6.169   3.829   0.024
20839SOL     OW63957   6.367   3.988   1.749
20839SOL    HW163958   6.434   3.927   1.792
20839SOL    HW263959   6.294   4.007   1.814
20840SOL     OW63960   6.474   5.238   1.195
20840SOL    HW163961   6.451   5.213   1.101
20840SOL    HW263962   6.535   5.169   1.234
20841SOL     OW63963   6.937   4.314   1.433
20841SOL    HW163964   6.965   4.271   1.518
20841SOL    HW263965   6.962   4.410   1.434
20842SOL     OW63966   6.389   5.126   0.924
20842SOL    HW163967   6.479   5.140   0.882
20842SOL    HW263968   6.318   5.128   0.853
20843SOL     OW63969   6.508   4.227   0.899
20843SOL    HW163970   6.483   4.218   0.803
20843SOL    HW263971   6.556   4.145   0.930
20844SOL     OW63972   6.125   3.788   0.512
20844SOL    HW163973   6.044   3.789   0.570
20844SOL    HW263974   6.128   3.871   0.457
20845SOL     OW63975   7.020   4.912   0.041
20845SOL    HW163976   7.052   4.836   0.098
20845SOL    HW263977   6.928   4.939   0.071
20846SOL     OW63978   5.883   3.759   0.171
20846SOL    HW163979   5.932   3.843   0.150
20846SOL    HW263980   5.945   3.694   0.216
20847SOL     OW63981   6.521   3.960   0.480
20847SOL    HW163982   6.473   4.001   0.402
20847SOL    HW263983   6.620   3.958   0.461
20848SOL     OW63984   6.662   4.407   1.464
20848SOL    HW163985   6.582   4.346   1.467
20848SOL    HW263986   6.743   4.354   1.440
20849SOL     OW63987   6.813   5.294   0.793
20849SOL    HW163988   6.834   5.368   0.728
20849SOL    HW263989   6.881   5.294   0.866
20850SOL     OW63990   6.045   4.876   0.741
20850SOL    HW163991   5.974   4.849   0.806
20850SOL    HW263992   6.019   4.848   0.648
20851SOL     OW63993   6.857   5.521   0.591
20851SOL    HW163994   6.901   5.585   0.527
20851SOL    HW263995   6.807   5.573   0.661
20852SOL     OW63996   6.618   4.273   0.016
20852SOL    HW163997   6.577   4.355  -0.023
20852SOL    HW263998   6.682   4.299   0.089
20853SOL     OW63999   5.664   4.280   1.386
20853SOL    HW164000   5.756   4.279   1.345
20853SOL    HW264001   5.658   4.354   1.453
20854SOL     OW64002   6.147   3.946   1.147
20854SOL    HW164003   6.185   3.862   1.184
20854SOL    HW264004   6.059   3.965   1.191
20855SOL     OW64005   6.452   4.178   0.642
20855SOL    HW164006   6.420   4.250   0.580
20855SOL    HW264007   6.476   4.097   0.589
20856SOL     OW64008   6.603   3.763   0.753
20856SOL    HW164009   6.531   3.768   0.684
20856SOL    HW264010   6.579   3.694   0.822
20857SOL     OW64011   7.015   4.897   0.867
20857SOL    HW164012   6.960   4.813   0.860
20857SOL    HW264013   7.041   4.926   0.775
20858SOL     OW64014   7.052   4.314   0.992
20858SOL    HW164015   7.022   4.219   0.999
20858SOL    HW264016   7.125   4.330   1.058
20859SOL     OW64017   7.443   4.557   0.377
20859SOL    HW164018   7.485   4.493   0.441
20859SOL    HW264019   7.405   4.506   0.299
20860SOL     OW64020   6.074   5.109   0.174
20860SOL    HW164021   5.987   5.094   0.221
20860SOL    HW264022   6.057   5.135   0.079
20861SOL     OW64023   7.250   5.004   0.657
20861SOL    HW164024   7.349   5.012   0.671
20861SOL    HW264025   7.205   5.088   0.688
20862SOL     OW64026   6.976   4.299   0.078
20862SOL    HW164027   6.922   4.278   0.159
20862SOL    HW264028   7.067   4.258   0.087
20863SOL     OW64029   6.113   3.980   0.328
20863SOL    HW164030   6.140   3.921   0.253
20863SOL    HW264031   6.113   4.075   0.297
20864SOL     OW64032   7.340   4.947   1.588
20864SOL    HW164033   7.431   4.908   1.575
20864SOL    HW264034   7.348   5.043   1.612
20865SOL     OW64035   6.650   5.071   1.340
20865SOL    HW164036   6.570   5.048   1.395
20865SOL    HW264037   6.733   5.045   1.389
20866SOL     OW64038   7.178   5.353   1.625
20866SOL    HW164039   7.205   5.387   1.535
20866SOL    HW264040   7.257   5.315   1.671
20867SOL     OW64041   6.697   4.919   1.100
20867SOL    HW164042   6.657   4.963   1.181
20867SOL    HW264043   6.656   4.956   1.017
20868SOL     OW64044   7.224   4.823   1.079
20868SOL    HW164045   7.229   4.904   1.138
20868SOL    HW264046   7.138   4.825   1.028
20869SOL     OW64047   6.501   3.813   1.402
20869SOL    HW164048   6.526   3.793   1.307
20869SOL    HW264049   6.573   3.869   1.444
20870SOL     OW64050   6.566   4.840   1.719
20870SOL    HW164051   6.467   4.846   1.729
20870SOL    HW264052   6.589   4.760   1.663
20871SOL     OW64053   6.291   4.774   0.368
20871SOL    HW164054   6.277   4.781   0.467
20871SOL    HW264055   6.375   4.723   0.350
20872SOL     OW64056   5.996   4.537   1.251
20872SOL    HW164057   6.082   4.549   1.301
20872SOL    HW264058   5.954   4.450   1.278
20873SOL     OW64059   6.860   4.110   1.262
20873SOL    HW164060   6.881   4.184   1.326
20873SOL    HW264061   6.771   4.127   1.219
20874SOL     OW64062   5.650   5.288   1.331
20874SOL    HW164063   5.604   5.370   1.297
20874SOL    HW264064   5.748   5.307   1.340
20875SOL     OW64065   5.953   4.824   0.501
20875SOL    HW164066   5.946   4.907   0.445
20875SOL    HW264067   5.957   4.744   0.441
20876SOL     OW64068   6.152   4.261   0.865
20876SOL    HW164069   6.164   4.327   0.791
20876SOL    HW264070   6.198   4.295   0.948
20877SOL     OW64071   6.838   5.072   0.388
20877SOL    HW164072   6.888   5.149   0.428
20877SOL    HW264073   6.743   5.074   0.420
20878SOL     OW64074   6.858   5.169   1.142
20878SOL    HW164075   6.905   5.182   1.229
20878SOL    HW264076   6.792   5.095   1.151
20879SOL     OW64077   7.168   4.363   0.472
20879SOL    HW164078   7.137   4.424   0.545
20879SOL    HW264079   7.218   4.415   0.403
20880SOL     OW64080   5.940   5.234   1.329
20880SOL    HW164081   5.919   5.190   1.242
20880SOL    HW264082   6.037   5.260   1.332
20881SOL     OW64083   5.988   4.475   1.598
20881SOL    HW164084   6.056   4.530   1.551
20881SOL    HW264085   6.028   4.387   1.625
20882SOL     OW64086   7.173   4.503   1.670
20882SOL    HW164087   7.081   4.541   1.665
20882SOL    HW264088   7.233   4.550   1.605
20883SOL     OW64089   6.599   3.829   1.770
20883SOL    HW164090   6.605   3.914   1.718
20883SOL    HW264091   6.631   3.753   1.713
20884SOL     OW64092   6.090   3.774   1.740
20884SOL    HW164093   6.048   3.717   1.670
20884SOL    HW264094   6.024   3.843   1.772
20885SOL     OW64095   6.159   4.594   1.029
20885SOL    HW164096   6.203   4.683   1.020
20885SOL    HW264097   6.096   4.594   1.106
20886SOL     OW64098   6.946   4.586   1.045
20886SOL    HW164099   6.871   4.586   0.979
20886SOL    HW264100   6.983   4.494   1.054
20887SOL     OW64101   6.795   4.249   0.275
20887SOL    HW164102   6.808   4.165   0.329
20887SOL    HW264103   6.766   4.323   0.335
20888SOL     OW64104   5.893   3.937   1.231
20888SOL    HW164105   5.870   3.974   1.321
20888SOL    HW264106   5.863   3.842   1.225
20889SOL     OW64107   5.623   5.034   1.282
20889SOL    HW164108   5.676   4.985   1.350
20889SOL    HW264109   5.645   5.132   1.287
20890SOL     OW64110   6.318   4.358   1.064
20890SOL    HW164111   6.377   4.332   0.988
20890SOL    HW264112   6.290   4.454   1.053
20891SOL     OW64113   7.314   4.659   1.854
20891SOL    HW164114   7.268   4.652   1.765
20891SOL    HW264115   7.252   4.703   1.920
20892SOL     OW64116   5.893   3.787   0.618
20892SOL    HW164117   5.882   3.881   0.651
20892SOL    HW264118   5.888   3.724   0.695
20893SOL     OW64119   7.208   4.091   0.374
20893SOL    HW164120   7.210   4.015   0.438
20893SOL    HW264121   7.160   4.168   0.414
20894SOL     OW64122   6.609   4.490   0.966
20894SOL    HW164123   6.624   4.511   1.062
20894SOL    HW264124   6.579   4.395   0.957
20895SOL     OW64125   6.566   5.297   1.700
20895SOL    HW164126   6.546   5.341   1.612
20895SOL    HW264127   6.605   5.206   1.684
20896SOL     OW64128   7.445   5.242   1.605
20896SOL    HW164129   7.459   5.269   1.510
20896SOL    HW264130   7.528   5.264   1.658
20897SOL     OW64131   5.936   4.622   1.804
20897SOL    HW164132   6.012   4.666   1.852
20897SOL    HW264133   5.971   4.575   1.722
20898SOL     OW64134   7.126   3.998   0.125
20898SOL    HW164135   7.065   3.923   0.148
20898SOL    HW264136   7.148   4.050   0.208
20899SOL     OW64137   6.889   4.562   0.042
20899SOL    HW164138   6.923   4.469   0.057
20899SOL    HW264139   6.907   4.589  -0.053
20900SOL     OW64140   6.654   5.057   0.849
20900SOL    HW164141   6.661   4.973   0.794
20900SOL    HW264142   6.716   5.126   0.813
20901SOL     OW64143   5.905   4.534   0.949
20901SOL    HW164144   5.998   4.570   0.954
20901SOL    HW264145   5.899   4.449   1.001
20902SOL     OW64146   5.925   4.233   1.006
20902SOL    HW164147   5.873   4.150   0.989
20902SOL    HW264148   6.002   4.238   0.942
20903SOL     OW64149   6.724   4.104   1.678
20903SOL    HW164150   6.679   4.167   1.742
20903SOL    HW264151   6.817   4.135   1.661
20904SOL     OW64152   6.746   3.931   1.477
20904SOL    HW164153   6.746   3.995   1.554
20904SOL    HW264154   6.774   3.979   1.394
20905SOL     OW64155   5.674   5.525   0.927
20905SOL    HW164156   5.632   5.439   0.900
20905SOL    HW264157   5.768   5.528   0.893
20906SOL     OW64158   6.090   5.292   0.910
20906SOL    HW164159   6.156   5.366   0.919
20906SOL    HW264160   6.134   5.213   0.868
20907SOL     OW64161   6.588   4.520   1.238
20907SOL    HW164162   6.629   4.488   1.324
20907SOL    HW264163   6.492   4.493   1.235
20908SOL     OW64164   5.626   4.268   1.114
20908SOL    HW164165   5.711   4.235   1.073
20908SOL    HW264166   5.639   4.283   1.212
20909SOL     OW64167   5.775   4.244   1.722
20909SOL    HW164168   5.834   4.204   1.652
20909SOL    HW264169   5.717   4.315   1.681
20910SOL     OW64170   6.955   4.674   1.660
20910SOL    HW164171   6.994   4.763   1.680
20910SOL    HW264172   6.965   4.654   1.563
20911SOL     OW64173   6.401   4.296   0.325
20911SOL    HW164174   6.408   4.207   0.279
20911SOL    HW264175   6.307   4.330   0.317
20912SOL     OW64176   7.243   4.328   1.206
20912SOL    HW164177   7.205   4.259   1.268
20912SOL    HW264178   7.325   4.292   1.162
20913SOL     OW64179   5.838   5.288   1.744
20913SOL    HW164180   5.808   5.345   1.820
20913SOL    HW264181   5.831   5.191   1.770
20914SOL     OW64182   6.257   4.188   1.269
20914SOL    HW164183   6.223   4.099   1.239
20914SOL    HW264184   6.283   4.242   1.189
20915SOL     OW64185   6.516   5.402   1.465
20915SOL    HW164186   6.492   5.384   1.370
20915SOL    HW264187   6.546   5.496   1.475
20916SOL     OW64188   6.059   4.224   0.191
20916SOL    HW164189   6.120   4.304   0.195
20916SOL    HW264190   5.964   4.255   0.198
20917SOL     OW64191   5.745   4.861   1.466
20917SOL    HW164192   5.767   4.800   1.542
20917SOL    HW264193   5.755   4.812   1.380
20918SOL     OW64194   6.933   4.783   1.234
20918SOL    HW164195   6.957   4.720   1.160
20918SOL    HW264196   6.843   4.823   1.216
20919SOL     OW64197   6.888   4.579   0.309
20919SOL    HW164198   6.802   4.548   0.351
20919SOL    HW264199   6.884   4.565   0.210
20920SOL     OW64200   7.345   5.471   1.154
20920SOL    HW164201   7.406   5.501   1.081
20920SOL    HW264202   7.307   5.382   1.132
20921SOL     OW64203   6.838   5.455   1.128
20921SOL    HW164204   6.922   5.460   1.074
20921SOL    HW264205   6.815   5.359   1.146
20922SOL     OW64206   5.669   4.982   1.022
20922SOL    HW164207   5.664   4.981   1.122
20922SOL    HW264208   5.586   4.941   0.984
20923SOL     OW64209   6.274   5.386   1.716
20923SOL    HW164210   6.218   5.467   1.725
20923SOL    HW264211   6.326   5.390   1.630
20924SOL     OW64212   6.489   3.810   0.133
20924SOL    HW164213   6.540   3.811   0.047
20924SOL    HW264214   6.545   3.768   0.204
20925SOL     OW64215   7.312   3.859   0.523
20925SOL    HW164216   7.385   3.842   0.456
20925SOL    HW264217   7.281   3.772   0.561
20926SOL     OW64218   6.974   5.297   0.477
20926SOL    HW164219   7.041   5.309   0.403
20926SOL    HW264220   6.934   5.386   0.500
20927SOL     OW64221   5.716   5.518   1.851
20927SOL    HW164222   5.675   5.444   1.904
20927SOL    HW264223   5.780   5.569   1.909
20928SOL     OW64224   6.866   4.651   0.672
20928SOL    HW164225   6.926   4.570   0.674
20928SOL    HW264226   6.906   4.720   0.612
20929SOL     OW64227   6.416   4.997   1.422
20929SOL    HW164228   6.411   5.030   1.517
20929SOL    HW264229   6.330   5.016   1.376
20930SOL     OW64230   6.258   5.340   0.154
20930SOL    HW164231   6.267   5.350   0.055
20930SOL    HW264232   6.218   5.251   0.175
20931SOL     OW64233   7.236   5.444   1.394
20931SOL    HW164234   7.289   5.454   1.310
20931SOL    HW264235   7.209   5.534   1.428
20932SOL     OW64236   7.427   3.899   0.963
20932SOL    HW164237   7.466   3.814   0.927
20932SOL    HW264238   7.329   3.901   0.944
20933SOL     OW64239   5.849   4.050   0.720
20933SOL    HW164240   5.770   4.101   0.686
20933SOL    HW264241   5.840   4.035   0.818
20934SOL     OW64242   6.780   5.336   0.031
20934SOL    HW164243   6.786   5.243   0.068
20934SOL    HW264244   6.721   5.336  -0.049
20935SOL     OW64245   6.408   4.726   1.372
20935SOL    HW164246   6.448   4.725   1.280
20935SOL    HW264247   6.418   4.818   1.412
20936SOL     OW64248   6.502   4.634   0.291
20936SOL    HW164249   6.565   4.672   0.223
20936SOL    HW264250   6.542   4.551   0.330
20937SOL     OW64251   7.090   5.331   0.044
20937SOL    HW164252   6.998   5.368   0.051
20937SOL    HW264253   7.128   5.351  -0.046
20938SOL     OW64254   5.958   5.012   1.490
20938SOL    HW164255   5.945   5.105   1.456
20938SOL    HW264256   5.874   4.960   1.477
20939SOL     OW64257   7.200   5.016   1.289
20939SOL    HW164258   7.260   5.019   1.369
20939SOL    HW264259   7.125   5.080   1.302
20940SOL     OW64260   6.625   4.822   0.696
20940SOL    HW164261   6.555   4.775   0.750
20940SOL    HW264262   6.684   4.754   0.653
20941SOL     OW64263   6.600   3.960   0.971
20941SOL    HW164264   6.592   3.924   0.878
20941SOL    HW264265   6.598   3.884   1.036
20942SOL     OW64266   6.176   5.211   0.491
20942SOL    HW164267   6.218   5.153   0.421
20942SOL    HW264268   6.132   5.290   0.447
20943SOL     OW64269   7.295   4.109   1.381
20943SOL    HW164270   7.368   4.178   1.385
20943SOL    HW264271   7.323   4.034   1.322
20944SOL     OW64272   5.841   5.072   0.290
20944SOL    HW164273   5.745   5.073   0.263
20944SOL    HW264274   5.853   5.125   0.374
20945SOL     OW64275   5.691   4.737   1.726
20945SOL    HW164276   5.614   4.704   1.780
20945SOL    HW264277   5.776   4.707   1.768
20946SOL     OW64278   6.258   3.927   1.489
20946SOL    HW164279   6.348   3.911   1.449
20946SOL    HW264280   6.266   3.932   1.588
20947SOL     OW64281   7.026   4.580   1.398
20947SOL    HW164282   6.969   4.632   1.335
20947SOL    HW264283   7.122   4.592   1.374
20948SOL     OW64284   5.658   3.890   0.318
20948SOL    HW164285   5.641   3.973   0.264
20948SOL    HW264286   5.748   3.853   0.296
20949SOL     OW64287   6.769   5.059   0.119
20949SOL    HW164288   6.670   5.048   0.121
20949SOL    HW264289   6.803   5.074   0.212
20950SOL     OW64290   6.199   4.566   1.431
20950SOL    HW164291   6.255   4.647   1.414
20950SOL    HW264292   6.258   4.486   1.434
20951SOL     OW64293   7.079   5.491   0.959
20951SOL    HW164294   7.112   5.555   0.890
20951SOL    HW264295   7.145   5.485   1.034
20952SOL     OW64296   6.302   4.289   1.708
20952SOL    HW164297   6.321   4.354   1.782
20952SOL    HW264298   6.362   4.209   1.717
20953SOL     OW64299   7.036   4.944   1.633
20953SOL    HW164300   7.027   4.934   1.732
20953SOL    HW264301   7.132   4.937   1.607
20954SOL     OW64302   5.976   5.465   1.560
20954SOL    HW164303   5.885   5.506   1.558
20954SOL    HW264304   5.969   5.371   1.592
20955SOL     OW64305   7.260   4.607   1.254
20955SOL    HW164306   7.233   4.518   1.217
20955SOL    HW264307   7.261   4.675   1.181
20956SOL     OW64308   6.811   4.049   0.449
20956SOL    HW164309   6.876   3.975   0.438
20956SOL    HW264310   6.831   4.099   0.533
20957SOL     OW64311   6.180   4.469   0.652
20957SOL    HW164312   6.230   4.554   0.633
20957SOL    HW264313   6.092   4.471   0.604
20958SOL     OW64314   7.363   4.066   1.642
20958SOL    HW164315   7.346   4.097   1.548
20958SOL    HW264316   7.279   4.029   1.680
20959SOL     OW64317   7.316   4.658   1.517
20959SOL    HW164318   7.354   4.749   1.532
20959SOL    HW264319   7.308   4.641   1.418
20960SOL     OW64320   6.445   5.098   0.016
20960SOL    HW164321   6.399   5.113   0.104
20960SOL    HW264322   6.489   5.183  -0.014
20961SOL     OW64323   6.247   5.514   0.953
20961SOL    HW164324   6.201   5.602   0.940
20961SOL    HW264325   6.346   5.526   0.946
20962SOL     OW64326   6.445   4.680   0.861
20962SOL    HW164327   6.499   4.611   0.909
20962SOL    HW264328   6.413   4.749   0.927
20963SOL     OW64329   6.669   4.708   0.087
20963SOL    HW164330   6.646   4.761   0.005
20963SOL    HW264331   6.750   4.652   0.068
20964SOL     OW64332   7.447   5.293   0.851
20964SOL    HW164333   7.376   5.281   0.781
20964SOL    HW264334   7.448   5.214   0.911
20965SOL     OW64335   5.807   5.038   1.844
20965SOL    HW164336   5.742   4.965   1.823
20965SOL    HW264337   5.811   5.052   1.942
20966SOL     OW64338   5.665   4.964   0.653
20966SOL    HW164339   5.664   4.917   0.741
20966SOL    HW264340   5.747   4.936   0.602
20967SOL     OW64341   6.258   5.115   1.624
20967SOL    HW164342   6.180   5.065   1.662
20967SOL    HW264343   6.255   5.210   1.655
20968SOL     OW64344   7.410   3.916   1.227
20968SOL    HW164345   7.406   3.826   1.271
20968SOL    HW264346   7.413   3.905   1.128
20969SOL     OW64347   6.014   4.148   0.520
20969SOL    HW164348   6.044   4.076   0.458
20969SOL    HW264349   5.975   4.108   0.603
20970SOL     OW64350   7.291   5.211   1.104
20970SOL    HW164351   7.198   5.186   1.077
20970SOL    HW264352   7.317   5.161   1.186
20971SOL     OW64353   5.903   4.271   1.280
20971SOL    HW164354   5.941   4.212   1.352
20971SOL    HW264355   5.943   4.245   1.192
20972SOL     OW64356   6.398   5.310   0.687
20972SOL    HW164357   6.430   5.320   0.593
20972SOL    HW264358   6.319   5.248   0.689
20973SOL     OW64359   7.010   3.938   1.112
20973SOL    HW164360   7.062   3.873   1.167
20973SOL    HW264361   6.961   4.001   1.173
20974SOL     OW64362   6.587   3.758   1.154
20974SOL    HW164363   6.524   3.686   1.123
20974SOL    HW264364   6.680   3.722   1.154
20975SOL     OW64365   6.356   5.054   0.301
20975SOL    HW164366   6.310   4.967   0.318
20975SOL    HW264367   6.447   5.051   0.342
20976SOL     OW64368   6.204   5.291   1.284
20976SOL    HW164369   6.199   5.373   1.341
20976SOL    HW264370   6.293   5.288   1.239
20977SOL     OW64371   6.938   3.776   0.168
20977SOL    HW164372   6.973   3.735   0.084
20977SOL    HW264373   6.848   3.738   0.188
20978SOL     OW64374   6.886   4.177   0.691
20978SOL    HW164375   6.827   4.257   0.695
20978SOL    HW264376   6.901   4.142   0.784
20979SOL     OW64377   7.179   3.945   0.882
20979SOL    HW164378   7.095   3.944   0.936
20979SOL    HW264379   7.181   4.028   0.826
20980SOL     OW64380   5.625   4.801   0.300
20980SOL    HW164381   5.724   4.790   0.291
20980SOL    HW264382   5.585   4.715   0.332
20981SOL     OW64383   6.461   5.370   0.337
20981SOL    HW164384   6.384   5.335   0.283
20981SOL    HW264385   6.429   5.441   0.399
20982SOL     OW64386   5.816   4.352   1.975
20982SOL    HW164387   5.723   4.350   2.012
20982SOL    HW264388   5.817   4.313   1.883
20983SOL     OW64389   5.811   3.999   2.858
20983SOL    HW164390   5.846   3.982   2.950
20983SOL    HW264391   5.723   3.954   2.846
20984SOL     OW64392   5.605   4.092   2.509
20984SOL    HW164393   5.523   4.135   2.548
20984SOL    HW264394   5.577   4.019   2.446
20985SOL     OW64395   6.155   4.999   3.027
20985SOL    HW164396   6.062   4.992   2.990
20985SOL    HW264397   6.166   5.088   3.071
20986SOL     OW64398   7.141   5.235   2.565
20986SOL    HW164399   7.084   5.219   2.646
20986SOL    HW264400   7.082   5.245   2.485
20987SOL     OW64401   6.721   4.427   2.579
20987SOL    HW164402   6.778   4.505   2.554
20987SOL    HW264403   6.661   4.453   2.655
20988SOL     OW64404   7.341   4.331   2.093
20988SOL    HW164405   7.329   4.318   1.994
20988SOL    HW264406   7.311   4.250   2.142
20989SOL     OW64407   6.354   4.868   2.885
20989SOL    HW164408   6.276   4.885   2.945
20989SOL    HW264409   6.388   4.955   2.849
20990SOL     OW64410   6.436   4.522   3.685
20990SOL    HW164411   6.432   4.598   3.750
20990SOL    HW264412   6.458   4.558   3.594
20991SOL     OW64413   6.271   4.736   2.527
20991SOL    HW164414   6.340   4.720   2.597
20991SOL    HW264415   6.198   4.793   2.565
20992SOL     OW64416   6.272   4.885   3.665
20992SOL    HW164417   6.332   4.964   3.679
20992SOL    HW264418   6.186   4.916   3.624
20993SOL     OW64419   5.921   5.159   2.923
20993SOL    HW164420   5.843   5.128   2.870
20993SOL    HW264421   5.979   5.217   2.866
20994SOL     OW64422   7.046   5.229   3.201
20994SOL    HW164423   7.070   5.323   3.227
20994SOL    HW264424   7.030   5.175   3.283
20995SOL     OW64425   6.024   4.116   3.361
20995SOL    HW164426   6.106   4.060   3.370
20995SOL    HW264427   5.943   4.058   3.365
20996SOL     OW64428   7.189   4.171   2.599
20996SOL    HW164429   7.115   4.217   2.549
20996SOL    HW264430   7.240   4.239   2.652
20997SOL     OW64431   5.817   5.437   2.345
20997SOL    HW164432   5.851   5.514   2.399
20997SOL    HW264433   5.861   5.437   2.255
20998SOL     OW64434   6.713   5.065   3.552
20998SOL    HW164435   6.760   5.065   3.640
20998SOL    HW264436   6.665   4.978   3.541
20999SOL     OW64437   5.816   5.158   2.400
20999SOL    HW164438   5.790   5.254   2.400
20999SOL    HW264439   5.745   5.104   2.445
21000SOL     OW64440   5.826   4.815   2.748
21000SOL    HW164441   5.840   4.731   2.800
21000SOL    HW264442   5.771   4.879   2.803
21001SOL     OW64443   6.206   5.510   3.301
21001SOL    HW164444   6.114   5.493   3.336
21001SOL    HW264445   6.234   5.602   3.327
21002SOL     OW64446   6.192   4.688   1.985
21002SOL    HW164447   6.199   4.772   1.931
21002SOL    HW264448   6.238   4.701   2.073
21003SOL     OW64449   7.180   3.838   3.342
21003SOL    HW164450   7.162   3.905   3.270
21003SOL    HW264451   7.177   3.884   3.431
21004SOL     OW64452   5.708   4.367   2.425
21004SOL    HW164453   5.663   4.279   2.442
21004SOL    HW264454   5.707   4.421   2.509
21005SOL     OW64455   7.428   5.491   2.221
21005SOL    HW164456   7.482   5.462   2.301
21005SOL    HW264457   7.458   5.581   2.192
21006SOL     OW64458   5.613   5.320   1.979
21006SOL    HW164459   5.594   5.224   2.000
21006SOL    HW264460   5.580   5.378   2.054
21007SOL     OW64461   7.275   4.646   2.474
21007SOL    HW164462   7.370   4.617   2.482
21007SOL    HW264463   7.267   4.711   2.399
21008SOL     OW64464   7.227   4.832   2.294
21008SOL    HW164465   7.313   4.834   2.242
21008SOL    HW264466   7.241   4.879   2.382
21009SOL     OW64467   5.699   4.461   3.459
21009SOL    HW164468   5.787   4.448   3.504
21009SOL    HW264469   5.686   4.558   3.437
21010SOL     OW64470   6.199   5.089   2.588
21010SOL    HW164471   6.150   5.002   2.597
21010SOL    HW264472   6.176   5.132   2.501
21011SOL     OW64473   6.879   4.952   3.285
21011SOL    HW164474   6.916   4.879   3.227
21011SOL    HW264475   6.931   4.957   3.370
21012SOL     OW64476   6.395   3.728   2.364
21012SOL    HW164477   6.435   3.819   2.355
21012SOL    HW264478   6.295   3.736   2.370
21013SOL     OW64479   5.783   4.700   3.126
21013SOL    HW164480   5.872   4.655   3.112
21013SOL    HW264481   5.710   4.635   3.107
21014SOL     OW64482   7.111   4.723   2.052
21014SOL    HW164483   7.048   4.647   2.065
21014SOL    HW264484   7.159   4.741   2.138
21015SOL     OW64485   6.773   5.516   3.478
21015SOL    HW164486   6.797   5.576   3.402
21015SOL    HW264487   6.780   5.421   3.448
21016SOL     OW64488   5.903   3.975   3.663
21016SOL    HW164489   5.974   4.046   3.669
21016SOL    HW264490   5.815   4.014   3.691
21017SOL     OW64491   7.052   5.141   2.815
21017SOL    HW164492   6.993   5.147   2.895
21017SOL    HW264493   7.037   5.053   2.769
21018SOL     OW64494   7.253   5.438   2.434
21018SOL    HW164495   7.212   5.415   2.346
21018SOL    HW264496   7.235   5.364   2.499
21019SOL     OW64497   6.184   4.453   2.132
21019SOL    HW164498   6.208   4.522   2.064
21019SOL    HW264499   6.106   4.486   2.186
21020SOL     OW64500   6.867   4.069   2.806
21020SOL    HW164501   6.781   4.019   2.793
21020SOL    HW264502   6.929   4.015   2.862
21021SOL     OW64503   7.162   5.386   2.169
21021SOL    HW164504   7.251   5.432   2.172
21021SOL    HW264505   7.141   5.362   2.074
21022SOL     OW64506   6.393   4.329   3.327
21022SOL    HW164507   6.346   4.326   3.416
21022SOL    HW264508   6.342   4.274   3.261
21023SOL     OW64509   6.980   4.193   3.536
21023SOL    HW164510   6.960   4.236   3.624
21023SOL    HW264511   7.058   4.131   3.545
21024SOL     OW64512   6.559   4.614   3.434
21024SOL    HW164513   6.605   4.530   3.405
21024SOL    HW264514   6.503   4.648   3.359
21025SOL     OW64515   6.577   4.134   3.104
21025SOL    HW164516   6.500   4.168   3.158
21025SOL    HW264517   6.543   4.083   3.025
21026SOL     OW64518   6.627   4.425   2.291
21026SOL    HW164519   6.653   4.421   2.387
21026SOL    HW264520   6.542   4.374   2.277
21027SOL     OW64521   5.662   4.535   2.651
21027SOL    HW164522   5.761   4.523   2.660
21027SOL    HW264523   5.638   4.630   2.672
21028SOL     OW64524   5.716   5.545   3.433
21028SOL    HW164525   5.706   5.530   3.532
21028SOL    HW264526   5.630   5.581   3.397
21029SOL     OW64527   6.451   4.072   2.057
21029SOL    HW164528   6.510   4.135   2.008
21029SOL    HW264529   6.470   3.978   2.028
21030SOL     OW64530   7.305   4.309   3.693
21030SOL    HW164531   7.279   4.398   3.657
21030SOL    HW264532   7.303   4.241   3.620
21031SOL     OW64533   6.948   4.868   2.407
21031SOL    HW164534   7.031   4.839   2.359
21031SOL    HW264535   6.899   4.935   2.351
21032SOL     OW64536   6.136   3.920   2.747
21032SOL    HW164537   6.131   3.915   2.847
21032SOL    HW264538   6.138   4.016   2.718
21033SOL     OW64539   6.594   5.180   2.339
21033SOL    HW164540   6.548   5.252   2.287
21033SOL    HW264541   6.590   5.200   2.437
21034SOL     OW64542   5.937   5.525   2.715
21034SOL    HW164543   5.987   5.439   2.721
21034SOL    HW264544   6.002   5.602   2.712
21035SOL     OW64545   7.381   4.790   2.735
21035SOL    HW164546   7.319   4.775   2.659
21035SOL    HW264547   7.329   4.801   2.820
21036SOL     OW64548   6.813   5.274   3.368
21036SOL    HW164549   6.819   5.197   3.432
21036SOL    HW264550   6.761   5.248   3.288
21037SOL     OW64551   5.907   4.667   2.104
21037SOL    HW164552   5.989   4.706   2.062
21037SOL    HW264553   5.880   4.585   2.055
21038SOL     OW64554   7.044   4.459   2.590
21038SOL    HW164555   7.039   4.394   2.665
21038SOL    HW264556   7.124   4.518   2.603
21039SOL     OW64557   6.047   4.990   3.589
21039SOL    HW164558   5.997   4.991   3.503
21039SOL    HW264559   5.984   4.972   3.665
21040SOL     OW64560   6.697   5.500   2.099
21040SOL    HW164561   6.637   5.438   2.149
21040SOL    HW264562   6.728   5.456   2.014
21041SOL     OW64563   5.788   4.009   3.360
21041SOL    HW164564   5.708   4.069   3.347
21041SOL    HW264565   5.778   3.960   3.446
21042SOL     OW64566   7.218   5.101   1.943
21042SOL    HW164567   7.186   5.195   1.933
21042SOL    HW264568   7.142   5.038   1.931
21043SOL     OW64569   6.050   5.467   2.185
21043SOL    HW164570   6.083   5.506   2.271
21043SOL    HW264571   6.126   5.460   2.120
21044SOL     OW64572   6.986   3.831   2.288
21044SOL    HW164573   6.962   3.794   2.198
21044SOL    HW264574   7.085   3.847   2.292
21045SOL     OW64575   5.835   5.509   3.103
21045SOL    HW164576   5.892   5.444   3.153
21045SOL    HW264577   5.819   5.476   3.010
21046SOL     OW64578   6.526   5.422   2.766
21046SOL    HW164579   6.606   5.365   2.787
21046SOL    HW264580   6.477   5.382   2.689
21047SOL     OW64581   5.968   4.424   2.342
21047SOL    HW164582   6.013   4.334   2.339
21047SOL    HW264583   5.874   4.413   2.375
21048SOL     OW64584   7.133   3.946   3.591
21048SOL    HW164585   7.128   3.983   3.683
21048SOL    HW264586   7.061   3.877   3.579
21049SOL     OW64587   6.200   3.846   1.979
21049SOL    HW164588   6.298   3.824   1.986
21049SOL    HW264589   6.169   3.829   1.886
21050SOL     OW64590   6.367   3.988   3.611
21050SOL    HW164591   6.434   3.927   3.654
21050SOL    HW264592   6.294   4.007   3.676
21051SOL     OW64593   6.474   5.238   3.057
21051SOL    HW164594   6.451   5.213   2.963
21051SOL    HW264595   6.535   5.169   3.096
21052SOL     OW64596   6.937   4.314   3.295
21052SOL    HW164597   6.965   4.271   3.380
21052SOL    HW264598   6.962   4.410   3.296
21053SOL     OW64599   6.389   5.126   2.786
21053SOL    HW164600   6.479   5.140   2.744
21053SOL    HW264601   6.318   5.128   2.715
21054SOL     OW64602   6.508   4.227   2.761
21054SOL    HW164603   6.483   4.218   2.665
21054SOL    HW264604   6.556   4.145   2.792
21055SOL     OW64605   6.125   3.788   2.374
21055SOL    HW164606   6.044   3.789   2.432
21055SOL    HW264607   6.128   3.871   2.319
21056SOL     OW64608   7.020   4.912   1.903
21056SOL    HW164609   7.052   4.836   1.960
21056SOL    HW264610   6.928   4.939   1.933
21057SOL     OW64611   5.883   3.759   2.033
21057SOL    HW164612   5.932   3.843   2.012
21057SOL    HW264613   5.945   3.694   2.078
21058SOL     OW64614   6.521   3.960   2.342
21058SOL    HW164615   6.473   4.001   2.264
21058SOL    HW264616   6.620   3.958   2.323
21059SOL     OW64617   6.662   4.407   3.326
21059SOL    HW164618   6.582   4.346   3.329
21059SOL    HW264619   6.743   4.354   3.302
21060SOL     OW64620   6.813   5.294   2.655
21060SOL    HW164621   6.834   5.368   2.590
21060SOL    HW264622   6.881   5.294   2.728
21061SOL     OW64623   6.045   4.876   2.603
21061SOL    HW164624   5.974   4.849   2.668
21061SOL    HW264625   6.019   4.848   2.510
21062SOL     OW64626   6.857   5.521   2.453
21062SOL    HW164627   6.901   5.585   2.389
21062SOL    HW264628   6.807   5.573   2.523
21063SOL     OW64629   6.618   4.273   1.878
21063SOL    HW164630   6.577   4.355   1.839
21063SOL    HW264631   6.682   4.299   1.951
21064SOL     OW64632   5.664   4.280   3.248
21064SOL    HW164633   5.756   4.279   3.207
21064SOL    HW264634   5.658   4.354   3.315
21065SOL     OW64635   6.147   3.946   3.009
21065SOL    HW164636   6.185   3.862   3.046
21065SOL    HW264637   6.059   3.965   3.053
21066SOL     OW64638   6.452   4.178   2.504
21066SOL    HW164639   6.420   4.250   2.442
21066SOL    HW264640   6.476   4.097   2.451
21067SOL     OW64641   6.603   3.763   2.615
21067SOL    HW164642   6.531   3.768   2.546
21067SOL    HW264643   6.579   3.694   2.684
21068SOL     OW64644   7.015   4.897   2.729
21068SOL    HW164645   6.960   4.813   2.722
21068SOL    HW264646   7.041   4.926   2.637
21069SOL     OW64647   7.052   4.314   2.854
21069SOL    HW164648   7.022   4.219   2.861
21069SOL    HW264649   7.125   4.330   2.920
21070SOL     OW64650   7.443   4.557   2.239
21070SOL    HW164651   7.485   4.493   2.303
21070SOL    HW264652   7.405   4.506   2.161
21071SOL     OW64653   6.074   5.109   2.036
21071SOL    HW164654   5.987   5.094   2.083
21071SOL    HW264655   6.057   5.135   1.941
21072SOL     OW64656   7.250   5.004   2.519
21072SOL    HW164657   7.349   5.012   2.533
21072SOL    HW264658   7.205   5.088   2.550
21073SOL     OW64659   6.976   4.299   1.940
21073SOL    HW164660   6.922   4.278   2.021
21073SOL    HW264661   7.067   4.258   1.949
21074SOL     OW64662   6.113   3.980   2.190
21074SOL    HW164663   6.140   3.921   2.115
21074SOL    HW264664   6.113   4.075   2.159
21075SOL     OW64665   7.340   4.947   3.450
21075SOL    HW164666   7.431   4.908   3.437
21075SOL    HW264667   7.348   5.043   3.474
21076SOL     OW64668   6.650   5.071   3.202
21076SOL    HW164669   6.570   5.048   3.257
21076SOL    HW264670   6.733   5.045   3.251
21077SOL     OW64671   7.178   5.353   3.487
21077SOL    HW164672   7.205   5.387   3.397
21077SOL    HW264673   7.257   5.315   3.533
21078SOL     OW64674   6.697   4.919   2.962
21078SOL    HW164675   6.657   4.963   3.043
21078SOL    HW264676   6.656   4.956   2.879
21079SOL     OW64677   7.224   4.823   2.941
21079SOL    HW164678   7.229   4.904   3.000
21079SOL    HW264679   7.138   4.825   2.890
21080SOL     OW64680   6.501   3.813   3.264
21080SOL    HW164681   6.526   3.793   3.169
21080SOL    HW264682   6.573   3.869   3.306
21081SOL     OW64683   6.566   4.840   3.581
21081SOL    HW164684   6.467   4.846   3.591
21081SOL    HW264685   6.589   4.760   3.525
21082SOL     OW64686   6.291   4.774   2.230
21082SOL    HW164687   6.277   4.781   2.329
21082SOL    HW264688   6.375   4.723   2.212
21083SOL     OW64689   5.996   4.537   3.113
21083SOL    HW164690   6.082   4.549   3.163
21083SOL    HW264691   5.954   4.450   3.140
21084SOL     OW64692   6.860   4.110   3.124
21084SOL    HW164693   6.881   4.184   3.188
21084SOL    HW264694   6.771   4.127   3.081
21085SOL     OW64695   5.650   5.288   3.193
21085SOL    HW164696   5.604   5.370   3.159
21085SOL    HW264697   5.748   5.307   3.202
21086SOL     OW64698   5.953   4.824   2.363
21086SOL    HW164699   5.946   4.907   2.307
21086SOL    HW264700   5.957   4.744   2.303
21087SOL     OW64701   6.152   4.261   2.727
21087SOL    HW164702   6.164   4.327   2.653
21087SOL    HW264703   6.198   4.295   2.810
21088SOL     OW64704   6.838   5.072   2.250
21088SOL    HW164705   6.888   5.149   2.290
21088SOL    HW264706   6.743   5.074   2.282
21089SOL     OW64707   6.858   5.169   3.004
21089SOL    HW164708   6.905   5.182   3.091
21089SOL    HW264709   6.792   5.095   3.013
21090SOL     OW64710   7.168   4.363   2.334
21090SOL    HW164711   7.137   4.424   2.407
21090SOL    HW264712   7.218   4.415   2.265
21091SOL     OW64713   5.940   5.234   3.191
21091SOL    HW164714   5.919   5.190   3.104
21091SOL    HW264715   6.037   5.260   3.194
21092SOL     OW64716   5.988   4.475   3.460
21092SOL    HW164717   6.056   4.530   3.413
21092SOL    HW264718   6.028   4.387   3.487
21093SOL     OW64719   7.173   4.503   3.532
21093SOL    HW164720   7.081   4.541   3.527
21093SOL    HW264721   7.233   4.550   3.467
21094SOL     OW64722   6.599   3.829   3.632
21094SOL    HW164723   6.605   3.914   3.580
21094SOL    HW264724   6.631   3.753   3.575
21095SOL     OW64725   6.090   3.774   3.602
21095SOL    HW164726   6.048   3.717   3.532
21095SOL    HW264727   6.024   3.843   3.634
21096SOL     OW64728   6.159   4.594   2.891
21096SOL    HW164729   6.203   4.683   2.882
21096SOL    HW264730   6.096   4.594   2.968
21097SOL     OW64731   6.946   4.586   2.907
21097SOL    HW164732   6.871   4.586   2.841
21097SOL    HW264733   6.983   4.494   2.916
21098SOL     OW64734   6.795   4.249   2.137
21098SOL    HW164735   6.808   4.165   2.191
21098SOL    HW264736   6.766   4.323   2.197
21099SOL     OW64737   5.893   3.937   3.093
21099SOL    HW164738   5.870   3.974   3.183
21099SOL    HW264739   5.863   3.842   3.087
21100SOL     OW64740   5.623   5.034   3.144
21100SOL    HW164741   5.676   4.985   3.212
21100SOL    HW264742   5.645   5.132   3.149
21101SOL     OW64743   6.318   4.358   2.926
21101SOL    HW164744   6.377   4.332   2.850
21101SOL    HW264745   6.290   4.454   2.915
21102SOL     OW64746   7.314   4.659   3.716
21102SOL    HW164747   7.268   4.652   3.627
21102SOL    HW264748   7.252   4.703   3.782
21103SOL     OW64749   5.893   3.787   2.480
21103SOL    HW164750   5.882   3.881   2.513
21103SOL    HW264751   5.888   3.724   2.557
21104SOL     OW64752   7.208   4.091   2.236
21104SOL    HW164753   7.210   4.015   2.300
21104SOL    HW264754   7.160   4.168   2.276
21105SOL     OW64755   6.609   4.490   2.828
21105SOL    HW164756   6.624   4.511   2.924
21105SOL    HW264757   6.579   4.395   2.819
21106SOL     OW64758   6.566   5.297   3.562
21106SOL    HW164759   6.546   5.341   3.474
21106SOL    HW264760   6.605   5.206   3.546
21107SOL     OW64761   7.445   5.242   3.467
21107SOL    HW164762   7.459   5.269   3.372
21107SOL    HW264763   7.528   5.264   3.520
21108SOL     OW64764   5.936   4.622   3.666
21108SOL    HW164765   6.012   4.666   3.714
21108SOL    HW264766   5.971   4.575   3.584
21109SOL     OW64767   7.126   3.998   1.987
21109SOL    HW164768   7.065   3.923   2.010
21109SOL    HW264769   7.148   4.050   2.070
21110SOL     OW64770   6.889   4.562   1.904
21110SOL    HW164771   6.923   4.469   1.919
21110SOL    HW264772   6.907   4.589   1.809
21111SOL     OW64773   6.654   5.057   2.711
21111SOL    HW164774   6.661   4.973   2.656
21111SOL    HW264775   6.716   5.126   2.675
21112SOL     OW64776   5.905   4.534   2.811
21112SOL    HW164777   5.998   4.570   2.816
21112SOL    HW264778   5.899   4.449   2.863
21113SOL     OW64779   5.925   4.233   2.868
21113SOL    HW164780   5.873   4.150   2.851
21113SOL    HW264781   6.002   4.238   2.804
21114SOL     OW64782   6.724   4.104   3.540
21114SOL    HW164783   6.679   4.167   3.604
21114SOL    HW264784   6.817   4.135   3.523
21115SOL     OW64785   6.746   3.931   3.339
21115SOL    HW164786   6.746   3.995   3.416
21115SOL    HW264787   6.774   3.979   3.256
21116SOL     OW64788   5.594   5.050   2.062
21116SOL    HW164789   5.501   5.071   2.031
21116SOL    HW264790   5.604   4.951   2.075
21117SOL     OW64791   5.674   5.525   2.789
21117SOL    HW164792   5.632   5.439   2.762
21117SOL    HW264793   5.768   5.528   2.755
21118SOL     OW64794   6.090   5.292   2.772
21118SOL    HW164795   6.156   5.366   2.781
21118SOL    HW264796   6.134   5.213   2.730
21119SOL     OW64797   6.588   4.520   3.100
21119SOL    HW164798   6.629   4.488   3.186
21119SOL    HW264799   6.492   4.493   3.097
21120SOL     OW64800   5.626   4.268   2.976
21120SOL    HW164801   5.711   4.235   2.935
21120SOL    HW264802   5.639   4.283   3.074
21121SOL     OW64803   5.775   4.244   3.584
21121SOL    HW164804   5.834   4.204   3.514
21121SOL    HW264805   5.717   4.315   3.543
21122SOL     OW64806   6.955   4.674   3.522
21122SOL    HW164807   6.994   4.763   3.542
21122SOL    HW264808   6.965   4.654   3.425
21123SOL     OW64809   6.401   4.296   2.187
21123SOL    HW164810   6.408   4.207   2.141
21123SOL    HW264811   6.307   4.330   2.179
21124SOL     OW64812   7.243   4.328   3.068
21124SOL    HW164813   7.205   4.259   3.130
21124SOL    HW264814   7.325   4.292   3.024
21125SOL     OW64815   5.838   5.288   3.606
21125SOL    HW164816   5.808   5.345   3.682
21125SOL    HW264817   5.831   5.191   3.632
21126SOL     OW64818   6.257   4.188   3.131
21126SOL    HW164819   6.223   4.099   3.101
21126SOL    HW264820   6.283   4.242   3.051
21127SOL     OW64821   6.516   5.402   3.327
21127SOL    HW164822   6.492   5.384   3.232
21127SOL    HW264823   6.546   5.496   3.337
21128SOL     OW64824   6.059   4.224   2.053
21128SOL    HW164825   6.120   4.304   2.057
21128SOL    HW264826   5.964   4.255   2.060
21129SOL     OW64827   5.745   4.861   3.328
21129SOL    HW164828   5.767   4.800   3.404
21129SOL    HW264829   5.755   4.812   3.242
21130SOL     OW64830   6.933   4.783   3.096
21130SOL    HW164831   6.957   4.720   3.022
21130SOL    HW264832   6.843   4.823   3.078
21131SOL     OW64833   6.888   4.579   2.171
21131SOL    HW164834   6.802   4.548   2.213
21131SOL    HW264835   6.884   4.565   2.072
21132SOL     OW64836   7.345   5.471   3.016
21132SOL    HW164837   7.406   5.501   2.943
21132SOL    HW264838   7.307   5.382   2.994
21133SOL     OW64839   6.838   5.455   2.990
21133SOL    HW164840   6.922   5.460   2.936
21133SOL    HW264841   6.815   5.359   3.008
21134SOL     OW64842   5.669   4.982   2.884
21134SOL    HW164843   5.664   4.981   2.984
21134SOL    HW264844   5.586   4.941   2.846
21135SOL     OW64845   6.274   5.386   3.578
21135SOL    HW164846   6.218   5.467   3.587
21135SOL    HW264847   6.326   5.390   3.492
21136SOL     OW64848   7.312   3.859   2.385
21136SOL    HW164849   7.385   3.842   2.318
21136SOL    HW264850   7.281   3.772   2.423
21137SOL     OW64851   6.974   5.297   2.339
21137SOL    HW164852   7.041   5.309   2.265
21137SOL    HW264853   6.934   5.386   2.362
21138SOL     OW64854   5.716   5.518   3.713
21138SOL    HW164855   5.675   5.444   3.766
21138SOL    HW264856   5.780   5.569   3.771
21139SOL     OW64857   6.866   4.651   2.534
21139SOL    HW164858   6.926   4.570   2.536
21139SOL    HW264859   6.906   4.720   2.474
21140SOL     OW64860   6.416   4.997   3.284
21140SOL    HW164861   6.411   5.030   3.379
21140SOL    HW264862   6.330   5.016   3.238
21141SOL     OW64863   6.258   5.340   2.016
21141SOL    HW164864   6.267   5.350   1.917
21141SOL    HW264865   6.218   5.251   2.037
21142SOL     OW64866   7.236   5.444   3.256
21142SOL    HW164867   7.289   5.454   3.172
21142SOL    HW264868   7.209   5.534   3.290
21143SOL     OW64869   7.427   3.899   2.825
21143SOL    HW164870   7.466   3.814   2.789
21143SOL    HW264871   7.329   3.901   2.806
21144SOL     OW64872   5.849   4.050   2.582
21144SOL    HW164873   5.770   4.101   2.548
21144SOL    HW264874   5.840   4.035   2.680
21145SOL     OW64875   6.780   5.336   1.893
21145SOL    HW164876   6.786   5.243   1.930
21145SOL    HW264877   6.721   5.336   1.813
21146SOL     OW64878   6.408   4.726   3.234
21146SOL    HW164879   6.448   4.725   3.142
21146SOL    HW264880   6.418   4.818   3.274
21147SOL     OW64881   6.502   4.634   2.153
21147SOL    HW164882   6.565   4.672   2.085
21147SOL    HW264883   6.542   4.551   2.192
21148SOL     OW64884   7.090   5.331   1.906
21148SOL    HW164885   6.998   5.368   1.913
21148SOL    HW264886   7.128   5.351   1.816
21149SOL     OW64887   5.958   5.012   3.352
21149SOL    HW164888   5.945   5.105   3.318
21149SOL    HW264889   5.874   4.960   3.339
21150SOL     OW64890   7.200   5.016   3.151
21150SOL    HW164891   7.260   5.019   3.231
21150SOL    HW264892   7.125   5.080   3.164
21151SOL     OW64893   6.625   4.822   2.558
21151SOL    HW164894   6.555   4.775   2.612
21151SOL    HW264895   6.684   4.754   2.515
21152SOL     OW64896   6.600   3.960   2.833
21152SOL    HW164897   6.592   3.924   2.740
21152SOL    HW264898   6.598   3.884   2.898
21153SOL     OW64899   6.176   5.211   2.353
21153SOL    HW164900   6.218   5.153   2.283
21153SOL    HW264901   6.132   5.290   2.309
21154SOL     OW64902   7.295   4.109   3.243
21154SOL    HW164903   7.368   4.178   3.247
21154SOL    HW264904   7.323   4.034   3.184
21155SOL     OW64905   5.841   5.072   2.152
21155SOL    HW164906   5.745   5.073   2.125
21155SOL    HW264907   5.853   5.125   2.236
21156SOL     OW64908   5.691   4.737   3.588
21156SOL    HW164909   5.614   4.704   3.642
21156SOL    HW264910   5.776   4.707   3.630
21157SOL     OW64911   6.258   3.927   3.351
21157SOL    HW164912   6.348   3.911   3.311
21157SOL    HW264913   6.266   3.932   3.450
21158SOL     OW64914   5.661   4.069   1.895
21158SOL    HW164915   5.569   4.041   1.866
21158SOL    HW264916   5.692   4.146   1.839
21159SOL     OW64917   7.026   4.580   3.260
21159SOL    HW164918   6.969   4.632   3.197
21159SOL    HW264919   7.122   4.592   3.236
21160SOL     OW64920   5.658   3.890   2.180
21160SOL    HW164921   5.641   3.973   2.126
21160SOL    HW264922   5.748   3.853   2.158
21161SOL     OW64923   6.769   5.059   1.981
21161SOL    HW164924   6.670   5.048   1.983
21161SOL    HW264925   6.803   5.074   2.074
21162SOL     OW64926   6.199   4.566   3.293
21162SOL    HW164927   6.255   4.647   3.276
21162SOL    HW264928   6.258   4.486   3.296
21163SOL     OW64929   7.079   5.491   2.821
21163SOL    HW164930   7.112   5.555   2.752
21163SOL    HW264931   7.145   5.485   2.896
21164SOL     OW64932   6.302   4.289   3.570
21164SOL    HW164933   6.321   4.354   3.644
21164SOL    HW264934   6.362   4.209   3.579
21165SOL     OW64935   7.036   4.944   3.495
21165SOL    HW164936   7.027   4.934   3.594
21165SOL    HW264937   7.132   4.937   3.469
21166SOL     OW64938   5.976   5.465   3.422
21166SOL    HW164939   5.885   5.506   3.420
21166SOL    HW264940   5.969   5.371   3.454
21167SOL     OW64941   7.260   4.607   3.116
21167SOL    HW164942   7.233   4.518   3.079
21167SOL    HW264943   7.261   4.675   3.043
21168SOL     OW64944   6.811   4.049   2.311
21168SOL    HW164945   6.876   3.975   2.300
21168SOL    HW264946   6.831   4.099   2.395
21169SOL     OW64947   6.180   4.469   2.514
21169SOL    HW164948   6.230   4.554   2.495
21169SOL    HW264949   6.092   4.471   2.466
21170SOL     OW64950   7.363   4.066   3.504
21170SOL    HW164951   7.346   4.097   3.410
21170SOL    HW264952   7.279   4.029   3.542
21171SOL     OW64953   7.316   4.658   3.379
21171SOL    HW164954   7.354   4.749   3.394
21171SOL    HW264955   7.308   4.641   3.280
21172SOL     OW64956   6.445   5.098   1.878
21172SOL    HW164957   6.399   5.113   1.966
21172SOL    HW264958   6.489   5.183   1.848
21173SOL     OW64959   6.247   5.514   2.815
21173SOL    HW164960   6.201   5.602   2.802
21173SOL    HW264961   6.346   5.526   2.808
21174SOL     OW64962   6.445   4.680   2.723
21174SOL    HW164963   6.499   4.611   2.771
21174SOL    HW264964   6.413   4.749   2.789
21175SOL     OW64965   6.669   4.708   1.949
21175SOL    HW164966   6.646   4.761   1.867
21175SOL    HW264967   6.750   4.652   1.930
21176SOL     OW64968   7.447   5.293   2.713
21176SOL    HW164969   7.376   5.281   2.643
21176SOL    HW264970   7.448   5.214   2.773
21177SOL     OW64971   5.807   5.038   3.706
21177SOL    HW164972   5.742   4.965   3.685
21177SOL    HW264973   5.811   5.052   3.804
21178SOL     OW64974   5.665   4.964   2.515
21178SOL    HW164975   5.664   4.917   2.603
21178SOL    HW264976   5.747   4.936   2.464
21179SOL     OW64977   6.258   5.115   3.486
21179SOL    HW164978   6.180   5.065   3.524
21179SOL    HW264979   6.255   5.210   3.517
21180SOL     OW64980   7.410   3.916   3.089
21180SOL    HW164981   7.406   3.826   3.133
21180SOL    HW264982   7.413   3.905   2.990
21181SOL     OW64983   6.014   4.148   2.382
21181SOL    HW164984   6.044   4.076   2.320
21181SOL    HW264985   5.975   4.108   2.465
21182SOL     OW64986   7.291   5.211   2.966
21182SOL    HW164987   7.198   5.186   2.939
21182SOL    HW264988   7.317   5.161   3.048
21183SOL     OW64989   5.903   4.271   3.142
21183SOL    HW164990   5.941   4.212   3.214
21183SOL    HW264991   5.943   4.245   3.054
21184SOL     OW64992   6.398   5.310   2.549
21184SOL    HW164993   6.430   5.320   2.455
21184SOL    HW264994   6.319   5.248   2.551
21185SOL     OW64995   7.010   3.938   2.974
21185SOL    HW164996   7.062   3.873   3.029
21185SOL    HW264997   6.961   4.001   3.035
21186SOL     OW64998   6.587   3.758   3.016
21186SOL    HW164999   6.524   3.686   2.985
21186SOL    HW265000   6.680   3.722   3.016
21187SOL     OW65001   6.356   5.054   2.163
21187SOL    HW165002   6.310   4.967   2.180
21187SOL    HW265003   6.447   5.051   2.204
21188SOL     OW65004   6.204   5.291   3.146
21188SOL    HW165005   6.199   5.373   3.203
21188SOL    HW265006   6.293   5.288   3.101
21189SOL     OW65007   6.938   3.776   2.030
21189SOL    HW165008   6.973   3.735   1.946
21189SOL    HW265009   6.848   3.738   2.050
21190SOL     OW65010   6.886   4.177   2.553
21190SOL    HW165011   6.827   4.257   2.557
21190SOL    HW265012   6.901   4.142   2.646
21191SOL     OW65013   7.179   3.945   2.744
21191SOL    HW165014   7.095   3.944   2.798
21191SOL    HW265015   7.181   4.028   2.688
21192SOL     OW65016   5.625   4.801   2.162
21192SOL    HW165017   5.724   4.790   2.153
21192SOL    HW265018   5.585   4.715   2.194
21193SOL     OW65019   6.461   5.370   2.199
21193SOL    HW165020   6.384   5.335   2.145
21193SOL    HW265021   6.429   5.441   2.261
21194SOL     OW65022   5.816   4.352   3.837
21194SOL    HW165023   5.723   4.350   3.874
21194SOL    HW265024   5.817   4.313   3.745
21195SOL     OW65025   5.811   3.999   4.720
21195SOL    HW165026   5.846   3.982   4.812
21195SOL    HW265027   5.723   3.954   4.708
21196SOL     OW65028   5.605   4.092   4.371
21196SOL    HW165029   5.523   4.135   4.410
21196SOL    HW265030   5.577   4.019   4.308
21197SOL     OW65031   6.155   4.999   4.889
21197SOL    HW165032   6.062   4.992   4.852
21197SOL    HW265033   6.166   5.088   4.933
21198SOL     OW65034   7.141   5.235   4.427
21198SOL    HW165035   7.084   5.219   4.508
21198SOL    HW265036   7.082   5.245   4.347
21199SOL     OW65037   6.721   4.427   4.441
21199SOL    HW165038   6.778   4.505   4.416
21199SOL    HW265039   6.661   4.453   4.517
21200SOL     OW65040   7.341   4.331   3.955
21200SOL    HW165041   7.329   4.318   3.856
21200SOL    HW265042   7.311   4.250   4.004
21201SOL     OW65043   6.354   4.868   4.747
21201SOL    HW165044   6.276   4.885   4.807
21201SOL    HW265045   6.388   4.955   4.711
21202SOL     OW65046   6.436   4.522   5.547
21202SOL    HW165047   6.432   4.598   5.612
21202SOL    HW265048   6.458   4.558   5.456
21203SOL     OW65049   6.271   4.736   4.389
21203SOL    HW165050   6.340   4.720   4.459
21203SOL    HW265051   6.198   4.793   4.427
21204SOL     OW65052   6.272   4.885   5.527
21204SOL    HW165053   6.332   4.964   5.541
21204SOL    HW265054   6.186   4.916   5.486
21205SOL     OW65055   5.921   5.159   4.785
21205SOL    HW165056   5.843   5.128   4.732
21205SOL    HW265057   5.979   5.217   4.728
21206SOL     OW65058   7.046   5.229   5.063
21206SOL    HW165059   7.070   5.323   5.089
21206SOL    HW265060   7.030   5.175   5.145
21207SOL     OW65061   6.024   4.116   5.223
21207SOL    HW165062   6.106   4.060   5.232
21207SOL    HW265063   5.943   4.058   5.227
21208SOL     OW65064   7.189   4.171   4.461
21208SOL    HW165065   7.115   4.217   4.411
21208SOL    HW265066   7.240   4.239   4.514
21209SOL     OW65067   5.817   5.437   4.207
21209SOL    HW165068   5.851   5.514   4.261
21209SOL    HW265069   5.861   5.437   4.117
21210SOL     OW65070   6.713   5.065   5.414
21210SOL    HW165071   6.760   5.065   5.502
21210SOL    HW265072   6.665   4.978   5.403
21211SOL     OW65073   5.816   5.158   4.262
21211SOL    HW165074   5.790   5.254   4.262
21211SOL    HW265075   5.745   5.104   4.307
21212SOL     OW65076   5.826   4.815   4.610
21212SOL    HW165077   5.840   4.731   4.662
21212SOL    HW265078   5.771   4.879   4.665
21213SOL     OW65079   6.206   5.510   5.163
21213SOL    HW165080   6.114   5.493   5.198
21213SOL    HW265081   6.234   5.602   5.189
21214SOL     OW65082   6.192   4.688   3.847
21214SOL    HW165083   6.199   4.772   3.793
21214SOL    HW265084   6.238   4.701   3.935
21215SOL     OW65085   7.180   3.838   5.204
21215SOL    HW165086   7.162   3.905   5.132
21215SOL    HW265087   7.177   3.884   5.293
21216SOL     OW65088   5.708   4.367   4.287
21216SOL    HW165089   5.663   4.279   4.304
21216SOL    HW265090   5.707   4.421   4.371
21217SOL     OW65091   7.428   5.491   4.083
21217SOL    HW165092   7.482   5.462   4.163
21217SOL    HW265093   7.458   5.581   4.054
21218SOL     OW65094   5.613   5.320   3.841
21218SOL    HW165095   5.594   5.224   3.862
21218SOL    HW265096   5.580   5.378   3.916
21219SOL     OW65097   7.275   4.646   4.336
21219SOL    HW165098   7.370   4.617   4.344
21219SOL    HW265099   7.267   4.711   4.261
21220SOL     OW65100   7.227   4.832   4.156
21220SOL    HW165101   7.313   4.834   4.104
21220SOL    HW265102   7.241   4.879   4.244
21221SOL     OW65103   5.699   4.461   5.321
21221SOL    HW165104   5.787   4.448   5.366
21221SOL    HW265105   5.686   4.558   5.299
21222SOL     OW65106   6.199   5.089   4.450
21222SOL    HW165107   6.150   5.002   4.459
21222SOL    HW265108   6.176   5.132   4.363
21223SOL     OW65109   6.879   4.952   5.147
21223SOL    HW165110   6.916   4.879   5.089
21223SOL    HW265111   6.931   4.957   5.232
21224SOL     OW65112   6.395   3.728   4.226
21224SOL    HW165113   6.435   3.819   4.217
21224SOL    HW265114   6.295   3.736   4.232
21225SOL     OW65115   5.783   4.700   4.988
21225SOL    HW165116   5.872   4.655   4.974
21225SOL    HW265117   5.710   4.635   4.969
21226SOL     OW65118   7.111   4.723   3.914
21226SOL    HW165119   7.048   4.647   3.927
21226SOL    HW265120   7.159   4.741   4.000
21227SOL     OW65121   6.773   5.516   5.340
21227SOL    HW165122   6.797   5.576   5.264
21227SOL    HW265123   6.780   5.421   5.310
21228SOL     OW65124   5.903   3.975   5.525
21228SOL    HW165125   5.974   4.046   5.531
21228SOL    HW265126   5.815   4.014   5.553
21229SOL     OW65127   7.052   5.141   4.677
21229SOL    HW165128   6.993   5.147   4.757
21229SOL    HW265129   7.037   5.053   4.631
21230SOL     OW65130   7.253   5.438   4.296
21230SOL    HW165131   7.212   5.415   4.208
21230SOL    HW265132   7.235   5.364   4.361
21231SOL     OW65133   6.184   4.453   3.994
21231SOL    HW165134   6.208   4.522   3.926
21231SOL    HW265135   6.106   4.486   4.048
21232SOL     OW65136   6.867   4.069   4.668
21232SOL    HW165137   6.781   4.019   4.655
21232SOL    HW265138   6.929   4.015   4.724
21233SOL     OW65139   7.162   5.386   4.031
21233SOL    HW165140   7.251   5.432   4.034
21233SOL    HW265141   7.141   5.362   3.936
21234SOL     OW65142   6.393   4.329   5.189
21234SOL    HW165143   6.346   4.326   5.278
21234SOL    HW265144   6.342   4.274   5.123
21235SOL     OW65145   6.980   4.193   5.398
21235SOL    HW165146   6.960   4.236   5.486
21235SOL    HW265147   7.058   4.131   5.407
21236SOL     OW65148   6.559   4.614   5.296
21236SOL    HW165149   6.605   4.530   5.267
21236SOL    HW265150   6.503   4.648   5.221
21237SOL     OW65151   6.577   4.134   4.966
21237SOL    HW165152   6.500   4.168   5.020
21237SOL    HW265153   6.543   4.083   4.887
21238SOL     OW65154   6.627   4.425   4.153
21238SOL    HW165155   6.653   4.421   4.249
21238SOL    HW265156   6.542   4.374   4.139
21239SOL     OW65157   5.662   4.535   4.513
21239SOL    HW165158   5.761   4.523   4.522
21239SOL    HW265159   5.638   4.630   4.534
21240SOL     OW65160   5.716   5.545   5.295
21240SOL    HW165161   5.706   5.530   5.394
21240SOL    HW265162   5.630   5.581   5.259
21241SOL     OW65163   6.451   4.072   3.919
21241SOL    HW165164   6.510   4.135   3.870
21241SOL    HW265165   6.470   3.978   3.890
21242SOL     OW65166   7.305   4.309   5.555
21242SOL    HW165167   7.279   4.398   5.519
21242SOL    HW265168   7.303   4.241   5.482
21243SOL     OW65169   6.948   4.868   4.269
21243SOL    HW165170   7.031   4.839   4.221
21243SOL    HW265171   6.899   4.935   4.213
21244SOL     OW65172   6.136   3.920   4.609
21244SOL    HW165173   6.131   3.915   4.709
21244SOL    HW265174   6.138   4.016   4.580
21245SOL     OW65175   6.594   5.180   4.201
21245SOL    HW165176   6.548   5.252   4.149
21245SOL    HW265177   6.590   5.200   4.299
21246SOL     OW65178   5.937   5.525   4.577
21246SOL    HW165179   5.987   5.439   4.583
21246SOL    HW265180   6.002   5.602   4.574
21247SOL     OW65181   7.381   4.790   4.597
21247SOL    HW165182   7.319   4.775   4.521
21247SOL    HW265183   7.329   4.801   4.682
21248SOL     OW65184   6.813   5.274   5.230
21248SOL    HW165185   6.819   5.197   5.294
21248SOL    HW265186   6.761   5.248   5.150
21249SOL     OW65187   5.907   4.667   3.966
21249SOL    HW165188   5.989   4.706   3.924
21249SOL    HW265189   5.880   4.585   3.917
21250SOL     OW65190   7.044   4.459   4.452
21250SOL    HW165191   7.039   4.394   4.527
21250SOL    HW265192   7.124   4.518   4.465
21251SOL     OW65193   6.047   4.990   5.451
21251SOL    HW165194   5.997   4.991   5.365
21251SOL    HW265195   5.984   4.972   5.527
21252SOL     OW65196   6.697   5.500   3.961
21252SOL    HW165197   6.637   5.438   4.011
21252SOL    HW265198   6.728   5.456   3.876
21253SOL     OW65199   5.788   4.009   5.222
21253SOL    HW165200   5.708   4.069   5.209
21253SOL    HW265201   5.778   3.960   5.308
21254SOL     OW65202   7.218   5.101   3.805
21254SOL    HW165203   7.186   5.195   3.795
21254SOL    HW265204   7.142   5.038   3.793
21255SOL     OW65205   6.050   5.467   4.047
21255SOL    HW165206   6.083   5.506   4.133
21255SOL    HW265207   6.126   5.460   3.982
21256SOL     OW65208   6.986   3.831   4.150
21256SOL    HW165209   6.962   3.794   4.060
21256SOL    HW265210   7.085   3.847   4.154
21257SOL     OW65211   5.835   5.509   4.965
21257SOL    HW165212   5.892   5.444   5.015
21257SOL    HW265213   5.819   5.476   4.872
21258SOL     OW65214   6.526   5.422   4.628
21258SOL    HW165215   6.606   5.365   4.649
21258SOL    HW265216   6.477   5.382   4.551
21259SOL     OW65217   5.968   4.424   4.204
21259SOL    HW165218   6.013   4.334   4.201
21259SOL    HW265219   5.874   4.413   4.237
21260SOL     OW65220   7.133   3.946   5.453
21260SOL    HW165221   7.128   3.983   5.545
21260SOL    HW265222   7.061   3.877   5.441
21261SOL     OW65223   6.200   3.846   3.841
21261SOL    HW165224   6.298   3.824   3.848
21261SOL    HW265225   6.169   3.829   3.748
21262SOL     OW65226   6.367   3.988   5.473
21262SOL    HW165227   6.434   3.927   5.516
21262SOL    HW265228   6.294   4.007   5.538
21263SOL     OW65229   6.474   5.238   4.919
21263SOL    HW165230   6.451   5.213   4.825
21263SOL    HW265231   6.535   5.169   4.958
21264SOL     OW65232   6.937   4.314   5.157
21264SOL    HW165233   6.965   4.271   5.242
21264SOL    HW265234   6.962   4.410   5.158
21265SOL     OW65235   6.389   5.126   4.648
21265SOL    HW165236   6.479   5.140   4.606
21265SOL    HW265237   6.318   5.128   4.577
21266SOL     OW65238   6.508   4.227   4.623
21266SOL    HW165239   6.483   4.218   4.527
21266SOL    HW265240   6.556   4.145   4.654
21267SOL     OW65241   6.125   3.788   4.236
21267SOL    HW165242   6.044   3.789   4.294
21267SOL    HW265243   6.128   3.871   4.181
21268SOL     OW65244   7.020   4.912   3.765
21268SOL    HW165245   7.052   4.836   3.822
21268SOL    HW265246   6.928   4.939   3.795
21269SOL     OW65247   5.883   3.759   3.895
21269SOL    HW165248   5.932   3.843   3.874
21269SOL    HW265249   5.945   3.694   3.940
21270SOL     OW65250   6.521   3.960   4.204
21270SOL    HW165251   6.473   4.001   4.126
21270SOL    HW265252   6.620   3.958   4.185
21271SOL     OW65253   6.662   4.407   5.188
21271SOL    HW165254   6.582   4.346   5.191
21271SOL    HW265255   6.743   4.354   5.164
21272SOL     OW65256   6.813   5.294   4.517
21272SOL    HW165257   6.834   5.368   4.452
21272SOL    HW265258   6.881   5.294   4.590
21273SOL     OW65259   6.045   4.876   4.465
21273SOL    HW165260   5.974   4.849   4.530
21273SOL    HW265261   6.019   4.848   4.372
21274SOL     OW65262   6.857   5.521   4.315
21274SOL    HW165263   6.901   5.585   4.251
21274SOL    HW265264   6.807   5.573   4.385
21275SOL     OW65265   6.618   4.273   3.740
21275SOL    HW165266   6.577   4.355   3.701
21275SOL    HW265267   6.682   4.299   3.813
21276SOL     OW65268   5.664   4.280   5.110
21276SOL    HW165269   5.756   4.279   5.069
21276SOL    HW265270   5.658   4.354   5.177
21277SOL     OW65271   6.147   3.946   4.871
21277SOL    HW165272   6.185   3.862   4.908
21277SOL    HW265273   6.059   3.965   4.915
21278SOL     OW65274   6.452   4.178   4.366
21278SOL    HW165275   6.420   4.250   4.304
21278SOL    HW265276   6.476   4.097   4.313
21279SOL     OW65277   6.603   3.763   4.477
21279SOL    HW165278   6.531   3.768   4.408
21279SOL    HW265279   6.579   3.694   4.546
21280SOL     OW65280   7.015   4.897   4.591
21280SOL    HW165281   6.960   4.813   4.584
21280SOL    HW265282   7.041   4.926   4.499
21281SOL     OW65283   7.052   4.314   4.716
21281SOL    HW165284   7.022   4.219   4.723
21281SOL    HW265285   7.125   4.330   4.782
21282SOL     OW65286   7.443   4.557   4.101
21282SOL    HW165287   7.485   4.493   4.165
21282SOL    HW265288   7.405   4.506   4.023
21283SOL     OW65289   6.074   5.109   3.898
21283SOL    HW165290   5.987   5.094   3.945
21283SOL    HW265291   6.057   5.135   3.803
21284SOL     OW65292   7.250   5.004   4.381
21284SOL    HW165293   7.349   5.012   4.395
21284SOL    HW265294   7.205   5.088   4.412
21285SOL     OW65295   6.976   4.299   3.802
21285SOL    HW165296   6.922   4.278   3.883
21285SOL    HW265297   7.067   4.258   3.811
21286SOL     OW65298   6.113   3.980   4.052
21286SOL    HW165299   6.140   3.921   3.977
21286SOL    HW265300   6.113   4.075   4.021
21287SOL     OW65301   7.340   4.947   5.312
21287SOL    HW165302   7.431   4.908   5.299
21287SOL    HW265303   7.348   5.043   5.336
21288SOL     OW65304   6.650   5.071   5.064
21288SOL    HW165305   6.570   5.048   5.119
21288SOL    HW265306   6.733   5.045   5.113
21289SOL     OW65307   7.178   5.353   5.349
21289SOL    HW165308   7.205   5.387   5.259
21289SOL    HW265309   7.257   5.315   5.395
21290SOL     OW65310   6.697   4.919   4.824
21290SOL    HW165311   6.657   4.963   4.905
21290SOL    HW265312   6.656   4.956   4.741
21291SOL     OW65313   7.224   4.823   4.803
21291SOL    HW165314   7.229   4.904   4.862
21291SOL    HW265315   7.138   4.825   4.752
21292SOL     OW65316   6.501   3.813   5.126
21292SOL    HW165317   6.526   3.793   5.031
21292SOL    HW265318   6.573   3.869   5.168
21293SOL     OW65319   6.566   4.840   5.443
21293SOL    HW165320   6.467   4.846   5.453
21293SOL    HW265321   6.589   4.760   5.387
21294SOL     OW65322   6.291   4.774   4.092
21294SOL    HW165323   6.277   4.781   4.191
21294SOL    HW265324   6.375   4.723   4.074
21295SOL     OW65325   5.996   4.537   4.975
21295SOL    HW165326   6.082   4.549   5.025
21295SOL    HW265327   5.954   4.450   5.002
21296SOL     OW65328   6.860   4.110   4.986
21296SOL    HW165329   6.881   4.184   5.050
21296SOL    HW265330   6.771   4.127   4.943
21297SOL     OW65331   5.650   5.288   5.055
21297SOL    HW165332   5.604   5.370   5.021
21297SOL    HW265333   5.748   5.307   5.064
21298SOL     OW65334   5.953   4.824   4.225
21298SOL    HW165335   5.946   4.907   4.169
21298SOL    HW265336   5.957   4.744   4.165
21299SOL     OW65337   6.152   4.261   4.589
21299SOL    HW165338   6.164   4.327   4.515
21299SOL    HW265339   6.198   4.295   4.672
21300SOL     OW65340   6.838   5.072   4.112
21300SOL    HW165341   6.888   5.149   4.152
21300SOL    HW265342   6.743   5.074   4.144
21301SOL     OW65343   6.858   5.169   4.866
21301SOL    HW165344   6.905   5.182   4.953
21301SOL    HW265345   6.792   5.095   4.875
21302SOL     OW65346   7.168   4.363   4.196
21302SOL    HW165347   7.137   4.424   4.269
21302SOL    HW265348   7.218   4.415   4.127
21303SOL     OW65349   5.940   5.234   5.053
21303SOL    HW165350   5.919   5.190   4.966
21303SOL    HW265351   6.037   5.260   5.056
21304SOL     OW65352   5.988   4.475   5.322
21304SOL    HW165353   6.056   4.530   5.275
21304SOL    HW265354   6.028   4.387   5.349
21305SOL     OW65355   7.173   4.503   5.394
21305SOL    HW165356   7.081   4.541   5.389
21305SOL    HW265357   7.233   4.550   5.329
21306SOL     OW65358   6.599   3.829   5.494
21306SOL    HW165359   6.605   3.914   5.442
21306SOL    HW265360   6.631   3.753   5.437
21307SOL     OW65361   6.090   3.774   5.464
21307SOL    HW165362   6.048   3.717   5.394
21307SOL    HW265363   6.024   3.843   5.496
21308SOL     OW65364   6.159   4.594   4.753
21308SOL    HW165365   6.203   4.683   4.744
21308SOL    HW265366   6.096   4.594   4.830
21309SOL     OW65367   6.946   4.586   4.769
21309SOL    HW165368   6.871   4.586   4.703
21309SOL    HW265369   6.983   4.494   4.778
21310SOL     OW65370   6.795   4.249   3.999
21310SOL    HW165371   6.808   4.165   4.053
21310SOL    HW265372   6.766   4.323   4.059
21311SOL     OW65373   5.893   3.937   4.955
21311SOL    HW165374   5.870   3.974   5.045
21311SOL    HW265375   5.863   3.842   4.949
21312SOL     OW65376   5.623   5.034   5.006
21312SOL    HW165377   5.676   4.985   5.074
21312SOL    HW265378   5.645   5.132   5.011
21313SOL     OW65379   6.318   4.358   4.788
21313SOL    HW165380   6.377   4.332   4.712
21313SOL    HW265381   6.290   4.454   4.777
21314SOL     OW65382   7.314   4.659   5.578
21314SOL    HW165383   7.268   4.652   5.489
21314SOL    HW265384   7.252   4.703   5.644
21315SOL     OW65385   5.893   3.787   4.342
21315SOL    HW165386   5.882   3.881   4.375
21315SOL    HW265387   5.888   3.724   4.419
21316SOL     OW65388   7.208   4.091   4.098
21316SOL    HW165389   7.210   4.015   4.162
21316SOL    HW265390   7.160   4.168   4.138
21317SOL     OW65391   6.609   4.490   4.690
21317SOL    HW165392   6.624   4.511   4.786
21317SOL    HW265393   6.579   4.395   4.681
21318SOL     OW65394   6.566   5.297   5.424
21318SOL    HW165395   6.546   5.341   5.336
21318SOL    HW265396   6.605   5.206   5.408
21319SOL     OW65397   7.445   5.242   5.329
21319SOL    HW165398   7.459   5.269   5.234
21319SOL    HW265399   7.528   5.264   5.382
21320SOL     OW65400   5.936   4.622   5.528
21320SOL    HW165401   6.012   4.666   5.576
21320SOL    HW265402   5.971   4.575   5.446
21321SOL     OW65403   7.126   3.998   3.849
21321SOL    HW165404   7.065   3.923   3.872
21321SOL    HW265405   7.148   4.050   3.932
21322SOL     OW65406   6.889   4.562   3.766
21322SOL    HW165407   6.923   4.469   3.781
21322SOL    HW265408   6.907   4.589   3.671
21323SOL     OW65409   6.654   5.057   4.573
21323SOL    HW165410   6.661   4.973   4.518
21323SOL    HW265411   6.716   5.126   4.537
21324SOL     OW65412   5.905   4.534   4.673
21324SOL    HW165413   5.998   4.570   4.678
21324SOL    HW265414   5.899   4.449   4.725
21325SOL     OW65415   5.925   4.233   4.730
21325SOL    HW165416   5.873   4.150   4.713
21325SOL    HW265417   6.002   4.238   4.666
21326SOL     OW65418   6.724   4.104   5.402
21326SOL    HW165419   6.679   4.167   5.466
21326SOL    HW265420   6.817   4.135   5.385
21327SOL     OW65421   6.746   3.931   5.201
21327SOL    HW165422   6.746   3.995   5.278
21327SOL    HW265423   6.774   3.979   5.118
21328SOL     OW65424   5.594   5.050   3.924
21328SOL    HW165425   5.501   5.071   3.893
21328SOL    HW265426   5.604   4.951   3.937
21329SOL     OW65427   5.674   5.525   4.651
21329SOL    HW165428   5.632   5.439   4.624
21329SOL    HW265429   5.768   5.528   4.617
21330SOL     OW65430   6.090   5.292   4.634
21330SOL    HW165431   6.156   5.366   4.643
21330SOL    HW265432   6.134   5.213   4.592
21331SOL     OW65433   6.588   4.520   4.962
21331SOL    HW165434   6.629   4.488   5.048
21331SOL    HW265435   6.492   4.493   4.959
21332SOL     OW65436   5.626   4.268   4.838
21332SOL    HW165437   5.711   4.235   4.797
21332SOL    HW265438   5.639   4.283   4.936
21333SOL     OW65439   5.775   4.244   5.446
21333SOL    HW165440   5.834   4.204   5.376
21333SOL    HW265441   5.717   4.315   5.405
21334SOL     OW65442   6.955   4.674   5.384
21334SOL    HW165443   6.994   4.763   5.404
21334SOL    HW265444   6.965   4.654   5.287
21335SOL     OW65445   6.401   4.296   4.049
21335SOL    HW165446   6.408   4.207   4.003
21335SOL    HW265447   6.307   4.330   4.041
21336SOL     OW65448   7.243   4.328   4.930
21336SOL    HW165449   7.205   4.259   4.992
21336SOL    HW265450   7.325   4.292   4.886
21337SOL     OW65451   5.838   5.288   5.468
21337SOL    HW165452   5.808   5.345   5.544
21337SOL    HW265453   5.831   5.191   5.494
21338SOL     OW65454   6.257   4.188   4.993
21338SOL    HW165455   6.223   4.099   4.963
21338SOL    HW265456   6.283   4.242   4.913
21339SOL     OW65457   6.516   5.402   5.189
21339SOL    HW165458   6.492   5.384   5.094
21339SOL    HW265459   6.546   5.496   5.199
21340SOL     OW65460   6.059   4.224   3.915
21340SOL    HW165461   6.120   4.304   3.919
21340SOL    HW265462   5.964   4.255   3.922
21341SOL     OW65463   5.745   4.861   5.190
21341SOL    HW165464   5.767   4.800   5.266
21341SOL    HW265465   5.755   4.812   5.104
21342SOL     OW65466   6.933   4.783   4.958
21342SOL    HW165467   6.957   4.720   4.884
21342SOL    HW265468   6.843   4.823   4.940
21343SOL     OW65469   6.888   4.579   4.033
21343SOL    HW165470   6.802   4.548   4.075
21343SOL    HW265471   6.884   4.565   3.934
21344SOL     OW65472   7.345   5.471   4.878
21344SOL    HW165473   7.406   5.501   4.805
21344SOL    HW265474   7.307   5.382   4.856
21345SOL     OW65475   6.838   5.455   4.852
21345SOL    HW165476   6.922   5.460   4.798
21345SOL    HW265477   6.815   5.359   4.870
21346SOL     OW65478   5.669   4.982   4.746
21346SOL    HW165479   5.664   4.981   4.846
21346SOL    HW265480   5.586   4.941   4.708
21347SOL     OW65481   6.274   5.386   5.440
21347SOL    HW165482   6.218   5.467   5.449
21347SOL    HW265483   6.326   5.390   5.354
21348SOL     OW65484   7.312   3.859   4.247
21348SOL    HW165485   7.385   3.842   4.180
21348SOL    HW265486   7.281   3.772   4.285
21349SOL     OW65487   6.974   5.297   4.201
21349SOL    HW165488   7.041   5.309   4.127
21349SOL    HW265489   6.934   5.386   4.224
21350SOL     OW65490   5.716   5.518   5.575
21350SOL    HW165491   5.675   5.444   5.628
21350SOL    HW265492   5.780   5.569   5.633
21351SOL     OW65493   6.866   4.651   4.396
21351SOL    HW165494   6.926   4.570   4.398
21351SOL    HW265495   6.906   4.720   4.336
21352SOL     OW65496   6.416   4.997   5.146
21352SOL    HW165497   6.411   5.030   5.241
21352SOL    HW265498   6.330   5.016   5.100
21353SOL     OW65499   6.258   5.340   3.878
21353SOL    HW165500   6.267   5.350   3.779
21353SOL    HW265501   6.218   5.251   3.899
21354SOL     OW65502   7.236   5.444   5.118
21354SOL    HW165503   7.289   5.454   5.034
21354SOL    HW265504   7.209   5.534   5.152
21355SOL     OW65505   7.427   3.899   4.687
21355SOL    HW165506   7.466   3.814   4.651
21355SOL    HW265507   7.329   3.901   4.668
21356SOL     OW65508   5.849   4.050   4.444
21356SOL    HW165509   5.770   4.101   4.410
21356SOL    HW265510   5.840   4.035   4.542
21357SOL     OW65511   6.780   5.336   3.755
21357SOL    HW165512   6.786   5.243   3.792
21357SOL    HW265513   6.721   5.336   3.675
21358SOL     OW65514   6.408   4.726   5.096
21358SOL    HW165515   6.448   4.725   5.004
21358SOL    HW265516   6.418   4.818   5.136
21359SOL     OW65517   6.502   4.634   4.015
21359SOL    HW165518   6.565   4.672   3.947
21359SOL    HW265519   6.542   4.551   4.054
21360SOL     OW65520   7.090   5.331   3.768
21360SOL    HW165521   6.998   5.368   3.775
21360SOL    HW265522   7.128   5.351   3.678
21361SOL     OW65523   5.958   5.012   5.214
21361SOL    HW165524   5.945   5.105   5.180
21361SOL    HW265525   5.874   4.960   5.201
21362SOL     OW65526   7.200   5.016   5.013
21362SOL    HW165527   7.260   5.019   5.093
21362SOL    HW265528   7.125   5.080   5.026
21363SOL     OW65529   6.625   4.822   4.420
21363SOL    HW165530   6.555   4.775   4.474
21363SOL    HW265531   6.684   4.754   4.377
21364SOL     OW65532   6.600   3.960   4.695
21364SOL    HW165533   6.592   3.924   4.602
21364SOL    HW265534   6.598   3.884   4.760
21365SOL     OW65535   6.176   5.211   4.215
21365SOL    HW165536   6.218   5.153   4.145
21365SOL    HW265537   6.132   5.290   4.171
21366SOL     OW65538   7.295   4.109   5.105
21366SOL    HW165539   7.368   4.178   5.109
21366SOL    HW265540   7.323   4.034   5.046
21367SOL     OW65541   5.841   5.072   4.014
21367SOL    HW165542   5.745   5.073   3.987
21367SOL    HW265543   5.853   5.125   4.098
21368SOL     OW65544   5.691   4.737   5.450
21368SOL    HW165545   5.614   4.704   5.504
21368SOL    HW265546   5.776   4.707   5.492
21369SOL     OW65547   6.258   3.927   5.213
21369SOL    HW165548   6.348   3.911   5.173
21369SOL    HW265549   6.266   3.932   5.312
21370SOL     OW65550   5.661   4.069   3.757
21370SOL    HW165551   5.569   4.041   3.728
21370SOL    HW265552   5.692   4.146   3.701
21371SOL     OW65553   7.026   4.580   5.122
21371SOL    HW165554   6.969   4.632   5.059
21371SOL    HW265555   7.122   4.592   5.098
21372SOL     OW65556   5.658   3.890   4.042
21372SOL    HW165557   5.641   3.973   3.988
21372SOL    HW265558   5.748   3.853   4.020
21373SOL     OW65559   6.769   5.059   3.843
21373SOL    HW165560   6.670   5.048   3.845
21373SOL    HW265561   6.803   5.074   3.936
21374SOL     OW65562   6.199   4.566   5.155
21374SOL    HW165563   6.255   4.647   5.138
21374SOL    HW265564   6.258   4.486   5.158
21375SOL     OW65565   7.079   5.491   4.683
21375SOL    HW165566   7.112   5.555   4.614
21375SOL    HW265567   7.145   5.485   4.758
21376SOL     OW65568   6.302   4.289   5.432
21376SOL    HW165569   6.321   4.354   5.506
21376SOL    HW265570   6.362   4.209   5.441
21377SOL     OW65571   7.036   4.944   5.357
21377SOL    HW165572   7.027   4.934   5.456
21377SOL    HW265573   7.132   4.937   5.331
21378SOL     OW65574   5.976   5.465   5.284
21378SOL    HW165575   5.885   5.506   5.282
21378SOL    HW265576   5.969   5.371   5.316
21379SOL     OW65577   7.260   4.607   4.978
21379SOL    HW165578   7.233   4.518   4.941
21379SOL    HW265579   7.261   4.675   4.905
21380SOL     OW65580   6.811   4.049   4.173
21380SOL    HW165581   6.876   3.975   4.162
21380SOL    HW265582   6.831   4.099   4.257
21381SOL     OW65583   6.180   4.469   4.376
21381SOL    HW165584   6.230   4.554   4.357
21381SOL    HW265585   6.092   4.471   4.328
21382SOL     OW65586   7.363   4.066   5.366
21382SOL    HW165587   7.346   4.097   5.272
21382SOL    HW265588   7.279   4.029   5.404
21383SOL     OW65589   7.316   4.658   5.241
21383SOL    HW165590   7.354   4.749   5.256
21383SOL    HW265591   7.308   4.641   5.142
21384SOL     OW65592   6.445   5.098   3.740
21384SOL    HW165593   6.399   5.113   3.828
21384SOL    HW265594   6.489   5.183   3.710
21385SOL     OW65595   6.247   5.514   4.677
21385SOL    HW165596   6.201   5.602   4.664
21385SOL    HW265597   6.346   5.526   4.670
21386SOL     OW65598   6.445   4.680   4.585
21386SOL    HW165599   6.499   4.611   4.633
21386SOL    HW265600   6.413   4.749   4.651
21387SOL     OW65601   6.669   4.708   3.811
21387SOL    HW165602   6.646   4.761   3.729
21387SOL    HW265603   6.750   4.652   3.792
21388SOL     OW65604   7.447   5.293   4.575
21388SOL    HW165605   7.376   5.281   4.505
21388SOL    HW265606   7.448   5.214   4.635
21389SOL     OW65607   5.807   5.038   5.568
21389SOL    HW165608   5.742   4.965   5.547
21389SOL    HW265609   5.811   5.052   5.666
21390SOL     OW65610   5.665   4.964   4.377
21390SOL    HW165611   5.664   4.917   4.465
21390SOL    HW265612   5.747   4.936   4.326
21391SOL     OW65613   6.258   5.115   5.348
21391SOL    HW165614   6.180   5.065   5.386
21391SOL    HW265615   6.255   5.210   5.379
21392SOL     OW65616   7.410   3.916   4.951
21392SOL    HW165617   7.406   3.826   4.995
21392SOL    HW265618   7.413   3.905   4.852
21393SOL     OW65619   6.014   4.148   4.244
21393SOL    HW165620   6.044   4.076   4.182
21393SOL    HW265621   5.975   4.108   4.327
21394SOL     OW65622   7.291   5.211   4.828
21394SOL    HW165623   7.198   5.186   4.801
21394SOL    HW265624   7.317   5.161   4.910
21395SOL     OW65625   5.903   4.271   5.004
21395SOL    HW165626   5.941   4.212   5.076
21395SOL    HW265627   5.943   4.245   4.916
21396SOL     OW65628   6.398   5.310   4.411
21396SOL    HW165629   6.430   5.320   4.317
21396SOL    HW265630   6.319   5.248   4.413
21397SOL     OW65631   7.010   3.938   4.836
21397SOL    HW165632   7.062   3.873   4.891
21397SOL    HW265633   6.961   4.001   4.897
21398SOL     OW65634   6.587   3.758   4.878
21398SOL    HW165635   6.524   3.686   4.847
21398SOL    HW265636   6.680   3.722   4.878
21399SOL     OW65637   6.356   5.054   4.025
21399SOL    HW165638   6.310   4.967   4.042
21399SOL    HW265639   6.447   5.051   4.066
21400SOL     OW65640   6.204   5.291   5.008
21400SOL    HW165641   6.199   5.373   5.065
21400SOL    HW265642   6.293   5.288   4.963
21401SOL     OW65643   6.938   3.776   3.892
21401SOL    HW165644   6.973   3.735   3.808
21401SOL    HW265645   6.848   3.738   3.912
21402SOL     OW65646   6.886   4.177   4.415
21402SOL    HW165647   6.827   4.257   4.419
21402SOL    HW265648   6.901   4.142   4.508
21403SOL     OW65649   7.179   3.945   4.606
21403SOL    HW165650   7.095   3.944   4.660
21403SOL    HW265651   7.181   4.028   4.550
21404SOL     OW65652   5.625   4.801   4.024
21404SOL    HW165653   5.724   4.790   4.015
21404SOL    HW265654   5.585   4.715   4.056
21405SOL     OW65655   6.461   5.370   4.061
21405SOL    HW165656   6.384   5.335   4.007
21405SOL    HW265657   6.429   5.441   4.123
21406SOL     OW65658   5.816   4.352   5.699
21406SOL    HW165659   5.723   4.350   5.736
21406SOL    HW265660   5.817   4.313   5.607
21407SOL     OW65661   5.811   3.999   6.582
21407SOL    HW165662   5.846   3.982   6.674
21407SOL    HW265663   5.723   3.954   6.570
21408SOL     OW65664   5.605   4.092   6.233
21408SOL    HW165665   5.523   4.135   6.272
21408SOL    HW265666   5.577   4.019   6.170
21409SOL     OW65667   6.155   4.999   6.751
21409SOL    HW165668   6.062   4.992   6.714
21409SOL    HW265669   6.166   5.088   6.795
21410SOL     OW65670   7.141   5.235   6.289
21410SOL    HW165671   7.084   5.219   6.370
21410SOL    HW265672   7.082   5.245   6.209
21411SOL     OW65673   6.721   4.427   6.303
21411SOL    HW165674   6.778   4.505   6.278
21411SOL    HW265675   6.661   4.453   6.379
21412SOL     OW65676   7.341   4.331   5.817
21412SOL    HW165677   7.329   4.318   5.718
21412SOL    HW265678   7.311   4.250   5.866
21413SOL     OW65679   6.354   4.868   6.609
21413SOL    HW165680   6.276   4.885   6.669
21413SOL    HW265681   6.388   4.955   6.573
21414SOL     OW65682   6.436   4.522   7.409
21414SOL    HW165683   6.432   4.598   7.474
21414SOL    HW265684   6.458   4.558   7.318
21415SOL     OW65685   6.271   4.736   6.251
21415SOL    HW165686   6.340   4.720   6.321
21415SOL    HW265687   6.198   4.793   6.289
21416SOL     OW65688   6.272   4.885   7.389
21416SOL    HW165689   6.332   4.964   7.403
21416SOL    HW265690   6.186   4.916   7.348
21417SOL     OW65691   5.921   5.159   6.647
21417SOL    HW165692   5.843   5.128   6.594
21417SOL    HW265693   5.979   5.217   6.590
21418SOL     OW65694   7.046   5.229   6.925
21418SOL    HW165695   7.070   5.323   6.951
21418SOL    HW265696   7.030   5.175   7.007
21419SOL     OW65697   6.024   4.116   7.085
21419SOL    HW165698   6.106   4.060   7.094
21419SOL    HW265699   5.943   4.058   7.089
21420SOL     OW65700   7.189   4.171   6.323
21420SOL    HW165701   7.115   4.217   6.273
21420SOL    HW265702   7.240   4.239   6.376
21421SOL     OW65703   5.817   5.437   6.069
21421SOL    HW165704   5.851   5.514   6.123
21421SOL    HW265705   5.861   5.437   5.979
21422SOL     OW65706   6.713   5.065   7.276
21422SOL    HW165707   6.760   5.065   7.364
21422SOL    HW265708   6.665   4.978   7.265
21423SOL     OW65709   5.816   5.158   6.124
21423SOL    HW165710   5.790   5.254   6.124
21423SOL    HW265711   5.745   5.104   6.169
21424SOL     OW65712   5.826   4.815   6.472
21424SOL    HW165713   5.840   4.731   6.524
21424SOL    HW265714   5.771   4.879   6.527
21425SOL     OW65715   6.206   5.510   7.025
21425SOL    HW165716   6.114   5.493   7.060
21425SOL    HW265717   6.234   5.602   7.051
21426SOL     OW65718   6.192   4.688   5.709
21426SOL    HW165719   6.199   4.772   5.655
21426SOL    HW265720   6.238   4.701   5.797
21427SOL     OW65721   7.180   3.838   7.066
21427SOL    HW165722   7.162   3.905   6.994
21427SOL    HW265723   7.177   3.884   7.155
21428SOL     OW65724   5.708   4.367   6.149
21428SOL    HW165725   5.663   4.279   6.166
21428SOL    HW265726   5.707   4.421   6.233
21429SOL     OW65727   7.428   5.491   5.945
21429SOL    HW165728   7.482   5.462   6.025
21429SOL    HW265729   7.458   5.581   5.916
21430SOL     OW65730   5.613   5.320   5.703
21430SOL    HW165731   5.594   5.224   5.724
21430SOL    HW265732   5.580   5.378   5.778
21431SOL     OW65733   7.275   4.646   6.198
21431SOL    HW165734   7.370   4.617   6.206
21431SOL    HW265735   7.267   4.711   6.123
21432SOL     OW65736   7.227   4.832   6.018
21432SOL    HW165737   7.313   4.834   5.966
21432SOL    HW265738   7.241   4.879   6.106
21433SOL     OW65739   5.699   4.461   7.183
21433SOL    HW165740   5.787   4.448   7.228
21433SOL    HW265741   5.686   4.558   7.161
21434SOL     OW65742   6.199   5.089   6.312
21434SOL    HW165743   6.150   5.002   6.321
21434SOL    HW265744   6.176   5.132   6.225
21435SOL     OW65745   6.879   4.952   7.009
21435SOL    HW165746   6.916   4.879   6.951
21435SOL    HW265747   6.931   4.957   7.094
21436SOL     OW65748   6.395   3.728   6.088
21436SOL    HW165749   6.435   3.819   6.079
21436SOL    HW265750   6.295   3.736   6.094
21437SOL     OW65751   5.783   4.700   6.850
21437SOL    HW165752   5.872   4.655   6.836
21437SOL    HW265753   5.710   4.635   6.831
21438SOL     OW65754   7.111   4.723   5.776
21438SOL    HW165755   7.048   4.647   5.789
21438SOL    HW265756   7.159   4.741   5.862
21439SOL     OW65757   6.773   5.516   7.202
21439SOL    HW165758   6.797   5.576   7.126
21439SOL    HW265759   6.780   5.421   7.172
21440SOL     OW65760   5.903   3.975   7.387
21440SOL    HW165761   5.974   4.046   7.393
21440SOL    HW265762   5.815   4.014   7.415
21441SOL     OW65763   7.052   5.141   6.539
21441SOL    HW165764   6.993   5.147   6.619
21441SOL    HW265765   7.037   5.053   6.493
21442SOL     OW65766   7.253   5.438   6.158
21442SOL    HW165767   7.212   5.415   6.070
21442SOL    HW265768   7.235   5.364   6.223
21443SOL     OW65769   6.184   4.453   5.856
21443SOL    HW165770   6.208   4.522   5.788
21443SOL    HW265771   6.106   4.486   5.910
21444SOL     OW65772   6.867   4.069   6.530
21444SOL    HW165773   6.781   4.019   6.517
21444SOL    HW265774   6.929   4.015   6.586
21445SOL     OW65775   7.162   5.386   5.893
21445SOL    HW165776   7.251   5.432   5.896
21445SOL    HW265777   7.141   5.362   5.798
21446SOL     OW65778   6.393   4.329   7.051
21446SOL    HW165779   6.346   4.326   7.140
21446SOL    HW265780   6.342   4.274   6.985
21447SOL     OW65781   6.980   4.193   7.260
21447SOL    HW165782   6.960   4.236   7.348
21447SOL    HW265783   7.058   4.131   7.269
21448SOL     OW65784   6.559   4.614   7.158
21448SOL    HW165785   6.605   4.530   7.129
21448SOL    HW265786   6.503   4.648   7.083
21449SOL     OW65787   6.577   4.134   6.828
21449SOL    HW165788   6.500   4.168   6.882
21449SOL    HW265789   6.543   4.083   6.749
21450SOL     OW65790   6.627   4.425   6.015
21450SOL    HW165791   6.653   4.421   6.111
21450SOL    HW265792   6.542   4.374   6.001
21451SOL     OW65793   5.662   4.535   6.375
21451SOL    HW165794   5.761   4.523   6.384
21451SOL    HW265795   5.638   4.630   6.396
21452SOL     OW65796   5.716   5.545   7.157
21452SOL    HW165797   5.706   5.530   7.256
21452SOL    HW265798   5.630   5.581   7.121
21453SOL     OW65799   6.451   4.072   5.781
21453SOL    HW165800   6.510   4.135   5.732
21453SOL    HW265801   6.470   3.978   5.752
21454SOL     OW65802   7.305   4.309   7.417
21454SOL    HW165803   7.279   4.398   7.381
21454SOL    HW265804   7.303   4.241   7.344
21455SOL     OW65805   6.948   4.868   6.131
21455SOL    HW165806   7.031   4.839   6.083
21455SOL    HW265807   6.899   4.935   6.075
21456SOL     OW65808   6.136   3.920   6.471
21456SOL    HW165809   6.131   3.915   6.571
21456SOL    HW265810   6.138   4.016   6.442
21457SOL     OW65811   6.594   5.180   6.063
21457SOL    HW165812   6.548   5.252   6.011
21457SOL    HW265813   6.590   5.200   6.161
21458SOL     OW65814   5.937   5.525   6.439
21458SOL    HW165815   5.987   5.439   6.445
21458SOL    HW265816   6.002   5.602   6.436
21459SOL     OW65817   7.381   4.790   6.459
21459SOL    HW165818   7.319   4.775   6.383
21459SOL    HW265819   7.329   4.801   6.544
21460SOL     OW65820   6.813   5.274   7.092
21460SOL    HW165821   6.819   5.197   7.156
21460SOL    HW265822   6.761   5.248   7.012
21461SOL     OW65823   5.907   4.667   5.828
21461SOL    HW165824   5.989   4.706   5.786
21461SOL    HW265825   5.880   4.585   5.779
21462SOL     OW65826   7.044   4.459   6.314
21462SOL    HW165827   7.039   4.394   6.389
21462SOL    HW265828   7.124   4.518   6.327
21463SOL     OW65829   6.047   4.990   7.313
21463SOL    HW165830   5.997   4.991   7.227
21463SOL    HW265831   5.984   4.972   7.389
21464SOL     OW65832   6.697   5.500   5.823
21464SOL    HW165833   6.637   5.438   5.873
21464SOL    HW265834   6.728   5.456   5.738
21465SOL     OW65835   5.788   4.009   7.084
21465SOL    HW165836   5.708   4.069   7.071
21465SOL    HW265837   5.778   3.960   7.170
21466SOL     OW65838   7.218   5.101   5.667
21466SOL    HW165839   7.186   5.195   5.657
21466SOL    HW265840   7.142   5.038   5.655
21467SOL     OW65841   6.050   5.467   5.909
21467SOL    HW165842   6.083   5.506   5.995
21467SOL    HW265843   6.126   5.460   5.844
21468SOL     OW65844   6.986   3.831   6.012
21468SOL    HW165845   6.962   3.794   5.922
21468SOL    HW265846   7.085   3.847   6.016
21469SOL     OW65847   5.835   5.509   6.827
21469SOL    HW165848   5.892   5.444   6.877
21469SOL    HW265849   5.819   5.476   6.734
21470SOL     OW65850   6.526   5.422   6.490
21470SOL    HW165851   6.606   5.365   6.511
21470SOL    HW265852   6.477   5.382   6.413
21471SOL     OW65853   5.968   4.424   6.066
21471SOL    HW165854   6.013   4.334   6.063
21471SOL    HW265855   5.874   4.413   6.099
21472SOL     OW65856   7.133   3.946   7.315
21472SOL    HW165857   7.128   3.983   7.407
21472SOL    HW265858   7.061   3.877   7.303
21473SOL     OW65859   6.200   3.846   5.703
21473SOL    HW165860   6.298   3.824   5.710
21473SOL    HW265861   6.169   3.829   5.610
21474SOL     OW65862   6.367   3.988   7.335
21474SOL    HW165863   6.434   3.927   7.378
21474SOL    HW265864   6.294   4.007   7.400
21475SOL     OW65865   6.474   5.238   6.781
21475SOL    HW165866   6.451   5.213   6.687
21475SOL    HW265867   6.535   5.169   6.820
21476SOL     OW65868   6.937   4.314   7.019
21476SOL    HW165869   6.965   4.271   7.104
21476SOL    HW265870   6.962   4.410   7.020
21477SOL     OW65871   6.389   5.126   6.510
21477SOL    HW165872   6.479   5.140   6.468
21477SOL    HW265873   6.318   5.128   6.439
21478SOL     OW65874   6.508   4.227   6.485
21478SOL    HW165875   6.483   4.218   6.389
21478SOL    HW265876   6.556   4.145   6.516
21479SOL     OW65877   6.125   3.788   6.098
21479SOL    HW165878   6.044   3.789   6.156
21479SOL    HW265879   6.128   3.871   6.043
21480SOL     OW65880   7.020   4.912   5.627
21480SOL    HW165881   7.052   4.836   5.684
21480SOL    HW265882   6.928   4.939   5.657
21481SOL     OW65883   5.883   3.759   5.757
21481SOL    HW165884   5.932   3.843   5.736
21481SOL    HW265885   5.945   3.694   5.802
21482SOL     OW65886   6.521   3.960   6.066
21482SOL    HW165887   6.473   4.001   5.988
21482SOL    HW265888   6.620   3.958   6.047
21483SOL     OW65889   6.662   4.407   7.050
21483SOL    HW165890   6.582   4.346   7.053
21483SOL    HW265891   6.743   4.354   7.026
21484SOL     OW65892   6.813   5.294   6.379
21484SOL    HW165893   6.834   5.368   6.314
21484SOL    HW265894   6.881   5.294   6.452
21485SOL     OW65895   6.045   4.876   6.327
21485SOL    HW165896   5.974   4.849   6.392
21485SOL    HW265897   6.019   4.848   6.234
21486SOL     OW65898   6.857   5.521   6.177
21486SOL    HW165899   6.901   5.585   6.113
21486SOL    HW265900   6.807   5.573   6.247
21487SOL     OW65901   6.618   4.273   5.602
21487SOL    HW165902   6.577   4.355   5.563
21487SOL    HW265903   6.682   4.299   5.675
21488SOL     OW65904   5.664   4.280   6.972
21488SOL    HW165905   5.756   4.279   6.931
21488SOL    HW265906   5.658   4.354   7.039
21489SOL     OW65907   6.147   3.946   6.733
21489SOL    HW165908   6.185   3.862   6.770
21489SOL    HW265909   6.059   3.965   6.777
21490SOL     OW65910   6.452   4.178   6.228
21490SOL    HW165911   6.420   4.250   6.166
21490SOL    HW265912   6.476   4.097   6.175
21491SOL     OW65913   6.603   3.763   6.339
21491SOL    HW165914   6.531   3.768   6.270
21491SOL    HW265915   6.579   3.694   6.408
21492SOL     OW65916   7.015   4.897   6.453
21492SOL    HW165917   6.960   4.813   6.446
21492SOL    HW265918   7.041   4.926   6.361
21493SOL     OW65919   7.052   4.314   6.578
21493SOL    HW165920   7.022   4.219   6.585
21493SOL    HW265921   7.125   4.330   6.644
21494SOL     OW65922   7.443   4.557   5.963
21494SOL    HW165923   7.485   4.493   6.027
21494SOL    HW265924   7.405   4.506   5.885
21495SOL     OW65925   6.074   5.109   5.760
21495SOL    HW165926   5.987   5.094   5.807
21495SOL    HW265927   6.057   5.135   5.665
21496SOL     OW65928   7.250   5.004   6.243
21496SOL    HW165929   7.349   5.012   6.257
21496SOL    HW265930   7.205   5.088   6.274
21497SOL     OW65931   6.976   4.299   5.664
21497SOL    HW165932   6.922   4.278   5.745
21497SOL    HW265933   7.067   4.258   5.673
21498SOL     OW65934   6.113   3.980   5.914
21498SOL    HW165935   6.140   3.921   5.839
21498SOL    HW265936   6.113   4.075   5.883
21499SOL     OW65937   7.340   4.947   7.174
21499SOL    HW165938   7.431   4.908   7.161
21499SOL    HW265939   7.348   5.043   7.198
21500SOL     OW65940   6.650   5.071   6.926
21500SOL    HW165941   6.570   5.048   6.981
21500SOL    HW265942   6.733   5.045   6.975
21501SOL     OW65943   7.178   5.353   7.211
21501SOL    HW165944   7.205   5.387   7.121
21501SOL    HW265945   7.257   5.315   7.257
21502SOL     OW65946   6.697   4.919   6.686
21502SOL    HW165947   6.657   4.963   6.767
21502SOL    HW265948   6.656   4.956   6.603
21503SOL     OW65949   7.224   4.823   6.665
21503SOL    HW165950   7.229   4.904   6.724
21503SOL    HW265951   7.138   4.825   6.614
21504SOL     OW65952   6.501   3.813   6.988
21504SOL    HW165953   6.526   3.793   6.893
21504SOL    HW265954   6.573   3.869   7.030
21505SOL     OW65955   6.566   4.840   7.305
21505SOL    HW165956   6.467   4.846   7.315
21505SOL    HW265957   6.589   4.760   7.249
21506SOL     OW65958   6.291   4.774   5.954
21506SOL    HW165959   6.277   4.781   6.053
21506SOL    HW265960   6.375   4.723   5.936
21507SOL     OW65961   5.996   4.537   6.837
21507SOL    HW165962   6.082   4.549   6.887
21507SOL    HW265963   5.954   4.450   6.864
21508SOL     OW65964   6.860   4.110   6.848
21508SOL    HW165965   6.881   4.184   6.912
21508SOL    HW265966   6.771   4.127   6.805
21509SOL     OW65967   5.650   5.288   6.917
21509SOL    HW165968   5.604   5.370   6.883
21509SOL    HW265969   5.748   5.307   6.926
21510SOL     OW65970   5.953   4.824   6.087
21510SOL    HW165971   5.946   4.907   6.031
21510SOL    HW265972   5.957   4.744   6.027
21511SOL     OW65973   6.152   4.261   6.451
21511SOL    HW165974   6.164   4.327   6.377
21511SOL    HW265975   6.198   4.295   6.534
21512SOL     OW65976   6.838   5.072   5.974
21512SOL    HW165977   6.888   5.149   6.014
21512SOL    HW265978   6.743   5.074   6.006
21513SOL     OW65979   6.858   5.169   6.728
21513SOL    HW165980   6.905   5.182   6.815
21513SOL    HW265981   6.792   5.095   6.737
21514SOL     OW65982   7.168   4.363   6.058
21514SOL    HW165983   7.137   4.424   6.131
21514SOL    HW265984   7.218   4.415   5.989
21515SOL     OW65985   5.940   5.234   6.915
21515SOL    HW165986   5.919   5.190   6.828
21515SOL    HW265987   6.037   5.260   6.918
21516SOL     OW65988   5.988   4.475   7.184
21516SOL    HW165989   6.056   4.530   7.137
21516SOL    HW265990   6.028   4.387   7.211
21517SOL     OW65991   7.173   4.503   7.256
21517SOL    HW165992   7.081   4.541   7.251
21517SOL    HW265993   7.233   4.550   7.191
21518SOL     OW65994   6.599   3.829   7.356
21518SOL    HW165995   6.605   3.914   7.304
21518SOL    HW265996   6.631   3.753   7.299
21519SOL     OW65997   6.090   3.774   7.326
21519SOL    HW165998   6.048   3.717   7.256
21519SOL    HW265999   6.024   3.843   7.358
21520SOL     OW66000   6.159   4.594   6.615
21520SOL    HW166001   6.203   4.683   6.606
21520SOL    HW266002   6.096   4.594   6.692
21521SOL     OW66003   6.946   4.586   6.631
21521SOL    HW166004   6.871   4.586   6.565
21521SOL    HW266005   6.983   4.494   6.640
21522SOL     OW66006   6.795   4.249   5.861
21522SOL    HW166007   6.808   4.165   5.915
21522SOL    HW266008   6.766   4.323   5.921
21523SOL     OW66009   5.893   3.937   6.817
21523SOL    HW166010   5.870   3.974   6.907
21523SOL    HW266011   5.863   3.842   6.811
21524SOL     OW66012   5.623   5.034   6.868
21524SOL    HW166013   5.676   4.985   6.936
21524SOL    HW266014   5.645   5.132   6.873
21525SOL     OW66015   6.318   4.358   6.650
21525SOL    HW166016   6.377   4.332   6.574
21525SOL    HW266017   6.290   4.454   6.639
21526SOL     OW66018   7.314   4.659   7.440
21526SOL    HW166019   7.268   4.652   7.351
21526SOL    HW266020   7.252   4.703   7.506
21527SOL     OW66021   5.893   3.787   6.204
21527SOL    HW166022   5.882   3.881   6.237
21527SOL    HW266023   5.888   3.724   6.281
21528SOL     OW66024   7.208   4.091   5.960
21528SOL    HW166025   7.210   4.015   6.024
21528SOL    HW266026   7.160   4.168   6.000
21529SOL     OW66027   6.609   4.490   6.552
21529SOL    HW166028   6.624   4.511   6.648
21529SOL    HW266029   6.579   4.395   6.543
21530SOL     OW66030   6.566   5.297   7.286
21530SOL    HW166031   6.546   5.341   7.198
21530SOL    HW266032   6.605   5.206   7.270
21531SOL     OW66033   7.445   5.242   7.191
21531SOL    HW166034   7.459   5.269   7.096
21531SOL    HW266035   7.528   5.264   7.244
21532SOL     OW66036   5.936   4.622   7.390
21532SOL    HW166037   6.012   4.666   7.438
21532SOL    HW266038   5.971   4.575   7.308
21533SOL     OW66039   7.126   3.998   5.711
21533SOL    HW166040   7.065   3.923   5.734
21533SOL    HW266041   7.148   4.050   5.794
21534SOL     OW66042   6.889   4.562   5.628
21534SOL    HW166043   6.923   4.469   5.643
21534SOL    HW266044   6.907   4.589   5.533
21535SOL     OW66045   6.654   5.057   6.435
21535SOL    HW166046   6.661   4.973   6.380
21535SOL    HW266047   6.716   5.126   6.399
21536SOL     OW66048   5.905   4.534   6.535
21536SOL    HW166049   5.998   4.570   6.540
21536SOL    HW266050   5.899   4.449   6.587
21537SOL     OW66051   5.925   4.233   6.592
21537SOL    HW166052   5.873   4.150   6.575
21537SOL    HW266053   6.002   4.238   6.528
21538SOL     OW66054   6.724   4.104   7.264
21538SOL    HW166055   6.679   4.167   7.328
21538SOL    HW266056   6.817   4.135   7.247
21539SOL     OW66057   6.746   3.931   7.063
21539SOL    HW166058   6.746   3.995   7.140
21539SOL    HW266059   6.774   3.979   6.980
21540SOL     OW66060   5.594   5.050   5.786
21540SOL    HW166061   5.501   5.071   5.755
21540SOL    HW266062   5.604   4.951   5.799
21541SOL     OW66063   5.674   5.525   6.513
21541SOL    HW166064   5.632   5.439   6.486
21541SOL    HW266065   5.768   5.528   6.479
21542SOL     OW66066   6.090   5.292   6.496
21542SOL    HW166067   6.156   5.366   6.505
21542SOL    HW266068   6.134   5.213   6.454
21543SOL     OW66069   6.588   4.520   6.824
21543SOL    HW166070   6.629   4.488   6.910
21543SOL    HW266071   6.492   4.493   6.821
21544SOL     OW66072   5.626   4.268   6.700
21544SOL    HW166073   5.711   4.235   6.659
21544SOL    HW266074   5.639   4.283   6.798
21545SOL     OW66075   5.775   4.244   7.308
21545SOL    HW166076   5.834   4.204   7.238
21545SOL    HW266077   5.717   4.315   7.267
21546SOL     OW66078   6.955   4.674   7.246
21546SOL    HW166079   6.994   4.763   7.266
21546SOL    HW266080   6.965   4.654   7.149
21547SOL     OW66081   6.401   4.296   5.911
21547SOL    HW166082   6.408   4.207   5.865
21547SOL    HW266083   6.307   4.330   5.903
21548SOL     OW66084   7.243   4.328   6.792
21548SOL    HW166085   7.205   4.259   6.854
21548SOL    HW266086   7.325   4.292   6.748
21549SOL     OW66087   5.838   5.288   7.330
21549SOL    HW166088   5.808   5.345   7.406
21549SOL    HW266089   5.831   5.191   7.356
21550SOL     OW66090   6.257   4.188   6.855
21550SOL    HW166091   6.223   4.099   6.825
21550SOL    HW266092   6.283   4.242   6.775
21551SOL     OW66093   6.516   5.402   7.051
21551SOL    HW166094   6.492   5.384   6.956
21551SOL    HW266095   6.546   5.496   7.061
21552SOL     OW66096   6.059   4.224   5.777
21552SOL    HW166097   6.120   4.304   5.781
21552SOL    HW266098   5.964   4.255   5.784
21553SOL     OW66099   5.745   4.861   7.052
21553SOL    HW166100   5.767   4.800   7.128
21553SOL    HW266101   5.755   4.812   6.966
21554SOL     OW66102   6.933   4.783   6.820
21554SOL    HW166103   6.957   4.720   6.746
21554SOL    HW266104   6.843   4.823   6.802
21555SOL     OW66105   6.888   4.579   5.895
21555SOL    HW166106   6.802   4.548   5.937
21555SOL    HW266107   6.884   4.565   5.796
21556SOL     OW66108   7.345   5.471   6.740
21556SOL    HW166109   7.406   5.501   6.667
21556SOL    HW266110   7.307   5.382   6.718
21557SOL     OW66111   6.838   5.455   6.714
21557SOL    HW166112   6.922   5.460   6.660
21557SOL    HW266113   6.815   5.359   6.732
21558SOL     OW66114   5.669   4.982   6.608
21558SOL    HW166115   5.664   4.981   6.708
21558SOL    HW266116   5.586   4.941   6.570
21559SOL     OW66117   6.274   5.386   7.302
21559SOL    HW166118   6.218   5.467   7.311
21559SOL    HW266119   6.326   5.390   7.216
21560SOL     OW66120   7.312   3.859   6.109
21560SOL    HW166121   7.385   3.842   6.042
21560SOL    HW266122   7.281   3.772   6.147
21561SOL     OW66123   6.974   5.297   6.063
21561SOL    HW166124   7.041   5.309   5.989
21561SOL    HW266125   6.934   5.386   6.086
21562SOL     OW66126   5.716   5.518   7.437
21562SOL    HW166127   5.675   5.444   7.490
21562SOL    HW266128   5.780   5.569   7.495
21563SOL     OW66129   6.866   4.651   6.258
21563SOL    HW166130   6.926   4.570   6.260
21563SOL    HW266131   6.906   4.720   6.198
21564SOL     OW66132   6.416   4.997   7.008
21564SOL    HW166133   6.411   5.030   7.103
21564SOL    HW266134   6.330   5.016   6.962
21565SOL     OW66135   6.258   5.340   5.740
21565SOL    HW166136   6.267   5.350   5.641
21565SOL    HW266137   6.218   5.251   5.761
21566SOL     OW66138   7.236   5.444   6.980
21566SOL    HW166139   7.289   5.454   6.896
21566SOL    HW266140   7.209   5.534   7.014
21567SOL     OW66141   7.427   3.899   6.549
21567SOL    HW166142   7.466   3.814   6.513
21567SOL    HW266143   7.329   3.901   6.530
21568SOL     OW66144   5.849   4.050   6.306
21568SOL    HW166145   5.770   4.101   6.272
21568SOL    HW266146   5.840   4.035   6.404
21569SOL     OW66147   6.780   5.336   5.617
21569SOL    HW166148   6.786   5.243   5.654
21569SOL    HW266149   6.721   5.336   5.537
21570SOL     OW66150   6.408   4.726   6.958
21570SOL    HW166151   6.448   4.725   6.866
21570SOL    HW266152   6.418   4.818   6.998
21571SOL     OW66153   6.502   4.634   5.877
21571SOL    HW166154   6.565   4.672   5.809
21571SOL    HW266155   6.542   4.551   5.916
21572SOL     OW66156   7.090   5.331   5.630
21572SOL    HW166157   6.998   5.368   5.637
21572SOL    HW266158   7.128   5.351   5.540
21573SOL     OW66159   5.958   5.012   7.076
21573SOL    HW166160   5.945   5.105   7.042
21573SOL    HW266161   5.874   4.960   7.063
21574SOL     OW66162   7.200   5.016   6.875
21574SOL    HW166163   7.260   5.019   6.955
21574SOL    HW266164   7.125   5.080   6.888
21575SOL     OW66165   6.625   4.822   6.282
21575SOL    HW166166   6.555   4.775   6.336
21575SOL    HW266167   6.684   4.754   6.239
21576SOL     OW66168   6.600   3.960   6.557
21576SOL    HW166169   6.592   3.924   6.464
21576SOL    HW266170   6.598   3.884   6.622
21577SOL     OW66171   6.176   5.211   6.077
21577SOL    HW166172   6.218   5.153   6.007
21577SOL    HW266173   6.132   5.290   6.033
21578SOL     OW66174   7.295   4.109   6.967
21578SOL    HW166175   7.368   4.178   6.971
21578SOL    HW266176   7.323   4.034   6.908
21579SOL     OW66177   5.841   5.072   5.876
21579SOL    HW166178   5.745   5.073   5.849
21579SOL    HW266179   5.853   5.125   5.960
21580SOL     OW66180   5.691   4.737   7.312
21580SOL    HW166181   5.614   4.704   7.366
21580SOL    HW266182   5.776   4.707   7.354
21581SOL     OW66183   6.258   3.927   7.075
21581SOL    HW166184   6.348   3.911   7.035
21581SOL    HW266185   6.266   3.932   7.174
21582SOL     OW66186   5.661   4.069   5.619
21582SOL    HW166187   5.569   4.041   5.590
21582SOL    HW266188   5.692   4.146   5.563
21583SOL     OW66189   7.026   4.580   6.984
21583SOL    HW166190   6.969   4.632   6.921
21583SOL    HW266191   7.122   4.592   6.960
21584SOL     OW66192   5.658   3.890   5.904
21584SOL    HW166193   5.641   3.973   5.850
21584SOL    HW266194   5.748   3.853   5.882
21585SOL     OW66195   6.769   5.059   5.705
21585SOL    HW166196   6.670   5.048   5.707
21585SOL    HW266197   6.803   5.074   5.798
21586SOL     OW66198   6.199   4.566   7.017
21586SOL    HW166199   6.255   4.647   7.000
21586SOL    HW266200   6.258   4.486   7.020
21587SOL     OW66201   7.079   5.491   6.545
21587SOL    HW166202   7.112   5.555   6.476
21587SOL    HW266203   7.145   5.485   6.620
21588SOL     OW66204   6.302   4.289   7.294
21588SOL    HW166205   6.321   4.354   7.368
21588SOL    HW266206   6.362   4.209   7.303
21589SOL     OW66207   7.036   4.944   7.219
21589SOL    HW166208   7.027   4.934   7.318
21589SOL    HW266209   7.132   4.937   7.193
21590SOL     OW66210   5.976   5.465   7.146
21590SOL    HW166211   5.885   5.506   7.144
21590SOL    HW266212   5.969   5.371   7.178
21591SOL     OW66213   7.260   4.607   6.840
21591SOL    HW166214   7.233   4.518   6.803
21591SOL    HW266215   7.261   4.675   6.767
21592SOL     OW66216   6.811   4.049   6.035
21592SOL    HW166217   6.876   3.975   6.024
21592SOL    HW266218   6.831   4.099   6.119
21593SOL     OW66219   6.180   4.469   6.238
21593SOL    HW166220   6.230   4.554   6.219
21593SOL    HW266221   6.092   4.471   6.190
21594SOL     OW66222   7.363   4.066   7.228
21594SOL    HW166223   7.346   4.097   7.134
21594SOL    HW266224   7.279   4.029   7.266
21595SOL     OW66225   7.316   4.658   7.103
21595SOL    HW166226   7.354   4.749   7.118
21595SOL    HW266227   7.308   4.641   7.004
21596SOL     OW66228   6.445   5.098   5.602
21596SOL    HW166229   6.399   5.113   5.690
21596SOL    HW266230   6.489   5.183   5.572
21597SOL     OW66231   6.247   5.514   6.539
21597SOL    HW166232   6.201   5.602   6.526
21597SOL    HW266233   6.346   5.526   6.532
21598SOL     OW66234   6.445   4.680   6.447
21598SOL    HW166235   6.499   4.611   6.495
21598SOL    HW266236   6.413   4.749   6.513
21599SOL     OW66237   6.669   4.708   5.673
21599SOL    HW166238   6.646   4.761   5.591
21599SOL    HW266239   6.750   4.652   5.654
21600SOL     OW66240   7.447   5.293   6.437
21600SOL    HW166241   7.376   5.281   6.367
21600SOL    HW266242   7.448   5.214   6.497
21601SOL     OW66243   5.807   5.038   7.430
21601SOL    HW166244   5.742   4.965   7.409
21601SOL    HW266245   5.811   5.052   7.528
21602SOL     OW66246   5.665   4.964   6.239
21602SOL    HW166247   5.664   4.917   6.327
21602SOL    HW266248   5.747   4.936   6.188
21603SOL     OW66249   6.258   5.115   7.210
21603SOL    HW166250   6.180   5.065   7.248
21603SOL    HW266251   6.255   5.210   7.241
21604SOL     OW66252   7.410   3.916   6.813
21604SOL    HW166253   7.406   3.826   6.857
21604SOL    HW266254   7.413   3.905   6.714
21605SOL     OW66255   6.014   4.148   6.106
21605SOL    HW166256   6.044   4.076   6.044
21605SOL    HW266257   5.975   4.108   6.189
21606SOL     OW66258   7.291   5.211   6.690
21606SOL    HW166259   7.198   5.186   6.663
21606SOL    HW266260   7.317   5.161   6.772
21607SOL     OW66261   5.903   4.271   6.866
21607SOL    HW166262   5.941   4.212   6.938
21607SOL    HW266263   5.943   4.245   6.778
21608SOL     OW66264   6.398   5.310   6.273
21608SOL    HW166265   6.430   5.320   6.179
21608SOL    HW266266   6.319   5.248   6.275
21609SOL     OW66267   7.010   3.938   6.698
21609SOL    HW166268   7.062   3.873   6.753
21609SOL    HW266269   6.961   4.001   6.759
21610SOL     OW66270   6.587   3.758   6.740
21610SOL    HW166271   6.524   3.686   6.709
21610SOL    HW266272   6.680   3.722   6.740
21611SOL     OW66273   6.356   5.054   5.887
21611SOL    HW166274   6.310   4.967   5.904
21611SOL    HW266275   6.447   5.051   5.928
21612SOL     OW66276   6.204   5.291   6.870
21612SOL    HW166277   6.199   5.373   6.927
21612SOL    HW266278   6.293   5.288   6.825
21613SOL     OW66279   6.938   3.776   5.754
21613SOL    HW166280   6.973   3.735   5.670
21613SOL    HW266281   6.848   3.738   5.774
21614SOL     OW66282   6.886   4.177   6.277
21614SOL    HW166283   6.827   4.257   6.281
21614SOL    HW266284   6.901   4.142   6.370
21615SOL     OW66285   7.179   3.945   6.468
21615SOL    HW166286   7.095   3.944   6.522
21615SOL    HW266287   7.181   4.028   6.412
21616SOL     OW66288   5.625   4.801   5.886
21616SOL    HW166289   5.724   4.790   5.877
21616SOL    HW266290   5.585   4.715   5.918
21617SOL     OW66291   6.461   5.370   5.923
21617SOL    HW166292   6.384   5.335   5.869
21617SOL    HW266293   6.429   5.441   5.985
21618SOL     OW66294   5.816   4.352   7.561
21618SOL    HW166295   5.723   4.350   7.598
21618SOL    HW266296   5.817   4.313   7.469
21619SOL     OW66297   5.811   3.999   8.444
21619SOL    HW166298   5.846   3.982   8.536
21619SOL    HW266299   5.723   3.954   8.432
21620SOL     OW66300   5.605   4.092   8.095
21620SOL    HW166301   5.523   4.135   8.134
21620SOL    HW266302   5.577   4.019   8.032
21621SOL     OW66303   6.155   4.999   8.613
21621SOL    HW166304   6.062   4.992   8.576
21621SOL    HW266305   6.166   5.088   8.657
21622SOL     OW66306   7.141   5.235   8.151
21622SOL    HW166307   7.084   5.219   8.232
21622SOL    HW266308   7.082   5.245   8.071
21623SOL     OW66309   6.721   4.427   8.165
21623SOL    HW166310   6.778   4.505   8.140
21623SOL    HW266311   6.661   4.453   8.241
21624SOL     OW66312   7.341   4.331   7.679
21624SOL    HW166313   7.329   4.318   7.580
21624SOL    HW266314   7.311   4.250   7.728
21625SOL     OW66315   6.354   4.868   8.471
21625SOL    HW166316   6.276   4.885   8.531
21625SOL    HW266317   6.388   4.955   8.435
21626SOL     OW66318   6.436   4.522   9.271
21626SOL    HW166319   6.432   4.598   9.336
21626SOL    HW266320   6.458   4.558   9.180
21627SOL     OW66321   6.271   4.736   8.113
21627SOL    HW166322   6.340   4.720   8.183
21627SOL    HW266323   6.198   4.793   8.151
21628SOL     OW66324   6.272   4.885   9.251
21628SOL    HW166325   6.332   4.964   9.265
21628SOL    HW266326   6.186   4.916   9.210
21629SOL     OW66327   5.921   5.159   8.509
21629SOL    HW166328   5.843   5.128   8.456
21629SOL    HW266329   5.979   5.217   8.452
21630SOL     OW66330   7.046   5.229   8.787
21630SOL    HW166331   7.070   5.323   8.813
21630SOL    HW266332   7.030   5.175   8.869
21631SOL     OW66333   6.024   4.116   8.947
21631SOL    HW166334   6.106   4.060   8.956
21631SOL    HW266335   5.943   4.058   8.951
21632SOL     OW66336   7.189   4.171   8.185
21632SOL    HW166337   7.115   4.217   8.135
21632SOL    HW266338   7.240   4.239   8.238
21633SOL     OW66339   5.817   5.437   7.931
21633SOL    HW166340   5.851   5.514   7.985
21633SOL    HW266341   5.861   5.437   7.841
21634SOL     OW66342   6.713   5.065   9.138
21634SOL    HW166343   6.760   5.065   9.226
21634SOL    HW266344   6.665   4.978   9.127
21635SOL     OW66345   5.816   5.158   7.986
21635SOL    HW166346   5.790   5.254   7.986
21635SOL    HW266347   5.745   5.104   8.031
21636SOL     OW66348   5.826   4.815   8.334
21636SOL    HW166349   5.840   4.731   8.386
21636SOL    HW266350   5.771   4.879   8.389
21637SOL     OW66351   6.206   5.510   8.887
21637SOL    HW166352   6.114   5.493   8.922
21637SOL    HW266353   6.234   5.602   8.913
21638SOL     OW66354   6.192   4.688   7.571
21638SOL    HW166355   6.199   4.772   7.517
21638SOL    HW266356   6.238   4.701   7.659
21639SOL     OW66357   7.180   3.838   8.928
21639SOL    HW166358   7.162   3.905   8.856
21639SOL    HW266359   7.177   3.884   9.017
21640SOL     OW66360   5.708   4.367   8.011
21640SOL    HW166361   5.663   4.279   8.028
21640SOL    HW266362   5.707   4.421   8.095
21641SOL     OW66363   7.428   5.491   7.807
21641SOL    HW166364   7.482   5.462   7.887
21641SOL    HW266365   7.458   5.581   7.778
21642SOL     OW66366   5.613   5.320   7.565
21642SOL    HW166367   5.594   5.224   7.586
21642SOL    HW266368   5.580   5.378   7.640
21643SOL     OW66369   7.275   4.646   8.060
21643SOL    HW166370   7.370   4.617   8.068
21643SOL    HW266371   7.267   4.711   7.985
21644SOL     OW66372   7.227   4.832   7.880
21644SOL    HW166373   7.313   4.834   7.828
21644SOL    HW266374   7.241   4.879   7.968
21645SOL     OW66375   5.699   4.461   9.045
21645SOL    HW166376   5.787   4.448   9.090
21645SOL    HW266377   5.686   4.558   9.023
21646SOL     OW66378   6.199   5.089   8.174
21646SOL    HW166379   6.150   5.002   8.183
21646SOL    HW266380   6.176   5.132   8.087
21647SOL     OW66381   6.879   4.952   8.871
21647SOL    HW166382   6.916   4.879   8.813
21647SOL    HW266383   6.931   4.957   8.956
21648SOL     OW66384   6.395   3.728   7.950
21648SOL    HW166385   6.435   3.819   7.941
21648SOL    HW266386   6.295   3.736   7.956
21649SOL     OW66387   5.783   4.700   8.712
21649SOL    HW166388   5.872   4.655   8.698
21649SOL    HW266389   5.710   4.635   8.693
21650SOL     OW66390   7.111   4.723   7.638
21650SOL    HW166391   7.048   4.647   7.651
21650SOL    HW266392   7.159   4.741   7.724
21651SOL     OW66393   6.773   5.516   9.064
21651SOL    HW166394   6.797   5.576   8.988
21651SOL    HW266395   6.780   5.421   9.034
21652SOL     OW66396   5.903   3.975   9.249
21652SOL    HW166397   5.974   4.046   9.255
21652SOL    HW266398   5.815   4.014   9.277
21653SOL     OW66399   7.052   5.141   8.401
21653SOL    HW166400   6.993   5.147   8.481
21653SOL    HW266401   7.037   5.053   8.355
21654SOL     OW66402   7.253   5.438   8.020
21654SOL    HW166403   7.212   5.415   7.932
21654SOL    HW266404   7.235   5.364   8.085
21655SOL     OW66405   6.184   4.453   7.718
21655SOL    HW166406   6.208   4.522   7.650
21655SOL    HW266407   6.106   4.486   7.772
21656SOL     OW66408   6.867   4.069   8.392
21656SOL    HW166409   6.781   4.019   8.379
21656SOL    HW266410   6.929   4.015   8.448
21657SOL     OW66411   7.162   5.386   7.755
21657SOL    HW166412   7.251   5.432   7.758
21657SOL    HW266413   7.141   5.362   7.660
21658SOL     OW66414   6.393   4.329   8.913
21658SOL    HW166415   6.346   4.326   9.002
21658SOL    HW266416   6.342   4.274   8.847
21659SOL     OW66417   6.980   4.193   9.122
21659SOL    HW166418   6.960   4.236   9.210
21659SOL    HW266419   7.058   4.131   9.131
21660SOL     OW66420   6.559   4.614   9.020
21660SOL    HW166421   6.605   4.530   8.991
21660SOL    HW266422   6.503   4.648   8.945
21661SOL     OW66423   6.577   4.134   8.690
21661SOL    HW166424   6.500   4.168   8.744
21661SOL    HW266425   6.543   4.083   8.611
21662SOL     OW66426   6.627   4.425   7.877
21662SOL    HW166427   6.653   4.421   7.973
21662SOL    HW266428   6.542   4.374   7.863
21663SOL     OW66429   5.662   4.535   8.237
21663SOL    HW166430   5.761   4.523   8.246
21663SOL    HW266431   5.638   4.630   8.258
21664SOL     OW66432   5.716   5.545   9.019
21664SOL    HW166433   5.706   5.530   9.118
21664SOL    HW266434   5.630   5.581   8.983
21665SOL     OW66435   6.451   4.072   7.643
21665SOL    HW166436   6.510   4.135   7.594
21665SOL    HW266437   6.470   3.978   7.614
21666SOL     OW66438   7.305   4.309   9.279
21666SOL    HW166439   7.279   4.398   9.243
21666SOL    HW266440   7.303   4.241   9.206
21667SOL     OW66441   6.948   4.868   7.993
21667SOL    HW166442   7.031   4.839   7.945
21667SOL    HW266443   6.899   4.935   7.937
21668SOL     OW66444   6.136   3.920   8.333
21668SOL    HW166445   6.131   3.915   8.433
21668SOL    HW266446   6.138   4.016   8.304
21669SOL     OW66447   6.594   5.180   7.925
21669SOL    HW166448   6.548   5.252   7.873
21669SOL    HW266449   6.590   5.200   8.023
21670SOL     OW66450   5.937   5.525   8.301
21670SOL    HW166451   5.987   5.439   8.307
21670SOL    HW266452   6.002   5.602   8.298
21671SOL     OW66453   7.381   4.790   8.321
21671SOL    HW166454   7.319   4.775   8.245
21671SOL    HW266455   7.329   4.801   8.406
21672SOL     OW66456   6.813   5.274   8.954
21672SOL    HW166457   6.819   5.197   9.018
21672SOL    HW266458   6.761   5.248   8.874
21673SOL     OW66459   5.907   4.667   7.690
21673SOL    HW166460   5.989   4.706   7.648
21673SOL    HW266461   5.880   4.585   7.641
21674SOL     OW66462   7.044   4.459   8.176
21674SOL    HW166463   7.039   4.394   8.251
21674SOL    HW266464   7.124   4.518   8.189
21675SOL     OW66465   6.047   4.990   9.175
21675SOL    HW166466   5.997   4.991   9.089
21675SOL    HW266467   5.984   4.972   9.251
21676SOL     OW66468   6.697   5.500   7.685
21676SOL    HW166469   6.637   5.438   7.735
21676SOL    HW266470   6.728   5.456   7.600
21677SOL     OW66471   5.788   4.009   8.946
21677SOL    HW166472   5.708   4.069   8.933
21677SOL    HW266473   5.778   3.960   9.032
21678SOL     OW66474   7.218   5.101   7.529
21678SOL    HW166475   7.186   5.195   7.519
21678SOL    HW266476   7.142   5.038   7.517
21679SOL     OW66477   6.050   5.467   7.771
21679SOL    HW166478   6.083   5.506   7.857
21679SOL    HW266479   6.126   5.460   7.706
21680SOL     OW66480   6.986   3.831   7.874
21680SOL    HW166481   6.962   3.794   7.784
21680SOL    HW266482   7.085   3.847   7.878
21681SOL     OW66483   5.835   5.509   8.689
21681SOL    HW166484   5.892   5.444   8.739
21681SOL    HW266485   5.819   5.476   8.596
21682SOL     OW66486   6.526   5.422   8.352
21682SOL    HW166487   6.606   5.365   8.373
21682SOL    HW266488   6.477   5.382   8.275
21683SOL     OW66489   5.968   4.424   7.928
21683SOL    HW166490   6.013   4.334   7.925
21683SOL    HW266491   5.874   4.413   7.961
21684SOL     OW66492   7.133   3.946   9.177
21684SOL    HW166493   7.128   3.983   9.269
21684SOL    HW266494   7.061   3.877   9.165
21685SOL     OW66495   6.200   3.846   7.565
21685SOL    HW166496   6.298   3.824   7.572
21685SOL    HW266497   6.169   3.829   7.472
21686SOL     OW66498   6.367   3.988   9.197
21686SOL    HW166499   6.434   3.927   9.240
21686SOL    HW266500   6.294   4.007   9.262
21687SOL     OW66501   6.474   5.238   8.643
21687SOL    HW166502   6.451   5.213   8.549
21687SOL    HW266503   6.535   5.169   8.682
21688SOL     OW66504   6.937   4.314   8.881
21688SOL    HW166505   6.965   4.271   8.966
21688SOL    HW266506   6.962   4.410   8.882
21689SOL     OW66507   6.389   5.126   8.372
21689SOL    HW166508   6.479   5.140   8.330
21689SOL    HW266509   6.318   5.128   8.301
21690SOL     OW66510   6.508   4.227   8.347
21690SOL    HW166511   6.483   4.218   8.251
21690SOL    HW266512   6.556   4.145   8.378
21691SOL     OW66513   6.125   3.788   7.960
21691SOL    HW166514   6.044   3.789   8.018
21691SOL    HW266515   6.128   3.871   7.905
21692SOL     OW66516   7.020   4.912   7.489
21692SOL    HW166517   7.052   4.836   7.546
21692SOL    HW266518   6.928   4.939   7.519
21693SOL     OW66519   5.883   3.759   7.619
21693SOL    HW166520   5.932   3.843   7.598
21693SOL    HW266521   5.945   3.694   7.664
21694SOL     OW66522   6.521   3.960   7.928
21694SOL    HW166523   6.473   4.001   7.850
21694SOL    HW266524   6.620   3.958   7.909
21695SOL     OW66525   6.662   4.407   8.912
21695SOL    HW166526   6.582   4.346   8.915
21695SOL    HW266527   6.743   4.354   8.888
21696SOL     OW66528   6.813   5.294   8.241
21696SOL    HW166529   6.834   5.368   8.176
21696SOL    HW266530   6.881   5.294   8.314
21697SOL     OW66531   6.045   4.876   8.189
21697SOL    HW166532   5.974   4.849   8.254
21697SOL    HW266533   6.019   4.848   8.096
21698SOL     OW66534   6.857   5.521   8.039
21698SOL    HW166535   6.901   5.585   7.975
21698SOL    HW266536   6.807   5.573   8.109
21699SOL     OW66537   6.618   4.273   7.464
21699SOL    HW166538   6.577   4.355   7.425
21699SOL    HW266539   6.682   4.299   7.537
21700SOL     OW66540   5.664   4.280   8.834
21700SOL    HW166541   5.756   4.279   8.793
21700SOL    HW266542   5.658   4.354   8.901
21701SOL     OW66543   6.147   3.946   8.595
21701SOL    HW166544   6.185   3.862   8.632
21701SOL    HW266545   6.059   3.965   8.639
21702SOL     OW66546   6.452   4.178   8.090
21702SOL    HW166547   6.420   4.250   8.028
21702SOL    HW266548   6.476   4.097   8.037
21703SOL     OW66549   6.603   3.763   8.201
21703SOL    HW166550   6.531   3.768   8.132
21703SOL    HW266551   6.579   3.694   8.270
21704SOL     OW66552   7.015   4.897   8.315
21704SOL    HW166553   6.960   4.813   8.308
21704SOL    HW266554   7.041   4.926   8.223
21705SOL     OW66555   7.052   4.314   8.440
21705SOL    HW166556   7.022   4.219   8.447
21705SOL    HW266557   7.125   4.330   8.506
21706SOL     OW66558   7.443   4.557   7.825
21706SOL    HW166559   7.485   4.493   7.889
21706SOL    HW266560   7.405   4.506   7.747
21707SOL     OW66561   6.074   5.109   7.622
21707SOL    HW166562   5.987   5.094   7.669
21707SOL    HW266563   6.057   5.135   7.527
21708SOL     OW66564   7.250   5.004   8.105
21708SOL    HW166565   7.349   5.012   8.119
21708SOL    HW266566   7.205   5.088   8.136
21709SOL     OW66567   6.976   4.299   7.526
21709SOL    HW166568   6.922   4.278   7.607
21709SOL    HW266569   7.067   4.258   7.535
21710SOL     OW66570   6.113   3.980   7.776
21710SOL    HW166571   6.140   3.921   7.701
21710SOL    HW266572   6.113   4.075   7.745
21711SOL     OW66573   7.340   4.947   9.036
21711SOL    HW166574   7.431   4.908   9.023
21711SOL    HW266575   7.348   5.043   9.060
21712SOL     OW66576   6.650   5.071   8.788
21712SOL    HW166577   6.570   5.048   8.843
21712SOL    HW266578   6.733   5.045   8.837
21713SOL     OW66579   7.178   5.353   9.073
21713SOL    HW166580   7.205   5.387   8.983
21713SOL    HW266581   7.257   5.315   9.119
21714SOL     OW66582   6.697   4.919   8.548
21714SOL    HW166583   6.657   4.963   8.629
21714SOL    HW266584   6.656   4.956   8.465
21715SOL     OW66585   7.224   4.823   8.527
21715SOL    HW166586   7.229   4.904   8.586
21715SOL    HW266587   7.138   4.825   8.476
21716SOL     OW66588   6.501   3.813   8.850
21716SOL    HW166589   6.526   3.793   8.755
21716SOL    HW266590   6.573   3.869   8.892
21717SOL     OW66591   6.566   4.840   9.167
21717SOL    HW166592   6.467   4.846   9.177
21717SOL    HW266593   6.589   4.760   9.111
21718SOL     OW66594   6.291   4.774   7.816
21718SOL    HW166595   6.277   4.781   7.915
21718SOL    HW266596   6.375   4.723   7.798
21719SOL     OW66597   5.996   4.537   8.699
21719SOL    HW166598   6.082   4.549   8.749
21719SOL    HW266599   5.954   4.450   8.726
21720SOL     OW66600   6.860   4.110   8.710
21720SOL    HW166601   6.881   4.184   8.774
21720SOL    HW266602   6.771   4.127   8.667
21721SOL     OW66603   5.650   5.288   8.779
21721SOL    HW166604   5.604   5.370   8.745
21721SOL    HW266605   5.748   5.307   8.788
21722SOL     OW66606   5.953   4.824   7.949
21722SOL    HW166607   5.946   4.907   7.893
21722SOL    HW266608   5.957   4.744   7.889
21723SOL     OW66609   6.152   4.261   8.313
21723SOL    HW166610   6.164   4.327   8.239
21723SOL    HW266611   6.198   4.295   8.396
21724SOL     OW66612   6.838   5.072   7.836
21724SOL    HW166613   6.888   5.149   7.876
21724SOL    HW266614   6.743   5.074   7.868
21725SOL     OW66615   6.858   5.169   8.590
21725SOL    HW166616   6.905   5.182   8.677
21725SOL    HW266617   6.792   5.095   8.599
21726SOL     OW66618   7.168   4.363   7.920
21726SOL    HW166619   7.137   4.424   7.993
21726SOL    HW266620   7.218   4.415   7.851
21727SOL     OW66621   5.940   5.234   8.777
21727SOL    HW166622   5.919   5.190   8.690
21727SOL    HW266623   6.037   5.260   8.780
21728SOL     OW66624   5.988   4.475   9.046
21728SOL    HW166625   6.056   4.530   8.999
21728SOL    HW266626   6.028   4.387   9.073
21729SOL     OW66627   7.173   4.503   9.118
21729SOL    HW166628   7.081   4.541   9.113
21729SOL    HW266629   7.233   4.550   9.053
21730SOL     OW66630   6.599   3.829   9.218
21730SOL    HW166631   6.605   3.914   9.166
21730SOL    HW266632   6.631   3.753   9.161
21731SOL     OW66633   6.090   3.774   9.188
21731SOL    HW166634   6.048   3.717   9.118
21731SOL    HW266635   6.024   3.843   9.220
21732SOL     OW66636   6.159   4.594   8.477
21732SOL    HW166637   6.203   4.683   8.468
21732SOL    HW266638   6.096   4.594   8.554
21733SOL     OW66639   6.946   4.586   8.493
21733SOL    HW166640   6.871   4.586   8.427
21733SOL    HW266641   6.983   4.494   8.502
21734SOL     OW66642   6.795   4.249   7.723
21734SOL    HW166643   6.808   4.165   7.777
21734SOL    HW266644   6.766   4.323   7.783
21735SOL     OW66645   5.893   3.937   8.679
21735SOL    HW166646   5.870   3.974   8.769
21735SOL    HW266647   5.863   3.842   8.673
21736SOL     OW66648   5.623   5.034   8.730
21736SOL    HW166649   5.676   4.985   8.798
21736SOL    HW266650   5.645   5.132   8.735
21737SOL     OW66651   6.318   4.358   8.512
21737SOL    HW166652   6.377   4.332   8.436
21737SOL    HW266653   6.290   4.454   8.501
21738SOL     OW66654   7.314   4.659   9.302
21738SOL    HW166655   7.268   4.652   9.213
21738SOL    HW266656   7.252   4.703   9.368
21739SOL     OW66657   5.893   3.787   8.066
21739SOL    HW166658   5.882   3.881   8.099
21739SOL    HW266659   5.888   3.724   8.143
21740SOL     OW66660   7.208   4.091   7.822
21740SOL    HW166661   7.210   4.015   7.886
21740SOL    HW266662   7.160   4.168   7.862
21741SOL     OW66663   6.609   4.490   8.414
21741SOL    HW166664   6.624   4.511   8.510
21741SOL    HW266665   6.579   4.395   8.405
21742SOL     OW66666   6.566   5.297   9.148
21742SOL    HW166667   6.546   5.341   9.060
21742SOL    HW266668   6.605   5.206   9.132
21743SOL     OW66669   7.445   5.242   9.053
21743SOL    HW166670   7.459   5.269   8.958
21743SOL    HW266671   7.528   5.264   9.106
21744SOL     OW66672   5.936   4.622   9.252
21744SOL    HW166673   6.012   4.666   9.300
21744SOL    HW266674   5.971   4.575   9.170
21745SOL     OW66675   7.126   3.998   7.573
21745SOL    HW166676   7.065   3.923   7.596
21745SOL    HW266677   7.148   4.050   7.656
21746SOL     OW66678   6.889   4.562   7.490
21746SOL    HW166679   6.923   4.469   7.505
21746SOL    HW266680   6.907   4.589   7.395
21747SOL     OW66681   6.654   5.057   8.297
21747SOL    HW166682   6.661   4.973   8.242
21747SOL    HW266683   6.716   5.126   8.261
21748SOL     OW66684   5.905   4.534   8.397
21748SOL    HW166685   5.998   4.570   8.402
21748SOL    HW266686   5.899   4.449   8.449
21749SOL     OW66687   5.925   4.233   8.454
21749SOL    HW166688   5.873   4.150   8.437
21749SOL    HW266689   6.002   4.238   8.390
21750SOL     OW66690   6.724   4.104   9.126
21750SOL    HW166691   6.679   4.167   9.190
21750SOL    HW266692   6.817   4.135   9.109
21751SOL     OW66693   6.746   3.931   8.925
21751SOL    HW166694   6.746   3.995   9.002
21751SOL    HW266695   6.774   3.979   8.842
21752SOL     OW66696   5.594   5.050   7.648
21752SOL    HW166697   5.501   5.071   7.617
21752SOL    HW266698   5.604   4.951   7.661
21753SOL     OW66699   5.674   5.525   8.375
21753SOL    HW166700   5.632   5.439   8.348
21753SOL    HW266701   5.768   5.528   8.341
21754SOL     OW66702   6.090   5.292   8.358
21754SOL    HW166703   6.156   5.366   8.367
21754SOL    HW266704   6.134   5.213   8.316
21755SOL     OW66705   6.588   4.520   8.686
21755SOL    HW166706   6.629   4.488   8.772
21755SOL    HW266707   6.492   4.493   8.683
21756SOL     OW66708   5.626   4.268   8.562
21756SOL    HW166709   5.711   4.235   8.521
21756SOL    HW266710   5.639   4.283   8.660
21757SOL     OW66711   5.775   4.244   9.170
21757SOL    HW166712   5.834   4.204   9.100
21757SOL    HW266713   5.717   4.315   9.129
21758SOL     OW66714   6.955   4.674   9.108
21758SOL    HW166715   6.994   4.763   9.128
21758SOL    HW266716   6.965   4.654   9.011
21759SOL     OW66717   6.401   4.296   7.773
21759SOL    HW166718   6.408   4.207   7.727
21759SOL    HW266719   6.307   4.330   7.765
21760SOL     OW66720   7.243   4.328   8.654
21760SOL    HW166721   7.205   4.259   8.716
21760SOL    HW266722   7.325   4.292   8.610
21761SOL     OW66723   5.838   5.288   9.192
21761SOL    HW166724   5.808   5.345   9.268
21761SOL    HW266725   5.831   5.191   9.218
21762SOL     OW66726   6.257   4.188   8.717
21762SOL    HW166727   6.223   4.099   8.687
21762SOL    HW266728   6.283   4.242   8.637
21763SOL     OW66729   6.516   5.402   8.913
21763SOL    HW166730   6.492   5.384   8.818
21763SOL    HW266731   6.546   5.496   8.923
21764SOL     OW66732   6.059   4.224   7.639
21764SOL    HW166733   6.120   4.304   7.643
21764SOL    HW266734   5.964   4.255   7.646
21765SOL     OW66735   5.745   4.861   8.914
21765SOL    HW166736   5.767   4.800   8.990
21765SOL    HW266737   5.755   4.812   8.828
21766SOL     OW66738   6.933   4.783   8.682
21766SOL    HW166739   6.957   4.720   8.608
21766SOL    HW266740   6.843   4.823   8.664
21767SOL     OW66741   6.888   4.579   7.757
21767SOL    HW166742   6.802   4.548   7.799
21767SOL    HW266743   6.884   4.565   7.658
21768SOL     OW66744   7.345   5.471   8.602
21768SOL    HW166745   7.406   5.501   8.529
21768SOL    HW266746   7.307   5.382   8.580
21769SOL     OW66747   6.838   5.455   8.576
21769SOL    HW166748   6.922   5.460   8.522
21769SOL    HW266749   6.815   5.359   8.594
21770SOL     OW66750   5.669   4.982   8.470
21770SOL    HW166751   5.664   4.981   8.570
21770SOL    HW266752   5.586   4.941   8.432
21771SOL     OW66753   6.274   5.386   9.164
21771SOL    HW166754   6.218   5.467   9.173
21771SOL    HW266755   6.326   5.390   9.078
21772SOL     OW66756   7.312   3.859   7.971
21772SOL    HW166757   7.385   3.842   7.904
21772SOL    HW266758   7.281   3.772   8.009
21773SOL     OW66759   6.974   5.297   7.925
21773SOL    HW166760   7.041   5.309   7.851
21773SOL    HW266761   6.934   5.386   7.948
21774SOL     OW66762   5.716   5.518   9.299
21774SOL    HW166763   5.675   5.444   9.352
21774SOL    HW266764   5.780   5.569   9.357
21775SOL     OW66765   6.866   4.651   8.120
21775SOL    HW166766   6.926   4.570   8.122
21775SOL    HW266767   6.906   4.720   8.060
21776SOL     OW66768   6.416   4.997   8.870
21776SOL    HW166769   6.411   5.030   8.965
21776SOL    HW266770   6.330   5.016   8.824
21777SOL     OW66771   6.258   5.340   7.602
21777SOL    HW166772   6.267   5.350   7.503
21777SOL    HW266773   6.218   5.251   7.623
21778SOL     OW66774   7.236   5.444   8.842
21778SOL    HW166775   7.289   5.454   8.758
21778SOL    HW266776   7.209   5.534   8.876
21779SOL     OW66777   7.427   3.899   8.411
21779SOL    HW166778   7.466   3.814   8.375
21779SOL    HW266779   7.329   3.901   8.392
21780SOL     OW66780   5.849   4.050   8.168
21780SOL    HW166781   5.770   4.101   8.134
21780SOL    HW266782   5.840   4.035   8.266
21781SOL     OW66783   6.780   5.336   7.479
21781SOL    HW166784   6.786   5.243   7.516
21781SOL    HW266785   6.721   5.336   7.399
21782SOL     OW66786   6.408   4.726   8.820
21782SOL    HW166787   6.448   4.725   8.728
21782SOL    HW266788   6.418   4.818   8.860
21783SOL     OW66789   6.502   4.634   7.739
21783SOL    HW166790   6.565   4.672   7.671
21783SOL    HW266791   6.542   4.551   7.778
21784SOL     OW66792   7.090   5.331   7.492
21784SOL    HW166793   6.998   5.368   7.499
21784SOL    HW266794   7.128   5.351   7.402
21785SOL     OW66795   5.958   5.012   8.938
21785SOL    HW166796   5.945   5.105   8.904
21785SOL    HW266797   5.874   4.960   8.925
21786SOL     OW66798   7.200   5.016   8.737
21786SOL    HW166799   7.260   5.019   8.817
21786SOL    HW266800   7.125   5.080   8.750
21787SOL     OW66801   6.625   4.822   8.144
21787SOL    HW166802   6.555   4.775   8.198
21787SOL    HW266803   6.684   4.754   8.101
21788SOL     OW66804   6.600   3.960   8.419
21788SOL    HW166805   6.592   3.924   8.326
21788SOL    HW266806   6.598   3.884   8.484
21789SOL     OW66807   6.176   5.211   7.939
21789SOL    HW166808   6.218   5.153   7.869
21789SOL    HW266809   6.132   5.290   7.895
21790SOL     OW66810   7.295   4.109   8.829
21790SOL    HW166811   7.368   4.178   8.833
21790SOL    HW266812   7.323   4.034   8.770
21791SOL     OW66813   5.841   5.072   7.738
21791SOL    HW166814   5.745   5.073   7.711
21791SOL    HW266815   5.853   5.125   7.822
21792SOL     OW66816   5.691   4.737   9.174
21792SOL    HW166817   5.614   4.704   9.228
21792SOL    HW266818   5.776   4.707   9.216
21793SOL     OW66819   6.258   3.927   8.937
21793SOL    HW166820   6.348   3.911   8.897
21793SOL    HW266821   6.266   3.932   9.036
21794SOL     OW66822   5.661   4.069   7.481
21794SOL    HW166823   5.569   4.041   7.452
21794SOL    HW266824   5.692   4.146   7.425
21795SOL     OW66825   7.026   4.580   8.846
21795SOL    HW166826   6.969   4.632   8.783
21795SOL    HW266827   7.122   4.592   8.822
21796SOL     OW66828   5.658   3.890   7.766
21796SOL    HW166829   5.641   3.973   7.712
21796SOL    HW266830   5.748   3.853   7.744
21797SOL     OW66831   6.769   5.059   7.567
21797SOL    HW166832   6.670   5.048   7.569
21797SOL    HW266833   6.803   5.074   7.660
21798SOL     OW66834   6.199   4.566   8.879
21798SOL    HW166835   6.255   4.647   8.862
21798SOL    HW266836   6.258   4.486   8.882
21799SOL     OW66837   7.079   5.491   8.407
21799SOL    HW166838   7.112   5.555   8.338
21799SOL    HW266839   7.145   5.485   8.482
21800SOL     OW66840   6.302   4.289   9.156
21800SOL    HW166841   6.321   4.354   9.230
21800SOL    HW266842   6.362   4.209   9.165
21801SOL     OW66843   7.036   4.944   9.081
21801SOL    HW166844   7.027   4.934   9.180
21801SOL    HW266845   7.132   4.937   9.055
21802SOL     OW66846   5.976   5.465   9.008
21802SOL    HW166847   5.885   5.506   9.006
21802SOL    HW266848   5.969   5.371   9.040
21803SOL     OW66849   7.260   4.607   8.702
21803SOL    HW166850   7.233   4.518   8.665
21803SOL    HW266851   7.261   4.675   8.629
21804SOL     OW66852   6.811   4.049   7.897
21804SOL    HW166853   6.876   3.975   7.886
21804SOL    HW266854   6.831   4.099   7.981
21805SOL     OW66855   6.180   4.469   8.100
21805SOL    HW166856   6.230   4.554   8.081
21805SOL    HW266857   6.092   4.471   8.052
21806SOL     OW66858   7.363   4.066   9.090
21806SOL    HW166859   7.346   4.097   8.996
21806SOL    HW266860   7.279   4.029   9.128
21807SOL     OW66861   7.316   4.658   8.965
21807SOL    HW166862   7.354   4.749   8.980
21807SOL    HW266863   7.308   4.641   8.866
21808SOL     OW66864   6.445   5.098   7.464
21808SOL    HW166865   6.399   5.113   7.552
21808SOL    HW266866   6.489   5.183   7.434
21809SOL     OW66867   6.247   5.514   8.401
21809SOL    HW166868   6.201   5.602   8.388
21809SOL    HW266869   6.346   5.526   8.394
21810SOL     OW66870   6.445   4.680   8.309
21810SOL    HW166871   6.499   4.611   8.357
21810SOL    HW266872   6.413   4.749   8.375
21811SOL     OW66873   6.669   4.708   7.535
21811SOL    HW166874   6.646   4.761   7.453
21811SOL    HW266875   6.750   4.652   7.516
21812SOL     OW66876   7.447   5.293   8.299
21812SOL    HW166877   7.376   5.281   8.229
21812SOL    HW266878   7.448   5.214   8.359
21813SOL     OW66879   5.807   5.038   9.292
21813SOL    HW166880   5.742   4.965   9.271
21813SOL    HW266881   5.811   5.052   9.390
21814SOL     OW66882   5.665   4.964   8.101
21814SOL    HW166883   5.664   4.917   8.189
21814SOL    HW266884   5.747   4.936   8.050
21815SOL     OW66885   6.258   5.115   9.072
21815SOL    HW166886   6.180   5.065   9.110
21815SOL    HW266887   6.255   5.210   9.103
21816SOL     OW66888   7.410   3.916   8.675
21816SOL    HW166889   7.406   3.826   8.719
21816SOL    HW266890   7.413   3.905   8.576
21817SOL     OW66891   6.014   4.148   7.968
21817SOL    HW166892   6.044   4.076   7.906
21817SOL    HW266893   5.975   4.108   8.051
21818SOL     OW66894   7.291   5.211   8.552
21818SOL    HW166895   7.198   5.186   8.525
21818SOL    HW266896   7.317   5.161   8.634
21819SOL     OW66897   5.903   4.271   8.728
21819SOL    HW166898   5.941   4.212   8.800
21819SOL    HW266899   5.943   4.245   8.640
21820SOL     OW66900   6.398   5.310   8.135
21820SOL    HW166901   6.430   5.320   8.041
21820SOL    HW266902   6.319   5.248   8.137
21821SOL     OW66903   7.010   3.938   8.560
21821SOL    HW166904   7.062   3.873   8.615
21821SOL    HW266905   6.961   4.001   8.621
21822SOL     OW66906   6.587   3.758   8.602
21822SOL    HW166907   6.524   3.686   8.571
21822SOL    HW266908   6.680   3.722   8.602
21823SOL     OW66909   6.356   5.054   7.749
21823SOL    HW166910   6.310   4.967   7.766
21823SOL    HW266911   6.447   5.051   7.790
21824SOL     OW66912   6.204   5.291   8.732
21824SOL    HW166913   6.199   5.373   8.789
21824SOL    HW266914   6.293   5.288   8.687
21825SOL     OW66915   6.938   3.776   7.616
21825SOL    HW166916   6.973   3.735   7.532
21825SOL    HW266917   6.848   3.738   7.636
21826SOL     OW66918   6.886   4.177   8.139
21826SOL    HW166919   6.827   4.257   8.143
21826SOL    HW266920   6.901   4.142   8.232
21827SOL     OW66921   7.179   3.945   8.330
21827SOL    HW166922   7.095   3.944   8.384
21827SOL    HW266923   7.181   4.028   8.274
21828SOL     OW66924   5.625   4.801   7.748
21828SOL    HW166925   5.724   4.790   7.739
21828SOL    HW266926   5.585   4.715   7.780
21829SOL     OW66927   6.461   5.370   7.785
21829SOL    HW166928   6.384   5.335   7.731
21829SOL    HW266929   6.429   5.441   7.847
21830SOL     OW66930   5.816   4.352   9.423
21830SOL    HW166931   5.723   4.350   9.460
21830SOL    HW266932   5.817   4.313   9.331
21831SOL     OW66933   5.811   3.999  10.306
21831SOL    HW166934   5.846   3.982  10.398
21831SOL    HW266935   5.723   3.954  10.294
21832SOL     OW66936   5.605   4.092   9.957
21832SOL    HW166937   5.523   4.135   9.996
21832SOL    HW266938   5.577   4.019   9.894
21833SOL     OW66939   6.155   4.999  10.475
21833SOL    HW166940   6.062   4.992  10.438
21833SOL    HW266941   6.166   5.088  10.519
21834SOL     OW66942   7.141   5.235  10.013
21834SOL    HW166943   7.084   5.219  10.094
21834SOL    HW266944   7.082   5.245   9.933
21835SOL     OW66945   6.721   4.427  10.027
21835SOL    HW166946   6.778   4.505  10.002
21835SOL    HW266947   6.661   4.453  10.103
21836SOL     OW66948   7.341   4.331   9.541
21836SOL    HW166949   7.329   4.318   9.442
21836SOL    HW266950   7.311   4.250   9.590
21837SOL     OW66951   6.354   4.868  10.333
21837SOL    HW166952   6.276   4.885  10.393
21837SOL    HW266953   6.388   4.955  10.297
21838SOL     OW66954   6.436   4.522  11.133
21838SOL    HW166955   6.432   4.598  11.198
21838SOL    HW266956   6.458   4.558  11.042
21839SOL     OW66957   6.271   4.736   9.975
21839SOL    HW166958   6.340   4.720  10.045
21839SOL    HW266959   6.198   4.793  10.013
21840SOL     OW66960   6.272   4.885  11.113
21840SOL    HW166961   6.332   4.964  11.127
21840SOL    HW266962   6.186   4.916  11.072
21841SOL     OW66963   5.921   5.159  10.371
21841SOL    HW166964   5.843   5.128  10.318
21841SOL    HW266965   5.979   5.217  10.314
21842SOL     OW66966   7.046   5.229  10.649
21842SOL    HW166967   7.070   5.323  10.675
21842SOL    HW266968   7.030   5.175  10.731
21843SOL     OW66969   6.024   4.116  10.809
21843SOL    HW166970   6.106   4.060  10.818
21843SOL    HW266971   5.943   4.058  10.813
21844SOL     OW66972   7.189   4.171  10.047
21844SOL    HW166973   7.115   4.217   9.997
21844SOL    HW266974   7.240   4.239  10.100
21845SOL     OW66975   5.817   5.437   9.793
21845SOL    HW166976   5.851   5.514   9.847
21845SOL    HW266977   5.861   5.437   9.703
21846SOL     OW66978   6.713   5.065  11.000
21846SOL    HW166979   6.760   5.065  11.088
21846SOL    HW266980   6.665   4.978  10.989
21847SOL     OW66981   5.816   5.158   9.848
21847SOL    HW166982   5.790   5.254   9.848
21847SOL    HW266983   5.745   5.104   9.893
21848SOL     OW66984   5.826   4.815  10.196
21848SOL    HW166985   5.840   4.731  10.248
21848SOL    HW266986   5.771   4.879  10.251
21849SOL     OW66987   6.206   5.510  10.749
21849SOL    HW166988   6.114   5.493  10.784
21849SOL    HW266989   6.234   5.602  10.775
21850SOL     OW66990   6.192   4.688   9.433
21850SOL    HW166991   6.199   4.772   9.379
21850SOL    HW266992   6.238   4.701   9.521
21851SOL     OW66993   7.180   3.838  10.790
21851SOL    HW166994   7.162   3.905  10.718
21851SOL    HW266995   7.177   3.884  10.879
21852SOL     OW66996   5.708   4.367   9.873
21852SOL    HW166997   5.663   4.279   9.890
21852SOL    HW266998   5.707   4.421   9.957
21853SOL     OW66999   7.428   5.491   9.669
21853SOL    HW167000   7.482   5.462   9.749
21853SOL    HW267001   7.458   5.581   9.640
21854SOL     OW67002   5.613   5.320   9.427
21854SOL    HW167003   5.594   5.224   9.448
21854SOL    HW267004   5.580   5.378   9.502
21855SOL     OW67005   7.275   4.646   9.922
21855SOL    HW167006   7.370   4.617   9.930
21855SOL    HW267007   7.267   4.711   9.847
21856SOL     OW67008   7.227   4.832   9.742
21856SOL    HW167009   7.313   4.834   9.690
21856SOL    HW267010   7.241   4.879   9.830
21857SOL     OW67011   5.699   4.461  10.907
21857SOL    HW167012   5.787   4.448  10.952
21857SOL    HW267013   5.686   4.558  10.885
21858SOL     OW67014   6.199   5.089  10.036
21858SOL    HW167015   6.150   5.002  10.045
21858SOL    HW267016   6.176   5.132   9.949
21859SOL     OW67017   6.879   4.952  10.733
21859SOL    HW167018   6.916   4.879  10.675
21859SOL    HW267019   6.931   4.957  10.818
21860SOL     OW67020   6.395   3.728   9.812
21860SOL    HW167021   6.435   3.819   9.803
21860SOL    HW267022   6.295   3.736   9.818
21861SOL     OW67023   5.783   4.700  10.574
21861SOL    HW167024   5.872   4.655  10.560
21861SOL    HW267025   5.710   4.635  10.555
21862SOL     OW67026   7.111   4.723   9.500
21862SOL    HW167027   7.048   4.647   9.513
21862SOL    HW267028   7.159   4.741   9.586
21863SOL     OW67029   6.773   5.516  10.926
21863SOL    HW167030   6.797   5.576  10.850
21863SOL    HW267031   6.780   5.421  10.896
21864SOL     OW67032   5.903   3.975  11.111
21864SOL    HW167033   5.974   4.046  11.117
21864SOL    HW267034   5.815   4.014  11.139
21865SOL     OW67035   7.052   5.141  10.263
21865SOL    HW167036   6.993   5.147  10.343
21865SOL    HW267037   7.037   5.053  10.217
21866SOL     OW67038   7.253   5.438   9.882
21866SOL    HW167039   7.212   5.415   9.794
21866SOL    HW267040   7.235   5.364   9.947
21867SOL     OW67041   6.184   4.453   9.580
21867SOL    HW167042   6.208   4.522   9.512
21867SOL    HW267043   6.106   4.486   9.634
21868SOL     OW67044   6.867   4.069  10.254
21868SOL    HW167045   6.781   4.019  10.241
21868SOL    HW267046   6.929   4.015  10.310
21869SOL     OW67047   7.162   5.386   9.617
21869SOL    HW167048   7.251   5.432   9.620
21869SOL    HW267049   7.141   5.362   9.522
21870SOL     OW67050   6.393   4.329  10.775
21870SOL    HW167051   6.346   4.326  10.864
21870SOL    HW267052   6.342   4.274  10.709
21871SOL     OW67053   6.980   4.193  10.984
21871SOL    HW167054   6.960   4.236  11.072
21871SOL    HW267055   7.058   4.131  10.993
21872SOL     OW67056   6.559   4.614  10.882
21872SOL    HW167057   6.605   4.530  10.853
21872SOL    HW267058   6.503   4.648  10.807
21873SOL     OW67059   6.577   4.134  10.552
21873SOL    HW167060   6.500   4.168  10.606
21873SOL    HW267061   6.543   4.083  10.473
21874SOL     OW67062   6.627   4.425   9.739
21874SOL    HW167063   6.653   4.421   9.835
21874SOL    HW267064   6.542   4.374   9.725
21875SOL     OW67065   5.662   4.535  10.099
21875SOL    HW167066   5.761   4.523  10.108
21875SOL    HW267067   5.638   4.630  10.120
21876SOL     OW67068   5.716   5.545  10.881
21876SOL    HW167069   5.706   5.530  10.980
21876SOL    HW267070   5.630   5.581  10.845
21877SOL     OW67071   6.451   4.072   9.505
21877SOL    HW167072   6.510   4.135   9.456
21877SOL    HW267073   6.470   3.978   9.476
21878SOL     OW67074   7.305   4.309  11.141
21878SOL    HW167075   7.279   4.398  11.105
21878SOL    HW267076   7.303   4.241  11.068
21879SOL     OW67077   6.948   4.868   9.855
21879SOL    HW167078   7.031   4.839   9.807
21879SOL    HW267079   6.899   4.935   9.799
21880SOL     OW67080   6.136   3.920  10.195
21880SOL    HW167081   6.131   3.915  10.295
21880SOL    HW267082   6.138   4.016  10.166
21881SOL     OW67083   6.594   5.180   9.787
21881SOL    HW167084   6.548   5.252   9.735
21881SOL    HW267085   6.590   5.200   9.885
21882SOL     OW67086   5.937   5.525  10.163
21882SOL    HW167087   5.987   5.439  10.169
21882SOL    HW267088   6.002   5.602  10.160
21883SOL     OW67089   7.381   4.790  10.183
21883SOL    HW167090   7.319   4.775  10.107
21883SOL    HW267091   7.329   4.801  10.268
21884SOL     OW67092   6.813   5.274  10.816
21884SOL    HW167093   6.819   5.197  10.880
21884SOL    HW267094   6.761   5.248  10.736
21885SOL     OW67095   5.907   4.667   9.552
21885SOL    HW167096   5.989   4.706   9.510
21885SOL    HW267097   5.880   4.585   9.503
21886SOL     OW67098   7.044   4.459  10.038
21886SOL    HW167099   7.039   4.394  10.113
21886SOL    HW267100   7.124   4.518  10.051
21887SOL     OW67101   6.047   4.990  11.037
21887SOL    HW167102   5.997   4.991  10.951
21887SOL    HW267103   5.984   4.972  11.113
21888SOL     OW67104   6.697   5.500   9.547
21888SOL    HW167105   6.637   5.438   9.597
21888SOL    HW267106   6.728   5.456   9.462
21889SOL     OW67107   5.788   4.009  10.808
21889SOL    HW167108   5.708   4.069  10.795
21889SOL    HW267109   5.778   3.960  10.894
21890SOL     OW67110   7.218   5.101   9.391
21890SOL    HW167111   7.186   5.195   9.381
21890SOL    HW267112   7.142   5.038   9.379
21891SOL     OW67113   6.050   5.467   9.633
21891SOL    HW167114   6.083   5.506   9.719
21891SOL    HW267115   6.126   5.460   9.568
21892SOL     OW67116   6.986   3.831   9.736
21892SOL    HW167117   6.962   3.794   9.646
21892SOL    HW267118   7.085   3.847   9.740
21893SOL     OW67119   5.835   5.509  10.551
21893SOL    HW167120   5.892   5.444  10.601
21893SOL    HW267121   5.819   5.476  10.458
21894SOL     OW67122   6.526   5.422  10.214
21894SOL    HW167123   6.606   5.365  10.235
21894SOL    HW267124   6.477   5.382  10.137
21895SOL     OW67125   5.968   4.424   9.790
21895SOL    HW167126   6.013   4.334   9.787
21895SOL    HW267127   5.874   4.413   9.823
21896SOL     OW67128   7.133   3.946  11.039
21896SOL    HW167129   7.128   3.983  11.131
21896SOL    HW267130   7.061   3.877  11.027
21897SOL     OW67131   6.200   3.846   9.427
21897SOL    HW167132   6.298   3.824   9.434
21897SOL    HW267133   6.169   3.829   9.334
21898SOL     OW67134   6.367   3.988  11.059
21898SOL    HW167135   6.434   3.927  11.102
21898SOL    HW267136   6.294   4.007  11.124
21899SOL     OW67137   6.474   5.238  10.505
21899SOL    HW167138   6.451   5.213  10.411
21899SOL    HW267139   6.535   5.169  10.544
21900SOL     OW67140   6.937   4.314  10.743
21900SOL    HW167141   6.965   4.271  10.828
21900SOL    HW267142   6.962   4.410  10.744
21901SOL     OW67143   6.389   5.126  10.234
21901SOL    HW167144   6.479   5.140  10.192
21901SOL    HW267145   6.318   5.128  10.163
21902SOL     OW67146   6.508   4.227  10.209
21902SOL    HW167147   6.483   4.218  10.113
21902SOL    HW267148   6.556   4.145  10.240
21903SOL     OW67149   6.125   3.788   9.822
21903SOL    HW167150   6.044   3.789   9.880
21903SOL    HW267151   6.128   3.871   9.767
21904SOL     OW67152   7.020   4.912   9.351
21904SOL    HW167153   7.052   4.836   9.408
21904SOL    HW267154   6.928   4.939   9.381
21905SOL     OW67155   5.883   3.759   9.481
21905SOL    HW167156   5.932   3.843   9.460
21905SOL    HW267157   5.945   3.694   9.526
21906SOL     OW67158   6.521   3.960   9.790
21906SOL    HW167159   6.473   4.001   9.712
21906SOL    HW267160   6.620   3.958   9.771
21907SOL     OW67161   6.662   4.407  10.774
21907SOL    HW167162   6.582   4.346  10.777
21907SOL    HW267163   6.743   4.354  10.750
21908SOL     OW67164   6.813   5.294  10.103
21908SOL    HW167165   6.834   5.368  10.038
21908SOL    HW267166   6.881   5.294  10.176
21909SOL     OW67167   6.045   4.876  10.051
21909SOL    HW167168   5.974   4.849  10.116
21909SOL    HW267169   6.019   4.848   9.958
21910SOL     OW67170   6.857   5.521   9.901
21910SOL    HW167171   6.901   5.585   9.837
21910SOL    HW267172   6.807   5.573   9.971
21911SOL     OW67173   6.618   4.273   9.326
21911SOL    HW167174   6.577   4.355   9.287
21911SOL    HW267175   6.682   4.299   9.399
21912SOL     OW67176   5.664   4.280  10.696
21912SOL    HW167177   5.756   4.279  10.655
21912SOL    HW267178   5.658   4.354  10.763
21913SOL     OW67179   6.147   3.946  10.457
21913SOL    HW167180   6.185   3.862  10.494
21913SOL    HW267181   6.059   3.965  10.501
21914SOL     OW67182   6.452   4.178   9.952
21914SOL    HW167183   6.420   4.250   9.890
21914SOL    HW267184   6.476   4.097   9.899
21915SOL     OW67185   6.603   3.763  10.063
21915SOL    HW167186   6.531   3.768   9.994
21915SOL    HW267187   6.579   3.694  10.132
21916SOL     OW67188   7.015   4.897  10.177
21916SOL    HW167189   6.960   4.813  10.170
21916SOL    HW267190   7.041   4.926  10.085
21917SOL     OW67191   7.052   4.314  10.302
21917SOL    HW167192   7.022   4.219  10.309
21917SOL    HW267193   7.125   4.330  10.368
21918SOL     OW67194   7.443   4.557   9.687
21918SOL    HW167195   7.485   4.493   9.751
21918SOL    HW267196   7.405   4.506   9.609
21919SOL     OW67197   6.074   5.109   9.484
21919SOL    HW167198   5.987   5.094   9.531
21919SOL    HW267199   6.057   5.135   9.389
21920SOL     OW67200   7.250   5.004   9.967
21920SOL    HW167201   7.349   5.012   9.981
21920SOL    HW267202   7.205   5.088   9.998
21921SOL     OW67203   6.976   4.299   9.388
21921SOL    HW167204   6.922   4.278   9.469
21921SOL    HW267205   7.067   4.258   9.397
21922SOL     OW67206   6.113   3.980   9.638
21922SOL    HW167207   6.140   3.921   9.563
21922SOL    HW267208   6.113   4.075   9.607
21923SOL     OW67209   7.340   4.947  10.898
21923SOL    HW167210   7.431   4.908  10.885
21923SOL    HW267211   7.348   5.043  10.922
21924SOL     OW67212   6.650   5.071  10.650
21924SOL    HW167213   6.570   5.048  10.705
21924SOL    HW267214   6.733   5.045  10.699
21925SOL     OW67215   7.178   5.353  10.935
21925SOL    HW167216   7.205   5.387  10.845
21925SOL    HW267217   7.257   5.315  10.981
21926SOL     OW67218   6.697   4.919  10.410
21926SOL    HW167219   6.657   4.963  10.491
21926SOL    HW267220   6.656   4.956  10.327
21927SOL     OW67221   7.224   4.823  10.389
21927SOL    HW167222   7.229   4.904  10.448
21927SOL    HW267223   7.138   4.825  10.338
21928SOL     OW67224   6.501   3.813  10.712
21928SOL    HW167225   6.526   3.793  10.617
21928SOL    HW267226   6.573   3.869  10.754
21929SOL     OW67227   6.566   4.840  11.029
21929SOL    HW167228   6.467   4.846  11.039
21929SOL    HW267229   6.589   4.760  10.973
21930SOL     OW67230   6.291   4.774   9.678
21930SOL    HW167231   6.277   4.781   9.777
21930SOL    HW267232   6.375   4.723   9.660
21931SOL     OW67233   5.996   4.537  10.561
21931SOL    HW167234   6.082   4.549  10.611
21931SOL    HW267235   5.954   4.450  10.588
21932SOL     OW67236   6.860   4.110  10.572
21932SOL    HW167237   6.881   4.184  10.636
21932SOL    HW267238   6.771   4.127  10.529
21933SOL     OW67239   5.650   5.288  10.641
21933SOL    HW167240   5.604   5.370  10.607
21933SOL    HW267241   5.748   5.307  10.650
21934SOL     OW67242   5.953   4.824   9.811
21934SOL    HW167243   5.946   4.907   9.755
21934SOL    HW267244   5.957   4.744   9.751
21935SOL     OW67245   6.152   4.261  10.175
21935SOL    HW167246   6.164   4.327  10.101
21935SOL    HW267247   6.198   4.295  10.258
21936SOL     OW67248   6.838   5.072   9.698
21936SOL    HW167249   6.888   5.149   9.738
21936SOL    HW267250   6.743   5.074   9.730
21937SOL     OW67251   6.858   5.169  10.452
21937SOL    HW167252   6.905   5.182  10.539
21937SOL    HW267253   6.792   5.095  10.461
21938SOL     OW67254   7.168   4.363   9.782
21938SOL    HW167255   7.137   4.424   9.855
21938SOL    HW267256   7.218   4.415   9.713
21939SOL     OW67257   5.940   5.234  10.639
21939SOL    HW167258   5.919   5.190  10.552
21939SOL    HW267259   6.037   5.260  10.642
21940SOL     OW67260   5.988   4.475  10.908
21940SOL    HW167261   6.056   4.530  10.861
21940SOL    HW267262   6.028   4.387  10.935
21941SOL     OW67263   7.173   4.503  10.980
21941SOL    HW167264   7.081   4.541  10.975
21941SOL    HW267265   7.233   4.550  10.915
21942SOL     OW67266   6.599   3.829  11.080
21942SOL    HW167267   6.605   3.914  11.028
21942SOL    HW267268   6.631   3.753  11.023
21943SOL     OW67269   6.090   3.774  11.050
21943SOL    HW167270   6.048   3.717  10.980
21943SOL    HW267271   6.024   3.843  11.082
21944SOL     OW67272   6.159   4.594  10.339
21944SOL    HW167273   6.203   4.683  10.330
21944SOL    HW267274   6.096   4.594  10.416
21945SOL     OW67275   6.946   4.586  10.355
21945SOL    HW167276   6.871   4.586  10.289
21945SOL    HW267277   6.983   4.494  10.364
21946SOL     OW67278   6.795   4.249   9.585
21946SOL    HW167279   6.808   4.165   9.639
21946SOL    HW267280   6.766   4.323   9.645
21947SOL     OW67281   5.893   3.937  10.541
21947SOL    HW167282   5.870   3.974  10.631
21947SOL    HW267283   5.863   3.842  10.535
21948SOL     OW67284   5.623   5.034  10.592
21948SOL    HW167285   5.676   4.985  10.660
21948SOL    HW267286   5.645   5.132  10.597
21949SOL     OW67287   6.318   4.358  10.374
21949SOL    HW167288   6.377   4.332  10.298
21949SOL    HW267289   6.290   4.454  10.363
21950SOL     OW67290   7.314   4.659  11.164
21950SOL    HW167291   7.268   4.652  11.075
21950SOL    HW267292   7.252   4.703  11.230
21951SOL     OW67293   5.893   3.787   9.928
21951SOL    HW167294   5.882   3.881   9.961
21951SOL    HW267295   5.888   3.724  10.005
21952SOL     OW67296   7.208   4.091   9.684
21952SOL    HW167297   7.210   4.015   9.748
21952SOL    HW267298   7.160   4.168   9.724
21953SOL     OW67299   6.609   4.490  10.276
21953SOL    HW167300   6.624   4.511  10.372
21953SOL    HW267301   6.579   4.395  10.267
21954SOL     OW67302   6.566   5.297  11.010
21954SOL    HW167303   6.546   5.341  10.922
21954SOL    HW267304   6.605   5.206  10.994
21955SOL     OW67305   7.445   5.242  10.915
21955SOL    HW167306   7.459   5.269  10.820
21955SOL    HW267307   7.528   5.264  10.968
21956SOL     OW67308   5.936   4.622  11.114
21956SOL    HW167309   6.012   4.666  11.162
21956SOL    HW267310   5.971   4.575  11.032
21957SOL     OW67311   7.126   3.998   9.435
21957SOL    HW167312   7.065   3.923   9.458
21957SOL    HW267313   7.148   4.050   9.518
21958SOL     OW67314   6.889   4.562   9.352
21958SOL    HW167315   6.923   4.469   9.367
21958SOL    HW267316   6.907   4.589   9.257
21959SOL     OW67317   6.654   5.057  10.159
21959SOL    HW167318   6.661   4.973  10.104
21959SOL    HW267319   6.716   5.126  10.123
21960SOL     OW67320   5.905   4.534  10.259
21960SOL    HW167321   5.998   4.570  10.264
21960SOL    HW267322   5.899   4.449  10.311
21961SOL     OW67323   5.925   4.233  10.316
21961SOL    HW167324   5.873   4.150  10.299
21961SOL    HW267325   6.002   4.238  10.252
21962SOL     OW67326   6.724   4.104  10.988
21962SOL    HW167327   6.679   4.167  11.052
21962SOL    HW267328   6.817   4.135  10.971
21963SOL     OW67329   6.746   3.931  10.787
21963SOL    HW167330   6.746   3.995  10.864
21963SOL    HW267331   6.774   3.979  10.704
21964SOL     OW67332   5.594   5.050   9.510
21964SOL    HW167333   5.501   5.071   9.479
21964SOL    HW267334   5.604   4.951   9.523
21965SOL     OW67335   5.674   5.525  10.237
21965SOL    HW167336   5.632   5.439  10.210
21965SOL    HW267337   5.768   5.528  10.203
21966SOL     OW67338   6.090   5.292  10.220
21966SOL    HW167339   6.156   5.366  10.229
21966SOL    HW267340   6.134   5.213  10.178
21967SOL     OW67341   6.588   4.520  10.548
21967SOL    HW167342   6.629   4.488  10.634
21967SOL    HW267343   6.492   4.493  10.545
21968SOL     OW67344   5.626   4.268  10.424
21968SOL    HW167345   5.711   4.235  10.383
21968SOL    HW267346   5.639   4.283  10.522
21969SOL     OW67347   5.775   4.244  11.032
21969SOL    HW167348   5.834   4.204  10.962
21969SOL    HW267349   5.717   4.315  10.991
21970SOL     OW67350   6.955   4.674  10.970
21970SOL    HW167351   6.994   4.763  10.990
21970SOL    HW267352   6.965   4.654  10.873
21971SOL     OW67353   6.401   4.296   9.635
21971SOL    HW167354   6.408   4.207   9.589
21971SOL    HW267355   6.307   4.330   9.627
21972SOL     OW67356   7.243   4.328  10.516
21972SOL    HW167357   7.205   4.259  10.578
21972SOL    HW267358   7.325   4.292  10.472
21973SOL     OW67359   5.838   5.288  11.054
21973SOL    HW167360   5.808   5.345  11.130
21973SOL    HW267361   5.831   5.191  11.080
21974SOL     OW67362   6.257   4.188  10.579
21974SOL    HW167363   6.223   4.099  10.549
21974SOL    HW267364   6.283   4.242  10.499
21975SOL     OW67365   6.516   5.402  10.775
21975SOL    HW167366   6.492   5.384  10.680
21975SOL    HW267367   6.546   5.496  10.785
21976SOL     OW67368   6.059   4.224   9.501
21976SOL    HW167369   6.120   4.304   9.505
21976SOL    HW267370   5.964   4.255   9.508
21977SOL     OW67371   5.745   4.861  10.776
21977SOL    HW167372   5.767   4.800  10.852
21977SOL    HW267373   5.755   4.812  10.690
21978SOL     OW67374   6.933   4.783  10.544
21978SOL    HW167375   6.957   4.720  10.470
21978SOL    HW267376   6.843   4.823  10.526
21979SOL     OW67377   6.888   4.579   9.619
21979SOL    HW167378   6.802   4.548   9.661
21979SOL    HW267379   6.884   4.565   9.520
21980SOL     OW67380   7.345   5.471  10.464
21980SOL    HW167381   7.406   5.501  10.391
21980SOL    HW267382   7.307   5.382  10.442
21981SOL     OW67383   6.838   5.455  10.438
21981SOL    HW167384   6.922   5.460  10.384
21981SOL    HW267385   6.815   5.359  10.456
21982SOL     OW67386   5.669   4.982  10.332
21982SOL    HW167387   5.664   4.981  10.432
21982SOL    HW267388   5.586   4.941  10.294
21983SOL     OW67389   6.274   5.386  11.026
21983SOL    HW167390   6.218   5.467  11.035
21983SOL    HW267391   6.326   5.390  10.940
21984SOL     OW67392   7.312   3.859   9.833
21984SOL    HW167393   7.385   3.842   9.766
21984SOL    HW267394   7.281   3.772   9.871
21985SOL     OW67395   6.974   5.297   9.787
21985SOL    HW167396   7.041   5.309   9.713
21985SOL    HW267397   6.934   5.386   9.810
21986SOL     OW67398   5.716   5.518  11.161
21986SOL    HW167399   5.675   5.444  11.214
21986SOL    HW267400   5.780   5.569  11.219
21987SOL     OW67401   6.866   4.651   9.982
21987SOL    HW167402   6.926   4.570   9.984
21987SOL    HW267403   6.906   4.720   9.922
21988SOL     OW67404   6.416   4.997  10.732
21988SOL    HW167405   6.411   5.030  10.827
21988SOL    HW267406   6.330   5.016  10.686
21989SOL     OW67407   6.258   5.340   9.464
21989SOL    HW167408   6.267   5.350   9.365
21989SOL    HW267409   6.218   5.251   9.485
21990SOL     OW67410   7.236   5.444  10.704
21990SOL    HW167411   7.289   5.454  10.620
21990SOL    HW267412   7.209   5.534  10.738
21991SOL     OW67413   7.427   3.899  10.273
21991SOL    HW167414   7.466   3.814  10.237
21991SOL    HW267415   7.329   3.901  10.254
21992SOL     OW67416   5.849   4.050  10.030
21992SOL    HW167417   5.770   4.101   9.996
21992SOL    HW267418   5.840   4.035  10.128
21993SOL     OW67419   6.780   5.336   9.341
21993SOL    HW167420   6.786   5.243   9.378
21993SOL    HW267421   6.721   5.336   9.261
21994SOL     OW67422   6.408   4.726  10.682
21994SOL    HW167423   6.448   4.725  10.590
21994SOL    HW267424   6.418   4.818  10.722
21995SOL     OW67425   6.502   4.634   9.601
21995SOL    HW167426   6.565   4.672   9.533
21995SOL    HW267427   6.542   4.551   9.640
21996SOL     OW67428   7.090   5.331   9.354
21996SOL    HW167429   6.998   5.368   9.361
21996SOL    HW267430   7.128   5.351   9.264
21997SOL     OW67431   5.958   5.012  10.800
21997SOL    HW167432   5.945   5.105  10.766
21997SOL    HW267433   5.874   4.960  10.787
21998SOL     OW67434   7.200   5.016  10.599
21998SOL    HW167435   7.260   5.019  10.679
21998SOL    HW267436   7.125   5.080  10.612
21999SOL     OW67437   6.625   4.822  10.006
21999SOL    HW167438   6.555   4.775  10.060
21999SOL    HW267439   6.684   4.754   9.963
22000SOL     OW67440   6.600   3.960  10.281
22000SOL    HW167441   6.592   3.924  10.188
22000SOL    HW267442   6.598   3.884  10.346
22001SOL     OW67443   6.176   5.211   9.801
22001SOL    HW167444   6.218   5.153   9.731
22001SOL    HW267445   6.132   5.290   9.757
22002SOL     OW67446   7.295   4.109  10.691
22002SOL    HW167447   7.368   4.178  10.695
22002SOL    HW267448   7.323   4.034  10.632
22003SOL     OW67449   5.841   5.072   9.600
22003SOL    HW167450   5.745   5.073   9.573
22003SOL    HW267451   5.853   5.125   9.684
22004SOL     OW67452   5.691   4.737  11.036
22004SOL    HW167453   5.614   4.704  11.090
22004SOL    HW267454   5.776   4.707  11.078
22005SOL     OW67455   6.258   3.927  10.799
22005SOL    HW167456   6.348   3.911  10.759
22005SOL    HW267457   6.266   3.932  10.898
22006SOL     OW67458   5.661   4.069   9.343
22006SOL    HW167459   5.569   4.041   9.314
22006SOL    HW267460   5.692   4.146   9.287
22007SOL     OW67461   7.026   4.580  10.708
22007SOL    HW167462   6.969   4.632  10.645
22007SOL    HW267463   7.122   4.592  10.684
22008SOL     OW67464   5.658   3.890   9.628
22008SOL    HW167465   5.641   3.973   9.574
22008SOL    HW267466   5.748   3.853   9.606
22009SOL     OW67467   6.769   5.059   9.429
22009SOL    HW167468   6.670   5.048   9.431
22009SOL    HW267469   6.803   5.074   9.522
22010SOL     OW67470   6.199   4.566  10.741
22010SOL    HW167471   6.255   4.647  10.724
22010SOL    HW267472   6.258   4.486  10.744
22011SOL     OW67473   7.079   5.491  10.269
22011SOL    HW167474   7.112   5.555  10.200
22011SOL    HW267475   7.145   5.485  10.344
22012SOL     OW67476   6.302   4.289  11.018
22012SOL    HW167477   6.321   4.354  11.092
22012SOL    HW267478   6.362   4.209  11.027
22013SOL     OW67479   7.036   4.944  10.943
22013SOL    HW167480   7.027   4.934  11.042
22013SOL    HW267481   7.132   4.937  10.917
22014SOL     OW67482   5.976   5.465  10.870
22014SOL    HW167483   5.885   5.506  10.868
22014SOL    HW267484   5.969   5.371  10.902
22015SOL     OW67485   7.260   4.607  10.564
22015SOL    HW167486   7.233   4.518  10.527
22015SOL    HW267487   7.261   4.675  10.491
22016SOL     OW67488   6.811   4.049   9.759
22016SOL    HW167489   6.876   3.975   9.748
22016SOL    HW267490   6.831   4.099   9.843
22017SOL     OW67491   6.180   4.469   9.962
22017SOL    HW167492   6.230   4.554   9.943
22017SOL    HW267493   6.092   4.471   9.914
22018SOL     OW67494   7.363   4.066  10.952
22018SOL    HW167495   7.346   4.097  10.858
22018SOL    HW267496   7.279   4.029  10.990
22019SOL     OW67497   7.316   4.658  10.827
22019SOL    HW167498   7.354   4.749  10.842
22019SOL    HW267499   7.308   4.641  10.728
22020SOL     OW67500   6.445   5.098   9.326
22020SOL    HW167501   6.399   5.113   9.414
22020SOL    HW267502   6.489   5.183   9.296
22021SOL     OW67503   6.247   5.514  10.263
22021SOL    HW167504   6.201   5.602  10.250
22021SOL    HW267505   6.346   5.526  10.256
22022SOL     OW67506   6.445   4.680  10.171
22022SOL    HW167507   6.499   4.611  10.219
22022SOL    HW267508   6.413   4.749  10.237
22023SOL     OW67509   6.669   4.708   9.397
22023SOL    HW167510   6.646   4.761   9.315
22023SOL    HW267511   6.750   4.652   9.378
22024SOL     OW67512   7.447   5.293  10.161
22024SOL    HW167513   7.376   5.281  10.091
22024SOL    HW267514   7.448   5.214  10.221
22025SOL     OW67515   5.807   5.038  11.154
22025SOL    HW167516   5.742   4.965  11.133
22025SOL    HW267517   5.811   5.052  11.252
22026SOL     OW67518   5.665   4.964   9.963
22026SOL    HW167519   5.664   4.917  10.051
22026SOL    HW267520   5.747   4.936   9.912
22027SOL     OW67521   6.258   5.115  10.934
22027SOL    HW167522   6.180   5.065  10.972
22027SOL    HW267523   6.255   5.210  10.965
22028SOL     OW67524   7.410   3.916  10.537
22028SOL    HW167525   7.406   3.826  10.581
22028SOL    HW267526   7.413   3.905  10.438
22029SOL     OW67527   6.014   4.148   9.830
22029SOL    HW167528   6.044   4.076   9.768
22029SOL    HW267529   5.975   4.108   9.913
22030SOL     OW67530   7.291   5.211  10.414
22030SOL    HW167531   7.198   5.186  10.387
22030SOL    HW267532   7.317   5.161  10.496
22031SOL     OW67533   5.903   4.271  10.590
22031SOL    HW167534   5.941   4.212  10.662
22031SOL    HW267535   5.943   4.245  10.502
22032SOL     OW67536   6.398   5.310   9.997
22032SOL    HW167537   6.430   5.320   9.903
22032SOL    HW267538   6.319   5.248   9.999
22033SOL     OW67539   7.010   3.938  10.422
22033SOL    HW167540   7.062   3.873  10.477
22033SOL    HW267541   6.961   4.001  10.483
22034SOL     OW67542   6.587   3.758  10.464
22034SOL    HW167543   6.524   3.686  10.433
22034SOL    HW267544   6.680   3.722  10.464
22035SOL     OW67545   6.356   5.054   9.611
22035SOL    HW167546   6.310   4.967   9.628
22035SOL    HW267547   6.447   5.051   9.652
22036SOL     OW67548   6.204   5.291  10.594
22036SOL    HW167549   6.199   5.373  10.651
22036SOL    HW267550   6.293   5.288  10.549
22037SOL     OW67551   6.938   3.776   9.478
22037SOL    HW167552   6.973   3.735   9.394
22037SOL    HW267553   6.848   3.738   9.498
22038SOL     OW67554   6.886   4.177  10.001
22038SOL    HW167555   6.827   4.257  10.005
22038SOL    HW267556   6.901   4.142  10.094
22039SOL     OW67557   7.179   3.945  10.192
22039SOL    HW167558   7.095   3.944  10.246
22039SOL    HW267559   7.181   4.028  10.136
22040SOL     OW67560   5.625   4.801   9.610
22040SOL    HW167561   5.724   4.790   9.601
22040SOL    HW267562   5.585   4.715   9.642
22041SOL     OW67563   6.461   5.370   9.647
22041SOL    HW167564   6.384   5.335   9.593
22041SOL    HW267565   6.429   5.441   9.709
22042SOL     OW67566   5.816   4.352  11.285
22042SOL    HW167567   5.723   4.350  11.322
22042SOL    HW267568   5.817   4.313  11.193
22043SOL     OW67569   5.811   3.999  12.168
22043SOL    HW167570   5.846   3.982  12.260
22043SOL    HW267571   5.723   3.954  12.156
22044SOL     OW67572   5.605   4.092  11.819
22044SOL    HW167573   5.523   4.135  11.858
22044SOL    HW267574   5.577   4.019  11.756
22045SOL     OW67575   6.155   4.999  12.337
22045SOL    HW167576   6.062   4.992  12.300
22045SOL    HW267577   6.166   5.088  12.381
22046SOL     OW67578   7.141   5.235  11.875
22046SOL    HW167579   7.084   5.219  11.956
22046SOL    HW267580   7.082   5.245  11.795
22047SOL     OW67581   6.721   4.427  11.889
22047SOL    HW167582   6.778   4.505  11.864
22047SOL    HW267583   6.661   4.453  11.965
22048SOL     OW67584   7.341   4.331  11.403
22048SOL    HW167585   7.329   4.318  11.304
22048SOL    HW267586   7.311   4.250  11.452
22049SOL     OW67587   6.354   4.868  12.195
22049SOL    HW167588   6.276   4.885  12.255
22049SOL    HW267589   6.388   4.955  12.159
22050SOL     OW67590   6.271   4.736  11.837
22050SOL    HW167591   6.340   4.720  11.907
22050SOL    HW267592   6.198   4.793  11.875
22051SOL     OW67593   5.921   5.159  12.233
22051SOL    HW167594   5.843   5.128  12.180
22051SOL    HW267595   5.979   5.217  12.176
22052SOL     OW67596   7.189   4.171  11.909
22052SOL    HW167597   7.115   4.217  11.859
22052SOL    HW267598   7.240   4.239  11.962
22053SOL     OW67599   5.817   5.437  11.655
22053SOL    HW167600   5.851   5.514  11.709
22053SOL    HW267601   5.861   5.437  11.565
22054SOL     OW67602   5.816   5.158  11.710
22054SOL    HW167603   5.790   5.254  11.710
22054SOL    HW267604   5.745   5.104  11.755
22055SOL     OW67605   5.826   4.815  12.058
22055SOL    HW167606   5.840   4.731  12.110
22055SOL    HW267607   5.771   4.879  12.113
22056SOL     OW67608   6.192   4.688  11.295
22056SOL    HW167609   6.199   4.772  11.241
22056SOL    HW267610   6.238   4.701  11.383
22057SOL     OW67611   5.708   4.367  11.735
22057SOL    HW167612   5.663   4.279  11.752
22057SOL    HW267613   5.707   4.421  11.819
22058SOL     OW67614   7.428   5.491  11.531
22058SOL    HW167615   7.482   5.462  11.611
22058SOL    HW267616   7.458   5.581  11.502
22059SOL     OW67617   5.613   5.320  11.289
22059SOL    HW167618   5.594   5.224  11.310
22059SOL    HW267619   5.580   5.378  11.364
22060SOL     OW67620   7.275   4.646  11.784
22060SOL    HW167621   7.370   4.617  11.792
22060SOL    HW267622   7.267   4.711  11.709
22061SOL     OW67623   7.227   4.832  11.604
22061SOL    HW167624   7.313   4.834  11.552
22061SOL    HW267625   7.241   4.879  11.692
22062SOL     OW67626   5.699   4.461  12.769
22062SOL    HW167627   5.787   4.448  12.814
22062SOL    HW267628   5.686   4.558  12.747
22063SOL     OW67629   6.199   5.089  11.898
22063SOL    HW167630   6.150   5.002  11.907
22063SOL    HW267631   6.176   5.132  11.811
22064SOL     OW67632   6.395   3.728  11.674
22064SOL    HW167633   6.435   3.819  11.665
22064SOL    HW267634   6.295   3.736  11.680
22065SOL     OW67635   5.783   4.700  12.436
22065SOL    HW167636   5.872   4.655  12.422
22065SOL    HW267637   5.710   4.635  12.417
22066SOL     OW67638   7.111   4.723  11.362
22066SOL    HW167639   7.048   4.647  11.375
22066SOL    HW267640   7.159   4.741  11.448
22067SOL     OW67641   7.052   5.141  12.125
22067SOL    HW167642   6.993   5.147  12.205
22067SOL    HW267643   7.037   5.053  12.079
22068SOL     OW67644   7.253   5.438  11.744
22068SOL    HW167645   7.212   5.415  11.656
22068SOL    HW267646   7.235   5.364  11.809
22069SOL     OW67647   6.184   4.453  11.442
22069SOL    HW167648   6.208   4.522  11.374
22069SOL    HW267649   6.106   4.486  11.496
22070SOL     OW67650   6.867   4.069  12.116
22070SOL    HW167651   6.781   4.019  12.103
22070SOL    HW267652   6.929   4.015  12.172
22071SOL     OW67653   7.162   5.386  11.479
22071SOL    HW167654   7.251   5.432  11.482
22071SOL    HW267655   7.141   5.362  11.384
22072SOL     OW67656   6.577   4.134  12.414
22072SOL    HW167657   6.500   4.168  12.468
22072SOL    HW267658   6.543   4.083  12.335
22073SOL     OW67659   6.627   4.425  11.601
22073SOL    HW167660   6.653   4.421  11.697
22073SOL    HW267661   6.542   4.374  11.587
22074SOL     OW67662   5.662   4.535  11.961
22074SOL    HW167663   5.761   4.523  11.970
22074SOL    HW267664   5.638   4.630  11.982
22075SOL     OW67665   6.451   4.072  11.367
22075SOL    HW167666   6.510   4.135  11.318
22075SOL    HW267667   6.470   3.978  11.338
22076SOL     OW67668   6.948   4.868  11.717
22076SOL    HW167669   7.031   4.839  11.669
22076SOL    HW267670   6.899   4.935  11.661
22077SOL     OW67671   6.136   3.920  12.057
22077SOL    HW167672   6.131   3.915  12.157
22077SOL    HW267673   6.138   4.016  12.028
22078SOL     OW67674   6.594   5.180  11.649
22078SOL    HW167675   6.548   5.252  11.597
22078SOL    HW267676   6.590   5.200  11.747
22079SOL     OW67677   5.937   5.525  12.025
22079SOL    HW167678   5.987   5.439  12.031
22079SOL    HW267679   6.002   5.602  12.022
22080SOL     OW67680   7.381   4.790  12.045
22080SOL    HW167681   7.319   4.775  11.969
22080SOL    HW267682   7.329   4.801  12.130
22081SOL     OW67683   5.907   4.667  11.414
22081SOL    HW167684   5.989   4.706  11.372
22081SOL    HW267685   5.880   4.585  11.365
22082SOL     OW67686   7.044   4.459  11.900
22082SOL    HW167687   7.039   4.394  11.975
22082SOL    HW267688   7.124   4.518  11.913
22083SOL     OW67689   6.697   5.500  11.409
22083SOL    HW167690   6.637   5.438  11.459
22083SOL    HW267691   6.728   5.456  11.324
22084SOL     OW67692   7.218   5.101  11.253
22084SOL    HW167693   7.186   5.195  11.243
22084SOL    HW267694   7.142   5.038  11.241
22085SOL     OW67695   6.050   5.467  11.495
22085SOL    HW167696   6.083   5.506  11.581
22085SOL    HW267697   6.126   5.460  11.430
22086SOL     OW67698   6.986   3.831  11.598
22086SOL    HW167699   6.962   3.794  11.508
22086SOL    HW267700   7.085   3.847  11.602
22087SOL     OW67701   5.835   5.509  12.413
22087SOL    HW167702   5.892   5.444  12.463
22087SOL    HW267703   5.819   5.476  12.320
22088SOL     OW67704   6.526   5.422  12.076
22088SOL    HW167705   6.606   5.365  12.097
22088SOL    HW267706   6.477   5.382  11.999
22089SOL     OW67707   5.968   4.424  11.652
22089SOL    HW167708   6.013   4.334  11.649
22089SOL    HW267709   5.874   4.413  11.685
22090SOL     OW67710   6.200   3.846  11.289
22090SOL    HW167711   6.298   3.824  11.296
22090SOL    HW267712   6.169   3.829  11.196
22091SOL     OW67713   6.389   5.126  12.096
22091SOL    HW167714   6.479   5.140  12.054
22091SOL    HW267715   6.318   5.128  12.025
22092SOL     OW67716   6.508   4.227  12.071
22092SOL    HW167717   6.483   4.218  11.975
22092SOL    HW267718   6.556   4.145  12.102
22093SOL     OW67719   6.125   3.788  11.684
22093SOL    HW167720   6.044   3.789  11.742
22093SOL    HW267721   6.128   3.871  11.629
22094SOL     OW67722   7.020   4.912  11.213
22094SOL    HW167723   7.052   4.836  11.270
22094SOL    HW267724   6.928   4.939  11.243
22095SOL     OW67725   5.883   3.759  11.343
22095SOL    HW167726   5.932   3.843  11.322
22095SOL    HW267727   5.945   3.694  11.388
22096SOL     OW67728   6.521   3.960  11.652
22096SOL    HW167729   6.473   4.001  11.574
22096SOL    HW267730   6.620   3.958  11.633
22097SOL     OW67731   6.813   5.294  11.965
22097SOL    HW167732   6.834   5.368  11.900
22097SOL    HW267733   6.881   5.294  12.038
22098SOL     OW67734   6.045   4.876  11.913
22098SOL    HW167735   5.974   4.849  11.978
22098SOL    HW267736   6.019   4.848  11.820
22099SOL     OW67737   6.857   5.521  11.763
22099SOL    HW167738   6.901   5.585  11.699
22099SOL    HW267739   6.807   5.573  11.833
22100SOL     OW67740   6.618   4.273  11.188
22100SOL    HW167741   6.577   4.355  11.149
22100SOL    HW267742   6.682   4.299  11.261
22101SOL     OW67743   6.147   3.946  12.319
22101SOL    HW167744   6.185   3.862  12.356
22101SOL    HW267745   6.059   3.965  12.363
22102SOL     OW67746   6.452   4.178  11.814
22102SOL    HW167747   6.420   4.250  11.752
22102SOL    HW267748   6.476   4.097  11.761
22103SOL     OW67749   6.603   3.763  11.925
22103SOL    HW167750   6.531   3.768  11.856
22103SOL    HW267751   6.579   3.694  11.994
22104SOL     OW67752   7.015   4.897  12.039
22104SOL    HW167753   6.960   4.813  12.032
22104SOL    HW267754   7.041   4.926  11.947
22105SOL     OW67755   7.052   4.314  12.164
22105SOL    HW167756   7.022   4.219  12.171
22105SOL    HW267757   7.125   4.330  12.230
22106SOL     OW67758   7.443   4.557  11.549
22106SOL    HW167759   7.485   4.493  11.613
22106SOL    HW267760   7.405   4.506  11.471
22107SOL     OW67761   6.074   5.109  11.346
22107SOL    HW167762   5.987   5.094  11.393
22107SOL    HW267763   6.057   5.135  11.251
22108SOL     OW67764   7.250   5.004  11.829
22108SOL    HW167765   7.349   5.012  11.843
22108SOL    HW267766   7.205   5.088  11.860
22109SOL     OW67767   6.976   4.299  11.250
22109SOL    HW167768   6.922   4.278  11.331
22109SOL    HW267769   7.067   4.258  11.259
22110SOL     OW67770   6.113   3.980  11.500
22110SOL    HW167771   6.140   3.921  11.425
22110SOL    HW267772   6.113   4.075  11.469
22111SOL     OW67773   6.697   4.919  12.272
22111SOL    HW167774   6.657   4.963  12.353
22111SOL    HW267775   6.656   4.956  12.189
22112SOL     OW67776   7.224   4.823  12.251
22112SOL    HW167777   7.229   4.904  12.310
22112SOL    HW267778   7.138   4.825  12.200
22113SOL     OW67779   6.291   4.774  11.540
22113SOL    HW167780   6.277   4.781  11.639
22113SOL    HW267781   6.375   4.723  11.522
22114SOL     OW67782   5.996   4.537  12.423
22114SOL    HW167783   6.082   4.549  12.473
22114SOL    HW267784   5.954   4.450  12.450
22115SOL     OW67785   6.860   4.110  12.434
22115SOL    HW167786   6.881   4.184  12.498
22115SOL    HW267787   6.771   4.127  12.391
22116SOL     OW67788   5.953   4.824  11.673
22116SOL    HW167789   5.946   4.907  11.617
22116SOL    HW267790   5.957   4.744  11.613
22117SOL     OW67791   6.152   4.261  12.037
22117SOL    HW167792   6.164   4.327  11.963
22117SOL    HW267793   6.198   4.295  12.120
22118SOL     OW67794   6.838   5.072  11.560
22118SOL    HW167795   6.888   5.149  11.600
22118SOL    HW267796   6.743   5.074  11.592
22119SOL     OW67797   6.858   5.169  12.314
22119SOL    HW167798   6.905   5.182  12.401
22119SOL    HW267799   6.792   5.095  12.323
22120SOL     OW67800   7.168   4.363  11.644
22120SOL    HW167801   7.137   4.424  11.717
22120SOL    HW267802   7.218   4.415  11.575
22121SOL     OW67803   5.940   5.234  12.501
22121SOL    HW167804   5.919   5.190  12.414
22121SOL    HW267805   6.037   5.260  12.504
22122SOL     OW67806   6.159   4.594  12.201
22122SOL    HW167807   6.203   4.683  12.192
22122SOL    HW267808   6.096   4.594  12.278
22123SOL     OW67809   6.946   4.586  12.217
22123SOL    HW167810   6.871   4.586  12.151
22123SOL    HW267811   6.983   4.494  12.226
22124SOL     OW67812   6.795   4.249  11.447
22124SOL    HW167813   6.808   4.165  11.501
22124SOL    HW267814   6.766   4.323  11.507
22125SOL     OW67815   5.893   3.937  12.403
22125SOL    HW167816   5.870   3.974  12.493
22125SOL    HW267817   5.863   3.842  12.397
22126SOL     OW67818   5.623   5.034  12.454
22126SOL    HW167819   5.676   4.985  12.522
22126SOL    HW267820   5.645   5.132  12.459
22127SOL     OW67821   6.318   4.358  12.236
22127SOL    HW167822   6.377   4.332  12.160
22127SOL    HW267823   6.290   4.454  12.225
22128SOL     OW67824   5.893   3.787  11.790
22128SOL    HW167825   5.882   3.881  11.823
22128SOL    HW267826   5.888   3.724  11.867
22129SOL     OW67827   7.208   4.091  11.546
22129SOL    HW167828   7.210   4.015  11.610
22129SOL    HW267829   7.160   4.168  11.586
22130SOL     OW67830   6.609   4.490  12.138
22130SOL    HW167831   6.624   4.511  12.234
22130SOL    HW267832   6.579   4.395  12.129
22131SOL     OW67833   7.126   3.998  11.297
22131SOL    HW167834   7.065   3.923  11.320
22131SOL    HW267835   7.148   4.050  11.380
22132SOL     OW67836   6.889   4.562  11.214
22132SOL    HW167837   6.923   4.469  11.229
22132SOL    HW267838   6.907   4.589  11.119
22133SOL     OW67839   6.654   5.057  12.021
22133SOL    HW167840   6.661   4.973  11.966
22133SOL    HW267841   6.716   5.126  11.985
22134SOL     OW67842   5.905   4.534  12.121
22134SOL    HW167843   5.998   4.570  12.126
22134SOL    HW267844   5.899   4.449  12.173
22135SOL     OW67845   5.925   4.233  12.178
22135SOL    HW167846   5.873   4.150  12.161
22135SOL    HW267847   6.002   4.238  12.114
22136SOL     OW67848   6.746   3.931  12.649
22136SOL    HW167849   6.746   3.995  12.726
22136SOL    HW267850   6.774   3.979  12.566
22137SOL     OW67851   5.594   5.050  11.372
22137SOL    HW167852   5.501   5.071  11.341
22137SOL    HW267853   5.604   4.951  11.385
22138SOL     OW67854   5.674   5.525  12.099
22138SOL    HW167855   5.632   5.439  12.072
22138SOL    HW267856   5.768   5.528  12.065
22139SOL     OW67857   6.090   5.292  12.082
22139SOL    HW167858   6.156   5.366  12.091
22139SOL    HW267859   6.134   5.213  12.040
22140SOL     OW67860   6.588   4.520  12.410
22140SOL    HW167861   6.629   4.488  12.496
22140SOL    HW267862   6.492   4.493  12.407
22141SOL     OW67863   5.626   4.268  12.286
22141SOL    HW167864   5.711   4.235  12.245
22141SOL    HW267865   5.639   4.283  12.384
22142SOL     OW67866   6.401   4.296  11.497
22142SOL    HW167867   6.408   4.207  11.451
22142SOL    HW267868   6.307   4.330  11.489
22143SOL     OW67869   7.243   4.328  12.378
22143SOL    HW167870   7.205   4.259  12.440
22143SOL    HW267871   7.325   4.292  12.334
22144SOL     OW67872   6.257   4.188  12.441
22144SOL    HW167873   6.223   4.099  12.411
22144SOL    HW267874   6.283   4.242  12.361
22145SOL     OW67875   6.516   5.402  12.637
22145SOL    HW167876   6.492   5.384  12.542
22145SOL    HW267877   6.546   5.496  12.647
22146SOL     OW67878   6.059   4.224  11.363
22146SOL    HW167879   6.120   4.304  11.367
22146SOL    HW267880   5.964   4.255  11.370
22147SOL     OW67881   6.933   4.783  12.406
22147SOL    HW167882   6.957   4.720  12.332
22147SOL    HW267883   6.843   4.823  12.388
22148SOL     OW67884   6.888   4.579  11.481
22148SOL    HW167885   6.802   4.548  11.523
22148SOL    HW267886   6.884   4.565  11.382
22149SOL     OW67887   7.345   5.471  12.326
22149SOL    HW167888   7.406   5.501  12.253
22149SOL    HW267889   7.307   5.382  12.304
22150SOL     OW67890   6.838   5.455  12.300
22150SOL    HW167891   6.922   5.460  12.246
22150SOL    HW267892   6.815   5.359  12.318
22151SOL     OW67893   5.669   4.982  12.194
22151SOL    HW167894   5.664   4.981  12.294
22151SOL    HW267895   5.586   4.941  12.156
22152SOL     OW67896   7.312   3.859  11.695
22152SOL    HW167897   7.385   3.842  11.628
22152SOL    HW267898   7.281   3.772  11.733
22153SOL     OW67899   6.974   5.297  11.649
22153SOL    HW167900   7.041   5.309  11.575
22153SOL    HW267901   6.934   5.386  11.672
22154SOL     OW67902   6.866   4.651  11.844
22154SOL    HW167903   6.926   4.570  11.846
22154SOL    HW267904   6.906   4.720  11.784
22155SOL     OW67905   6.258   5.340  11.326
22155SOL    HW167906   6.267   5.350  11.227
22155SOL    HW267907   6.218   5.251  11.347
22156SOL     OW67908   7.236   5.444  12.566
22156SOL    HW167909   7.289   5.454  12.482
22156SOL    HW267910   7.209   5.534  12.600
22157SOL     OW67911   7.427   3.899  12.135
22157SOL    HW167912   7.466   3.814  12.099
22157SOL    HW267913   7.329   3.901  12.116
22158SOL     OW67914   5.849   4.050  11.892
22158SOL    HW167915   5.770   4.101  11.858
22158SOL    HW267916   5.840   4.035  11.990
22159SOL     OW67917   6.780   5.336  11.203
22159SOL    HW167918   6.786   5.243  11.240
22159SOL    HW267919   6.721   5.336  11.123
22160SOL     OW67920   6.408   4.726  12.544
22160SOL    HW167921   6.448   4.725  12.452
22160SOL    HW267922   6.418   4.818  12.584
22161SOL     OW67923   6.502   4.634  11.463
22161SOL    HW167924   6.565   4.672  11.395
22161SOL    HW267925   6.542   4.551  11.502
22162SOL     OW67926   7.090   5.331  11.216
22162SOL    HW167927   6.998   5.368  11.223
22162SOL    HW267928   7.128   5.351  11.126
22163SOL     OW67929   6.625   4.822  11.868
22163SOL    HW167930   6.555   4.775  11.922
22163SOL    HW267931   6.684   4.754  11.825
22164SOL     OW67932   6.600   3.960  12.143
22164SOL    HW167933   6.592   3.924  12.050
22164SOL    HW267934   6.598   3.884  12.208
22165SOL     OW67935   6.176   5.211  11.663
22165SOL    HW167936   6.218   5.153  11.593
22165SOL    HW267937   6.132   5.290  11.619
22166SOL     OW67938   7.295   4.109  12.553
22166SOL    HW167939   7.368   4.178  12.557
22166SOL    HW267940   7.323   4.034  12.494
22167SOL     OW67941   5.841   5.072  11.462
22167SOL    HW167942   5.745   5.073  11.435
22167SOL    HW267943   5.853   5.125  11.546
22168SOL     OW67944   5.661   4.069  11.205
22168SOL    HW167945   5.569   4.041  11.176
22168SOL    HW267946   5.692   4.146  11.149
22169SOL     OW67947   5.658   3.890  11.490
22169SOL    HW167948   5.641   3.973  11.436
22169SOL    HW267949   5.748   3.853  11.468
22170SOL     OW67950   6.769   5.059  11.291
22170SOL    HW167951   6.670   5.048  11.293
22170SOL    HW267952   6.803   5.074  11.384
22171SOL     OW67953   7.079   5.491  12.131
22171SOL    HW167954   7.112   5.555  12.062
22171SOL    HW267955   7.145   5.485  12.206
22172SOL     OW67956   7.260   4.607  12.426
22172SOL    HW167957   7.233   4.518  12.389
22172SOL    HW267958   7.261   4.675  12.353
22173SOL     OW67959   6.811   4.049  11.621
22173SOL    HW167960   6.876   3.975  11.610
22173SOL    HW267961   6.831   4.099  11.705
22174SOL     OW67962   6.180   4.469  11.824
22174SOL    HW167963   6.230   4.554  11.805
22174SOL    HW267964   6.092   4.471  11.776
22175SOL     OW67965   7.316   4.658  12.689
22175SOL    HW167966   7.354   4.749  12.704
22175SOL    HW267967   7.308   4.641  12.590
22176SOL     OW67968   6.445   5.098  11.188
22176SOL    HW167969   6.399   5.113  11.276
22176SOL    HW267970   6.489   5.183  11.158
22177SOL     OW67971   6.247   5.514  12.125
22177SOL    HW167972   6.201   5.602  12.112
22177SOL    HW267973   6.346   5.526  12.118
22178SOL     OW67974   6.445   4.680  12.033
22178SOL    HW167975   6.499   4.611  12.081
22178SOL    HW267976   6.413   4.749  12.099
22179SOL     OW67977   6.669   4.708  11.259
22179SOL    HW167978   6.646   4.761  11.177
22179SOL    HW267979   6.750   4.652  11.240
22180SOL     OW67980   7.447   5.293  12.023
22180SOL    HW167981   7.376   5.281  11.953
22180SOL    HW267982   7.448   5.214  12.083
22181SOL     OW67983   5.665   4.964  11.825
22181SOL    HW167984   5.664   4.917  11.913
22181SOL    HW267985   5.747   4.936  11.774
22182SOL     OW67986   7.410   3.916  12.399
22182SOL    HW167987   7.406   3.826  12.443
22182SOL    HW267988   7.413   3.905  12.300
22183SOL     OW67989   6.014   4.148  11.692
22183SOL    HW167990   6.044   4.076  11.630
22183SOL    HW267991   5.975   4.108  11.775
22184SOL     OW67992   7.291   5.211  12.276
22184SOL    HW167993   7.198   5.186  12.249
22184SOL    HW267994   7.317   5.161  12.358
22185SOL     OW67995   6.398   5.310  11.859
22185SOL    HW167996   6.430   5.320  11.765
22185SOL    HW267997   6.319   5.248  11.861
22186SOL     OW67998   7.010   3.938  12.284
22186SOL    HW167999   7.062   3.873  12.339
22186SOL    HW268000   6.961   4.001  12.345
22187SOL     OW68001   6.587   3.758  12.326
22187SOL    HW168002   6.524   3.686  12.295
22187SOL    HW268003   6.680   3.722  12.326
22188SOL     OW68004   6.356   5.054  11.473
22188SOL    HW168005   6.310   4.967  11.490
22188SOL    HW268006   6.447   5.051  11.514
22189SOL     OW68007   6.938   3.776  11.340
22189SOL    HW168008   6.973   3.735  11.256
22189SOL    HW268009   6.848   3.738  11.360
22190SOL     OW68010   6.886   4.177  11.863
22190SOL    HW168011   6.827   4.257  11.867
22190SOL    HW268012   6.901   4.142  11.956
22191SOL     OW68013   5.625   4.801  11.472
22191SOL    HW168014   5.724   4.790  11.463
22191SOL    HW268015   5.585   4.715  11.504
22192SOL     OW68016   6.461   5.370  11.509
22192SOL    HW168017   6.384   5.335  11.455
22192SOL    HW268018   6.429   5.441  11.571
22193SOL     OW68019   5.816   6.214   0.113
22193SOL    HW168020   5.723   6.212   0.150
22193SOL    HW268021   5.817   6.175   0.021
22194SOL     OW68022   5.811   5.861   0.996
22194SOL    HW168023   5.846   5.844   1.088
22194SOL    HW268024   5.723   5.816   0.984
22195SOL     OW68025   5.605   5.954   0.647
22195SOL    HW168026   5.523   5.997   0.686
22195SOL    HW268027   5.577   5.881   0.584
22196SOL     OW68028   6.155   6.861   1.165
22196SOL    HW168029   6.062   6.854   1.128
22196SOL    HW268030   6.166   6.950   1.209
22197SOL     OW68031   7.141   7.097   0.703
22197SOL    HW168032   7.084   7.081   0.784
22197SOL    HW268033   7.082   7.107   0.623
22198SOL     OW68034   6.721   6.289   0.717
22198SOL    HW168035   6.778   6.367   0.692
22198SOL    HW268036   6.661   6.315   0.793
22199SOL     OW68037   7.341   6.193   0.231
22199SOL    HW168038   7.329   6.180   0.132
22199SOL    HW268039   7.311   6.112   0.280
22200SOL     OW68040   6.354   6.730   1.023
22200SOL    HW168041   6.276   6.747   1.083
22200SOL    HW268042   6.388   6.817   0.987
22201SOL     OW68043   6.436   6.384   1.823
22201SOL    HW168044   6.432   6.460   1.888
22201SOL    HW268045   6.458   6.420   1.732
22202SOL     OW68046   6.271   6.598   0.665
22202SOL    HW168047   6.340   6.582   0.735
22202SOL    HW268048   6.198   6.655   0.703
22203SOL     OW68049   6.272   6.747   1.803
22203SOL    HW168050   6.332   6.826   1.817
22203SOL    HW268051   6.186   6.778   1.762
22204SOL     OW68052   5.921   7.021   1.061
22204SOL    HW168053   5.843   6.990   1.008
22204SOL    HW268054   5.979   7.079   1.004
22205SOL     OW68055   7.046   7.091   1.339
22205SOL    HW168056   7.070   7.185   1.365
22205SOL    HW268057   7.030   7.037   1.421
22206SOL     OW68058   6.024   5.978   1.499
22206SOL    HW168059   6.106   5.922   1.508
22206SOL    HW268060   5.943   5.920   1.503
22207SOL     OW68061   7.189   6.033   0.737
22207SOL    HW168062   7.115   6.079   0.687
22207SOL    HW268063   7.240   6.101   0.790
22208SOL     OW68064   5.817   7.299   0.483
22208SOL    HW168065   5.851   7.376   0.537
22208SOL    HW268066   5.861   7.299   0.393
22209SOL     OW68067   6.713   6.927   1.690
22209SOL    HW168068   6.760   6.927   1.778
22209SOL    HW268069   6.665   6.840   1.679
22210SOL     OW68070   5.816   7.020   0.538
22210SOL    HW168071   5.790   7.116   0.538
22210SOL    HW268072   5.745   6.966   0.583
22211SOL     OW68073   5.826   6.677   0.886
22211SOL    HW168074   5.840   6.593   0.938
22211SOL    HW268075   5.771   6.741   0.941
22212SOL     OW68076   6.206   7.372   1.439
22212SOL    HW168077   6.114   7.355   1.474
22212SOL    HW268078   6.234   7.464   1.465
22213SOL     OW68079   6.192   6.550   0.123
22213SOL    HW168080   6.199   6.634   0.069
22213SOL    HW268081   6.238   6.563   0.211
22214SOL     OW68082   7.180   5.700   1.480
22214SOL    HW168083   7.162   5.767   1.408
22214SOL    HW268084   7.177   5.746   1.569
22215SOL     OW68085   5.708   6.229   0.563
22215SOL    HW168086   5.663   6.141   0.580
22215SOL    HW268087   5.707   6.283   0.647
22216SOL     OW68088   7.428   7.353   0.359
22216SOL    HW168089   7.482   7.324   0.439
22216SOL    HW268090   7.458   7.443   0.330
22217SOL     OW68091   5.613   7.182   0.117
22217SOL    HW168092   5.594   7.086   0.138
22217SOL    HW268093   5.580   7.240   0.192
22218SOL     OW68094   7.275   6.508   0.612
22218SOL    HW168095   7.370   6.479   0.620
22218SOL    HW268096   7.267   6.573   0.537
22219SOL     OW68097   7.227   6.694   0.432
22219SOL    HW168098   7.313   6.696   0.380
22219SOL    HW268099   7.241   6.741   0.520
22220SOL     OW68100   5.699   6.323   1.597
22220SOL    HW168101   5.787   6.310   1.642
22220SOL    HW268102   5.686   6.420   1.575
22221SOL     OW68103   6.199   6.951   0.726
22221SOL    HW168104   6.150   6.864   0.735
22221SOL    HW268105   6.176   6.994   0.639
22222SOL     OW68106   6.879   6.814   1.423
22222SOL    HW168107   6.916   6.741   1.365
22222SOL    HW268108   6.931   6.819   1.508
22223SOL     OW68109   6.395   5.590   0.502
22223SOL    HW168110   6.435   5.681   0.493
22223SOL    HW268111   6.295   5.598   0.508
22224SOL     OW68112   5.783   6.562   1.264
22224SOL    HW168113   5.872   6.517   1.250
22224SOL    HW268114   5.710   6.497   1.245
22225SOL     OW68115   7.111   6.585   0.190
22225SOL    HW168116   7.048   6.509   0.203
22225SOL    HW268117   7.159   6.603   0.276
22226SOL     OW68118   6.773   7.378   1.616
22226SOL    HW168119   6.797   7.438   1.540
22226SOL    HW268120   6.780   7.283   1.586
22227SOL     OW68121   5.903   5.837   1.801
22227SOL    HW168122   5.974   5.908   1.807
22227SOL    HW268123   5.815   5.876   1.829
22228SOL     OW68124   7.052   7.003   0.953
22228SOL    HW168125   6.993   7.009   1.033
22228SOL    HW268126   7.037   6.915   0.907
22229SOL     OW68127   7.253   7.300   0.572
22229SOL    HW168128   7.212   7.277   0.484
22229SOL    HW268129   7.235   7.226   0.637
22230SOL     OW68130   6.184   6.315   0.270
22230SOL    HW168131   6.208   6.384   0.202
22230SOL    HW268132   6.106   6.348   0.324
22231SOL     OW68133   6.867   5.931   0.944
22231SOL    HW168134   6.781   5.881   0.931
22231SOL    HW268135   6.929   5.877   1.000
22232SOL     OW68136   7.162   7.248   0.307
22232SOL    HW168137   7.251   7.294   0.310
22232SOL    HW268138   7.141   7.224   0.212
22233SOL     OW68139   6.393   6.191   1.465
22233SOL    HW168140   6.346   6.188   1.554
22233SOL    HW268141   6.342   6.136   1.399
22234SOL     OW68142   6.980   6.055   1.674
22234SOL    HW168143   6.960   6.098   1.762
22234SOL    HW268144   7.058   5.993   1.683
22235SOL     OW68145   6.559   6.476   1.572
22235SOL    HW168146   6.605   6.392   1.543
22235SOL    HW268147   6.503   6.510   1.497
22236SOL     OW68148   6.577   5.996   1.242
22236SOL    HW168149   6.500   6.030   1.296
22236SOL    HW268150   6.543   5.945   1.163
22237SOL     OW68151   6.627   6.287   0.429
22237SOL    HW168152   6.653   6.283   0.525
22237SOL    HW268153   6.542   6.236   0.415
22238SOL     OW68154   5.662   6.397   0.789
22238SOL    HW168155   5.761   6.385   0.798
22238SOL    HW268156   5.638   6.492   0.810
22239SOL     OW68157   5.716   7.407   1.571
22239SOL    HW168158   5.706   7.392   1.670
22239SOL    HW268159   5.630   7.443   1.535
22240SOL     OW68160   6.451   5.934   0.195
22240SOL    HW168161   6.510   5.997   0.146
22240SOL    HW268162   6.470   5.840   0.166
22241SOL     OW68163   7.305   6.171   1.831
22241SOL    HW168164   7.279   6.260   1.795
22241SOL    HW268165   7.303   6.103   1.758
22242SOL     OW68166   6.948   6.730   0.545
22242SOL    HW168167   7.031   6.701   0.497
22242SOL    HW268168   6.899   6.797   0.489
22243SOL     OW68169   6.136   5.782   0.885
22243SOL    HW168170   6.131   5.777   0.985
22243SOL    HW268171   6.138   5.878   0.856
22244SOL     OW68172   6.594   7.042   0.477
22244SOL    HW168173   6.548   7.114   0.425
22244SOL    HW268174   6.590   7.062   0.575
22245SOL     OW68175   5.937   7.387   0.853
22245SOL    HW168176   5.987   7.301   0.859
22245SOL    HW268177   6.002   7.464   0.850
22246SOL     OW68178   7.381   6.652   0.873
22246SOL    HW168179   7.319   6.637   0.797
22246SOL    HW268180   7.329   6.663   0.958
22247SOL     OW68181   6.813   7.136   1.506
22247SOL    HW168182   6.819   7.059   1.570
22247SOL    HW268183   6.761   7.110   1.426
22248SOL     OW68184   5.907   6.529   0.242
22248SOL    HW168185   5.989   6.568   0.200
22248SOL    HW268186   5.880   6.447   0.193
22249SOL     OW68187   7.044   6.321   0.728
22249SOL    HW168188   7.039   6.256   0.803
22249SOL    HW268189   7.124   6.380   0.741
22250SOL     OW68190   6.047   6.852   1.727
22250SOL    HW168191   5.997   6.853   1.641
22250SOL    HW268192   5.984   6.834   1.803
22251SOL     OW68193   6.697   7.362   0.237
22251SOL    HW168194   6.637   7.300   0.287
22251SOL    HW268195   6.728   7.318   0.152
22252SOL     OW68196   5.788   5.871   1.498
22252SOL    HW168197   5.708   5.931   1.485
22252SOL    HW268198   5.778   5.822   1.584
22253SOL     OW68199   7.218   6.963   0.081
22253SOL    HW168200   7.186   7.057   0.071
22253SOL    HW268201   7.142   6.900   0.069
22254SOL     OW68202   6.050   7.329   0.323
22254SOL    HW168203   6.083   7.368   0.409
22254SOL    HW268204   6.126   7.322   0.258
22255SOL     OW68205   6.986   5.693   0.426
22255SOL    HW168206   6.962   5.656   0.336
22255SOL    HW268207   7.085   5.709   0.430
22256SOL     OW68208   5.835   7.371   1.241
22256SOL    HW168209   5.892   7.306   1.291
22256SOL    HW268210   5.819   7.338   1.148
22257SOL     OW68211   6.526   7.284   0.904
22257SOL    HW168212   6.606   7.227   0.925
22257SOL    HW268213   6.477   7.244   0.827
22258SOL     OW68214   5.968   6.286   0.480
22258SOL    HW168215   6.013   6.196   0.477
22258SOL    HW268216   5.874   6.275   0.513
22259SOL     OW68217   7.133   5.808   1.729
22259SOL    HW168218   7.128   5.845   1.821
22259SOL    HW268219   7.061   5.739   1.717
22260SOL     OW68220   6.200   5.708   0.117
22260SOL    HW168221   6.298   5.686   0.124
22260SOL    HW268222   6.169   5.691   0.024
22261SOL     OW68223   6.367   5.850   1.749
22261SOL    HW168224   6.434   5.789   1.792
22261SOL    HW268225   6.294   5.869   1.814
22262SOL     OW68226   6.474   7.100   1.195
22262SOL    HW168227   6.451   7.075   1.101
22262SOL    HW268228   6.535   7.031   1.234
22263SOL     OW68229   6.937   6.176   1.433
22263SOL    HW168230   6.965   6.133   1.518
22263SOL    HW268231   6.962   6.272   1.434
22264SOL     OW68232   6.389   6.988   0.924
22264SOL    HW168233   6.479   7.002   0.882
22264SOL    HW268234   6.318   6.990   0.853
22265SOL     OW68235   6.508   6.089   0.899
22265SOL    HW168236   6.483   6.080   0.803
22265SOL    HW268237   6.556   6.007   0.930
22266SOL     OW68238   6.125   5.650   0.512
22266SOL    HW168239   6.044   5.651   0.570
22266SOL    HW268240   6.128   5.733   0.457
22267SOL     OW68241   7.020   6.774   0.041
22267SOL    HW168242   7.052   6.698   0.098
22267SOL    HW268243   6.928   6.801   0.071
22268SOL     OW68244   5.883   5.621   0.171
22268SOL    HW168245   5.932   5.705   0.150
22268SOL    HW268246   5.945   5.556   0.216
22269SOL     OW68247   6.521   5.822   0.480
22269SOL    HW168248   6.473   5.863   0.402
22269SOL    HW268249   6.620   5.820   0.461
22270SOL     OW68250   6.662   6.269   1.464
22270SOL    HW168251   6.582   6.208   1.467
22270SOL    HW268252   6.743   6.216   1.440
22271SOL     OW68253   6.813   7.156   0.793
22271SOL    HW168254   6.834   7.230   0.728
22271SOL    HW268255   6.881   7.156   0.866
22272SOL     OW68256   6.045   6.738   0.741
22272SOL    HW168257   5.974   6.711   0.806
22272SOL    HW268258   6.019   6.710   0.648
22273SOL     OW68259   6.857   7.383   0.591
22273SOL    HW168260   6.901   7.447   0.527
22273SOL    HW268261   6.807   7.435   0.661
22274SOL     OW68262   6.618   6.135   0.016
22274SOL    HW168263   6.577   6.217  -0.023
22274SOL    HW268264   6.682   6.161   0.089
22275SOL     OW68265   5.664   6.142   1.386
22275SOL    HW168266   5.756   6.141   1.345
22275SOL    HW268267   5.658   6.216   1.453
22276SOL     OW68268   6.147   5.808   1.147
22276SOL    HW168269   6.185   5.724   1.184
22276SOL    HW268270   6.059   5.827   1.191
22277SOL     OW68271   6.452   6.040   0.642
22277SOL    HW168272   6.420   6.112   0.580
22277SOL    HW268273   6.476   5.959   0.589
22278SOL     OW68274   6.603   5.625   0.753
22278SOL    HW168275   6.531   5.630   0.684
22278SOL    HW268276   6.579   5.556   0.822
22279SOL     OW68277   7.015   6.759   0.867
22279SOL    HW168278   6.960   6.675   0.860
22279SOL    HW268279   7.041   6.788   0.775
22280SOL     OW68280   7.052   6.176   0.992
22280SOL    HW168281   7.022   6.081   0.999
22280SOL    HW268282   7.125   6.192   1.058
22281SOL     OW68283   7.443   6.419   0.377
22281SOL    HW168284   7.485   6.355   0.441
22281SOL    HW268285   7.405   6.368   0.299
22282SOL     OW68286   6.074   6.971   0.174
22282SOL    HW168287   5.987   6.956   0.221
22282SOL    HW268288   6.057   6.997   0.079
22283SOL     OW68289   7.250   6.866   0.657
22283SOL    HW168290   7.349   6.874   0.671
22283SOL    HW268291   7.205   6.950   0.688
22284SOL     OW68292   6.976   6.161   0.078
22284SOL    HW168293   6.922   6.140   0.159
22284SOL    HW268294   7.067   6.120   0.087
22285SOL     OW68295   6.113   5.842   0.328
22285SOL    HW168296   6.140   5.783   0.253
22285SOL    HW268297   6.113   5.937   0.297
22286SOL     OW68298   7.340   6.809   1.588
22286SOL    HW168299   7.431   6.770   1.575
22286SOL    HW268300   7.348   6.905   1.612
22287SOL     OW68301   6.650   6.933   1.340
22287SOL    HW168302   6.570   6.910   1.395
22287SOL    HW268303   6.733   6.907   1.389
22288SOL     OW68304   7.178   7.215   1.625
22288SOL    HW168305   7.205   7.249   1.535
22288SOL    HW268306   7.257   7.177   1.671
22289SOL     OW68307   6.697   6.781   1.100
22289SOL    HW168308   6.657   6.825   1.181
22289SOL    HW268309   6.656   6.818   1.017
22290SOL     OW68310   7.224   6.685   1.079
22290SOL    HW168311   7.229   6.766   1.138
22290SOL    HW268312   7.138   6.687   1.028
22291SOL     OW68313   6.501   5.675   1.402
22291SOL    HW168314   6.526   5.655   1.307
22291SOL    HW268315   6.573   5.731   1.444
22292SOL     OW68316   6.566   6.702   1.719
22292SOL    HW168317   6.467   6.708   1.729
22292SOL    HW268318   6.589   6.622   1.663
22293SOL     OW68319   5.996   6.399   1.251
22293SOL    HW168320   6.082   6.411   1.301
22293SOL    HW268321   5.954   6.312   1.278
22294SOL     OW68322   6.860   5.972   1.262
22294SOL    HW168323   6.881   6.046   1.326
22294SOL    HW268324   6.771   5.989   1.219
22295SOL     OW68325   5.650   7.150   1.331
22295SOL    HW168326   5.604   7.232   1.297
22295SOL    HW268327   5.748   7.169   1.340
22296SOL     OW68328   5.953   6.686   0.501
22296SOL    HW168329   5.946   6.769   0.445
22296SOL    HW268330   5.957   6.606   0.441
22297SOL     OW68331   6.152   6.123   0.865
22297SOL    HW168332   6.164   6.189   0.791
22297SOL    HW268333   6.198   6.157   0.948
22298SOL     OW68334   6.838   6.934   0.388
22298SOL    HW168335   6.888   7.011   0.428
22298SOL    HW268336   6.743   6.936   0.420
22299SOL     OW68337   6.858   7.031   1.142
22299SOL    HW168338   6.905   7.044   1.229
22299SOL    HW268339   6.792   6.957   1.151
22300SOL     OW68340   7.168   6.225   0.472
22300SOL    HW168341   7.137   6.286   0.545
22300SOL    HW268342   7.218   6.277   0.403
22301SOL     OW68343   5.940   7.096   1.329
22301SOL    HW168344   5.919   7.052   1.242
22301SOL    HW268345   6.037   7.122   1.332
22302SOL     OW68346   5.988   6.337   1.598
22302SOL    HW168347   6.056   6.392   1.551
22302SOL    HW268348   6.028   6.249   1.625
22303SOL     OW68349   7.173   6.365   1.670
22303SOL    HW168350   7.081   6.403   1.665
22303SOL    HW268351   7.233   6.412   1.605
22304SOL     OW68352   6.599   5.691   1.770
22304SOL    HW168353   6.605   5.776   1.718
22304SOL    HW268354   6.631   5.615   1.713
22305SOL     OW68355   6.090   5.636   1.740
22305SOL    HW168356   6.048   5.579   1.670
22305SOL    HW268357   6.024   5.705   1.772
22306SOL     OW68358   6.159   6.456   1.029
22306SOL    HW168359   6.203   6.545   1.020
22306SOL    HW268360   6.096   6.456   1.106
22307SOL     OW68361   6.946   6.448   1.045
22307SOL    HW168362   6.871   6.448   0.979
22307SOL    HW268363   6.983   6.356   1.054
22308SOL     OW68364   6.795   6.111   0.275
22308SOL    HW168365   6.808   6.027   0.329
22308SOL    HW268366   6.766   6.185   0.335
22309SOL     OW68367   5.893   5.799   1.231
22309SOL    HW168368   5.870   5.836   1.321
22309SOL    HW268369   5.863   5.704   1.225
22310SOL     OW68370   5.623   6.896   1.282
22310SOL    HW168371   5.676   6.847   1.350
22310SOL    HW268372   5.645   6.994   1.287
22311SOL     OW68373   6.318   6.220   1.064
22311SOL    HW168374   6.377   6.194   0.988
22311SOL    HW268375   6.290   6.316   1.053
22312SOL     OW68376   7.314   6.521   1.854
22312SOL    HW168377   7.268   6.514   1.765
22312SOL    HW268378   7.252   6.565   1.920
22313SOL     OW68379   5.893   5.649   0.618
22313SOL    HW168380   5.882   5.743   0.651
22313SOL    HW268381   5.888   5.586   0.695
22314SOL     OW68382   7.208   5.953   0.374
22314SOL    HW168383   7.210   5.877   0.438
22314SOL    HW268384   7.160   6.030   0.414
22315SOL     OW68385   6.609   6.352   0.966
22315SOL    HW168386   6.624   6.373   1.062
22315SOL    HW268387   6.579   6.257   0.957
22316SOL     OW68388   6.566   7.159   1.700
22316SOL    HW168389   6.546   7.203   1.612
22316SOL    HW268390   6.605   7.068   1.684
22317SOL     OW68391   7.445   7.104   1.605
22317SOL    HW168392   7.459   7.131   1.510
22317SOL    HW268393   7.528   7.126   1.658
22318SOL     OW68394   5.936   6.484   1.804
22318SOL    HW168395   6.012   6.528   1.852
22318SOL    HW268396   5.971   6.437   1.722
22319SOL     OW68397   7.126   5.860   0.125
22319SOL    HW168398   7.065   5.785   0.148
22319SOL    HW268399   7.148   5.912   0.208
22320SOL     OW68400   6.889   6.424   0.042
22320SOL    HW168401   6.923   6.331   0.057
22320SOL    HW268402   6.907   6.451  -0.053
22321SOL     OW68403   6.654   6.919   0.849
22321SOL    HW168404   6.661   6.835   0.794
22321SOL    HW268405   6.716   6.988   0.813
22322SOL     OW68406   5.905   6.396   0.949
22322SOL    HW168407   5.998   6.432   0.954
22322SOL    HW268408   5.899   6.311   1.001
22323SOL     OW68409   5.925   6.095   1.006
22323SOL    HW168410   5.873   6.012   0.989
22323SOL    HW268411   6.002   6.100   0.942
22324SOL     OW68412   6.724   5.966   1.678
22324SOL    HW168413   6.679   6.029   1.742
22324SOL    HW268414   6.817   5.997   1.661
22325SOL     OW68415   6.746   5.793   1.477
22325SOL    HW168416   6.746   5.857   1.554
22325SOL    HW268417   6.774   5.841   1.394
22326SOL     OW68418   5.674   7.387   0.927
22326SOL    HW168419   5.632   7.301   0.900
22326SOL    HW268420   5.768   7.390   0.893
22327SOL     OW68421   6.090   7.154   0.910
22327SOL    HW168422   6.156   7.228   0.919
22327SOL    HW268423   6.134   7.075   0.868
22328SOL     OW68424   6.588   6.382   1.238
22328SOL    HW168425   6.629   6.350   1.324
22328SOL    HW268426   6.492   6.355   1.235
22329SOL     OW68427   5.626   6.130   1.114
22329SOL    HW168428   5.711   6.097   1.073
22329SOL    HW268429   5.639   6.145   1.212
22330SOL     OW68430   5.775   6.106   1.722
22330SOL    HW168431   5.834   6.066   1.652
22330SOL    HW268432   5.717   6.177   1.681
22331SOL     OW68433   6.955   6.536   1.660
22331SOL    HW168434   6.994   6.625   1.680
22331SOL    HW268435   6.965   6.516   1.563
22332SOL     OW68436   6.401   6.158   0.325
22332SOL    HW168437   6.408   6.069   0.279
22332SOL    HW268438   6.307   6.192   0.317
22333SOL     OW68439   7.243   6.190   1.206
22333SOL    HW168440   7.205   6.121   1.268
22333SOL    HW268441   7.325   6.154   1.162
22334SOL     OW68442   5.838   7.150   1.744
22334SOL    HW168443   5.808   7.207   1.820
22334SOL    HW268444   5.831   7.053   1.770
22335SOL     OW68445   6.257   6.050   1.269
22335SOL    HW168446   6.223   5.961   1.239
22335SOL    HW268447   6.283   6.104   1.189
22336SOL     OW68448   6.516   7.264   1.465
22336SOL    HW168449   6.492   7.246   1.370
22336SOL    HW268450   6.546   7.358   1.475
22337SOL     OW68451   6.059   6.086   0.191
22337SOL    HW168452   6.120   6.166   0.195
22337SOL    HW268453   5.964   6.117   0.198
22338SOL     OW68454   5.745   6.723   1.466
22338SOL    HW168455   5.767   6.662   1.542
22338SOL    HW268456   5.755   6.674   1.380
22339SOL     OW68457   6.933   6.645   1.234
22339SOL    HW168458   6.957   6.582   1.160
22339SOL    HW268459   6.843   6.685   1.216
22340SOL     OW68460   6.888   6.441   0.309
22340SOL    HW168461   6.802   6.410   0.351
22340SOL    HW268462   6.884   6.427   0.210
22341SOL     OW68463   7.345   7.333   1.154
22341SOL    HW168464   7.406   7.363   1.081
22341SOL    HW268465   7.307   7.244   1.132
22342SOL     OW68466   6.838   7.317   1.128
22342SOL    HW168467   6.922   7.322   1.074
22342SOL    HW268468   6.815   7.221   1.146
22343SOL     OW68469   5.669   6.844   1.022
22343SOL    HW168470   5.664   6.843   1.122
22343SOL    HW268471   5.586   6.803   0.984
22344SOL     OW68472   6.274   7.248   1.716
22344SOL    HW168473   6.218   7.329   1.725
22344SOL    HW268474   6.326   7.252   1.630
22345SOL     OW68475   6.489   5.672   0.133
22345SOL    HW168476   6.540   5.673   0.047
22345SOL    HW268477   6.545   5.630   0.204
22346SOL     OW68478   7.312   5.721   0.523
22346SOL    HW168479   7.385   5.704   0.456
22346SOL    HW268480   7.281   5.634   0.561
22347SOL     OW68481   6.974   7.159   0.477
22347SOL    HW168482   7.041   7.171   0.403
22347SOL    HW268483   6.934   7.248   0.500
22348SOL     OW68484   5.716   7.380   1.851
22348SOL    HW168485   5.675   7.306   1.904
22348SOL    HW268486   5.780   7.431   1.909
22349SOL     OW68487   6.866   6.513   0.672
22349SOL    HW168488   6.926   6.432   0.674
22349SOL    HW268489   6.906   6.582   0.612
22350SOL     OW68490   6.416   6.859   1.422
22350SOL    HW168491   6.411   6.892   1.517
22350SOL    HW268492   6.330   6.878   1.376
22351SOL     OW68493   6.258   7.202   0.154
22351SOL    HW168494   6.267   7.212   0.055
22351SOL    HW268495   6.218   7.113   0.175
22352SOL     OW68496   7.236   7.306   1.394
22352SOL    HW168497   7.289   7.316   1.310
22352SOL    HW268498   7.209   7.396   1.428
22353SOL     OW68499   7.427   5.761   0.963
22353SOL    HW168500   7.466   5.676   0.927
22353SOL    HW268501   7.329   5.763   0.944
22354SOL     OW68502   5.849   5.912   0.720
22354SOL    HW168503   5.770   5.963   0.686
22354SOL    HW268504   5.840   5.897   0.818
22355SOL     OW68505   6.780   7.198   0.031
22355SOL    HW168506   6.786   7.105   0.068
22355SOL    HW268507   6.721   7.198  -0.049
22356SOL     OW68508   6.408   6.588   1.372
22356SOL    HW168509   6.448   6.587   1.280
22356SOL    HW268510   6.418   6.680   1.412
22357SOL     OW68511   6.502   6.496   0.291
22357SOL    HW168512   6.565   6.534   0.223
22357SOL    HW268513   6.542   6.413   0.330
22358SOL     OW68514   7.090   7.193   0.044
22358SOL    HW168515   6.998   7.230   0.051
22358SOL    HW268516   7.128   7.213  -0.046
22359SOL     OW68517   5.958   6.874   1.490
22359SOL    HW168518   5.945   6.967   1.456
22359SOL    HW268519   5.874   6.822   1.477
22360SOL     OW68520   7.200   6.878   1.289
22360SOL    HW168521   7.260   6.881   1.369
22360SOL    HW268522   7.125   6.942   1.302
22361SOL     OW68523   6.625   6.684   0.696
22361SOL    HW168524   6.555   6.637   0.750
22361SOL    HW268525   6.684   6.616   0.653
22362SOL     OW68526   6.600   5.822   0.971
22362SOL    HW168527   6.592   5.786   0.878
22362SOL    HW268528   6.598   5.746   1.036
22363SOL     OW68529   6.176   7.073   0.491
22363SOL    HW168530   6.218   7.015   0.421
22363SOL    HW268531   6.132   7.152   0.447
22364SOL     OW68532   7.295   5.971   1.381
22364SOL    HW168533   7.368   6.040   1.385
22364SOL    HW268534   7.323   5.896   1.322
22365SOL     OW68535   5.841   6.934   0.290
22365SOL    HW168536   5.745   6.935   0.263
22365SOL    HW268537   5.853   6.987   0.374
22366SOL     OW68538   5.691   6.599   1.726
22366SOL    HW168539   5.614   6.566   1.780
22366SOL    HW268540   5.776   6.569   1.768
22367SOL     OW68541   6.258   5.789   1.489
22367SOL    HW168542   6.348   5.773   1.449
22367SOL    HW268543   6.266   5.794   1.588
22368SOL     OW68544   7.026   6.442   1.398
22368SOL    HW168545   6.969   6.494   1.335
22368SOL    HW268546   7.122   6.454   1.374
22369SOL     OW68547   5.658   5.752   0.318
22369SOL    HW168548   5.641   5.835   0.264
22369SOL    HW268549   5.748   5.715   0.296
22370SOL     OW68550   6.769   6.921   0.119
22370SOL    HW168551   6.670   6.910   0.121
22370SOL    HW268552   6.803   6.936   0.212
22371SOL     OW68553   6.199   6.428   1.431
22371SOL    HW168554   6.255   6.509   1.414
22371SOL    HW268555   6.258   6.348   1.434
22372SOL     OW68556   7.079   7.353   0.959
22372SOL    HW168557   7.112   7.417   0.890
22372SOL    HW268558   7.145   7.347   1.034
22373SOL     OW68559   6.302   6.151   1.708
22373SOL    HW168560   6.321   6.216   1.782
22373SOL    HW268561   6.362   6.071   1.717
22374SOL     OW68562   7.036   6.806   1.633
22374SOL    HW168563   7.027   6.796   1.732
22374SOL    HW268564   7.132   6.799   1.607
22375SOL     OW68565   5.976   7.327   1.560
22375SOL    HW168566   5.885   7.368   1.558
22375SOL    HW268567   5.969   7.233   1.592
22376SOL     OW68568   7.260   6.469   1.254
22376SOL    HW168569   7.233   6.380   1.217
22376SOL    HW268570   7.261   6.537   1.181
22377SOL     OW68571   6.811   5.911   0.449
22377SOL    HW168572   6.876   5.837   0.438
22377SOL    HW268573   6.831   5.961   0.533
22378SOL     OW68574   6.180   6.331   0.652
22378SOL    HW168575   6.230   6.416   0.633
22378SOL    HW268576   6.092   6.333   0.604
22379SOL     OW68577   7.363   5.928   1.642
22379SOL    HW168578   7.346   5.959   1.548
22379SOL    HW268579   7.279   5.891   1.680
22380SOL     OW68580   7.316   6.520   1.517
22380SOL    HW168581   7.354   6.611   1.532
22380SOL    HW268582   7.308   6.503   1.418
22381SOL     OW68583   6.445   6.960   0.016
22381SOL    HW168584   6.399   6.975   0.104
22381SOL    HW268585   6.489   7.045  -0.014
22382SOL     OW68586   6.247   7.376   0.953
22382SOL    HW168587   6.201   7.464   0.940
22382SOL    HW268588   6.346   7.388   0.946
22383SOL     OW68589   6.445   6.542   0.861
22383SOL    HW168590   6.499   6.473   0.909
22383SOL    HW268591   6.413   6.611   0.927
22384SOL     OW68592   6.669   6.570   0.087
22384SOL    HW168593   6.646   6.623   0.005
22384SOL    HW268594   6.750   6.514   0.068
22385SOL     OW68595   7.447   7.155   0.851
22385SOL    HW168596   7.376   7.143   0.781
22385SOL    HW268597   7.448   7.076   0.911
22386SOL     OW68598   5.807   6.900   1.844
22386SOL    HW168599   5.742   6.827   1.823
22386SOL    HW268600   5.811   6.914   1.942
22387SOL     OW68601   5.665   6.826   0.653
22387SOL    HW168602   5.664   6.779   0.741
22387SOL    HW268603   5.747   6.798   0.602
22388SOL     OW68604   6.258   6.977   1.624
22388SOL    HW168605   6.180   6.927   1.662
22388SOL    HW268606   6.255   7.072   1.655
22389SOL     OW68607   7.410   5.778   1.227
22389SOL    HW168608   7.406   5.688   1.271
22389SOL    HW268609   7.413   5.767   1.128
22390SOL     OW68610   6.014   6.010   0.520
22390SOL    HW168611   6.044   5.938   0.458
22390SOL    HW268612   5.975   5.970   0.603
22391SOL     OW68613   7.291   7.073   1.104
22391SOL    HW168614   7.198   7.048   1.077
22391SOL    HW268615   7.317   7.023   1.186
22392SOL     OW68616   5.903   6.133   1.280
22392SOL    HW168617   5.941   6.074   1.352
22392SOL    HW268618   5.943   6.107   1.192
22393SOL     OW68619   6.398   7.172   0.687
22393SOL    HW168620   6.430   7.182   0.593
22393SOL    HW268621   6.319   7.110   0.689
22394SOL     OW68622   7.010   5.800   1.112
22394SOL    HW168623   7.062   5.735   1.167
22394SOL    HW268624   6.961   5.863   1.173
22395SOL     OW68625   6.587   5.620   1.154
22395SOL    HW168626   6.524   5.548   1.123
22395SOL    HW268627   6.680   5.584   1.154
22396SOL     OW68628   6.356   6.916   0.301
22396SOL    HW168629   6.310   6.829   0.318
22396SOL    HW268630   6.447   6.913   0.342
22397SOL     OW68631   6.204   7.153   1.284
22397SOL    HW168632   6.199   7.235   1.341
22397SOL    HW268633   6.293   7.150   1.239
22398SOL     OW68634   6.938   5.638   0.168
22398SOL    HW168635   6.973   5.597   0.084
22398SOL    HW268636   6.848   5.600   0.188
22399SOL     OW68637   6.886   6.039   0.691
22399SOL    HW168638   6.827   6.119   0.695
22399SOL    HW268639   6.901   6.004   0.784
22400SOL     OW68640   7.179   5.807   0.882
22400SOL    HW168641   7.095   5.806   0.936
22400SOL    HW268642   7.181   5.890   0.826
22401SOL     OW68643   5.625   6.663   0.300
22401SOL    HW168644   5.724   6.652   0.291
22401SOL    HW268645   5.585   6.577   0.332
22402SOL     OW68646   6.461   7.232   0.337
22402SOL    HW168647   6.384   7.197   0.283
22402SOL    HW268648   6.429   7.303   0.399
22403SOL     OW68649   5.816   6.214   1.975
22403SOL    HW168650   5.723   6.212   2.012
22403SOL    HW268651   5.817   6.175   1.883
22404SOL     OW68652   5.811   5.861   2.858
22404SOL    HW168653   5.846   5.844   2.950
22404SOL    HW268654   5.723   5.816   2.846
22405SOL     OW68655   5.605   5.954   2.509
22405SOL    HW168656   5.523   5.997   2.548
22405SOL    HW268657   5.577   5.881   2.446
22406SOL     OW68658   6.155   6.861   3.027
22406SOL    HW168659   6.062   6.854   2.990
22406SOL    HW268660   6.166   6.950   3.071
22407SOL     OW68661   7.141   7.097   2.565
22407SOL    HW168662   7.084   7.081   2.646
22407SOL    HW268663   7.082   7.107   2.485
22408SOL     OW68664   6.721   6.289   2.579
22408SOL    HW168665   6.778   6.367   2.554
22408SOL    HW268666   6.661   6.315   2.655
22409SOL     OW68667   7.341   6.193   2.093
22409SOL    HW168668   7.329   6.180   1.994
22409SOL    HW268669   7.311   6.112   2.142
22410SOL     OW68670   6.354   6.730   2.885
22410SOL    HW168671   6.276   6.747   2.945
22410SOL    HW268672   6.388   6.817   2.849
22411SOL     OW68673   6.436   6.384   3.685
22411SOL    HW168674   6.432   6.460   3.750
22411SOL    HW268675   6.458   6.420   3.594
22412SOL     OW68676   6.271   6.598   2.527
22412SOL    HW168677   6.340   6.582   2.597
22412SOL    HW268678   6.198   6.655   2.565
22413SOL     OW68679   6.272   6.747   3.665
22413SOL    HW168680   6.332   6.826   3.679
22413SOL    HW268681   6.186   6.778   3.624
22414SOL     OW68682   5.921   7.021   2.923
22414SOL    HW168683   5.843   6.990   2.870
22414SOL    HW268684   5.979   7.079   2.866
22415SOL     OW68685   7.046   7.091   3.201
22415SOL    HW168686   7.070   7.185   3.227
22415SOL    HW268687   7.030   7.037   3.283
22416SOL     OW68688   6.024   5.978   3.361
22416SOL    HW168689   6.106   5.922   3.370
22416SOL    HW268690   5.943   5.920   3.365
22417SOL     OW68691   7.189   6.033   2.599
22417SOL    HW168692   7.115   6.079   2.549
22417SOL    HW268693   7.240   6.101   2.652
22418SOL     OW68694   5.817   7.299   2.345
22418SOL    HW168695   5.851   7.376   2.399
22418SOL    HW268696   5.861   7.299   2.255
22419SOL     OW68697   6.713   6.927   3.552
22419SOL    HW168698   6.760   6.927   3.640
22419SOL    HW268699   6.665   6.840   3.541
22420SOL     OW68700   5.816   7.020   2.400
22420SOL    HW168701   5.790   7.116   2.400
22420SOL    HW268702   5.745   6.966   2.445
22421SOL     OW68703   5.826   6.677   2.748
22421SOL    HW168704   5.840   6.593   2.800
22421SOL    HW268705   5.771   6.741   2.803
22422SOL     OW68706   6.206   7.372   3.301
22422SOL    HW168707   6.114   7.355   3.336
22422SOL    HW268708   6.234   7.464   3.327
22423SOL     OW68709   6.192   6.550   1.985
22423SOL    HW168710   6.199   6.634   1.931
22423SOL    HW268711   6.238   6.563   2.073
22424SOL     OW68712   7.180   5.700   3.342
22424SOL    HW168713   7.162   5.767   3.270
22424SOL    HW268714   7.177   5.746   3.431
22425SOL     OW68715   5.708   6.229   2.425
22425SOL    HW168716   5.663   6.141   2.442
22425SOL    HW268717   5.707   6.283   2.509
22426SOL     OW68718   7.428   7.353   2.221
22426SOL    HW168719   7.482   7.324   2.301
22426SOL    HW268720   7.458   7.443   2.192
22427SOL     OW68721   7.275   6.508   2.474
22427SOL    HW168722   7.370   6.479   2.482
22427SOL    HW268723   7.267   6.573   2.399
22428SOL     OW68724   7.227   6.694   2.294
22428SOL    HW168725   7.313   6.696   2.242
22428SOL    HW268726   7.241   6.741   2.382
22429SOL     OW68727   5.699   6.323   3.459
22429SOL    HW168728   5.787   6.310   3.504
22429SOL    HW268729   5.686   6.420   3.437
22430SOL     OW68730   6.199   6.951   2.588
22430SOL    HW168731   6.150   6.864   2.597
22430SOL    HW268732   6.176   6.994   2.501
22431SOL     OW68733   6.879   6.814   3.285
22431SOL    HW168734   6.916   6.741   3.227
22431SOL    HW268735   6.931   6.819   3.370
22432SOL     OW68736   6.395   5.590   2.364
22432SOL    HW168737   6.435   5.681   2.355
22432SOL    HW268738   6.295   5.598   2.370
22433SOL     OW68739   5.783   6.562   3.126
22433SOL    HW168740   5.872   6.517   3.112
22433SOL    HW268741   5.710   6.497   3.107
22434SOL     OW68742   7.111   6.585   2.052
22434SOL    HW168743   7.048   6.509   2.065
22434SOL    HW268744   7.159   6.603   2.138
22435SOL     OW68745   6.773   7.378   3.478
22435SOL    HW168746   6.797   7.438   3.402
22435SOL    HW268747   6.780   7.283   3.448
22436SOL     OW68748   5.903   5.837   3.663
22436SOL    HW168749   5.974   5.908   3.669
22436SOL    HW268750   5.815   5.876   3.691
22437SOL     OW68751   7.052   7.003   2.815
22437SOL    HW168752   6.993   7.009   2.895
22437SOL    HW268753   7.037   6.915   2.769
22438SOL     OW68754   7.253   7.300   2.434
22438SOL    HW168755   7.212   7.277   2.346
22438SOL    HW268756   7.235   7.226   2.499
22439SOL     OW68757   6.184   6.315   2.132
22439SOL    HW168758   6.208   6.384   2.064
22439SOL    HW268759   6.106   6.348   2.186
22440SOL     OW68760   6.867   5.931   2.806
22440SOL    HW168761   6.781   5.881   2.793
22440SOL    HW268762   6.929   5.877   2.862
22441SOL     OW68763   7.162   7.248   2.169
22441SOL    HW168764   7.251   7.294   2.172
22441SOL    HW268765   7.141   7.224   2.074
22442SOL     OW68766   6.393   6.191   3.327
22442SOL    HW168767   6.346   6.188   3.416
22442SOL    HW268768   6.342   6.136   3.261
22443SOL     OW68769   6.980   6.055   3.536
22443SOL    HW168770   6.960   6.098   3.624
22443SOL    HW268771   7.058   5.993   3.545
22444SOL     OW68772   6.559   6.476   3.434
22444SOL    HW168773   6.605   6.392   3.405
22444SOL    HW268774   6.503   6.510   3.359
22445SOL     OW68775   6.577   5.996   3.104
22445SOL    HW168776   6.500   6.030   3.158
22445SOL    HW268777   6.543   5.945   3.025
22446SOL     OW68778   6.627   6.287   2.291
22446SOL    HW168779   6.653   6.283   2.387
22446SOL    HW268780   6.542   6.236   2.277
22447SOL     OW68781   5.662   6.397   2.651
22447SOL    HW168782   5.761   6.385   2.660
22447SOL    HW268783   5.638   6.492   2.672
22448SOL     OW68784   5.716   7.407   3.433
22448SOL    HW168785   5.706   7.392   3.532
22448SOL    HW268786   5.630   7.443   3.397
22449SOL     OW68787   6.451   5.934   2.057
22449SOL    HW168788   6.510   5.997   2.008
22449SOL    HW268789   6.470   5.840   2.028
22450SOL     OW68790   7.305   6.171   3.693
22450SOL    HW168791   7.279   6.260   3.657
22450SOL    HW268792   7.303   6.103   3.620
22451SOL     OW68793   6.948   6.730   2.407
22451SOL    HW168794   7.031   6.701   2.359
22451SOL    HW268795   6.899   6.797   2.351
22452SOL     OW68796   6.136   5.782   2.747
22452SOL    HW168797   6.131   5.777   2.847
22452SOL    HW268798   6.138   5.878   2.718
22453SOL     OW68799   6.594   7.042   2.339
22453SOL    HW168800   6.548   7.114   2.287
22453SOL    HW268801   6.590   7.062   2.437
22454SOL     OW68802   5.937   7.387   2.715
22454SOL    HW168803   5.987   7.301   2.721
22454SOL    HW268804   6.002   7.464   2.712
22455SOL     OW68805   7.381   6.652   2.735
22455SOL    HW168806   7.319   6.637   2.659
22455SOL    HW268807   7.329   6.663   2.820
22456SOL     OW68808   6.813   7.136   3.368
22456SOL    HW168809   6.819   7.059   3.432
22456SOL    HW268810   6.761   7.110   3.288
22457SOL     OW68811   5.907   6.529   2.104
22457SOL    HW168812   5.989   6.568   2.062
22457SOL    HW268813   5.880   6.447   2.055
22458SOL     OW68814   7.044   6.321   2.590
22458SOL    HW168815   7.039   6.256   2.665
22458SOL    HW268816   7.124   6.380   2.603
22459SOL     OW68817   6.047   6.852   3.589
22459SOL    HW168818   5.997   6.853   3.503
22459SOL    HW268819   5.984   6.834   3.665
22460SOL     OW68820   6.697   7.362   2.099
22460SOL    HW168821   6.637   7.300   2.149
22460SOL    HW268822   6.728   7.318   2.014
22461SOL     OW68823   5.788   5.871   3.360
22461SOL    HW168824   5.708   5.931   3.347
22461SOL    HW268825   5.778   5.822   3.446
22462SOL     OW68826   7.218   6.963   1.943
22462SOL    HW168827   7.186   7.057   1.933
22462SOL    HW268828   7.142   6.900   1.931
22463SOL     OW68829   6.050   7.329   2.185
22463SOL    HW168830   6.083   7.368   2.271
22463SOL    HW268831   6.126   7.322   2.120
22464SOL     OW68832   6.986   5.693   2.288
22464SOL    HW168833   6.962   5.656   2.198
22464SOL    HW268834   7.085   5.709   2.292
22465SOL     OW68835   5.835   7.371   3.103
22465SOL    HW168836   5.892   7.306   3.153
22465SOL    HW268837   5.819   7.338   3.010
22466SOL     OW68838   6.526   7.284   2.766
22466SOL    HW168839   6.606   7.227   2.787
22466SOL    HW268840   6.477   7.244   2.689
22467SOL     OW68841   5.968   6.286   2.342
22467SOL    HW168842   6.013   6.196   2.339
22467SOL    HW268843   5.874   6.275   2.375
22468SOL     OW68844   7.133   5.808   3.591
22468SOL    HW168845   7.128   5.845   3.683
22468SOL    HW268846   7.061   5.739   3.579
22469SOL     OW68847   6.200   5.708   1.979
22469SOL    HW168848   6.298   5.686   1.986
22469SOL    HW268849   6.169   5.691   1.886
22470SOL     OW68850   6.367   5.850   3.611
22470SOL    HW168851   6.434   5.789   3.654
22470SOL    HW268852   6.294   5.869   3.676
22471SOL     OW68853   6.474   7.100   3.057
22471SOL    HW168854   6.451   7.075   2.963
22471SOL    HW268855   6.535   7.031   3.096
22472SOL     OW68856   6.937   6.176   3.295
22472SOL    HW168857   6.965   6.133   3.380
22472SOL    HW268858   6.962   6.272   3.296
22473SOL     OW68859   6.389   6.988   2.786
22473SOL    HW168860   6.479   7.002   2.744
22473SOL    HW268861   6.318   6.990   2.715
22474SOL     OW68862   6.508   6.089   2.761
22474SOL    HW168863   6.483   6.080   2.665
22474SOL    HW268864   6.556   6.007   2.792
22475SOL     OW68865   6.125   5.650   2.374
22475SOL    HW168866   6.044   5.651   2.432
22475SOL    HW268867   6.128   5.733   2.319
22476SOL     OW68868   7.020   6.774   1.903
22476SOL    HW168869   7.052   6.698   1.960
22476SOL    HW268870   6.928   6.801   1.933
22477SOL     OW68871   5.883   5.621   2.033
22477SOL    HW168872   5.932   5.705   2.012
22477SOL    HW268873   5.945   5.556   2.078
22478SOL     OW68874   6.521   5.822   2.342
22478SOL    HW168875   6.473   5.863   2.264
22478SOL    HW268876   6.620   5.820   2.323
22479SOL     OW68877   6.662   6.269   3.326
22479SOL    HW168878   6.582   6.208   3.329
22479SOL    HW268879   6.743   6.216   3.302
22480SOL     OW68880   6.813   7.156   2.655
22480SOL    HW168881   6.834   7.230   2.590
22480SOL    HW268882   6.881   7.156   2.728
22481SOL     OW68883   6.045   6.738   2.603
22481SOL    HW168884   5.974   6.711   2.668
22481SOL    HW268885   6.019   6.710   2.510
22482SOL     OW68886   6.857   7.383   2.453
22482SOL    HW168887   6.901   7.447   2.389
22482SOL    HW268888   6.807   7.435   2.523
22483SOL     OW68889   6.618   6.135   1.878
22483SOL    HW168890   6.577   6.217   1.839
22483SOL    HW268891   6.682   6.161   1.951
22484SOL     OW68892   5.664   6.142   3.248
22484SOL    HW168893   5.756   6.141   3.207
22484SOL    HW268894   5.658   6.216   3.315
22485SOL     OW68895   6.147   5.808   3.009
22485SOL    HW168896   6.185   5.724   3.046
22485SOL    HW268897   6.059   5.827   3.053
22486SOL     OW68898   6.452   6.040   2.504
22486SOL    HW168899   6.420   6.112   2.442
22486SOL    HW268900   6.476   5.959   2.451
22487SOL     OW68901   6.603   5.625   2.615
22487SOL    HW168902   6.531   5.630   2.546
22487SOL    HW268903   6.579   5.556   2.684
22488SOL     OW68904   7.015   6.759   2.729
22488SOL    HW168905   6.960   6.675   2.722
22488SOL    HW268906   7.041   6.788   2.637
22489SOL     OW68907   7.052   6.176   2.854
22489SOL    HW168908   7.022   6.081   2.861
22489SOL    HW268909   7.125   6.192   2.920
22490SOL     OW68910   7.443   6.419   2.239
22490SOL    HW168911   7.485   6.355   2.303
22490SOL    HW268912   7.405   6.368   2.161
22491SOL     OW68913   6.074   6.971   2.036
22491SOL    HW168914   5.987   6.956   2.083
22491SOL    HW268915   6.057   6.997   1.941
22492SOL     OW68916   7.250   6.866   2.519
22492SOL    HW168917   7.349   6.874   2.533
22492SOL    HW268918   7.205   6.950   2.550
22493SOL     OW68919   6.976   6.161   1.940
22493SOL    HW168920   6.922   6.140   2.021
22493SOL    HW268921   7.067   6.120   1.949
22494SOL     OW68922   6.113   5.842   2.190
22494SOL    HW168923   6.140   5.783   2.115
22494SOL    HW268924   6.113   5.937   2.159
22495SOL     OW68925   7.340   6.809   3.450
22495SOL    HW168926   7.431   6.770   3.437
22495SOL    HW268927   7.348   6.905   3.474
22496SOL     OW68928   6.650   6.933   3.202
22496SOL    HW168929   6.570   6.910   3.257
22496SOL    HW268930   6.733   6.907   3.251
22497SOL     OW68931   7.178   7.215   3.487
22497SOL    HW168932   7.205   7.249   3.397
22497SOL    HW268933   7.257   7.177   3.533
22498SOL     OW68934   6.697   6.781   2.962
22498SOL    HW168935   6.657   6.825   3.043
22498SOL    HW268936   6.656   6.818   2.879
22499SOL     OW68937   7.224   6.685   2.941
22499SOL    HW168938   7.229   6.766   3.000
22499SOL    HW268939   7.138   6.687   2.890
22500SOL     OW68940   6.501   5.675   3.264
22500SOL    HW168941   6.526   5.655   3.169
22500SOL    HW268942   6.573   5.731   3.306
22501SOL     OW68943   6.566   6.702   3.581
22501SOL    HW168944   6.467   6.708   3.591
22501SOL    HW268945   6.589   6.622   3.525
22502SOL     OW68946   6.291   6.636   2.230
22502SOL    HW168947   6.277   6.643   2.329
22502SOL    HW268948   6.375   6.585   2.212
22503SOL     OW68949   5.996   6.399   3.113
22503SOL    HW168950   6.082   6.411   3.163
22503SOL    HW268951   5.954   6.312   3.140
22504SOL     OW68952   6.860   5.972   3.124
22504SOL    HW168953   6.881   6.046   3.188
22504SOL    HW268954   6.771   5.989   3.081
22505SOL     OW68955   5.650   7.150   3.193
22505SOL    HW168956   5.604   7.232   3.159
22505SOL    HW268957   5.748   7.169   3.202
22506SOL     OW68958   5.953   6.686   2.363
22506SOL    HW168959   5.946   6.769   2.307
22506SOL    HW268960   5.957   6.606   2.303
22507SOL     OW68961   6.152   6.123   2.727
22507SOL    HW168962   6.164   6.189   2.653
22507SOL    HW268963   6.198   6.157   2.810
22508SOL     OW68964   6.838   6.934   2.250
22508SOL    HW168965   6.888   7.011   2.290
22508SOL    HW268966   6.743   6.936   2.282
22509SOL     OW68967   6.858   7.031   3.004
22509SOL    HW168968   6.905   7.044   3.091
22509SOL    HW268969   6.792   6.957   3.013
22510SOL     OW68970   7.168   6.225   2.334
22510SOL    HW168971   7.137   6.286   2.407
22510SOL    HW268972   7.218   6.277   2.265
22511SOL     OW68973   5.940   7.096   3.191
22511SOL    HW168974   5.919   7.052   3.104
22511SOL    HW268975   6.037   7.122   3.194
22512SOL     OW68976   5.988   6.337   3.460
22512SOL    HW168977   6.056   6.392   3.413
22512SOL    HW268978   6.028   6.249   3.487
22513SOL     OW68979   7.173   6.365   3.532
22513SOL    HW168980   7.081   6.403   3.527
22513SOL    HW268981   7.233   6.412   3.467
22514SOL     OW68982   6.599   5.691   3.632
22514SOL    HW168983   6.605   5.776   3.580
22514SOL    HW268984   6.631   5.615   3.575
22515SOL     OW68985   6.090   5.636   3.602
22515SOL    HW168986   6.048   5.579   3.532
22515SOL    HW268987   6.024   5.705   3.634
22516SOL     OW68988   6.159   6.456   2.891
22516SOL    HW168989   6.203   6.545   2.882
22516SOL    HW268990   6.096   6.456   2.968
22517SOL     OW68991   6.946   6.448   2.907
22517SOL    HW168992   6.871   6.448   2.841
22517SOL    HW268993   6.983   6.356   2.916
22518SOL     OW68994   6.795   6.111   2.137
22518SOL    HW168995   6.808   6.027   2.191
22518SOL    HW268996   6.766   6.185   2.197
22519SOL     OW68997   5.893   5.799   3.093
22519SOL    HW168998   5.870   5.836   3.183
22519SOL    HW268999   5.863   5.704   3.087
22520SOL     OW69000   5.623   6.896   3.144
22520SOL    HW169001   5.676   6.847   3.212
22520SOL    HW269002   5.645   6.994   3.149
22521SOL     OW69003   6.318   6.220   2.926
22521SOL    HW169004   6.377   6.194   2.850
22521SOL    HW269005   6.290   6.316   2.915
22522SOL     OW69006   7.314   6.521   3.716
22522SOL    HW169007   7.268   6.514   3.627
22522SOL    HW269008   7.252   6.565   3.782
22523SOL     OW69009   5.893   5.649   2.480
22523SOL    HW169010   5.882   5.743   2.513
22523SOL    HW269011   5.888   5.586   2.557
22524SOL     OW69012   7.208   5.953   2.236
22524SOL    HW169013   7.210   5.877   2.300
22524SOL    HW269014   7.160   6.030   2.276
22525SOL     OW69015   6.609   6.352   2.828
22525SOL    HW169016   6.624   6.373   2.924
22525SOL    HW269017   6.579   6.257   2.819
22526SOL     OW69018   6.566   7.159   3.562
22526SOL    HW169019   6.546   7.203   3.474
22526SOL    HW269020   6.605   7.068   3.546
22527SOL     OW69021   7.445   7.104   3.467
22527SOL    HW169022   7.459   7.131   3.372
22527SOL    HW269023   7.528   7.126   3.520
22528SOL     OW69024   5.936   6.484   3.666
22528SOL    HW169025   6.012   6.528   3.714
22528SOL    HW269026   5.971   6.437   3.584
22529SOL     OW69027   7.126   5.860   1.987
22529SOL    HW169028   7.065   5.785   2.010
22529SOL    HW269029   7.148   5.912   2.070
22530SOL     OW69030   6.889   6.424   1.904
22530SOL    HW169031   6.923   6.331   1.919
22530SOL    HW269032   6.907   6.451   1.809
22531SOL     OW69033   6.654   6.919   2.711
22531SOL    HW169034   6.661   6.835   2.656
22531SOL    HW269035   6.716   6.988   2.675
22532SOL     OW69036   5.905   6.396   2.811
22532SOL    HW169037   5.998   6.432   2.816
22532SOL    HW269038   5.899   6.311   2.863
22533SOL     OW69039   5.925   6.095   2.868
22533SOL    HW169040   5.873   6.012   2.851
22533SOL    HW269041   6.002   6.100   2.804
22534SOL     OW69042   6.724   5.966   3.540
22534SOL    HW169043   6.679   6.029   3.604
22534SOL    HW269044   6.817   5.997   3.523
22535SOL     OW69045   6.746   5.793   3.339
22535SOL    HW169046   6.746   5.857   3.416
22535SOL    HW269047   6.774   5.841   3.256
22536SOL     OW69048   5.594   6.912   2.062
22536SOL    HW169049   5.501   6.933   2.031
22536SOL    HW269050   5.604   6.813   2.075
22537SOL     OW69051   5.674   7.387   2.789
22537SOL    HW169052   5.632   7.301   2.762
22537SOL    HW269053   5.768   7.390   2.755
22538SOL     OW69054   6.090   7.154   2.772
22538SOL    HW169055   6.156   7.228   2.781
22538SOL    HW269056   6.134   7.075   2.730
22539SOL     OW69057   6.588   6.382   3.100
22539SOL    HW169058   6.629   6.350   3.186
22539SOL    HW269059   6.492   6.355   3.097
22540SOL     OW69060   5.626   6.130   2.976
22540SOL    HW169061   5.711   6.097   2.935
22540SOL    HW269062   5.639   6.145   3.074
22541SOL     OW69063   5.775   6.106   3.584
22541SOL    HW169064   5.834   6.066   3.514
22541SOL    HW269065   5.717   6.177   3.543
22542SOL     OW69066   6.955   6.536   3.522
22542SOL    HW169067   6.994   6.625   3.542
22542SOL    HW269068   6.965   6.516   3.425
22543SOL     OW69069   6.401   6.158   2.187
22543SOL    HW169070   6.408   6.069   2.141
22543SOL    HW269071   6.307   6.192   2.179
22544SOL     OW69072   7.243   6.190   3.068
22544SOL    HW169073   7.205   6.121   3.130
22544SOL    HW269074   7.325   6.154   3.024
22545SOL     OW69075   5.838   7.150   3.606
22545SOL    HW169076   5.808   7.207   3.682
22545SOL    HW269077   5.831   7.053   3.632
22546SOL     OW69078   6.257   6.050   3.131
22546SOL    HW169079   6.223   5.961   3.101
22546SOL    HW269080   6.283   6.104   3.051
22547SOL     OW69081   6.516   7.264   3.327
22547SOL    HW169082   6.492   7.246   3.232
22547SOL    HW269083   6.546   7.358   3.337
22548SOL     OW69084   6.059   6.086   2.053
22548SOL    HW169085   6.120   6.166   2.057
22548SOL    HW269086   5.964   6.117   2.060
22549SOL     OW69087   5.745   6.723   3.328
22549SOL    HW169088   5.767   6.662   3.404
22549SOL    HW269089   5.755   6.674   3.242
22550SOL     OW69090   6.933   6.645   3.096
22550SOL    HW169091   6.957   6.582   3.022
22550SOL    HW269092   6.843   6.685   3.078
22551SOL     OW69093   6.888   6.441   2.171
22551SOL    HW169094   6.802   6.410   2.213
22551SOL    HW269095   6.884   6.427   2.072
22552SOL     OW69096   7.345   7.333   3.016
22552SOL    HW169097   7.406   7.363   2.943
22552SOL    HW269098   7.307   7.244   2.994
22553SOL     OW69099   6.838   7.317   2.990
22553SOL    HW169100   6.922   7.322   2.936
22553SOL    HW269101   6.815   7.221   3.008
22554SOL     OW69102   5.669   6.844   2.884
22554SOL    HW169103   5.664   6.843   2.984
22554SOL    HW269104   5.586   6.803   2.846
22555SOL     OW69105   6.274   7.248   3.578
22555SOL    HW169106   6.218   7.329   3.587
22555SOL    HW269107   6.326   7.252   3.492
22556SOL     OW69108   7.312   5.721   2.385
22556SOL    HW169109   7.385   5.704   2.318
22556SOL    HW269110   7.281   5.634   2.423
22557SOL     OW69111   6.974   7.159   2.339
22557SOL    HW169112   7.041   7.171   2.265
22557SOL    HW269113   6.934   7.248   2.362
22558SOL     OW69114   5.716   7.380   3.713
22558SOL    HW169115   5.675   7.306   3.766
22558SOL    HW269116   5.780   7.431   3.771
22559SOL     OW69117   6.866   6.513   2.534
22559SOL    HW169118   6.926   6.432   2.536
22559SOL    HW269119   6.906   6.582   2.474
22560SOL     OW69120   6.416   6.859   3.284
22560SOL    HW169121   6.411   6.892   3.379
22560SOL    HW269122   6.330   6.878   3.238
22561SOL     OW69123   6.258   7.202   2.016
22561SOL    HW169124   6.267   7.212   1.917
22561SOL    HW269125   6.218   7.113   2.037
22562SOL     OW69126   7.236   7.306   3.256
22562SOL    HW169127   7.289   7.316   3.172
22562SOL    HW269128   7.209   7.396   3.290
22563SOL     OW69129   7.427   5.761   2.825
22563SOL    HW169130   7.466   5.676   2.789
22563SOL    HW269131   7.329   5.763   2.806
22564SOL     OW69132   5.849   5.912   2.582
22564SOL    HW169133   5.770   5.963   2.548
22564SOL    HW269134   5.840   5.897   2.680
22565SOL     OW69135   6.780   7.198   1.893
22565SOL    HW169136   6.786   7.105   1.930
22565SOL    HW269137   6.721   7.198   1.813
22566SOL     OW69138   6.408   6.588   3.234
22566SOL    HW169139   6.448   6.587   3.142
22566SOL    HW269140   6.418   6.680   3.274
22567SOL     OW69141   6.502   6.496   2.153
22567SOL    HW169142   6.565   6.534   2.085
22567SOL    HW269143   6.542   6.413   2.192
22568SOL     OW69144   7.090   7.193   1.906
22568SOL    HW169145   6.998   7.230   1.913
22568SOL    HW269146   7.128   7.213   1.816
22569SOL     OW69147   5.958   6.874   3.352
22569SOL    HW169148   5.945   6.967   3.318
22569SOL    HW269149   5.874   6.822   3.339
22570SOL     OW69150   7.200   6.878   3.151
22570SOL    HW169151   7.260   6.881   3.231
22570SOL    HW269152   7.125   6.942   3.164
22571SOL     OW69153   6.625   6.684   2.558
22571SOL    HW169154   6.555   6.637   2.612
22571SOL    HW269155   6.684   6.616   2.515
22572SOL     OW69156   6.600   5.822   2.833
22572SOL    HW169157   6.592   5.786   2.740
22572SOL    HW269158   6.598   5.746   2.898
22573SOL     OW69159   6.176   7.073   2.353
22573SOL    HW169160   6.218   7.015   2.283
22573SOL    HW269161   6.132   7.152   2.309
22574SOL     OW69162   7.295   5.971   3.243
22574SOL    HW169163   7.368   6.040   3.247
22574SOL    HW269164   7.323   5.896   3.184
22575SOL     OW69165   5.841   6.934   2.152
22575SOL    HW169166   5.745   6.935   2.125
22575SOL    HW269167   5.853   6.987   2.236
22576SOL     OW69168   5.691   6.599   3.588
22576SOL    HW169169   5.614   6.566   3.642
22576SOL    HW269170   5.776   6.569   3.630
22577SOL     OW69171   6.258   5.789   3.351
22577SOL    HW169172   6.348   5.773   3.311
22577SOL    HW269173   6.266   5.794   3.450
22578SOL     OW69174   5.661   5.931   1.895
22578SOL    HW169175   5.569   5.903   1.866
22578SOL    HW269176   5.692   6.008   1.839
22579SOL     OW69177   7.026   6.442   3.260
22579SOL    HW169178   6.969   6.494   3.197
22579SOL    HW269179   7.122   6.454   3.236
22580SOL     OW69180   5.658   5.752   2.180
22580SOL    HW169181   5.641   5.835   2.126
22580SOL    HW269182   5.748   5.715   2.158
22581SOL     OW69183   6.769   6.921   1.981
22581SOL    HW169184   6.670   6.910   1.983
22581SOL    HW269185   6.803   6.936   2.074
22582SOL     OW69186   6.199   6.428   3.293
22582SOL    HW169187   6.255   6.509   3.276
22582SOL    HW269188   6.258   6.348   3.296
22583SOL     OW69189   7.079   7.353   2.821
22583SOL    HW169190   7.112   7.417   2.752
22583SOL    HW269191   7.145   7.347   2.896
22584SOL     OW69192   6.302   6.151   3.570
22584SOL    HW169193   6.321   6.216   3.644
22584SOL    HW269194   6.362   6.071   3.579
22585SOL     OW69195   7.036   6.806   3.495
22585SOL    HW169196   7.027   6.796   3.594
22585SOL    HW269197   7.132   6.799   3.469
22586SOL     OW69198   5.976   7.327   3.422
22586SOL    HW169199   5.885   7.368   3.420
22586SOL    HW269200   5.969   7.233   3.454
22587SOL     OW69201   7.260   6.469   3.116
22587SOL    HW169202   7.233   6.380   3.079
22587SOL    HW269203   7.261   6.537   3.043
22588SOL     OW69204   6.811   5.911   2.311
22588SOL    HW169205   6.876   5.837   2.300
22588SOL    HW269206   6.831   5.961   2.395
22589SOL     OW69207   6.180   6.331   2.514
22589SOL    HW169208   6.230   6.416   2.495
22589SOL    HW269209   6.092   6.333   2.466
22590SOL     OW69210   7.363   5.928   3.504
22590SOL    HW169211   7.346   5.959   3.410
22590SOL    HW269212   7.279   5.891   3.542
22591SOL     OW69213   7.316   6.520   3.379
22591SOL    HW169214   7.354   6.611   3.394
22591SOL    HW269215   7.308   6.503   3.280
22592SOL     OW69216   6.445   6.960   1.878
22592SOL    HW169217   6.399   6.975   1.966
22592SOL    HW269218   6.489   7.045   1.848
22593SOL     OW69219   6.247   7.376   2.815
22593SOL    HW169220   6.201   7.464   2.802
22593SOL    HW269221   6.346   7.388   2.808
22594SOL     OW69222   6.445   6.542   2.723
22594SOL    HW169223   6.499   6.473   2.771
22594SOL    HW269224   6.413   6.611   2.789
22595SOL     OW69225   6.669   6.570   1.949
22595SOL    HW169226   6.646   6.623   1.867
22595SOL    HW269227   6.750   6.514   1.930
22596SOL     OW69228   7.447   7.155   2.713
22596SOL    HW169229   7.376   7.143   2.643
22596SOL    HW269230   7.448   7.076   2.773
22597SOL     OW69231   5.807   6.900   3.706
22597SOL    HW169232   5.742   6.827   3.685
22597SOL    HW269233   5.811   6.914   3.804
22598SOL     OW69234   5.665   6.826   2.515
22598SOL    HW169235   5.664   6.779   2.603
22598SOL    HW269236   5.747   6.798   2.464
22599SOL     OW69237   6.258   6.977   3.486
22599SOL    HW169238   6.180   6.927   3.524
22599SOL    HW269239   6.255   7.072   3.517
22600SOL     OW69240   7.410   5.778   3.089
22600SOL    HW169241   7.406   5.688   3.133
22600SOL    HW269242   7.413   5.767   2.990
22601SOL     OW69243   6.014   6.010   2.382
22601SOL    HW169244   6.044   5.938   2.320
22601SOL    HW269245   5.975   5.970   2.465
22602SOL     OW69246   7.291   7.073   2.966
22602SOL    HW169247   7.198   7.048   2.939
22602SOL    HW269248   7.317   7.023   3.048
22603SOL     OW69249   5.903   6.133   3.142
22603SOL    HW169250   5.941   6.074   3.214
22603SOL    HW269251   5.943   6.107   3.054
22604SOL     OW69252   6.398   7.172   2.549
22604SOL    HW169253   6.430   7.182   2.455
22604SOL    HW269254   6.319   7.110   2.551
22605SOL     OW69255   7.010   5.800   2.974
22605SOL    HW169256   7.062   5.735   3.029
22605SOL    HW269257   6.961   5.863   3.035
22606SOL     OW69258   6.587   5.620   3.016
22606SOL    HW169259   6.524   5.548   2.985
22606SOL    HW269260   6.680   5.584   3.016
22607SOL     OW69261   6.356   6.916   2.163
22607SOL    HW169262   6.310   6.829   2.180
22607SOL    HW269263   6.447   6.913   2.204
22608SOL     OW69264   6.204   7.153   3.146
22608SOL    HW169265   6.199   7.235   3.203
22608SOL    HW269266   6.293   7.150   3.101
22609SOL     OW69267   6.938   5.638   2.030
22609SOL    HW169268   6.973   5.597   1.946
22609SOL    HW269269   6.848   5.600   2.050
22610SOL     OW69270   6.886   6.039   2.553
22610SOL    HW169271   6.827   6.119   2.557
22610SOL    HW269272   6.901   6.004   2.646
22611SOL     OW69273   7.179   5.807   2.744
22611SOL    HW169274   7.095   5.806   2.798
22611SOL    HW269275   7.181   5.890   2.688
22612SOL     OW69276   5.625   6.663   2.162
22612SOL    HW169277   5.724   6.652   2.153
22612SOL    HW269278   5.585   6.577   2.194
22613SOL     OW69279   6.461   7.232   2.199
22613SOL    HW169280   6.384   7.197   2.145
22613SOL    HW269281   6.429   7.303   2.261
22614SOL     OW69282   5.816   6.214   3.837
22614SOL    HW169283   5.723   6.212   3.874
22614SOL    HW269284   5.817   6.175   3.745
22615SOL     OW69285   5.811   5.861   4.720
22615SOL    HW169286   5.846   5.844   4.812
22615SOL    HW269287   5.723   5.816   4.708
22616SOL     OW69288   5.605   5.954   4.371
22616SOL    HW169289   5.523   5.997   4.410
22616SOL    HW269290   5.577   5.881   4.308
22617SOL     OW69291   6.155   6.861   4.889
22617SOL    HW169292   6.062   6.854   4.852
22617SOL    HW269293   6.166   6.950   4.933
22618SOL     OW69294   7.141   7.097   4.427
22618SOL    HW169295   7.084   7.081   4.508
22618SOL    HW269296   7.082   7.107   4.347
22619SOL     OW69297   6.721   6.289   4.441
22619SOL    HW169298   6.778   6.367   4.416
22619SOL    HW269299   6.661   6.315   4.517
22620SOL     OW69300   7.341   6.193   3.955
22620SOL    HW169301   7.329   6.180   3.856
22620SOL    HW269302   7.311   6.112   4.004
22621SOL     OW69303   6.354   6.730   4.747
22621SOL    HW169304   6.276   6.747   4.807
22621SOL    HW269305   6.388   6.817   4.711
22622SOL     OW69306   6.436   6.384   5.547
22622SOL    HW169307   6.432   6.460   5.612
22622SOL    HW269308   6.458   6.420   5.456
22623SOL     OW69309   6.271   6.598   4.389
22623SOL    HW169310   6.340   6.582   4.459
22623SOL    HW269311   6.198   6.655   4.427
22624SOL     OW69312   6.272   6.747   5.527
22624SOL    HW169313   6.332   6.826   5.541
22624SOL    HW269314   6.186   6.778   5.486
22625SOL     OW69315   5.921   7.021   4.785
22625SOL    HW169316   5.843   6.990   4.732
22625SOL    HW269317   5.979   7.079   4.728
22626SOL     OW69318   7.046   7.091   5.063
22626SOL    HW169319   7.070   7.185   5.089
22626SOL    HW269320   7.030   7.037   5.145
22627SOL     OW69321   6.024   5.978   5.223
22627SOL    HW169322   6.106   5.922   5.232
22627SOL    HW269323   5.943   5.920   5.227
22628SOL     OW69324   7.189   6.033   4.461
22628SOL    HW169325   7.115   6.079   4.411
22628SOL    HW269326   7.240   6.101   4.514
22629SOL     OW69327   5.817   7.299   4.207
22629SOL    HW169328   5.851   7.376   4.261
22629SOL    HW269329   5.861   7.299   4.117
22630SOL     OW69330   6.713   6.927   5.414
22630SOL    HW169331   6.760   6.927   5.502
22630SOL    HW269332   6.665   6.840   5.403
22631SOL     OW69333   5.816   7.020   4.262
22631SOL    HW169334   5.790   7.116   4.262
22631SOL    HW269335   5.745   6.966   4.307
22632SOL     OW69336   5.826   6.677   4.610
22632SOL    HW169337   5.840   6.593   4.662
22632SOL    HW269338   5.771   6.741   4.665
22633SOL     OW69339   6.206   7.372   5.163
22633SOL    HW169340   6.114   7.355   5.198
22633SOL    HW269341   6.234   7.464   5.189
22634SOL     OW69342   6.192   6.550   3.847
22634SOL    HW169343   6.199   6.634   3.793
22634SOL    HW269344   6.238   6.563   3.935
22635SOL     OW69345   7.180   5.700   5.204
22635SOL    HW169346   7.162   5.767   5.132
22635SOL    HW269347   7.177   5.746   5.293
22636SOL     OW69348   5.708   6.229   4.287
22636SOL    HW169349   5.663   6.141   4.304
22636SOL    HW269350   5.707   6.283   4.371
22637SOL     OW69351   7.428   7.353   4.083
22637SOL    HW169352   7.482   7.324   4.163
22637SOL    HW269353   7.458   7.443   4.054
22638SOL     OW69354   5.613   7.182   3.841
22638SOL    HW169355   5.594   7.086   3.862
22638SOL    HW269356   5.580   7.240   3.916
22639SOL     OW69357   7.275   6.508   4.336
22639SOL    HW169358   7.370   6.479   4.344
22639SOL    HW269359   7.267   6.573   4.261
22640SOL     OW69360   7.227   6.694   4.156
22640SOL    HW169361   7.313   6.696   4.104
22640SOL    HW269362   7.241   6.741   4.244
22641SOL     OW69363   5.699   6.323   5.321
22641SOL    HW169364   5.787   6.310   5.366
22641SOL    HW269365   5.686   6.420   5.299
22642SOL     OW69366   6.199   6.951   4.450
22642SOL    HW169367   6.150   6.864   4.459
22642SOL    HW269368   6.176   6.994   4.363
22643SOL     OW69369   6.879   6.814   5.147
22643SOL    HW169370   6.916   6.741   5.089
22643SOL    HW269371   6.931   6.819   5.232
22644SOL     OW69372   6.395   5.590   4.226
22644SOL    HW169373   6.435   5.681   4.217
22644SOL    HW269374   6.295   5.598   4.232
22645SOL     OW69375   5.783   6.562   4.988
22645SOL    HW169376   5.872   6.517   4.974
22645SOL    HW269377   5.710   6.497   4.969
22646SOL     OW69378   7.111   6.585   3.914
22646SOL    HW169379   7.048   6.509   3.927
22646SOL    HW269380   7.159   6.603   4.000
22647SOL     OW69381   6.773   7.378   5.340
22647SOL    HW169382   6.797   7.438   5.264
22647SOL    HW269383   6.780   7.283   5.310
22648SOL     OW69384   5.903   5.837   5.525
22648SOL    HW169385   5.974   5.908   5.531
22648SOL    HW269386   5.815   5.876   5.553
22649SOL     OW69387   7.052   7.003   4.677
22649SOL    HW169388   6.993   7.009   4.757
22649SOL    HW269389   7.037   6.915   4.631
22650SOL     OW69390   7.253   7.300   4.296
22650SOL    HW169391   7.212   7.277   4.208
22650SOL    HW269392   7.235   7.226   4.361
22651SOL     OW69393   6.184   6.315   3.994
22651SOL    HW169394   6.208   6.384   3.926
22651SOL    HW269395   6.106   6.348   4.048
22652SOL     OW69396   6.867   5.931   4.668
22652SOL    HW169397   6.781   5.881   4.655
22652SOL    HW269398   6.929   5.877   4.724
22653SOL     OW69399   7.162   7.248   4.031
22653SOL    HW169400   7.251   7.294   4.034
22653SOL    HW269401   7.141   7.224   3.936
22654SOL     OW69402   6.393   6.191   5.189
22654SOL    HW169403   6.346   6.188   5.278
22654SOL    HW269404   6.342   6.136   5.123
22655SOL     OW69405   6.980   6.055   5.398
22655SOL    HW169406   6.960   6.098   5.486
22655SOL    HW269407   7.058   5.993   5.407
22656SOL     OW69408   6.559   6.476   5.296
22656SOL    HW169409   6.605   6.392   5.267
22656SOL    HW269410   6.503   6.510   5.221
22657SOL     OW69411   6.577   5.996   4.966
22657SOL    HW169412   6.500   6.030   5.020
22657SOL    HW269413   6.543   5.945   4.887
22658SOL     OW69414   6.627   6.287   4.153
22658SOL    HW169415   6.653   6.283   4.249
22658SOL    HW269416   6.542   6.236   4.139
22659SOL     OW69417   5.662   6.397   4.513
22659SOL    HW169418   5.761   6.385   4.522
22659SOL    HW269419   5.638   6.492   4.534
22660SOL     OW69420   5.716   7.407   5.295
22660SOL    HW169421   5.706   7.392   5.394
22660SOL    HW269422   5.630   7.443   5.259
22661SOL     OW69423   6.451   5.934   3.919
22661SOL    HW169424   6.510   5.997   3.870
22661SOL    HW269425   6.470   5.840   3.890
22662SOL     OW69426   7.305   6.171   5.555
22662SOL    HW169427   7.279   6.260   5.519
22662SOL    HW269428   7.303   6.103   5.482
22663SOL     OW69429   6.948   6.730   4.269
22663SOL    HW169430   7.031   6.701   4.221
22663SOL    HW269431   6.899   6.797   4.213
22664SOL     OW69432   6.136   5.782   4.609
22664SOL    HW169433   6.131   5.777   4.709
22664SOL    HW269434   6.138   5.878   4.580
22665SOL     OW69435   6.594   7.042   4.201
22665SOL    HW169436   6.548   7.114   4.149
22665SOL    HW269437   6.590   7.062   4.299
22666SOL     OW69438   5.937   7.387   4.577
22666SOL    HW169439   5.987   7.301   4.583
22666SOL    HW269440   6.002   7.464   4.574
22667SOL     OW69441   7.381   6.652   4.597
22667SOL    HW169442   7.319   6.637   4.521
22667SOL    HW269443   7.329   6.663   4.682
22668SOL     OW69444   6.813   7.136   5.230
22668SOL    HW169445   6.819   7.059   5.294
22668SOL    HW269446   6.761   7.110   5.150
22669SOL     OW69447   5.907   6.529   3.966
22669SOL    HW169448   5.989   6.568   3.924
22669SOL    HW269449   5.880   6.447   3.917
22670SOL     OW69450   7.044   6.321   4.452
22670SOL    HW169451   7.039   6.256   4.527
22670SOL    HW269452   7.124   6.380   4.465
22671SOL     OW69453   6.047   6.852   5.451
22671SOL    HW169454   5.997   6.853   5.365
22671SOL    HW269455   5.984   6.834   5.527
22672SOL     OW69456   6.697   7.362   3.961
22672SOL    HW169457   6.637   7.300   4.011
22672SOL    HW269458   6.728   7.318   3.876
22673SOL     OW69459   5.788   5.871   5.222
22673SOL    HW169460   5.708   5.931   5.209
22673SOL    HW269461   5.778   5.822   5.308
22674SOL     OW69462   7.218   6.963   3.805
22674SOL    HW169463   7.186   7.057   3.795
22674SOL    HW269464   7.142   6.900   3.793
22675SOL     OW69465   6.050   7.329   4.047
22675SOL    HW169466   6.083   7.368   4.133
22675SOL    HW269467   6.126   7.322   3.982
22676SOL     OW69468   6.986   5.693   4.150
22676SOL    HW169469   6.962   5.656   4.060
22676SOL    HW269470   7.085   5.709   4.154
22677SOL     OW69471   5.835   7.371   4.965
22677SOL    HW169472   5.892   7.306   5.015
22677SOL    HW269473   5.819   7.338   4.872
22678SOL     OW69474   6.526   7.284   4.628
22678SOL    HW169475   6.606   7.227   4.649
22678SOL    HW269476   6.477   7.244   4.551
22679SOL     OW69477   5.968   6.286   4.204
22679SOL    HW169478   6.013   6.196   4.201
22679SOL    HW269479   5.874   6.275   4.237
22680SOL     OW69480   7.133   5.808   5.453
22680SOL    HW169481   7.128   5.845   5.545
22680SOL    HW269482   7.061   5.739   5.441
22681SOL     OW69483   6.200   5.708   3.841
22681SOL    HW169484   6.298   5.686   3.848
22681SOL    HW269485   6.169   5.691   3.748
22682SOL     OW69486   6.367   5.850   5.473
22682SOL    HW169487   6.434   5.789   5.516
22682SOL    HW269488   6.294   5.869   5.538
22683SOL     OW69489   6.474   7.100   4.919
22683SOL    HW169490   6.451   7.075   4.825
22683SOL    HW269491   6.535   7.031   4.958
22684SOL     OW69492   6.937   6.176   5.157
22684SOL    HW169493   6.965   6.133   5.242
22684SOL    HW269494   6.962   6.272   5.158
22685SOL     OW69495   6.389   6.988   4.648
22685SOL    HW169496   6.479   7.002   4.606
22685SOL    HW269497   6.318   6.990   4.577
22686SOL     OW69498   6.508   6.089   4.623
22686SOL    HW169499   6.483   6.080   4.527
22686SOL    HW269500   6.556   6.007   4.654
22687SOL     OW69501   6.125   5.650   4.236
22687SOL    HW169502   6.044   5.651   4.294
22687SOL    HW269503   6.128   5.733   4.181
22688SOL     OW69504   7.020   6.774   3.765
22688SOL    HW169505   7.052   6.698   3.822
22688SOL    HW269506   6.928   6.801   3.795
22689SOL     OW69507   5.883   5.621   3.895
22689SOL    HW169508   5.932   5.705   3.874
22689SOL    HW269509   5.945   5.556   3.940
22690SOL     OW69510   6.521   5.822   4.204
22690SOL    HW169511   6.473   5.863   4.126
22690SOL    HW269512   6.620   5.820   4.185
22691SOL     OW69513   6.662   6.269   5.188
22691SOL    HW169514   6.582   6.208   5.191
22691SOL    HW269515   6.743   6.216   5.164
22692SOL     OW69516   6.813   7.156   4.517
22692SOL    HW169517   6.834   7.230   4.452
22692SOL    HW269518   6.881   7.156   4.590
22693SOL     OW69519   6.045   6.738   4.465
22693SOL    HW169520   5.974   6.711   4.530
22693SOL    HW269521   6.019   6.710   4.372
22694SOL     OW69522   6.857   7.383   4.315
22694SOL    HW169523   6.901   7.447   4.251
22694SOL    HW269524   6.807   7.435   4.385
22695SOL     OW69525   6.618   6.135   3.740
22695SOL    HW169526   6.577   6.217   3.701
22695SOL    HW269527   6.682   6.161   3.813
22696SOL     OW69528   5.664   6.142   5.110
22696SOL    HW169529   5.756   6.141   5.069
22696SOL    HW269530   5.658   6.216   5.177
22697SOL     OW69531   6.147   5.808   4.871
22697SOL    HW169532   6.185   5.724   4.908
22697SOL    HW269533   6.059   5.827   4.915
22698SOL     OW69534   6.452   6.040   4.366
22698SOL    HW169535   6.420   6.112   4.304
22698SOL    HW269536   6.476   5.959   4.313
22699SOL     OW69537   6.603   5.625   4.477
22699SOL    HW169538   6.531   5.630   4.408
22699SOL    HW269539   6.579   5.556   4.546
22700SOL     OW69540   7.015   6.759   4.591
22700SOL    HW169541   6.960   6.675   4.584
22700SOL    HW269542   7.041   6.788   4.499
22701SOL     OW69543   7.052   6.176   4.716
22701SOL    HW169544   7.022   6.081   4.723
22701SOL    HW269545   7.125   6.192   4.782
22702SOL     OW69546   7.443   6.419   4.101
22702SOL    HW169547   7.485   6.355   4.165
22702SOL    HW269548   7.405   6.368   4.023
22703SOL     OW69549   6.074   6.971   3.898
22703SOL    HW169550   5.987   6.956   3.945
22703SOL    HW269551   6.057   6.997   3.803
22704SOL     OW69552   7.250   6.866   4.381
22704SOL    HW169553   7.349   6.874   4.395
22704SOL    HW269554   7.205   6.950   4.412
22705SOL     OW69555   6.976   6.161   3.802
22705SOL    HW169556   6.922   6.140   3.883
22705SOL    HW269557   7.067   6.120   3.811
22706SOL     OW69558   6.113   5.842   4.052
22706SOL    HW169559   6.140   5.783   3.977
22706SOL    HW269560   6.113   5.937   4.021
22707SOL     OW69561   7.340   6.809   5.312
22707SOL    HW169562   7.431   6.770   5.299
22707SOL    HW269563   7.348   6.905   5.336
22708SOL     OW69564   6.650   6.933   5.064
22708SOL    HW169565   6.570   6.910   5.119
22708SOL    HW269566   6.733   6.907   5.113
22709SOL     OW69567   7.178   7.215   5.349
22709SOL    HW169568   7.205   7.249   5.259
22709SOL    HW269569   7.257   7.177   5.395
22710SOL     OW69570   6.697   6.781   4.824
22710SOL    HW169571   6.657   6.825   4.905
22710SOL    HW269572   6.656   6.818   4.741
22711SOL     OW69573   7.224   6.685   4.803
22711SOL    HW169574   7.229   6.766   4.862
22711SOL    HW269575   7.138   6.687   4.752
22712SOL     OW69576   6.501   5.675   5.126
22712SOL    HW169577   6.526   5.655   5.031
22712SOL    HW269578   6.573   5.731   5.168
22713SOL     OW69579   6.566   6.702   5.443
22713SOL    HW169580   6.467   6.708   5.453
22713SOL    HW269581   6.589   6.622   5.387
22714SOL     OW69582   6.291   6.636   4.092
22714SOL    HW169583   6.277   6.643   4.191
22714SOL    HW269584   6.375   6.585   4.074
22715SOL     OW69585   5.996   6.399   4.975
22715SOL    HW169586   6.082   6.411   5.025
22715SOL    HW269587   5.954   6.312   5.002
22716SOL     OW69588   6.860   5.972   4.986
22716SOL    HW169589   6.881   6.046   5.050
22716SOL    HW269590   6.771   5.989   4.943
22717SOL     OW69591   5.650   7.150   5.055
22717SOL    HW169592   5.604   7.232   5.021
22717SOL    HW269593   5.748   7.169   5.064
22718SOL     OW69594   5.953   6.686   4.225
22718SOL    HW169595   5.946   6.769   4.169
22718SOL    HW269596   5.957   6.606   4.165
22719SOL     OW69597   6.152   6.123   4.589
22719SOL    HW169598   6.164   6.189   4.515
22719SOL    HW269599   6.198   6.157   4.672
22720SOL     OW69600   6.838   6.934   4.112
22720SOL    HW169601   6.888   7.011   4.152
22720SOL    HW269602   6.743   6.936   4.144
22721SOL     OW69603   6.858   7.031   4.866
22721SOL    HW169604   6.905   7.044   4.953
22721SOL    HW269605   6.792   6.957   4.875
22722SOL     OW69606   7.168   6.225   4.196
22722SOL    HW169607   7.137   6.286   4.269
22722SOL    HW269608   7.218   6.277   4.127
22723SOL     OW69609   5.940   7.096   5.053
22723SOL    HW169610   5.919   7.052   4.966
22723SOL    HW269611   6.037   7.122   5.056
22724SOL     OW69612   5.988   6.337   5.322
22724SOL    HW169613   6.056   6.392   5.275
22724SOL    HW269614   6.028   6.249   5.349
22725SOL     OW69615   7.173   6.365   5.394
22725SOL    HW169616   7.081   6.403   5.389
22725SOL    HW269617   7.233   6.412   5.329
22726SOL     OW69618   6.599   5.691   5.494
22726SOL    HW169619   6.605   5.776   5.442
22726SOL    HW269620   6.631   5.615   5.437
22727SOL     OW69621   6.090   5.636   5.464
22727SOL    HW169622   6.048   5.579   5.394
22727SOL    HW269623   6.024   5.705   5.496
22728SOL     OW69624   6.159   6.456   4.753
22728SOL    HW169625   6.203   6.545   4.744
22728SOL    HW269626   6.096   6.456   4.830
22729SOL     OW69627   6.946   6.448   4.769
22729SOL    HW169628   6.871   6.448   4.703
22729SOL    HW269629   6.983   6.356   4.778
22730SOL     OW69630   6.795   6.111   3.999
22730SOL    HW169631   6.808   6.027   4.053
22730SOL    HW269632   6.766   6.185   4.059
22731SOL     OW69633   5.893   5.799   4.955
22731SOL    HW169634   5.870   5.836   5.045
22731SOL    HW269635   5.863   5.704   4.949
22732SOL     OW69636   5.623   6.896   5.006
22732SOL    HW169637   5.676   6.847   5.074
22732SOL    HW269638   5.645   6.994   5.011
22733SOL     OW69639   6.318   6.220   4.788
22733SOL    HW169640   6.377   6.194   4.712
22733SOL    HW269641   6.290   6.316   4.777
22734SOL     OW69642   7.314   6.521   5.578
22734SOL    HW169643   7.268   6.514   5.489
22734SOL    HW269644   7.252   6.565   5.644
22735SOL     OW69645   5.893   5.649   4.342
22735SOL    HW169646   5.882   5.743   4.375
22735SOL    HW269647   5.888   5.586   4.419
22736SOL     OW69648   7.208   5.953   4.098
22736SOL    HW169649   7.210   5.877   4.162
22736SOL    HW269650   7.160   6.030   4.138
22737SOL     OW69651   6.609   6.352   4.690
22737SOL    HW169652   6.624   6.373   4.786
22737SOL    HW269653   6.579   6.257   4.681
22738SOL     OW69654   6.566   7.159   5.424
22738SOL    HW169655   6.546   7.203   5.336
22738SOL    HW269656   6.605   7.068   5.408
22739SOL     OW69657   7.445   7.104   5.329
22739SOL    HW169658   7.459   7.131   5.234
22739SOL    HW269659   7.528   7.126   5.382
22740SOL     OW69660   5.936   6.484   5.528
22740SOL    HW169661   6.012   6.528   5.576
22740SOL    HW269662   5.971   6.437   5.446
22741SOL     OW69663   7.126   5.860   3.849
22741SOL    HW169664   7.065   5.785   3.872
22741SOL    HW269665   7.148   5.912   3.932
22742SOL     OW69666   6.889   6.424   3.766
22742SOL    HW169667   6.923   6.331   3.781
22742SOL    HW269668   6.907   6.451   3.671
22743SOL     OW69669   6.654   6.919   4.573
22743SOL    HW169670   6.661   6.835   4.518
22743SOL    HW269671   6.716   6.988   4.537
22744SOL     OW69672   5.905   6.396   4.673
22744SOL    HW169673   5.998   6.432   4.678
22744SOL    HW269674   5.899   6.311   4.725
22745SOL     OW69675   5.925   6.095   4.730
22745SOL    HW169676   5.873   6.012   4.713
22745SOL    HW269677   6.002   6.100   4.666
22746SOL     OW69678   6.724   5.966   5.402
22746SOL    HW169679   6.679   6.029   5.466
22746SOL    HW269680   6.817   5.997   5.385
22747SOL     OW69681   6.746   5.793   5.201
22747SOL    HW169682   6.746   5.857   5.278
22747SOL    HW269683   6.774   5.841   5.118
22748SOL     OW69684   5.594   6.912   3.924
22748SOL    HW169685   5.501   6.933   3.893
22748SOL    HW269686   5.604   6.813   3.937
22749SOL     OW69687   5.674   7.387   4.651
22749SOL    HW169688   5.632   7.301   4.624
22749SOL    HW269689   5.768   7.390   4.617
22750SOL     OW69690   6.090   7.154   4.634
22750SOL    HW169691   6.156   7.228   4.643
22750SOL    HW269692   6.134   7.075   4.592
22751SOL     OW69693   6.588   6.382   4.962
22751SOL    HW169694   6.629   6.350   5.048
22751SOL    HW269695   6.492   6.355   4.959
22752SOL     OW69696   5.626   6.130   4.838
22752SOL    HW169697   5.711   6.097   4.797
22752SOL    HW269698   5.639   6.145   4.936
22753SOL     OW69699   5.775   6.106   5.446
22753SOL    HW169700   5.834   6.066   5.376
22753SOL    HW269701   5.717   6.177   5.405
22754SOL     OW69702   6.955   6.536   5.384
22754SOL    HW169703   6.994   6.625   5.404
22754SOL    HW269704   6.965   6.516   5.287
22755SOL     OW69705   6.401   6.158   4.049
22755SOL    HW169706   6.408   6.069   4.003
22755SOL    HW269707   6.307   6.192   4.041
22756SOL     OW69708   7.243   6.190   4.930
22756SOL    HW169709   7.205   6.121   4.992
22756SOL    HW269710   7.325   6.154   4.886
22757SOL     OW69711   5.838   7.150   5.468
22757SOL    HW169712   5.808   7.207   5.544
22757SOL    HW269713   5.831   7.053   5.494
22758SOL     OW69714   6.257   6.050   4.993
22758SOL    HW169715   6.223   5.961   4.963
22758SOL    HW269716   6.283   6.104   4.913
22759SOL     OW69717   6.516   7.264   5.189
22759SOL    HW169718   6.492   7.246   5.094
22759SOL    HW269719   6.546   7.358   5.199
22760SOL     OW69720   6.059   6.086   3.915
22760SOL    HW169721   6.120   6.166   3.919
22760SOL    HW269722   5.964   6.117   3.922
22761SOL     OW69723   5.745   6.723   5.190
22761SOL    HW169724   5.767   6.662   5.266
22761SOL    HW269725   5.755   6.674   5.104
22762SOL     OW69726   6.933   6.645   4.958
22762SOL    HW169727   6.957   6.582   4.884
22762SOL    HW269728   6.843   6.685   4.940
22763SOL     OW69729   6.888   6.441   4.033
22763SOL    HW169730   6.802   6.410   4.075
22763SOL    HW269731   6.884   6.427   3.934
22764SOL     OW69732   7.345   7.333   4.878
22764SOL    HW169733   7.406   7.363   4.805
22764SOL    HW269734   7.307   7.244   4.856
22765SOL     OW69735   6.838   7.317   4.852
22765SOL    HW169736   6.922   7.322   4.798
22765SOL    HW269737   6.815   7.221   4.870
22766SOL     OW69738   5.669   6.844   4.746
22766SOL    HW169739   5.664   6.843   4.846
22766SOL    HW269740   5.586   6.803   4.708
22767SOL     OW69741   6.274   7.248   5.440
22767SOL    HW169742   6.218   7.329   5.449
22767SOL    HW269743   6.326   7.252   5.354
22768SOL     OW69744   7.312   5.721   4.247
22768SOL    HW169745   7.385   5.704   4.180
22768SOL    HW269746   7.281   5.634   4.285
22769SOL     OW69747   6.974   7.159   4.201
22769SOL    HW169748   7.041   7.171   4.127
22769SOL    HW269749   6.934   7.248   4.224
22770SOL     OW69750   5.716   7.380   5.575
22770SOL    HW169751   5.675   7.306   5.628
22770SOL    HW269752   5.780   7.431   5.633
22771SOL     OW69753   6.866   6.513   4.396
22771SOL    HW169754   6.926   6.432   4.398
22771SOL    HW269755   6.906   6.582   4.336
22772SOL     OW69756   6.416   6.859   5.146
22772SOL    HW169757   6.411   6.892   5.241
22772SOL    HW269758   6.330   6.878   5.100
22773SOL     OW69759   6.258   7.202   3.878
22773SOL    HW169760   6.267   7.212   3.779
22773SOL    HW269761   6.218   7.113   3.899
22774SOL     OW69762   7.236   7.306   5.118
22774SOL    HW169763   7.289   7.316   5.034
22774SOL    HW269764   7.209   7.396   5.152
22775SOL     OW69765   7.427   5.761   4.687
22775SOL    HW169766   7.466   5.676   4.651
22775SOL    HW269767   7.329   5.763   4.668
22776SOL     OW69768   5.849   5.912   4.444
22776SOL    HW169769   5.770   5.963   4.410
22776SOL    HW269770   5.840   5.897   4.542
22777SOL     OW69771   6.780   7.198   3.755
22777SOL    HW169772   6.786   7.105   3.792
22777SOL    HW269773   6.721   7.198   3.675
22778SOL     OW69774   6.408   6.588   5.096
22778SOL    HW169775   6.448   6.587   5.004
22778SOL    HW269776   6.418   6.680   5.136
22779SOL     OW69777   6.502   6.496   4.015
22779SOL    HW169778   6.565   6.534   3.947
22779SOL    HW269779   6.542   6.413   4.054
22780SOL     OW69780   7.090   7.193   3.768
22780SOL    HW169781   6.998   7.230   3.775
22780SOL    HW269782   7.128   7.213   3.678
22781SOL     OW69783   5.958   6.874   5.214
22781SOL    HW169784   5.945   6.967   5.180
22781SOL    HW269785   5.874   6.822   5.201
22782SOL     OW69786   7.200   6.878   5.013
22782SOL    HW169787   7.260   6.881   5.093
22782SOL    HW269788   7.125   6.942   5.026
22783SOL     OW69789   6.625   6.684   4.420
22783SOL    HW169790   6.555   6.637   4.474
22783SOL    HW269791   6.684   6.616   4.377
22784SOL     OW69792   6.600   5.822   4.695
22784SOL    HW169793   6.592   5.786   4.602
22784SOL    HW269794   6.598   5.746   4.760
22785SOL     OW69795   6.176   7.073   4.215
22785SOL    HW169796   6.218   7.015   4.145
22785SOL    HW269797   6.132   7.152   4.171
22786SOL     OW69798   7.295   5.971   5.105
22786SOL    HW169799   7.368   6.040   5.109
22786SOL    HW269800   7.323   5.896   5.046
22787SOL     OW69801   5.841   6.934   4.014
22787SOL    HW169802   5.745   6.935   3.987
22787SOL    HW269803   5.853   6.987   4.098
22788SOL     OW69804   5.691   6.599   5.450
22788SOL    HW169805   5.614   6.566   5.504
22788SOL    HW269806   5.776   6.569   5.492
22789SOL     OW69807   6.258   5.789   5.213
22789SOL    HW169808   6.348   5.773   5.173
22789SOL    HW269809   6.266   5.794   5.312
22790SOL     OW69810   5.661   5.931   3.757
22790SOL    HW169811   5.569   5.903   3.728
22790SOL    HW269812   5.692   6.008   3.701
22791SOL     OW69813   7.026   6.442   5.122
22791SOL    HW169814   6.969   6.494   5.059
22791SOL    HW269815   7.122   6.454   5.098
22792SOL     OW69816   5.658   5.752   4.042
22792SOL    HW169817   5.641   5.835   3.988
22792SOL    HW269818   5.748   5.715   4.020
22793SOL     OW69819   6.769   6.921   3.843
22793SOL    HW169820   6.670   6.910   3.845
22793SOL    HW269821   6.803   6.936   3.936
22794SOL     OW69822   6.199   6.428   5.155
22794SOL    HW169823   6.255   6.509   5.138
22794SOL    HW269824   6.258   6.348   5.158
22795SOL     OW69825   7.079   7.353   4.683
22795SOL    HW169826   7.112   7.417   4.614
22795SOL    HW269827   7.145   7.347   4.758
22796SOL     OW69828   6.302   6.151   5.432
22796SOL    HW169829   6.321   6.216   5.506
22796SOL    HW269830   6.362   6.071   5.441
22797SOL     OW69831   7.036   6.806   5.357
22797SOL    HW169832   7.027   6.796   5.456
22797SOL    HW269833   7.132   6.799   5.331
22798SOL     OW69834   5.976   7.327   5.284
22798SOL    HW169835   5.885   7.368   5.282
22798SOL    HW269836   5.969   7.233   5.316
22799SOL     OW69837   7.260   6.469   4.978
22799SOL    HW169838   7.233   6.380   4.941
22799SOL    HW269839   7.261   6.537   4.905
22800SOL     OW69840   6.811   5.911   4.173
22800SOL    HW169841   6.876   5.837   4.162
22800SOL    HW269842   6.831   5.961   4.257
22801SOL     OW69843   6.180   6.331   4.376
22801SOL    HW169844   6.230   6.416   4.357
22801SOL    HW269845   6.092   6.333   4.328
22802SOL     OW69846   7.363   5.928   5.366
22802SOL    HW169847   7.346   5.959   5.272
22802SOL    HW269848   7.279   5.891   5.404
22803SOL     OW69849   7.316   6.520   5.241
22803SOL    HW169850   7.354   6.611   5.256
22803SOL    HW269851   7.308   6.503   5.142
22804SOL     OW69852   6.445   6.960   3.740
22804SOL    HW169853   6.399   6.975   3.828
22804SOL    HW269854   6.489   7.045   3.710
22805SOL     OW69855   6.247   7.376   4.677
22805SOL    HW169856   6.201   7.464   4.664
22805SOL    HW269857   6.346   7.388   4.670
22806SOL     OW69858   6.445   6.542   4.585
22806SOL    HW169859   6.499   6.473   4.633
22806SOL    HW269860   6.413   6.611   4.651
22807SOL     OW69861   6.669   6.570   3.811
22807SOL    HW169862   6.646   6.623   3.729
22807SOL    HW269863   6.750   6.514   3.792
22808SOL     OW69864   7.447   7.155   4.575
22808SOL    HW169865   7.376   7.143   4.505
22808SOL    HW269866   7.448   7.076   4.635
22809SOL     OW69867   5.807   6.900   5.568
22809SOL    HW169868   5.742   6.827   5.547
22809SOL    HW269869   5.811   6.914   5.666
22810SOL     OW69870   5.665   6.826   4.377
22810SOL    HW169871   5.664   6.779   4.465
22810SOL    HW269872   5.747   6.798   4.326
22811SOL     OW69873   6.258   6.977   5.348
22811SOL    HW169874   6.180   6.927   5.386
22811SOL    HW269875   6.255   7.072   5.379
22812SOL     OW69876   7.410   5.778   4.951
22812SOL    HW169877   7.406   5.688   4.995
22812SOL    HW269878   7.413   5.767   4.852
22813SOL     OW69879   6.014   6.010   4.244
22813SOL    HW169880   6.044   5.938   4.182
22813SOL    HW269881   5.975   5.970   4.327
22814SOL     OW69882   7.291   7.073   4.828
22814SOL    HW169883   7.198   7.048   4.801
22814SOL    HW269884   7.317   7.023   4.910
22815SOL     OW69885   5.903   6.133   5.004
22815SOL    HW169886   5.941   6.074   5.076
22815SOL    HW269887   5.943   6.107   4.916
22816SOL     OW69888   6.398   7.172   4.411
22816SOL    HW169889   6.430   7.182   4.317
22816SOL    HW269890   6.319   7.110   4.413
22817SOL     OW69891   7.010   5.800   4.836
22817SOL    HW169892   7.062   5.735   4.891
22817SOL    HW269893   6.961   5.863   4.897
22818SOL     OW69894   6.587   5.620   4.878
22818SOL    HW169895   6.524   5.548   4.847
22818SOL    HW269896   6.680   5.584   4.878
22819SOL     OW69897   6.356   6.916   4.025
22819SOL    HW169898   6.310   6.829   4.042
22819SOL    HW269899   6.447   6.913   4.066
22820SOL     OW69900   6.204   7.153   5.008
22820SOL    HW169901   6.199   7.235   5.065
22820SOL    HW269902   6.293   7.150   4.963
22821SOL     OW69903   6.938   5.638   3.892
22821SOL    HW169904   6.973   5.597   3.808
22821SOL    HW269905   6.848   5.600   3.912
22822SOL     OW69906   6.886   6.039   4.415
22822SOL    HW169907   6.827   6.119   4.419
22822SOL    HW269908   6.901   6.004   4.508
22823SOL     OW69909   7.179   5.807   4.606
22823SOL    HW169910   7.095   5.806   4.660
22823SOL    HW269911   7.181   5.890   4.550
22824SOL     OW69912   5.625   6.663   4.024
22824SOL    HW169913   5.724   6.652   4.015
22824SOL    HW269914   5.585   6.577   4.056
22825SOL     OW69915   6.461   7.232   4.061
22825SOL    HW169916   6.384   7.197   4.007
22825SOL    HW269917   6.429   7.303   4.123
22826SOL     OW69918   5.816   6.214   5.699
22826SOL    HW169919   5.723   6.212   5.736
22826SOL    HW269920   5.817   6.175   5.607
22827SOL     OW69921   5.811   5.861   6.582
22827SOL    HW169922   5.846   5.844   6.674
22827SOL    HW269923   5.723   5.816   6.570
22828SOL     OW69924   5.605   5.954   6.233
22828SOL    HW169925   5.523   5.997   6.272
22828SOL    HW269926   5.577   5.881   6.170
22829SOL     OW69927   6.155   6.861   6.751
22829SOL    HW169928   6.062   6.854   6.714
22829SOL    HW269929   6.166   6.950   6.795
22830SOL     OW69930   7.141   7.097   6.289
22830SOL    HW169931   7.084   7.081   6.370
22830SOL    HW269932   7.082   7.107   6.209
22831SOL     OW69933   6.721   6.289   6.303
22831SOL    HW169934   6.778   6.367   6.278
22831SOL    HW269935   6.661   6.315   6.379
22832SOL     OW69936   7.341   6.193   5.817
22832SOL    HW169937   7.329   6.180   5.718
22832SOL    HW269938   7.311   6.112   5.866
22833SOL     OW69939   6.354   6.730   6.609
22833SOL    HW169940   6.276   6.747   6.669
22833SOL    HW269941   6.388   6.817   6.573
22834SOL     OW69942   6.436   6.384   7.409
22834SOL    HW169943   6.432   6.460   7.474
22834SOL    HW269944   6.458   6.420   7.318
22835SOL     OW69945   6.271   6.598   6.251
22835SOL    HW169946   6.340   6.582   6.321
22835SOL    HW269947   6.198   6.655   6.289
22836SOL     OW69948   6.272   6.747   7.389
22836SOL    HW169949   6.332   6.826   7.403
22836SOL    HW269950   6.186   6.778   7.348
22837SOL     OW69951   5.921   7.021   6.647
22837SOL    HW169952   5.843   6.990   6.594
22837SOL    HW269953   5.979   7.079   6.590
22838SOL     OW69954   7.046   7.091   6.925
22838SOL    HW169955   7.070   7.185   6.951
22838SOL    HW269956   7.030   7.037   7.007
22839SOL     OW69957   6.024   5.978   7.085
22839SOL    HW169958   6.106   5.922   7.094
22839SOL    HW269959   5.943   5.920   7.089
22840SOL     OW69960   7.189   6.033   6.323
22840SOL    HW169961   7.115   6.079   6.273
22840SOL    HW269962   7.240   6.101   6.376
22841SOL     OW69963   5.817   7.299   6.069
22841SOL    HW169964   5.851   7.376   6.123
22841SOL    HW269965   5.861   7.299   5.979
22842SOL     OW69966   6.713   6.927   7.276
22842SOL    HW169967   6.760   6.927   7.364
22842SOL    HW269968   6.665   6.840   7.265
22843SOL     OW69969   5.816   7.020   6.124
22843SOL    HW169970   5.790   7.116   6.124
22843SOL    HW269971   5.745   6.966   6.169
22844SOL     OW69972   5.826   6.677   6.472
22844SOL    HW169973   5.840   6.593   6.524
22844SOL    HW269974   5.771   6.741   6.527
22845SOL     OW69975   6.206   7.372   7.025
22845SOL    HW169976   6.114   7.355   7.060
22845SOL    HW269977   6.234   7.464   7.051
22846SOL     OW69978   6.192   6.550   5.709
22846SOL    HW169979   6.199   6.634   5.655
22846SOL    HW269980   6.238   6.563   5.797
22847SOL     OW69981   7.180   5.700   7.066
22847SOL    HW169982   7.162   5.767   6.994
22847SOL    HW269983   7.177   5.746   7.155
22848SOL     OW69984   5.708   6.229   6.149
22848SOL    HW169985   5.663   6.141   6.166
22848SOL    HW269986   5.707   6.283   6.233
22849SOL     OW69987   7.428   7.353   5.945
22849SOL    HW169988   7.482   7.324   6.025
22849SOL    HW269989   7.458   7.443   5.916
22850SOL     OW69990   5.613   7.182   5.703
22850SOL    HW169991   5.594   7.086   5.724
22850SOL    HW269992   5.580   7.240   5.778
22851SOL     OW69993   7.275   6.508   6.198
22851SOL    HW169994   7.370   6.479   6.206
22851SOL    HW269995   7.267   6.573   6.123
22852SOL     OW69996   7.227   6.694   6.018
22852SOL    HW169997   7.313   6.696   5.966
22852SOL    HW269998   7.241   6.741   6.106
22853SOL     OW69999   5.699   6.323   7.183
22853SOL    HW170000   5.787   6.310   7.228
22853SOL    HW270001   5.686   6.420   7.161
22854SOL     OW70002   6.199   6.951   6.312
22854SOL    HW170003   6.150   6.864   6.321
22854SOL    HW270004   6.176   6.994   6.225
22855SOL     OW70005   6.879   6.814   7.009
22855SOL    HW170006   6.916   6.741   6.951
22855SOL    HW270007   6.931   6.819   7.094
22856SOL     OW70008   6.395   5.590   6.088
22856SOL    HW170009   6.435   5.681   6.079
22856SOL    HW270010   6.295   5.598   6.094
22857SOL     OW70011   5.783   6.562   6.850
22857SOL    HW170012   5.872   6.517   6.836
22857SOL    HW270013   5.710   6.497   6.831
22858SOL     OW70014   7.111   6.585   5.776
22858SOL    HW170015   7.048   6.509   5.789
22858SOL    HW270016   7.159   6.603   5.862
22859SOL     OW70017   6.773   7.378   7.202
22859SOL    HW170018   6.797   7.438   7.126
22859SOL    HW270019   6.780   7.283   7.172
22860SOL     OW70020   5.903   5.837   7.387
22860SOL    HW170021   5.974   5.908   7.393
22860SOL    HW270022   5.815   5.876   7.415
22861SOL     OW70023   7.052   7.003   6.539
22861SOL    HW170024   6.993   7.009   6.619
22861SOL    HW270025   7.037   6.915   6.493
22862SOL     OW70026   7.253   7.300   6.158
22862SOL    HW170027   7.212   7.277   6.070
22862SOL    HW270028   7.235   7.226   6.223
22863SOL     OW70029   6.184   6.315   5.856
22863SOL    HW170030   6.208   6.384   5.788
22863SOL    HW270031   6.106   6.348   5.910
22864SOL     OW70032   6.867   5.931   6.530
22864SOL    HW170033   6.781   5.881   6.517
22864SOL    HW270034   6.929   5.877   6.586
22865SOL     OW70035   7.162   7.248   5.893
22865SOL    HW170036   7.251   7.294   5.896
22865SOL    HW270037   7.141   7.224   5.798
22866SOL     OW70038   6.393   6.191   7.051
22866SOL    HW170039   6.346   6.188   7.140
22866SOL    HW270040   6.342   6.136   6.985
22867SOL     OW70041   6.980   6.055   7.260
22867SOL    HW170042   6.960   6.098   7.348
22867SOL    HW270043   7.058   5.993   7.269
22868SOL     OW70044   6.559   6.476   7.158
22868SOL    HW170045   6.605   6.392   7.129
22868SOL    HW270046   6.503   6.510   7.083
22869SOL     OW70047   6.577   5.996   6.828
22869SOL    HW170048   6.500   6.030   6.882
22869SOL    HW270049   6.543   5.945   6.749
22870SOL     OW70050   6.627   6.287   6.015
22870SOL    HW170051   6.653   6.283   6.111
22870SOL    HW270052   6.542   6.236   6.001
22871SOL     OW70053   5.662   6.397   6.375
22871SOL    HW170054   5.761   6.385   6.384
22871SOL    HW270055   5.638   6.492   6.396
22872SOL     OW70056   5.716   7.407   7.157
22872SOL    HW170057   5.706   7.392   7.256
22872SOL    HW270058   5.630   7.443   7.121
22873SOL     OW70059   6.451   5.934   5.781
22873SOL    HW170060   6.510   5.997   5.732
22873SOL    HW270061   6.470   5.840   5.752
22874SOL     OW70062   7.305   6.171   7.417
22874SOL    HW170063   7.279   6.260   7.381
22874SOL    HW270064   7.303   6.103   7.344
22875SOL     OW70065   6.948   6.730   6.131
22875SOL    HW170066   7.031   6.701   6.083
22875SOL    HW270067   6.899   6.797   6.075
22876SOL     OW70068   6.136   5.782   6.471
22876SOL    HW170069   6.131   5.777   6.571
22876SOL    HW270070   6.138   5.878   6.442
22877SOL     OW70071   6.594   7.042   6.063
22877SOL    HW170072   6.548   7.114   6.011
22877SOL    HW270073   6.590   7.062   6.161
22878SOL     OW70074   5.937   7.387   6.439
22878SOL    HW170075   5.987   7.301   6.445
22878SOL    HW270076   6.002   7.464   6.436
22879SOL     OW70077   7.381   6.652   6.459
22879SOL    HW170078   7.319   6.637   6.383
22879SOL    HW270079   7.329   6.663   6.544
22880SOL     OW70080   6.813   7.136   7.092
22880SOL    HW170081   6.819   7.059   7.156
22880SOL    HW270082   6.761   7.110   7.012
22881SOL     OW70083   5.907   6.529   5.828
22881SOL    HW170084   5.989   6.568   5.786
22881SOL    HW270085   5.880   6.447   5.779
22882SOL     OW70086   7.044   6.321   6.314
22882SOL    HW170087   7.039   6.256   6.389
22882SOL    HW270088   7.124   6.380   6.327
22883SOL     OW70089   6.047   6.852   7.313
22883SOL    HW170090   5.997   6.853   7.227
22883SOL    HW270091   5.984   6.834   7.389
22884SOL     OW70092   6.697   7.362   5.823
22884SOL    HW170093   6.637   7.300   5.873
22884SOL    HW270094   6.728   7.318   5.738
22885SOL     OW70095   5.788   5.871   7.084
22885SOL    HW170096   5.708   5.931   7.071
22885SOL    HW270097   5.778   5.822   7.170
22886SOL     OW70098   7.218   6.963   5.667
22886SOL    HW170099   7.186   7.057   5.657
22886SOL    HW270100   7.142   6.900   5.655
22887SOL     OW70101   6.050   7.329   5.909
22887SOL    HW170102   6.083   7.368   5.995
22887SOL    HW270103   6.126   7.322   5.844
22888SOL     OW70104   6.986   5.693   6.012
22888SOL    HW170105   6.962   5.656   5.922
22888SOL    HW270106   7.085   5.709   6.016
22889SOL     OW70107   5.835   7.371   6.827
22889SOL    HW170108   5.892   7.306   6.877
22889SOL    HW270109   5.819   7.338   6.734
22890SOL     OW70110   6.526   7.284   6.490
22890SOL    HW170111   6.606   7.227   6.511
22890SOL    HW270112   6.477   7.244   6.413
22891SOL     OW70113   5.968   6.286   6.066
22891SOL    HW170114   6.013   6.196   6.063
22891SOL    HW270115   5.874   6.275   6.099
22892SOL     OW70116   7.133   5.808   7.315
22892SOL    HW170117   7.128   5.845   7.407
22892SOL    HW270118   7.061   5.739   7.303
22893SOL     OW70119   6.200   5.708   5.703
22893SOL    HW170120   6.298   5.686   5.710
22893SOL    HW270121   6.169   5.691   5.610
22894SOL     OW70122   6.367   5.850   7.335
22894SOL    HW170123   6.434   5.789   7.378
22894SOL    HW270124   6.294   5.869   7.400
22895SOL     OW70125   6.474   7.100   6.781
22895SOL    HW170126   6.451   7.075   6.687
22895SOL    HW270127   6.535   7.031   6.820
22896SOL     OW70128   6.937   6.176   7.019
22896SOL    HW170129   6.965   6.133   7.104
22896SOL    HW270130   6.962   6.272   7.020
22897SOL     OW70131   6.389   6.988   6.510
22897SOL    HW170132   6.479   7.002   6.468
22897SOL    HW270133   6.318   6.990   6.439
22898SOL     OW70134   6.508   6.089   6.485
22898SOL    HW170135   6.483   6.080   6.389
22898SOL    HW270136   6.556   6.007   6.516
22899SOL     OW70137   6.125   5.650   6.098
22899SOL    HW170138   6.044   5.651   6.156
22899SOL    HW270139   6.128   5.733   6.043
22900SOL     OW70140   7.020   6.774   5.627
22900SOL    HW170141   7.052   6.698   5.684
22900SOL    HW270142   6.928   6.801   5.657
22901SOL     OW70143   5.883   5.621   5.757
22901SOL    HW170144   5.932   5.705   5.736
22901SOL    HW270145   5.945   5.556   5.802
22902SOL     OW70146   6.521   5.822   6.066
22902SOL    HW170147   6.473   5.863   5.988
22902SOL    HW270148   6.620   5.820   6.047
22903SOL     OW70149   6.662   6.269   7.050
22903SOL    HW170150   6.582   6.208   7.053
22903SOL    HW270151   6.743   6.216   7.026
22904SOL     OW70152   6.813   7.156   6.379
22904SOL    HW170153   6.834   7.230   6.314
22904SOL    HW270154   6.881   7.156   6.452
22905SOL     OW70155   6.045   6.738   6.327
22905SOL    HW170156   5.974   6.711   6.392
22905SOL    HW270157   6.019   6.710   6.234
22906SOL     OW70158   6.857   7.383   6.177
22906SOL    HW170159   6.901   7.447   6.113
22906SOL    HW270160   6.807   7.435   6.247
22907SOL     OW70161   6.618   6.135   5.602
22907SOL    HW170162   6.577   6.217   5.563
22907SOL    HW270163   6.682   6.161   5.675
22908SOL     OW70164   5.664   6.142   6.972
22908SOL    HW170165   5.756   6.141   6.931
22908SOL    HW270166   5.658   6.216   7.039
22909SOL     OW70167   6.147   5.808   6.733
22909SOL    HW170168   6.185   5.724   6.770
22909SOL    HW270169   6.059   5.827   6.777
22910SOL     OW70170   6.452   6.040   6.228
22910SOL    HW170171   6.420   6.112   6.166
22910SOL    HW270172   6.476   5.959   6.175
22911SOL     OW70173   6.603   5.625   6.339
22911SOL    HW170174   6.531   5.630   6.270
22911SOL    HW270175   6.579   5.556   6.408
22912SOL     OW70176   7.015   6.759   6.453
22912SOL    HW170177   6.960   6.675   6.446
22912SOL    HW270178   7.041   6.788   6.361
22913SOL     OW70179   7.052   6.176   6.578
22913SOL    HW170180   7.022   6.081   6.585
22913SOL    HW270181   7.125   6.192   6.644
22914SOL     OW70182   7.443   6.419   5.963
22914SOL    HW170183   7.485   6.355   6.027
22914SOL    HW270184   7.405   6.368   5.885
22915SOL     OW70185   6.074   6.971   5.760
22915SOL    HW170186   5.987   6.956   5.807
22915SOL    HW270187   6.057   6.997   5.665
22916SOL     OW70188   7.250   6.866   6.243
22916SOL    HW170189   7.349   6.874   6.257
22916SOL    HW270190   7.205   6.950   6.274
22917SOL     OW70191   6.976   6.161   5.664
22917SOL    HW170192   6.922   6.140   5.745
22917SOL    HW270193   7.067   6.120   5.673
22918SOL     OW70194   6.113   5.842   5.914
22918SOL    HW170195   6.140   5.783   5.839
22918SOL    HW270196   6.113   5.937   5.883
22919SOL     OW70197   7.340   6.809   7.174
22919SOL    HW170198   7.431   6.770   7.161
22919SOL    HW270199   7.348   6.905   7.198
22920SOL     OW70200   6.650   6.933   6.926
22920SOL    HW170201   6.570   6.910   6.981
22920SOL    HW270202   6.733   6.907   6.975
22921SOL     OW70203   7.178   7.215   7.211
22921SOL    HW170204   7.205   7.249   7.121
22921SOL    HW270205   7.257   7.177   7.257
22922SOL     OW70206   6.697   6.781   6.686
22922SOL    HW170207   6.657   6.825   6.767
22922SOL    HW270208   6.656   6.818   6.603
22923SOL     OW70209   7.224   6.685   6.665
22923SOL    HW170210   7.229   6.766   6.724
22923SOL    HW270211   7.138   6.687   6.614
22924SOL     OW70212   6.501   5.675   6.988
22924SOL    HW170213   6.526   5.655   6.893
22924SOL    HW270214   6.573   5.731   7.030
22925SOL     OW70215   6.566   6.702   7.305
22925SOL    HW170216   6.467   6.708   7.315
22925SOL    HW270217   6.589   6.622   7.249
22926SOL     OW70218   6.291   6.636   5.954
22926SOL    HW170219   6.277   6.643   6.053
22926SOL    HW270220   6.375   6.585   5.936
22927SOL     OW70221   5.996   6.399   6.837
22927SOL    HW170222   6.082   6.411   6.887
22927SOL    HW270223   5.954   6.312   6.864
22928SOL     OW70224   6.860   5.972   6.848
22928SOL    HW170225   6.881   6.046   6.912
22928SOL    HW270226   6.771   5.989   6.805
22929SOL     OW70227   5.650   7.150   6.917
22929SOL    HW170228   5.604   7.232   6.883
22929SOL    HW270229   5.748   7.169   6.926
22930SOL     OW70230   5.953   6.686   6.087
22930SOL    HW170231   5.946   6.769   6.031
22930SOL    HW270232   5.957   6.606   6.027
22931SOL     OW70233   6.152   6.123   6.451
22931SOL    HW170234   6.164   6.189   6.377
22931SOL    HW270235   6.198   6.157   6.534
22932SOL     OW70236   6.838   6.934   5.974
22932SOL    HW170237   6.888   7.011   6.014
22932SOL    HW270238   6.743   6.936   6.006
22933SOL     OW70239   6.858   7.031   6.728
22933SOL    HW170240   6.905   7.044   6.815
22933SOL    HW270241   6.792   6.957   6.737
22934SOL     OW70242   7.168   6.225   6.058
22934SOL    HW170243   7.137   6.286   6.131
22934SOL    HW270244   7.218   6.277   5.989
22935SOL     OW70245   5.940   7.096   6.915
22935SOL    HW170246   5.919   7.052   6.828
22935SOL    HW270247   6.037   7.122   6.918
22936SOL     OW70248   5.988   6.337   7.184
22936SOL    HW170249   6.056   6.392   7.137
22936SOL    HW270250   6.028   6.249   7.211
22937SOL     OW70251   7.173   6.365   7.256
22937SOL    HW170252   7.081   6.403   7.251
22937SOL    HW270253   7.233   6.412   7.191
22938SOL     OW70254   6.599   5.691   7.356
22938SOL    HW170255   6.605   5.776   7.304
22938SOL    HW270256   6.631   5.615   7.299
22939SOL     OW70257   6.090   5.636   7.326
22939SOL    HW170258   6.048   5.579   7.256
22939SOL    HW270259   6.024   5.705   7.358
22940SOL     OW70260   6.159   6.456   6.615
22940SOL    HW170261   6.203   6.545   6.606
22940SOL    HW270262   6.096   6.456   6.692
22941SOL     OW70263   6.946   6.448   6.631
22941SOL    HW170264   6.871   6.448   6.565
22941SOL    HW270265   6.983   6.356   6.640
22942SOL     OW70266   6.795   6.111   5.861
22942SOL    HW170267   6.808   6.027   5.915
22942SOL    HW270268   6.766   6.185   5.921
22943SOL     OW70269   5.893   5.799   6.817
22943SOL    HW170270   5.870   5.836   6.907
22943SOL    HW270271   5.863   5.704   6.811
22944SOL     OW70272   5.623   6.896   6.868
22944SOL    HW170273   5.676   6.847   6.936
22944SOL    HW270274   5.645   6.994   6.873
22945SOL     OW70275   6.318   6.220   6.650
22945SOL    HW170276   6.377   6.194   6.574
22945SOL    HW270277   6.290   6.316   6.639
22946SOL     OW70278   7.314   6.521   7.440
22946SOL    HW170279   7.268   6.514   7.351
22946SOL    HW270280   7.252   6.565   7.506
22947SOL     OW70281   5.893   5.649   6.204
22947SOL    HW170282   5.882   5.743   6.237
22947SOL    HW270283   5.888   5.586   6.281
22948SOL     OW70284   7.208   5.953   5.960
22948SOL    HW170285   7.210   5.877   6.024
22948SOL    HW270286   7.160   6.030   6.000
22949SOL     OW70287   6.609   6.352   6.552
22949SOL    HW170288   6.624   6.373   6.648
22949SOL    HW270289   6.579   6.257   6.543
22950SOL     OW70290   6.566   7.159   7.286
22950SOL    HW170291   6.546   7.203   7.198
22950SOL    HW270292   6.605   7.068   7.270
22951SOL     OW70293   7.445   7.104   7.191
22951SOL    HW170294   7.459   7.131   7.096
22951SOL    HW270295   7.528   7.126   7.244
22952SOL     OW70296   5.936   6.484   7.390
22952SOL    HW170297   6.012   6.528   7.438
22952SOL    HW270298   5.971   6.437   7.308
22953SOL     OW70299   7.126   5.860   5.711
22953SOL    HW170300   7.065   5.785   5.734
22953SOL    HW270301   7.148   5.912   5.794
22954SOL     OW70302   6.889   6.424   5.628
22954SOL    HW170303   6.923   6.331   5.643
22954SOL    HW270304   6.907   6.451   5.533
22955SOL     OW70305   6.654   6.919   6.435
22955SOL    HW170306   6.661   6.835   6.380
22955SOL    HW270307   6.716   6.988   6.399
22956SOL     OW70308   5.905   6.396   6.535
22956SOL    HW170309   5.998   6.432   6.540
22956SOL    HW270310   5.899   6.311   6.587
22957SOL     OW70311   5.925   6.095   6.592
22957SOL    HW170312   5.873   6.012   6.575
22957SOL    HW270313   6.002   6.100   6.528
22958SOL     OW70314   6.724   5.966   7.264
22958SOL    HW170315   6.679   6.029   7.328
22958SOL    HW270316   6.817   5.997   7.247
22959SOL     OW70317   6.746   5.793   7.063
22959SOL    HW170318   6.746   5.857   7.140
22959SOL    HW270319   6.774   5.841   6.980
22960SOL     OW70320   5.594   6.912   5.786
22960SOL    HW170321   5.501   6.933   5.755
22960SOL    HW270322   5.604   6.813   5.799
22961SOL     OW70323   5.674   7.387   6.513
22961SOL    HW170324   5.632   7.301   6.486
22961SOL    HW270325   5.768   7.390   6.479
22962SOL     OW70326   6.090   7.154   6.496
22962SOL    HW170327   6.156   7.228   6.505
22962SOL    HW270328   6.134   7.075   6.454
22963SOL     OW70329   6.588   6.382   6.824
22963SOL    HW170330   6.629   6.350   6.910
22963SOL    HW270331   6.492   6.355   6.821
22964SOL     OW70332   5.626   6.130   6.700
22964SOL    HW170333   5.711   6.097   6.659
22964SOL    HW270334   5.639   6.145   6.798
22965SOL     OW70335   5.775   6.106   7.308
22965SOL    HW170336   5.834   6.066   7.238
22965SOL    HW270337   5.717   6.177   7.267
22966SOL     OW70338   6.955   6.536   7.246
22966SOL    HW170339   6.994   6.625   7.266
22966SOL    HW270340   6.965   6.516   7.149
22967SOL     OW70341   6.401   6.158   5.911
22967SOL    HW170342   6.408   6.069   5.865
22967SOL    HW270343   6.307   6.192   5.903
22968SOL     OW70344   7.243   6.190   6.792
22968SOL    HW170345   7.205   6.121   6.854
22968SOL    HW270346   7.325   6.154   6.748
22969SOL     OW70347   5.838   7.150   7.330
22969SOL    HW170348   5.808   7.207   7.406
22969SOL    HW270349   5.831   7.053   7.356
22970SOL     OW70350   6.257   6.050   6.855
22970SOL    HW170351   6.223   5.961   6.825
22970SOL    HW270352   6.283   6.104   6.775
22971SOL     OW70353   6.516   7.264   7.051
22971SOL    HW170354   6.492   7.246   6.956
22971SOL    HW270355   6.546   7.358   7.061
22972SOL     OW70356   6.059   6.086   5.777
22972SOL    HW170357   6.120   6.166   5.781
22972SOL    HW270358   5.964   6.117   5.784
22973SOL     OW70359   5.745   6.723   7.052
22973SOL    HW170360   5.767   6.662   7.128
22973SOL    HW270361   5.755   6.674   6.966
22974SOL     OW70362   6.933   6.645   6.820
22974SOL    HW170363   6.957   6.582   6.746
22974SOL    HW270364   6.843   6.685   6.802
22975SOL     OW70365   6.888   6.441   5.895
22975SOL    HW170366   6.802   6.410   5.937
22975SOL    HW270367   6.884   6.427   5.796
22976SOL     OW70368   7.345   7.333   6.740
22976SOL    HW170369   7.406   7.363   6.667
22976SOL    HW270370   7.307   7.244   6.718
22977SOL     OW70371   6.838   7.317   6.714
22977SOL    HW170372   6.922   7.322   6.660
22977SOL    HW270373   6.815   7.221   6.732
22978SOL     OW70374   5.669   6.844   6.608
22978SOL    HW170375   5.664   6.843   6.708
22978SOL    HW270376   5.586   6.803   6.570
22979SOL     OW70377   6.274   7.248   7.302
22979SOL    HW170378   6.218   7.329   7.311
22979SOL    HW270379   6.326   7.252   7.216
22980SOL     OW70380   7.312   5.721   6.109
22980SOL    HW170381   7.385   5.704   6.042
22980SOL    HW270382   7.281   5.634   6.147
22981SOL     OW70383   6.974   7.159   6.063
22981SOL    HW170384   7.041   7.171   5.989
22981SOL    HW270385   6.934   7.248   6.086
22982SOL     OW70386   5.716   7.380   7.437
22982SOL    HW170387   5.675   7.306   7.490
22982SOL    HW270388   5.780   7.431   7.495
22983SOL     OW70389   6.866   6.513   6.258
22983SOL    HW170390   6.926   6.432   6.260
22983SOL    HW270391   6.906   6.582   6.198
22984SOL     OW70392   6.416   6.859   7.008
22984SOL    HW170393   6.411   6.892   7.103
22984SOL    HW270394   6.330   6.878   6.962
22985SOL     OW70395   6.258   7.202   5.740
22985SOL    HW170396   6.267   7.212   5.641
22985SOL    HW270397   6.218   7.113   5.761
22986SOL     OW70398   7.236   7.306   6.980
22986SOL    HW170399   7.289   7.316   6.896
22986SOL    HW270400   7.209   7.396   7.014
22987SOL     OW70401   7.427   5.761   6.549
22987SOL    HW170402   7.466   5.676   6.513
22987SOL    HW270403   7.329   5.763   6.530
22988SOL     OW70404   5.849   5.912   6.306
22988SOL    HW170405   5.770   5.963   6.272
22988SOL    HW270406   5.840   5.897   6.404
22989SOL     OW70407   6.780   7.198   5.617
22989SOL    HW170408   6.786   7.105   5.654
22989SOL    HW270409   6.721   7.198   5.537
22990SOL     OW70410   6.408   6.588   6.958
22990SOL    HW170411   6.448   6.587   6.866
22990SOL    HW270412   6.418   6.680   6.998
22991SOL     OW70413   6.502   6.496   5.877
22991SOL    HW170414   6.565   6.534   5.809
22991SOL    HW270415   6.542   6.413   5.916
22992SOL     OW70416   7.090   7.193   5.630
22992SOL    HW170417   6.998   7.230   5.637
22992SOL    HW270418   7.128   7.213   5.540
22993SOL     OW70419   5.958   6.874   7.076
22993SOL    HW170420   5.945   6.967   7.042
22993SOL    HW270421   5.874   6.822   7.063
22994SOL     OW70422   7.200   6.878   6.875
22994SOL    HW170423   7.260   6.881   6.955
22994SOL    HW270424   7.125   6.942   6.888
22995SOL     OW70425   6.625   6.684   6.282
22995SOL    HW170426   6.555   6.637   6.336
22995SOL    HW270427   6.684   6.616   6.239
22996SOL     OW70428   6.600   5.822   6.557
22996SOL    HW170429   6.592   5.786   6.464
22996SOL    HW270430   6.598   5.746   6.622
22997SOL     OW70431   6.176   7.073   6.077
22997SOL    HW170432   6.218   7.015   6.007
22997SOL    HW270433   6.132   7.152   6.033
22998SOL     OW70434   7.295   5.971   6.967
22998SOL    HW170435   7.368   6.040   6.971
22998SOL    HW270436   7.323   5.896   6.908
22999SOL     OW70437   5.841   6.934   5.876
22999SOL    HW170438   5.745   6.935   5.849
22999SOL    HW270439   5.853   6.987   5.960
23000SOL     OW70440   5.691   6.599   7.312
23000SOL    HW170441   5.614   6.566   7.366
23000SOL    HW270442   5.776   6.569   7.354
23001SOL     OW70443   6.258   5.789   7.075
23001SOL    HW170444   6.348   5.773   7.035
23001SOL    HW270445   6.266   5.794   7.174
23002SOL     OW70446   5.661   5.931   5.619
23002SOL    HW170447   5.569   5.903   5.590
23002SOL    HW270448   5.692   6.008   5.563
23003SOL     OW70449   7.026   6.442   6.984
23003SOL    HW170450   6.969   6.494   6.921
23003SOL    HW270451   7.122   6.454   6.960
23004SOL     OW70452   5.658   5.752   5.904
23004SOL    HW170453   5.641   5.835   5.850
23004SOL    HW270454   5.748   5.715   5.882
23005SOL     OW70455   6.769   6.921   5.705
23005SOL    HW170456   6.670   6.910   5.707
23005SOL    HW270457   6.803   6.936   5.798
23006SOL     OW70458   6.199   6.428   7.017
23006SOL    HW170459   6.255   6.509   7.000
23006SOL    HW270460   6.258   6.348   7.020
23007SOL     OW70461   7.079   7.353   6.545
23007SOL    HW170462   7.112   7.417   6.476
23007SOL    HW270463   7.145   7.347   6.620
23008SOL     OW70464   6.302   6.151   7.294
23008SOL    HW170465   6.321   6.216   7.368
23008SOL    HW270466   6.362   6.071   7.303
23009SOL     OW70467   7.036   6.806   7.219
23009SOL    HW170468   7.027   6.796   7.318
23009SOL    HW270469   7.132   6.799   7.193
23010SOL     OW70470   5.976   7.327   7.146
23010SOL    HW170471   5.885   7.368   7.144
23010SOL    HW270472   5.969   7.233   7.178
23011SOL     OW70473   7.260   6.469   6.840
23011SOL    HW170474   7.233   6.380   6.803
23011SOL    HW270475   7.261   6.537   6.767
23012SOL     OW70476   6.811   5.911   6.035
23012SOL    HW170477   6.876   5.837   6.024
23012SOL    HW270478   6.831   5.961   6.119
23013SOL     OW70479   6.180   6.331   6.238
23013SOL    HW170480   6.230   6.416   6.219
23013SOL    HW270481   6.092   6.333   6.190
23014SOL     OW70482   7.363   5.928   7.228
23014SOL    HW170483   7.346   5.959   7.134
23014SOL    HW270484   7.279   5.891   7.266
23015SOL     OW70485   7.316   6.520   7.103
23015SOL    HW170486   7.354   6.611   7.118
23015SOL    HW270487   7.308   6.503   7.004
23016SOL     OW70488   6.445   6.960   5.602
23016SOL    HW170489   6.399   6.975   5.690
23016SOL    HW270490   6.489   7.045   5.572
23017SOL     OW70491   6.247   7.376   6.539
23017SOL    HW170492   6.201   7.464   6.526
23017SOL    HW270493   6.346   7.388   6.532
23018SOL     OW70494   6.445   6.542   6.447
23018SOL    HW170495   6.499   6.473   6.495
23018SOL    HW270496   6.413   6.611   6.513
23019SOL     OW70497   6.669   6.570   5.673
23019SOL    HW170498   6.646   6.623   5.591
23019SOL    HW270499   6.750   6.514   5.654
23020SOL     OW70500   7.447   7.155   6.437
23020SOL    HW170501   7.376   7.143   6.367
23020SOL    HW270502   7.448   7.076   6.497
23021SOL     OW70503   5.807   6.900   7.430
23021SOL    HW170504   5.742   6.827   7.409
23021SOL    HW270505   5.811   6.914   7.528
23022SOL     OW70506   5.665   6.826   6.239
23022SOL    HW170507   5.664   6.779   6.327
23022SOL    HW270508   5.747   6.798   6.188
23023SOL     OW70509   6.258   6.977   7.210
23023SOL    HW170510   6.180   6.927   7.248
23023SOL    HW270511   6.255   7.072   7.241
23024SOL     OW70512   7.410   5.778   6.813
23024SOL    HW170513   7.406   5.688   6.857
23024SOL    HW270514   7.413   5.767   6.714
23025SOL     OW70515   6.014   6.010   6.106
23025SOL    HW170516   6.044   5.938   6.044
23025SOL    HW270517   5.975   5.970   6.189
23026SOL     OW70518   7.291   7.073   6.690
23026SOL    HW170519   7.198   7.048   6.663
23026SOL    HW270520   7.317   7.023   6.772
23027SOL     OW70521   5.903   6.133   6.866
23027SOL    HW170522   5.941   6.074   6.938
23027SOL    HW270523   5.943   6.107   6.778
23028SOL     OW70524   6.398   7.172   6.273
23028SOL    HW170525   6.430   7.182   6.179
23028SOL    HW270526   6.319   7.110   6.275
23029SOL     OW70527   7.010   5.800   6.698
23029SOL    HW170528   7.062   5.735   6.753
23029SOL    HW270529   6.961   5.863   6.759
23030SOL     OW70530   6.587   5.620   6.740
23030SOL    HW170531   6.524   5.548   6.709
23030SOL    HW270532   6.680   5.584   6.740
23031SOL     OW70533   6.356   6.916   5.887
23031SOL    HW170534   6.310   6.829   5.904
23031SOL    HW270535   6.447   6.913   5.928
23032SOL     OW70536   6.204   7.153   6.870
23032SOL    HW170537   6.199   7.235   6.927
23032SOL    HW270538   6.293   7.150   6.825
23033SOL     OW70539   6.938   5.638   5.754
23033SOL    HW170540   6.973   5.597   5.670
23033SOL    HW270541   6.848   5.600   5.774
23034SOL     OW70542   6.886   6.039   6.277
23034SOL    HW170543   6.827   6.119   6.281
23034SOL    HW270544   6.901   6.004   6.370
23035SOL     OW70545   7.179   5.807   6.468
23035SOL    HW170546   7.095   5.806   6.522
23035SOL    HW270547   7.181   5.890   6.412
23036SOL     OW70548   5.625   6.663   5.886
23036SOL    HW170549   5.724   6.652   5.877
23036SOL    HW270550   5.585   6.577   5.918
23037SOL     OW70551   6.461   7.232   5.923
23037SOL    HW170552   6.384   7.197   5.869
23037SOL    HW270553   6.429   7.303   5.985
23038SOL     OW70554   5.816   6.214   7.561
23038SOL    HW170555   5.723   6.212   7.598
23038SOL    HW270556   5.817   6.175   7.469
23039SOL     OW70557   5.811   5.861   8.444
23039SOL    HW170558   5.846   5.844   8.536
23039SOL    HW270559   5.723   5.816   8.432
23040SOL     OW70560   5.605   5.954   8.095
23040SOL    HW170561   5.523   5.997   8.134
23040SOL    HW270562   5.577   5.881   8.032
23041SOL     OW70563   6.155   6.861   8.613
23041SOL    HW170564   6.062   6.854   8.576
23041SOL    HW270565   6.166   6.950   8.657
23042SOL     OW70566   7.141   7.097   8.151
23042SOL    HW170567   7.084   7.081   8.232
23042SOL    HW270568   7.082   7.107   8.071
23043SOL     OW70569   6.721   6.289   8.165
23043SOL    HW170570   6.778   6.367   8.140
23043SOL    HW270571   6.661   6.315   8.241
23044SOL     OW70572   7.341   6.193   7.679
23044SOL    HW170573   7.329   6.180   7.580
23044SOL    HW270574   7.311   6.112   7.728
23045SOL     OW70575   6.354   6.730   8.471
23045SOL    HW170576   6.276   6.747   8.531
23045SOL    HW270577   6.388   6.817   8.435
23046SOL     OW70578   6.436   6.384   9.271
23046SOL    HW170579   6.432   6.460   9.336
23046SOL    HW270580   6.458   6.420   9.180
23047SOL     OW70581   6.271   6.598   8.113
23047SOL    HW170582   6.340   6.582   8.183
23047SOL    HW270583   6.198   6.655   8.151
23048SOL     OW70584   6.272   6.747   9.251
23048SOL    HW170585   6.332   6.826   9.265
23048SOL    HW270586   6.186   6.778   9.210
23049SOL     OW70587   5.921   7.021   8.509
23049SOL    HW170588   5.843   6.990   8.456
23049SOL    HW270589   5.979   7.079   8.452
23050SOL     OW70590   7.046   7.091   8.787
23050SOL    HW170591   7.070   7.185   8.813
23050SOL    HW270592   7.030   7.037   8.869
23051SOL     OW70593   6.024   5.978   8.947
23051SOL    HW170594   6.106   5.922   8.956
23051SOL    HW270595   5.943   5.920   8.951
23052SOL     OW70596   7.189   6.033   8.185
23052SOL    HW170597   7.115   6.079   8.135
23052SOL    HW270598   7.240   6.101   8.238
23053SOL     OW70599   5.817   7.299   7.931
23053SOL    HW170600   5.851   7.376   7.985
23053SOL    HW270601   5.861   7.299   7.841
23054SOL     OW70602   6.713   6.927   9.138
23054SOL    HW170603   6.760   6.927   9.226
23054SOL    HW270604   6.665   6.840   9.127
23055SOL     OW70605   5.816   7.020   7.986
23055SOL    HW170606   5.790   7.116   7.986
23055SOL    HW270607   5.745   6.966   8.031
23056SOL     OW70608   5.826   6.677   8.334
23056SOL    HW170609   5.840   6.593   8.386
23056SOL    HW270610   5.771   6.741   8.389
23057SOL     OW70611   6.206   7.372   8.887
23057SOL    HW170612   6.114   7.355   8.922
23057SOL    HW270613   6.234   7.464   8.913
23058SOL     OW70614   6.192   6.550   7.571
23058SOL    HW170615   6.199   6.634   7.517
23058SOL    HW270616   6.238   6.563   7.659
23059SOL     OW70617   7.180   5.700   8.928
23059SOL    HW170618   7.162   5.767   8.856
23059SOL    HW270619   7.177   5.746   9.017
23060SOL     OW70620   5.708   6.229   8.011
23060SOL    HW170621   5.663   6.141   8.028
23060SOL    HW270622   5.707   6.283   8.095
23061SOL     OW70623   7.428   7.353   7.807
23061SOL    HW170624   7.482   7.324   7.887
23061SOL    HW270625   7.458   7.443   7.778
23062SOL     OW70626   5.613   7.182   7.565
23062SOL    HW170627   5.594   7.086   7.586
23062SOL    HW270628   5.580   7.240   7.640
23063SOL     OW70629   7.275   6.508   8.060
23063SOL    HW170630   7.370   6.479   8.068
23063SOL    HW270631   7.267   6.573   7.985
23064SOL     OW70632   7.227   6.694   7.880
23064SOL    HW170633   7.313   6.696   7.828
23064SOL    HW270634   7.241   6.741   7.968
23065SOL     OW70635   5.699   6.323   9.045
23065SOL    HW170636   5.787   6.310   9.090
23065SOL    HW270637   5.686   6.420   9.023
23066SOL     OW70638   6.199   6.951   8.174
23066SOL    HW170639   6.150   6.864   8.183
23066SOL    HW270640   6.176   6.994   8.087
23067SOL     OW70641   6.879   6.814   8.871
23067SOL    HW170642   6.916   6.741   8.813
23067SOL    HW270643   6.931   6.819   8.956
23068SOL     OW70644   6.395   5.590   7.950
23068SOL    HW170645   6.435   5.681   7.941
23068SOL    HW270646   6.295   5.598   7.956
23069SOL     OW70647   5.783   6.562   8.712
23069SOL    HW170648   5.872   6.517   8.698
23069SOL    HW270649   5.710   6.497   8.693
23070SOL     OW70650   7.111   6.585   7.638
23070SOL    HW170651   7.048   6.509   7.651
23070SOL    HW270652   7.159   6.603   7.724
23071SOL     OW70653   6.773   7.378   9.064
23071SOL    HW170654   6.797   7.438   8.988
23071SOL    HW270655   6.780   7.283   9.034
23072SOL     OW70656   5.903   5.837   9.249
23072SOL    HW170657   5.974   5.908   9.255
23072SOL    HW270658   5.815   5.876   9.277
23073SOL     OW70659   7.052   7.003   8.401
23073SOL    HW170660   6.993   7.009   8.481
23073SOL    HW270661   7.037   6.915   8.355
23074SOL     OW70662   7.253   7.300   8.020
23074SOL    HW170663   7.212   7.277   7.932
23074SOL    HW270664   7.235   7.226   8.085
23075SOL     OW70665   6.184   6.315   7.718
23075SOL    HW170666   6.208   6.384   7.650
23075SOL    HW270667   6.106   6.348   7.772
23076SOL     OW70668   6.867   5.931   8.392
23076SOL    HW170669   6.781   5.881   8.379
23076SOL    HW270670   6.929   5.877   8.448
23077SOL     OW70671   7.162   7.248   7.755
23077SOL    HW170672   7.251   7.294   7.758
23077SOL    HW270673   7.141   7.224   7.660
23078SOL     OW70674   6.393   6.191   8.913
23078SOL    HW170675   6.346   6.188   9.002
23078SOL    HW270676   6.342   6.136   8.847
23079SOL     OW70677   6.980   6.055   9.122
23079SOL    HW170678   6.960   6.098   9.210
23079SOL    HW270679   7.058   5.993   9.131
23080SOL     OW70680   6.559   6.476   9.020
23080SOL    HW170681   6.605   6.392   8.991
23080SOL    HW270682   6.503   6.510   8.945
23081SOL     OW70683   6.577   5.996   8.690
23081SOL    HW170684   6.500   6.030   8.744
23081SOL    HW270685   6.543   5.945   8.611
23082SOL     OW70686   6.627   6.287   7.877
23082SOL    HW170687   6.653   6.283   7.973
23082SOL    HW270688   6.542   6.236   7.863
23083SOL     OW70689   5.662   6.397   8.237
23083SOL    HW170690   5.761   6.385   8.246
23083SOL    HW270691   5.638   6.492   8.258
23084SOL     OW70692   5.716   7.407   9.019
23084SOL    HW170693   5.706   7.392   9.118
23084SOL    HW270694   5.630   7.443   8.983
23085SOL     OW70695   6.451   5.934   7.643
23085SOL    HW170696   6.510   5.997   7.594
23085SOL    HW270697   6.470   5.840   7.614
23086SOL     OW70698   7.305   6.171   9.279
23086SOL    HW170699   7.279   6.260   9.243
23086SOL    HW270700   7.303   6.103   9.206
23087SOL     OW70701   6.948   6.730   7.993
23087SOL    HW170702   7.031   6.701   7.945
23087SOL    HW270703   6.899   6.797   7.937
23088SOL     OW70704   6.136   5.782   8.333
23088SOL    HW170705   6.131   5.777   8.433
23088SOL    HW270706   6.138   5.878   8.304
23089SOL     OW70707   6.594   7.042   7.925
23089SOL    HW170708   6.548   7.114   7.873
23089SOL    HW270709   6.590   7.062   8.023
23090SOL     OW70710   5.937   7.387   8.301
23090SOL    HW170711   5.987   7.301   8.307
23090SOL    HW270712   6.002   7.464   8.298
23091SOL     OW70713   7.381   6.652   8.321
23091SOL    HW170714   7.319   6.637   8.245
23091SOL    HW270715   7.329   6.663   8.406
23092SOL     OW70716   6.813   7.136   8.954
23092SOL    HW170717   6.819   7.059   9.018
23092SOL    HW270718   6.761   7.110   8.874
23093SOL     OW70719   5.907   6.529   7.690
23093SOL    HW170720   5.989   6.568   7.648
23093SOL    HW270721   5.880   6.447   7.641
23094SOL     OW70722   7.044   6.321   8.176
23094SOL    HW170723   7.039   6.256   8.251
23094SOL    HW270724   7.124   6.380   8.189
23095SOL     OW70725   6.047   6.852   9.175
23095SOL    HW170726   5.997   6.853   9.089
23095SOL    HW270727   5.984   6.834   9.251
23096SOL     OW70728   6.697   7.362   7.685
23096SOL    HW170729   6.637   7.300   7.735
23096SOL    HW270730   6.728   7.318   7.600
23097SOL     OW70731   5.788   5.871   8.946
23097SOL    HW170732   5.708   5.931   8.933
23097SOL    HW270733   5.778   5.822   9.032
23098SOL     OW70734   7.218   6.963   7.529
23098SOL    HW170735   7.186   7.057   7.519
23098SOL    HW270736   7.142   6.900   7.517
23099SOL     OW70737   6.050   7.329   7.771
23099SOL    HW170738   6.083   7.368   7.857
23099SOL    HW270739   6.126   7.322   7.706
23100SOL     OW70740   6.986   5.693   7.874
23100SOL    HW170741   6.962   5.656   7.784
23100SOL    HW270742   7.085   5.709   7.878
23101SOL     OW70743   5.835   7.371   8.689
23101SOL    HW170744   5.892   7.306   8.739
23101SOL    HW270745   5.819   7.338   8.596
23102SOL     OW70746   6.526   7.284   8.352
23102SOL    HW170747   6.606   7.227   8.373
23102SOL    HW270748   6.477   7.244   8.275
23103SOL     OW70749   5.968   6.286   7.928
23103SOL    HW170750   6.013   6.196   7.925
23103SOL    HW270751   5.874   6.275   7.961
23104SOL     OW70752   7.133   5.808   9.177
23104SOL    HW170753   7.128   5.845   9.269
23104SOL    HW270754   7.061   5.739   9.165
23105SOL     OW70755   6.200   5.708   7.565
23105SOL    HW170756   6.298   5.686   7.572
23105SOL    HW270757   6.169   5.691   7.472
23106SOL     OW70758   6.367   5.850   9.197
23106SOL    HW170759   6.434   5.789   9.240
23106SOL    HW270760   6.294   5.869   9.262
23107SOL     OW70761   6.474   7.100   8.643
23107SOL    HW170762   6.451   7.075   8.549
23107SOL    HW270763   6.535   7.031   8.682
23108SOL     OW70764   6.937   6.176   8.881
23108SOL    HW170765   6.965   6.133   8.966
23108SOL    HW270766   6.962   6.272   8.882
23109SOL     OW70767   6.389   6.988   8.372
23109SOL    HW170768   6.479   7.002   8.330
23109SOL    HW270769   6.318   6.990   8.301
23110SOL     OW70770   6.508   6.089   8.347
23110SOL    HW170771   6.483   6.080   8.251
23110SOL    HW270772   6.556   6.007   8.378
23111SOL     OW70773   6.125   5.650   7.960
23111SOL    HW170774   6.044   5.651   8.018
23111SOL    HW270775   6.128   5.733   7.905
23112SOL     OW70776   7.020   6.774   7.489
23112SOL    HW170777   7.052   6.698   7.546
23112SOL    HW270778   6.928   6.801   7.519
23113SOL     OW70779   5.883   5.621   7.619
23113SOL    HW170780   5.932   5.705   7.598
23113SOL    HW270781   5.945   5.556   7.664
23114SOL     OW70782   6.521   5.822   7.928
23114SOL    HW170783   6.473   5.863   7.850
23114SOL    HW270784   6.620   5.820   7.909
23115SOL     OW70785   6.662   6.269   8.912
23115SOL    HW170786   6.582   6.208   8.915
23115SOL    HW270787   6.743   6.216   8.888
23116SOL     OW70788   6.813   7.156   8.241
23116SOL    HW170789   6.834   7.230   8.176
23116SOL    HW270790   6.881   7.156   8.314
23117SOL     OW70791   6.045   6.738   8.189
23117SOL    HW170792   5.974   6.711   8.254
23117SOL    HW270793   6.019   6.710   8.096
23118SOL     OW70794   6.857   7.383   8.039
23118SOL    HW170795   6.901   7.447   7.975
23118SOL    HW270796   6.807   7.435   8.109
23119SOL     OW70797   6.618   6.135   7.464
23119SOL    HW170798   6.577   6.217   7.425
23119SOL    HW270799   6.682   6.161   7.537
23120SOL     OW70800   5.664   6.142   8.834
23120SOL    HW170801   5.756   6.141   8.793
23120SOL    HW270802   5.658   6.216   8.901
23121SOL     OW70803   6.147   5.808   8.595
23121SOL    HW170804   6.185   5.724   8.632
23121SOL    HW270805   6.059   5.827   8.639
23122SOL     OW70806   6.452   6.040   8.090
23122SOL    HW170807   6.420   6.112   8.028
23122SOL    HW270808   6.476   5.959   8.037
23123SOL     OW70809   6.603   5.625   8.201
23123SOL    HW170810   6.531   5.630   8.132
23123SOL    HW270811   6.579   5.556   8.270
23124SOL     OW70812   7.015   6.759   8.315
23124SOL    HW170813   6.960   6.675   8.308
23124SOL    HW270814   7.041   6.788   8.223
23125SOL     OW70815   7.052   6.176   8.440
23125SOL    HW170816   7.022   6.081   8.447
23125SOL    HW270817   7.125   6.192   8.506
23126SOL     OW70818   7.443   6.419   7.825
23126SOL    HW170819   7.485   6.355   7.889
23126SOL    HW270820   7.405   6.368   7.747
23127SOL     OW70821   6.074   6.971   7.622
23127SOL    HW170822   5.987   6.956   7.669
23127SOL    HW270823   6.057   6.997   7.527
23128SOL     OW70824   7.250   6.866   8.105
23128SOL    HW170825   7.349   6.874   8.119
23128SOL    HW270826   7.205   6.950   8.136
23129SOL     OW70827   6.976   6.161   7.526
23129SOL    HW170828   6.922   6.140   7.607
23129SOL    HW270829   7.067   6.120   7.535
23130SOL     OW70830   6.113   5.842   7.776
23130SOL    HW170831   6.140   5.783   7.701
23130SOL    HW270832   6.113   5.937   7.745
23131SOL     OW70833   7.340   6.809   9.036
23131SOL    HW170834   7.431   6.770   9.023
23131SOL    HW270835   7.348   6.905   9.060
23132SOL     OW70836   6.650   6.933   8.788
23132SOL    HW170837   6.570   6.910   8.843
23132SOL    HW270838   6.733   6.907   8.837
23133SOL     OW70839   7.178   7.215   9.073
23133SOL    HW170840   7.205   7.249   8.983
23133SOL    HW270841   7.257   7.177   9.119
23134SOL     OW70842   6.697   6.781   8.548
23134SOL    HW170843   6.657   6.825   8.629
23134SOL    HW270844   6.656   6.818   8.465
23135SOL     OW70845   7.224   6.685   8.527
23135SOL    HW170846   7.229   6.766   8.586
23135SOL    HW270847   7.138   6.687   8.476
23136SOL     OW70848   6.501   5.675   8.850
23136SOL    HW170849   6.526   5.655   8.755
23136SOL    HW270850   6.573   5.731   8.892
23137SOL     OW70851   6.566   6.702   9.167
23137SOL    HW170852   6.467   6.708   9.177
23137SOL    HW270853   6.589   6.622   9.111
23138SOL     OW70854   6.291   6.636   7.816
23138SOL    HW170855   6.277   6.643   7.915
23138SOL    HW270856   6.375   6.585   7.798
23139SOL     OW70857   5.996   6.399   8.699
23139SOL    HW170858   6.082   6.411   8.749
23139SOL    HW270859   5.954   6.312   8.726
23140SOL     OW70860   6.860   5.972   8.710
23140SOL    HW170861   6.881   6.046   8.774
23140SOL    HW270862   6.771   5.989   8.667
23141SOL     OW70863   5.650   7.150   8.779
23141SOL    HW170864   5.604   7.232   8.745
23141SOL    HW270865   5.748   7.169   8.788
23142SOL     OW70866   5.953   6.686   7.949
23142SOL    HW170867   5.946   6.769   7.893
23142SOL    HW270868   5.957   6.606   7.889
23143SOL     OW70869   6.152   6.123   8.313
23143SOL    HW170870   6.164   6.189   8.239
23143SOL    HW270871   6.198   6.157   8.396
23144SOL     OW70872   6.838   6.934   7.836
23144SOL    HW170873   6.888   7.011   7.876
23144SOL    HW270874   6.743   6.936   7.868
23145SOL     OW70875   6.858   7.031   8.590
23145SOL    HW170876   6.905   7.044   8.677
23145SOL    HW270877   6.792   6.957   8.599
23146SOL     OW70878   7.168   6.225   7.920
23146SOL    HW170879   7.137   6.286   7.993
23146SOL    HW270880   7.218   6.277   7.851
23147SOL     OW70881   5.940   7.096   8.777
23147SOL    HW170882   5.919   7.052   8.690
23147SOL    HW270883   6.037   7.122   8.780
23148SOL     OW70884   5.988   6.337   9.046
23148SOL    HW170885   6.056   6.392   8.999
23148SOL    HW270886   6.028   6.249   9.073
23149SOL     OW70887   7.173   6.365   9.118
23149SOL    HW170888   7.081   6.403   9.113
23149SOL    HW270889   7.233   6.412   9.053
23150SOL     OW70890   6.599   5.691   9.218
23150SOL    HW170891   6.605   5.776   9.166
23150SOL    HW270892   6.631   5.615   9.161
23151SOL     OW70893   6.090   5.636   9.188
23151SOL    HW170894   6.048   5.579   9.118
23151SOL    HW270895   6.024   5.705   9.220
23152SOL     OW70896   6.159   6.456   8.477
23152SOL    HW170897   6.203   6.545   8.468
23152SOL    HW270898   6.096   6.456   8.554
23153SOL     OW70899   6.946   6.448   8.493
23153SOL    HW170900   6.871   6.448   8.427
23153SOL    HW270901   6.983   6.356   8.502
23154SOL     OW70902   6.795   6.111   7.723
23154SOL    HW170903   6.808   6.027   7.777
23154SOL    HW270904   6.766   6.185   7.783
23155SOL     OW70905   5.893   5.799   8.679
23155SOL    HW170906   5.870   5.836   8.769
23155SOL    HW270907   5.863   5.704   8.673
23156SOL     OW70908   5.623   6.896   8.730
23156SOL    HW170909   5.676   6.847   8.798
23156SOL    HW270910   5.645   6.994   8.735
23157SOL     OW70911   6.318   6.220   8.512
23157SOL    HW170912   6.377   6.194   8.436
23157SOL    HW270913   6.290   6.316   8.501
23158SOL     OW70914   7.314   6.521   9.302
23158SOL    HW170915   7.268   6.514   9.213
23158SOL    HW270916   7.252   6.565   9.368
23159SOL     OW70917   5.893   5.649   8.066
23159SOL    HW170918   5.882   5.743   8.099
23159SOL    HW270919   5.888   5.586   8.143
23160SOL     OW70920   7.208   5.953   7.822
23160SOL    HW170921   7.210   5.877   7.886
23160SOL    HW270922   7.160   6.030   7.862
23161SOL     OW70923   6.609   6.352   8.414
23161SOL    HW170924   6.624   6.373   8.510
23161SOL    HW270925   6.579   6.257   8.405
23162SOL     OW70926   6.566   7.159   9.148
23162SOL    HW170927   6.546   7.203   9.060
23162SOL    HW270928   6.605   7.068   9.132
23163SOL     OW70929   7.445   7.104   9.053
23163SOL    HW170930   7.459   7.131   8.958
23163SOL    HW270931   7.528   7.126   9.106
23164SOL     OW70932   5.936   6.484   9.252
23164SOL    HW170933   6.012   6.528   9.300
23164SOL    HW270934   5.971   6.437   9.170
23165SOL     OW70935   7.126   5.860   7.573
23165SOL    HW170936   7.065   5.785   7.596
23165SOL    HW270937   7.148   5.912   7.656
23166SOL     OW70938   6.889   6.424   7.490
23166SOL    HW170939   6.923   6.331   7.505
23166SOL    HW270940   6.907   6.451   7.395
23167SOL     OW70941   6.654   6.919   8.297
23167SOL    HW170942   6.661   6.835   8.242
23167SOL    HW270943   6.716   6.988   8.261
23168SOL     OW70944   5.905   6.396   8.397
23168SOL    HW170945   5.998   6.432   8.402
23168SOL    HW270946   5.899   6.311   8.449
23169SOL     OW70947   5.925   6.095   8.454
23169SOL    HW170948   5.873   6.012   8.437
23169SOL    HW270949   6.002   6.100   8.390
23170SOL     OW70950   6.724   5.966   9.126
23170SOL    HW170951   6.679   6.029   9.190
23170SOL    HW270952   6.817   5.997   9.109
23171SOL     OW70953   6.746   5.793   8.925
23171SOL    HW170954   6.746   5.857   9.002
23171SOL    HW270955   6.774   5.841   8.842
23172SOL     OW70956   5.594   6.912   7.648
23172SOL    HW170957   5.501   6.933   7.617
23172SOL    HW270958   5.604   6.813   7.661
23173SOL     OW70959   5.674   7.387   8.375
23173SOL    HW170960   5.632   7.301   8.348
23173SOL    HW270961   5.768   7.390   8.341
23174SOL     OW70962   6.090   7.154   8.358
23174SOL    HW170963   6.156   7.228   8.367
23174SOL    HW270964   6.134   7.075   8.316
23175SOL     OW70965   6.588   6.382   8.686
23175SOL    HW170966   6.629   6.350   8.772
23175SOL    HW270967   6.492   6.355   8.683
23176SOL     OW70968   5.626   6.130   8.562
23176SOL    HW170969   5.711   6.097   8.521
23176SOL    HW270970   5.639   6.145   8.660
23177SOL     OW70971   5.775   6.106   9.170
23177SOL    HW170972   5.834   6.066   9.100
23177SOL    HW270973   5.717   6.177   9.129
23178SOL     OW70974   6.955   6.536   9.108
23178SOL    HW170975   6.994   6.625   9.128
23178SOL    HW270976   6.965   6.516   9.011
23179SOL     OW70977   6.401   6.158   7.773
23179SOL    HW170978   6.408   6.069   7.727
23179SOL    HW270979   6.307   6.192   7.765
23180SOL     OW70980   7.243   6.190   8.654
23180SOL    HW170981   7.205   6.121   8.716
23180SOL    HW270982   7.325   6.154   8.610
23181SOL     OW70983   5.838   7.150   9.192
23181SOL    HW170984   5.808   7.207   9.268
23181SOL    HW270985   5.831   7.053   9.218
23182SOL     OW70986   6.257   6.050   8.717
23182SOL    HW170987   6.223   5.961   8.687
23182SOL    HW270988   6.283   6.104   8.637
23183SOL     OW70989   6.516   7.264   8.913
23183SOL    HW170990   6.492   7.246   8.818
23183SOL    HW270991   6.546   7.358   8.923
23184SOL     OW70992   6.059   6.086   7.639
23184SOL    HW170993   6.120   6.166   7.643
23184SOL    HW270994   5.964   6.117   7.646
23185SOL     OW70995   5.745   6.723   8.914
23185SOL    HW170996   5.767   6.662   8.990
23185SOL    HW270997   5.755   6.674   8.828
23186SOL     OW70998   6.933   6.645   8.682
23186SOL    HW170999   6.957   6.582   8.608
23186SOL    HW271000   6.843   6.685   8.664
23187SOL     OW71001   6.888   6.441   7.757
23187SOL    HW171002   6.802   6.410   7.799
23187SOL    HW271003   6.884   6.427   7.658
23188SOL     OW71004   7.345   7.333   8.602
23188SOL    HW171005   7.406   7.363   8.529
23188SOL    HW271006   7.307   7.244   8.580
23189SOL     OW71007   6.838   7.317   8.576
23189SOL    HW171008   6.922   7.322   8.522
23189SOL    HW271009   6.815   7.221   8.594
23190SOL     OW71010   5.669   6.844   8.470
23190SOL    HW171011   5.664   6.843   8.570
23190SOL    HW271012   5.586   6.803   8.432
23191SOL     OW71013   6.274   7.248   9.164
23191SOL    HW171014   6.218   7.329   9.173
23191SOL    HW271015   6.326   7.252   9.078
23192SOL     OW71016   7.312   5.721   7.971
23192SOL    HW171017   7.385   5.704   7.904
23192SOL    HW271018   7.281   5.634   8.009
23193SOL     OW71019   6.974   7.159   7.925
23193SOL    HW171020   7.041   7.171   7.851
23193SOL    HW271021   6.934   7.248   7.948
23194SOL     OW71022   5.716   7.380   9.299
23194SOL    HW171023   5.675   7.306   9.352
23194SOL    HW271024   5.780   7.431   9.357
23195SOL     OW71025   6.866   6.513   8.120
23195SOL    HW171026   6.926   6.432   8.122
23195SOL    HW271027   6.906   6.582   8.060
23196SOL     OW71028   6.416   6.859   8.870
23196SOL    HW171029   6.411   6.892   8.965
23196SOL    HW271030   6.330   6.878   8.824
23197SOL     OW71031   6.258   7.202   7.602
23197SOL    HW171032   6.267   7.212   7.503
23197SOL    HW271033   6.218   7.113   7.623
23198SOL     OW71034   7.236   7.306   8.842
23198SOL    HW171035   7.289   7.316   8.758
23198SOL    HW271036   7.209   7.396   8.876
23199SOL     OW71037   7.427   5.761   8.411
23199SOL    HW171038   7.466   5.676   8.375
23199SOL    HW271039   7.329   5.763   8.392
23200SOL     OW71040   5.849   5.912   8.168
23200SOL    HW171041   5.770   5.963   8.134
23200SOL    HW271042   5.840   5.897   8.266
23201SOL     OW71043   6.780   7.198   7.479
23201SOL    HW171044   6.786   7.105   7.516
23201SOL    HW271045   6.721   7.198   7.399
23202SOL     OW71046   6.408   6.588   8.820
23202SOL    HW171047   6.448   6.587   8.728
23202SOL    HW271048   6.418   6.680   8.860
23203SOL     OW71049   6.502   6.496   7.739
23203SOL    HW171050   6.565   6.534   7.671
23203SOL    HW271051   6.542   6.413   7.778
23204SOL     OW71052   7.090   7.193   7.492
23204SOL    HW171053   6.998   7.230   7.499
23204SOL    HW271054   7.128   7.213   7.402
23205SOL     OW71055   5.958   6.874   8.938
23205SOL    HW171056   5.945   6.967   8.904
23205SOL    HW271057   5.874   6.822   8.925
23206SOL     OW71058   7.200   6.878   8.737
23206SOL    HW171059   7.260   6.881   8.817
23206SOL    HW271060   7.125   6.942   8.750
23207SOL     OW71061   6.625   6.684   8.144
23207SOL    HW171062   6.555   6.637   8.198
23207SOL    HW271063   6.684   6.616   8.101
23208SOL     OW71064   6.600   5.822   8.419
23208SOL    HW171065   6.592   5.786   8.326
23208SOL    HW271066   6.598   5.746   8.484
23209SOL     OW71067   6.176   7.073   7.939
23209SOL    HW171068   6.218   7.015   7.869
23209SOL    HW271069   6.132   7.152   7.895
23210SOL     OW71070   7.295   5.971   8.829
23210SOL    HW171071   7.368   6.040   8.833
23210SOL    HW271072   7.323   5.896   8.770
23211SOL     OW71073   5.841   6.934   7.738
23211SOL    HW171074   5.745   6.935   7.711
23211SOL    HW271075   5.853   6.987   7.822
23212SOL     OW71076   5.691   6.599   9.174
23212SOL    HW171077   5.614   6.566   9.228
23212SOL    HW271078   5.776   6.569   9.216
23213SOL     OW71079   6.258   5.789   8.937
23213SOL    HW171080   6.348   5.773   8.897
23213SOL    HW271081   6.266   5.794   9.036
23214SOL     OW71082   5.661   5.931   7.481
23214SOL    HW171083   5.569   5.903   7.452
23214SOL    HW271084   5.692   6.008   7.425
23215SOL     OW71085   7.026   6.442   8.846
23215SOL    HW171086   6.969   6.494   8.783
23215SOL    HW271087   7.122   6.454   8.822
23216SOL     OW71088   5.658   5.752   7.766
23216SOL    HW171089   5.641   5.835   7.712
23216SOL    HW271090   5.748   5.715   7.744
23217SOL     OW71091   6.769   6.921   7.567
23217SOL    HW171092   6.670   6.910   7.569
23217SOL    HW271093   6.803   6.936   7.660
23218SOL     OW71094   6.199   6.428   8.879
23218SOL    HW171095   6.255   6.509   8.862
23218SOL    HW271096   6.258   6.348   8.882
23219SOL     OW71097   7.079   7.353   8.407
23219SOL    HW171098   7.112   7.417   8.338
23219SOL    HW271099   7.145   7.347   8.482
23220SOL     OW71100   6.302   6.151   9.156
23220SOL    HW171101   6.321   6.216   9.230
23220SOL    HW271102   6.362   6.071   9.165
23221SOL     OW71103   7.036   6.806   9.081
23221SOL    HW171104   7.027   6.796   9.180
23221SOL    HW271105   7.132   6.799   9.055
23222SOL     OW71106   5.976   7.327   9.008
23222SOL    HW171107   5.885   7.368   9.006
23222SOL    HW271108   5.969   7.233   9.040
23223SOL     OW71109   7.260   6.469   8.702
23223SOL    HW171110   7.233   6.380   8.665
23223SOL    HW271111   7.261   6.537   8.629
23224SOL     OW71112   6.811   5.911   7.897
23224SOL    HW171113   6.876   5.837   7.886
23224SOL    HW271114   6.831   5.961   7.981
23225SOL     OW71115   6.180   6.331   8.100
23225SOL    HW171116   6.230   6.416   8.081
23225SOL    HW271117   6.092   6.333   8.052
23226SOL     OW71118   7.363   5.928   9.090
23226SOL    HW171119   7.346   5.959   8.996
23226SOL    HW271120   7.279   5.891   9.128
23227SOL     OW71121   7.316   6.520   8.965
23227SOL    HW171122   7.354   6.611   8.980
23227SOL    HW271123   7.308   6.503   8.866
23228SOL     OW71124   6.445   6.960   7.464
23228SOL    HW171125   6.399   6.975   7.552
23228SOL    HW271126   6.489   7.045   7.434
23229SOL     OW71127   6.247   7.376   8.401
23229SOL    HW171128   6.201   7.464   8.388
23229SOL    HW271129   6.346   7.388   8.394
23230SOL     OW71130   6.445   6.542   8.309
23230SOL    HW171131   6.499   6.473   8.357
23230SOL    HW271132   6.413   6.611   8.375
23231SOL     OW71133   6.669   6.570   7.535
23231SOL    HW171134   6.646   6.623   7.453
23231SOL    HW271135   6.750   6.514   7.516
23232SOL     OW71136   7.447   7.155   8.299
23232SOL    HW171137   7.376   7.143   8.229
23232SOL    HW271138   7.448   7.076   8.359
23233SOL     OW71139   5.807   6.900   9.292
23233SOL    HW171140   5.742   6.827   9.271
23233SOL    HW271141   5.811   6.914   9.390
23234SOL     OW71142   5.665   6.826   8.101
23234SOL    HW171143   5.664   6.779   8.189
23234SOL    HW271144   5.747   6.798   8.050
23235SOL     OW71145   6.258   6.977   9.072
23235SOL    HW171146   6.180   6.927   9.110
23235SOL    HW271147   6.255   7.072   9.103
23236SOL     OW71148   7.410   5.778   8.675
23236SOL    HW171149   7.406   5.688   8.719
23236SOL    HW271150   7.413   5.767   8.576
23237SOL     OW71151   6.014   6.010   7.968
23237SOL    HW171152   6.044   5.938   7.906
23237SOL    HW271153   5.975   5.970   8.051
23238SOL     OW71154   7.291   7.073   8.552
23238SOL    HW171155   7.198   7.048   8.525
23238SOL    HW271156   7.317   7.023   8.634
23239SOL     OW71157   5.903   6.133   8.728
23239SOL    HW171158   5.941   6.074   8.800
23239SOL    HW271159   5.943   6.107   8.640
23240SOL     OW71160   6.398   7.172   8.135
23240SOL    HW171161   6.430   7.182   8.041
23240SOL    HW271162   6.319   7.110   8.137
23241SOL     OW71163   7.010   5.800   8.560
23241SOL    HW171164   7.062   5.735   8.615
23241SOL    HW271165   6.961   5.863   8.621
23242SOL     OW71166   6.587   5.620   8.602
23242SOL    HW171167   6.524   5.548   8.571
23242SOL    HW271168   6.680   5.584   8.602
23243SOL     OW71169   6.356   6.916   7.749
23243SOL    HW171170   6.310   6.829   7.766
23243SOL    HW271171   6.447   6.913   7.790
23244SOL     OW71172   6.204   7.153   8.732
23244SOL    HW171173   6.199   7.235   8.789
23244SOL    HW271174   6.293   7.150   8.687
23245SOL     OW71175   6.938   5.638   7.616
23245SOL    HW171176   6.973   5.597   7.532
23245SOL    HW271177   6.848   5.600   7.636
23246SOL     OW71178   6.886   6.039   8.139
23246SOL    HW171179   6.827   6.119   8.143
23246SOL    HW271180   6.901   6.004   8.232
23247SOL     OW71181   7.179   5.807   8.330
23247SOL    HW171182   7.095   5.806   8.384
23247SOL    HW271183   7.181   5.890   8.274
23248SOL     OW71184   5.625   6.663   7.748
23248SOL    HW171185   5.724   6.652   7.739
23248SOL    HW271186   5.585   6.577   7.780
23249SOL     OW71187   6.461   7.232   7.785
23249SOL    HW171188   6.384   7.197   7.731
23249SOL    HW271189   6.429   7.303   7.847
23250SOL     OW71190   5.816   6.214   9.423
23250SOL    HW171191   5.723   6.212   9.460
23250SOL    HW271192   5.817   6.175   9.331
23251SOL     OW71193   5.811   5.861  10.306
23251SOL    HW171194   5.846   5.844  10.398
23251SOL    HW271195   5.723   5.816  10.294
23252SOL     OW71196   5.605   5.954   9.957
23252SOL    HW171197   5.523   5.997   9.996
23252SOL    HW271198   5.577   5.881   9.894
23253SOL     OW71199   6.155   6.861  10.475
23253SOL    HW171200   6.062   6.854  10.438
23253SOL    HW271201   6.166   6.950  10.519
23254SOL     OW71202   7.141   7.097  10.013
23254SOL    HW171203   7.084   7.081  10.094
23254SOL    HW271204   7.082   7.107   9.933
23255SOL     OW71205   6.721   6.289  10.027
23255SOL    HW171206   6.778   6.367  10.002
23255SOL    HW271207   6.661   6.315  10.103
23256SOL     OW71208   7.341   6.193   9.541
23256SOL    HW171209   7.329   6.180   9.442
23256SOL    HW271210   7.311   6.112   9.590
23257SOL     OW71211   6.354   6.730  10.333
23257SOL    HW171212   6.276   6.747  10.393
23257SOL    HW271213   6.388   6.817  10.297
23258SOL     OW71214   6.436   6.384  11.133
23258SOL    HW171215   6.432   6.460  11.198
23258SOL    HW271216   6.458   6.420  11.042
23259SOL     OW71217   6.271   6.598   9.975
23259SOL    HW171218   6.340   6.582  10.045
23259SOL    HW271219   6.198   6.655  10.013
23260SOL     OW71220   6.272   6.747  11.113
23260SOL    HW171221   6.332   6.826  11.127
23260SOL    HW271222   6.186   6.778  11.072
23261SOL     OW71223   5.921   7.021  10.371
23261SOL    HW171224   5.843   6.990  10.318
23261SOL    HW271225   5.979   7.079  10.314
23262SOL     OW71226   7.046   7.091  10.649
23262SOL    HW171227   7.070   7.185  10.675
23262SOL    HW271228   7.030   7.037  10.731
23263SOL     OW71229   6.024   5.978  10.809
23263SOL    HW171230   6.106   5.922  10.818
23263SOL    HW271231   5.943   5.920  10.813
23264SOL     OW71232   7.189   6.033  10.047
23264SOL    HW171233   7.115   6.079   9.997
23264SOL    HW271234   7.240   6.101  10.100
23265SOL     OW71235   5.817   7.299   9.793
23265SOL    HW171236   5.851   7.376   9.847
23265SOL    HW271237   5.861   7.299   9.703
23266SOL     OW71238   6.713   6.927  11.000
23266SOL    HW171239   6.760   6.927  11.088
23266SOL    HW271240   6.665   6.840  10.989
23267SOL     OW71241   5.816   7.020   9.848
23267SOL    HW171242   5.790   7.116   9.848
23267SOL    HW271243   5.745   6.966   9.893
23268SOL     OW71244   5.826   6.677  10.196
23268SOL    HW171245   5.840   6.593  10.248
23268SOL    HW271246   5.771   6.741  10.251
23269SOL     OW71247   6.206   7.372  10.749
23269SOL    HW171248   6.114   7.355  10.784
23269SOL    HW271249   6.234   7.464  10.775
23270SOL     OW71250   6.192   6.550   9.433
23270SOL    HW171251   6.199   6.634   9.379
23270SOL    HW271252   6.238   6.563   9.521
23271SOL     OW71253   7.180   5.700  10.790
23271SOL    HW171254   7.162   5.767  10.718
23271SOL    HW271255   7.177   5.746  10.879
23272SOL     OW71256   5.708   6.229   9.873
23272SOL    HW171257   5.663   6.141   9.890
23272SOL    HW271258   5.707   6.283   9.957
23273SOL     OW71259   7.428   7.353   9.669
23273SOL    HW171260   7.482   7.324   9.749
23273SOL    HW271261   7.458   7.443   9.640
23274SOL     OW71262   5.613   7.182   9.427
23274SOL    HW171263   5.594   7.086   9.448
23274SOL    HW271264   5.580   7.240   9.502
23275SOL     OW71265   7.275   6.508   9.922
23275SOL    HW171266   7.370   6.479   9.930
23275SOL    HW271267   7.267   6.573   9.847
23276SOL     OW71268   7.227   6.694   9.742
23276SOL    HW171269   7.313   6.696   9.690
23276SOL    HW271270   7.241   6.741   9.830
23277SOL     OW71271   5.699   6.323  10.907
23277SOL    HW171272   5.787   6.310  10.952
23277SOL    HW271273   5.686   6.420  10.885
23278SOL     OW71274   6.199   6.951  10.036
23278SOL    HW171275   6.150   6.864  10.045
23278SOL    HW271276   6.176   6.994   9.949
23279SOL     OW71277   6.879   6.814  10.733
23279SOL    HW171278   6.916   6.741  10.675
23279SOL    HW271279   6.931   6.819  10.818
23280SOL     OW71280   6.395   5.590   9.812
23280SOL    HW171281   6.435   5.681   9.803
23280SOL    HW271282   6.295   5.598   9.818
23281SOL     OW71283   5.783   6.562  10.574
23281SOL    HW171284   5.872   6.517  10.560
23281SOL    HW271285   5.710   6.497  10.555
23282SOL     OW71286   7.111   6.585   9.500
23282SOL    HW171287   7.048   6.509   9.513
23282SOL    HW271288   7.159   6.603   9.586
23283SOL     OW71289   6.773   7.378  10.926
23283SOL    HW171290   6.797   7.438  10.850
23283SOL    HW271291   6.780   7.283  10.896
23284SOL     OW71292   5.903   5.837  11.111
23284SOL    HW171293   5.974   5.908  11.117
23284SOL    HW271294   5.815   5.876  11.139
23285SOL     OW71295   7.052   7.003  10.263
23285SOL    HW171296   6.993   7.009  10.343
23285SOL    HW271297   7.037   6.915  10.217
23286SOL     OW71298   7.253   7.300   9.882
23286SOL    HW171299   7.212   7.277   9.794
23286SOL    HW271300   7.235   7.226   9.947
23287SOL     OW71301   6.184   6.315   9.580
23287SOL    HW171302   6.208   6.384   9.512
23287SOL    HW271303   6.106   6.348   9.634
23288SOL     OW71304   6.867   5.931  10.254
23288SOL    HW171305   6.781   5.881  10.241
23288SOL    HW271306   6.929   5.877  10.310
23289SOL     OW71307   7.162   7.248   9.617
23289SOL    HW171308   7.251   7.294   9.620
23289SOL    HW271309   7.141   7.224   9.522
23290SOL     OW71310   6.393   6.191  10.775
23290SOL    HW171311   6.346   6.188  10.864
23290SOL    HW271312   6.342   6.136  10.709
23291SOL     OW71313   6.980   6.055  10.984
23291SOL    HW171314   6.960   6.098  11.072
23291SOL    HW271315   7.058   5.993  10.993
23292SOL     OW71316   6.559   6.476  10.882
23292SOL    HW171317   6.605   6.392  10.853
23292SOL    HW271318   6.503   6.510  10.807
23293SOL     OW71319   6.577   5.996  10.552
23293SOL    HW171320   6.500   6.030  10.606
23293SOL    HW271321   6.543   5.945  10.473
23294SOL     OW71322   6.627   6.287   9.739
23294SOL    HW171323   6.653   6.283   9.835
23294SOL    HW271324   6.542   6.236   9.725
23295SOL     OW71325   5.662   6.397  10.099
23295SOL    HW171326   5.761   6.385  10.108
23295SOL    HW271327   5.638   6.492  10.120
23296SOL     OW71328   5.716   7.407  10.881
23296SOL    HW171329   5.706   7.392  10.980
23296SOL    HW271330   5.630   7.443  10.845
23297SOL     OW71331   6.451   5.934   9.505
23297SOL    HW171332   6.510   5.997   9.456
23297SOL    HW271333   6.470   5.840   9.476
23298SOL     OW71334   7.305   6.171  11.141
23298SOL    HW171335   7.279   6.260  11.105
23298SOL    HW271336   7.303   6.103  11.068
23299SOL     OW71337   6.948   6.730   9.855
23299SOL    HW171338   7.031   6.701   9.807
23299SOL    HW271339   6.899   6.797   9.799
23300SOL     OW71340   6.136   5.782  10.195
23300SOL    HW171341   6.131   5.777  10.295
23300SOL    HW271342   6.138   5.878  10.166
23301SOL     OW71343   6.594   7.042   9.787
23301SOL    HW171344   6.548   7.114   9.735
23301SOL    HW271345   6.590   7.062   9.885
23302SOL     OW71346   5.937   7.387  10.163
23302SOL    HW171347   5.987   7.301  10.169
23302SOL    HW271348   6.002   7.464  10.160
23303SOL     OW71349   7.381   6.652  10.183
23303SOL    HW171350   7.319   6.637  10.107
23303SOL    HW271351   7.329   6.663  10.268
23304SOL     OW71352   6.813   7.136  10.816
23304SOL    HW171353   6.819   7.059  10.880
23304SOL    HW271354   6.761   7.110  10.736
23305SOL     OW71355   5.907   6.529   9.552
23305SOL    HW171356   5.989   6.568   9.510
23305SOL    HW271357   5.880   6.447   9.503
23306SOL     OW71358   7.044   6.321  10.038
23306SOL    HW171359   7.039   6.256  10.113
23306SOL    HW271360   7.124   6.380  10.051
23307SOL     OW71361   6.047   6.852  11.037
23307SOL    HW171362   5.997   6.853  10.951
23307SOL    HW271363   5.984   6.834  11.113
23308SOL     OW71364   6.697   7.362   9.547
23308SOL    HW171365   6.637   7.300   9.597
23308SOL    HW271366   6.728   7.318   9.462
23309SOL     OW71367   5.788   5.871  10.808
23309SOL    HW171368   5.708   5.931  10.795
23309SOL    HW271369   5.778   5.822  10.894
23310SOL     OW71370   7.218   6.963   9.391
23310SOL    HW171371   7.186   7.057   9.381
23310SOL    HW271372   7.142   6.900   9.379
23311SOL     OW71373   6.050   7.329   9.633
23311SOL    HW171374   6.083   7.368   9.719
23311SOL    HW271375   6.126   7.322   9.568
23312SOL     OW71376   6.986   5.693   9.736
23312SOL    HW171377   6.962   5.656   9.646
23312SOL    HW271378   7.085   5.709   9.740
23313SOL     OW71379   5.835   7.371  10.551
23313SOL    HW171380   5.892   7.306  10.601
23313SOL    HW271381   5.819   7.338  10.458
23314SOL     OW71382   6.526   7.284  10.214
23314SOL    HW171383   6.606   7.227  10.235
23314SOL    HW271384   6.477   7.244  10.137
23315SOL     OW71385   5.968   6.286   9.790
23315SOL    HW171386   6.013   6.196   9.787
23315SOL    HW271387   5.874   6.275   9.823
23316SOL     OW71388   7.133   5.808  11.039
23316SOL    HW171389   7.128   5.845  11.131
23316SOL    HW271390   7.061   5.739  11.027
23317SOL     OW71391   6.200   5.708   9.427
23317SOL    HW171392   6.298   5.686   9.434
23317SOL    HW271393   6.169   5.691   9.334
23318SOL     OW71394   6.367   5.850  11.059
23318SOL    HW171395   6.434   5.789  11.102
23318SOL    HW271396   6.294   5.869  11.124
23319SOL     OW71397   6.474   7.100  10.505
23319SOL    HW171398   6.451   7.075  10.411
23319SOL    HW271399   6.535   7.031  10.544
23320SOL     OW71400   6.937   6.176  10.743
23320SOL    HW171401   6.965   6.133  10.828
23320SOL    HW271402   6.962   6.272  10.744
23321SOL     OW71403   6.389   6.988  10.234
23321SOL    HW171404   6.479   7.002  10.192
23321SOL    HW271405   6.318   6.990  10.163
23322SOL     OW71406   6.508   6.089  10.209
23322SOL    HW171407   6.483   6.080  10.113
23322SOL    HW271408   6.556   6.007  10.240
23323SOL     OW71409   6.125   5.650   9.822
23323SOL    HW171410   6.044   5.651   9.880
23323SOL    HW271411   6.128   5.733   9.767
23324SOL     OW71412   7.020   6.774   9.351
23324SOL    HW171413   7.052   6.698   9.408
23324SOL    HW271414   6.928   6.801   9.381
23325SOL     OW71415   5.883   5.621   9.481
23325SOL    HW171416   5.932   5.705   9.460
23325SOL    HW271417   5.945   5.556   9.526
23326SOL     OW71418   6.521   5.822   9.790
23326SOL    HW171419   6.473   5.863   9.712
23326SOL    HW271420   6.620   5.820   9.771
23327SOL     OW71421   6.662   6.269  10.774
23327SOL    HW171422   6.582   6.208  10.777
23327SOL    HW271423   6.743   6.216  10.750
23328SOL     OW71424   6.813   7.156  10.103
23328SOL    HW171425   6.834   7.230  10.038
23328SOL    HW271426   6.881   7.156  10.176
23329SOL     OW71427   6.045   6.738  10.051
23329SOL    HW171428   5.974   6.711  10.116
23329SOL    HW271429   6.019   6.710   9.958
23330SOL     OW71430   6.857   7.383   9.901
23330SOL    HW171431   6.901   7.447   9.837
23330SOL    HW271432   6.807   7.435   9.971
23331SOL     OW71433   6.618   6.135   9.326
23331SOL    HW171434   6.577   6.217   9.287
23331SOL    HW271435   6.682   6.161   9.399
23332SOL     OW71436   5.664   6.142  10.696
23332SOL    HW171437   5.756   6.141  10.655
23332SOL    HW271438   5.658   6.216  10.763
23333SOL     OW71439   6.147   5.808  10.457
23333SOL    HW171440   6.185   5.724  10.494
23333SOL    HW271441   6.059   5.827  10.501
23334SOL     OW71442   6.452   6.040   9.952
23334SOL    HW171443   6.420   6.112   9.890
23334SOL    HW271444   6.476   5.959   9.899
23335SOL     OW71445   6.603   5.625  10.063
23335SOL    HW171446   6.531   5.630   9.994
23335SOL    HW271447   6.579   5.556  10.132
23336SOL     OW71448   7.015   6.759  10.177
23336SOL    HW171449   6.960   6.675  10.170
23336SOL    HW271450   7.041   6.788  10.085
23337SOL     OW71451   7.052   6.176  10.302
23337SOL    HW171452   7.022   6.081  10.309
23337SOL    HW271453   7.125   6.192  10.368
23338SOL     OW71454   7.443   6.419   9.687
23338SOL    HW171455   7.485   6.355   9.751
23338SOL    HW271456   7.405   6.368   9.609
23339SOL     OW71457   6.074   6.971   9.484
23339SOL    HW171458   5.987   6.956   9.531
23339SOL    HW271459   6.057   6.997   9.389
23340SOL     OW71460   7.250   6.866   9.967
23340SOL    HW171461   7.349   6.874   9.981
23340SOL    HW271462   7.205   6.950   9.998
23341SOL     OW71463   6.976   6.161   9.388
23341SOL    HW171464   6.922   6.140   9.469
23341SOL    HW271465   7.067   6.120   9.397
23342SOL     OW71466   6.113   5.842   9.638
23342SOL    HW171467   6.140   5.783   9.563
23342SOL    HW271468   6.113   5.937   9.607
23343SOL     OW71469   7.340   6.809  10.898
23343SOL    HW171470   7.431   6.770  10.885
23343SOL    HW271471   7.348   6.905  10.922
23344SOL     OW71472   6.650   6.933  10.650
23344SOL    HW171473   6.570   6.910  10.705
23344SOL    HW271474   6.733   6.907  10.699
23345SOL     OW71475   7.178   7.215  10.935
23345SOL    HW171476   7.205   7.249  10.845
23345SOL    HW271477   7.257   7.177  10.981
23346SOL     OW71478   6.697   6.781  10.410
23346SOL    HW171479   6.657   6.825  10.491
23346SOL    HW271480   6.656   6.818  10.327
23347SOL     OW71481   7.224   6.685  10.389
23347SOL    HW171482   7.229   6.766  10.448
23347SOL    HW271483   7.138   6.687  10.338
23348SOL     OW71484   6.501   5.675  10.712
23348SOL    HW171485   6.526   5.655  10.617
23348SOL    HW271486   6.573   5.731  10.754
23349SOL     OW71487   6.566   6.702  11.029
23349SOL    HW171488   6.467   6.708  11.039
23349SOL    HW271489   6.589   6.622  10.973
23350SOL     OW71490   6.291   6.636   9.678
23350SOL    HW171491   6.277   6.643   9.777
23350SOL    HW271492   6.375   6.585   9.660
23351SOL     OW71493   5.996   6.399  10.561
23351SOL    HW171494   6.082   6.411  10.611
23351SOL    HW271495   5.954   6.312  10.588
23352SOL     OW71496   6.860   5.972  10.572
23352SOL    HW171497   6.881   6.046  10.636
23352SOL    HW271498   6.771   5.989  10.529
23353SOL     OW71499   5.650   7.150  10.641
23353SOL    HW171500   5.604   7.232  10.607
23353SOL    HW271501   5.748   7.169  10.650
23354SOL     OW71502   5.953   6.686   9.811
23354SOL    HW171503   5.946   6.769   9.755
23354SOL    HW271504   5.957   6.606   9.751
23355SOL     OW71505   6.152   6.123  10.175
23355SOL    HW171506   6.164   6.189  10.101
23355SOL    HW271507   6.198   6.157  10.258
23356SOL     OW71508   6.838   6.934   9.698
23356SOL    HW171509   6.888   7.011   9.738
23356SOL    HW271510   6.743   6.936   9.730
23357SOL     OW71511   6.858   7.031  10.452
23357SOL    HW171512   6.905   7.044  10.539
23357SOL    HW271513   6.792   6.957  10.461
23358SOL     OW71514   7.168   6.225   9.782
23358SOL    HW171515   7.137   6.286   9.855
23358SOL    HW271516   7.218   6.277   9.713
23359SOL     OW71517   5.940   7.096  10.639
23359SOL    HW171518   5.919   7.052  10.552
23359SOL    HW271519   6.037   7.122  10.642
23360SOL     OW71520   5.988   6.337  10.908
23360SOL    HW171521   6.056   6.392  10.861
23360SOL    HW271522   6.028   6.249  10.935
23361SOL     OW71523   7.173   6.365  10.980
23361SOL    HW171524   7.081   6.403  10.975
23361SOL    HW271525   7.233   6.412  10.915
23362SOL     OW71526   6.599   5.691  11.080
23362SOL    HW171527   6.605   5.776  11.028
23362SOL    HW271528   6.631   5.615  11.023
23363SOL     OW71529   6.090   5.636  11.050
23363SOL    HW171530   6.048   5.579  10.980
23363SOL    HW271531   6.024   5.705  11.082
23364SOL     OW71532   6.159   6.456  10.339
23364SOL    HW171533   6.203   6.545  10.330
23364SOL    HW271534   6.096   6.456  10.416
23365SOL     OW71535   6.946   6.448  10.355
23365SOL    HW171536   6.871   6.448  10.289
23365SOL    HW271537   6.983   6.356  10.364
23366SOL     OW71538   6.795   6.111   9.585
23366SOL    HW171539   6.808   6.027   9.639
23366SOL    HW271540   6.766   6.185   9.645
23367SOL     OW71541   5.893   5.799  10.541
23367SOL    HW171542   5.870   5.836  10.631
23367SOL    HW271543   5.863   5.704  10.535
23368SOL     OW71544   5.623   6.896  10.592
23368SOL    HW171545   5.676   6.847  10.660
23368SOL    HW271546   5.645   6.994  10.597
23369SOL     OW71547   6.318   6.220  10.374
23369SOL    HW171548   6.377   6.194  10.298
23369SOL    HW271549   6.290   6.316  10.363
23370SOL     OW71550   7.314   6.521  11.164
23370SOL    HW171551   7.268   6.514  11.075
23370SOL    HW271552   7.252   6.565  11.230
23371SOL     OW71553   5.893   5.649   9.928
23371SOL    HW171554   5.882   5.743   9.961
23371SOL    HW271555   5.888   5.586  10.005
23372SOL     OW71556   7.208   5.953   9.684
23372SOL    HW171557   7.210   5.877   9.748
23372SOL    HW271558   7.160   6.030   9.724
23373SOL     OW71559   6.609   6.352  10.276
23373SOL    HW171560   6.624   6.373  10.372
23373SOL    HW271561   6.579   6.257  10.267
23374SOL     OW71562   6.566   7.159  11.010
23374SOL    HW171563   6.546   7.203  10.922
23374SOL    HW271564   6.605   7.068  10.994
23375SOL     OW71565   7.445   7.104  10.915
23375SOL    HW171566   7.459   7.131  10.820
23375SOL    HW271567   7.528   7.126  10.968
23376SOL     OW71568   5.936   6.484  11.114
23376SOL    HW171569   6.012   6.528  11.162
23376SOL    HW271570   5.971   6.437  11.032
23377SOL     OW71571   7.126   5.860   9.435
23377SOL    HW171572   7.065   5.785   9.458
23377SOL    HW271573   7.148   5.912   9.518
23378SOL     OW71574   6.889   6.424   9.352
23378SOL    HW171575   6.923   6.331   9.367
23378SOL    HW271576   6.907   6.451   9.257
23379SOL     OW71577   6.654   6.919  10.159
23379SOL    HW171578   6.661   6.835  10.104
23379SOL    HW271579   6.716   6.988  10.123
23380SOL     OW71580   5.905   6.396  10.259
23380SOL    HW171581   5.998   6.432  10.264
23380SOL    HW271582   5.899   6.311  10.311
23381SOL     OW71583   5.925   6.095  10.316
23381SOL    HW171584   5.873   6.012  10.299
23381SOL    HW271585   6.002   6.100  10.252
23382SOL     OW71586   6.724   5.966  10.988
23382SOL    HW171587   6.679   6.029  11.052
23382SOL    HW271588   6.817   5.997  10.971
23383SOL     OW71589   6.746   5.793  10.787
23383SOL    HW171590   6.746   5.857  10.864
23383SOL    HW271591   6.774   5.841  10.704
23384SOL     OW71592   5.594   6.912   9.510
23384SOL    HW171593   5.501   6.933   9.479
23384SOL    HW271594   5.604   6.813   9.523
23385SOL     OW71595   5.674   7.387  10.237
23385SOL    HW171596   5.632   7.301  10.210
23385SOL    HW271597   5.768   7.390  10.203
23386SOL     OW71598   6.090   7.154  10.220
23386SOL    HW171599   6.156   7.228  10.229
23386SOL    HW271600   6.134   7.075  10.178
23387SOL     OW71601   6.588   6.382  10.548
23387SOL    HW171602   6.629   6.350  10.634
23387SOL    HW271603   6.492   6.355  10.545
23388SOL     OW71604   5.626   6.130  10.424
23388SOL    HW171605   5.711   6.097  10.383
23388SOL    HW271606   5.639   6.145  10.522
23389SOL     OW71607   5.775   6.106  11.032
23389SOL    HW171608   5.834   6.066  10.962
23389SOL    HW271609   5.717   6.177  10.991
23390SOL     OW71610   6.955   6.536  10.970
23390SOL    HW171611   6.994   6.625  10.990
23390SOL    HW271612   6.965   6.516  10.873
23391SOL     OW71613   6.401   6.158   9.635
23391SOL    HW171614   6.408   6.069   9.589
23391SOL    HW271615   6.307   6.192   9.627
23392SOL     OW71616   7.243   6.190  10.516
23392SOL    HW171617   7.205   6.121  10.578
23392SOL    HW271618   7.325   6.154  10.472
23393SOL     OW71619   5.838   7.150  11.054
23393SOL    HW171620   5.808   7.207  11.130
23393SOL    HW271621   5.831   7.053  11.080
23394SOL     OW71622   6.257   6.050  10.579
23394SOL    HW171623   6.223   5.961  10.549
23394SOL    HW271624   6.283   6.104  10.499
23395SOL     OW71625   6.516   7.264  10.775
23395SOL    HW171626   6.492   7.246  10.680
23395SOL    HW271627   6.546   7.358  10.785
23396SOL     OW71628   6.059   6.086   9.501
23396SOL    HW171629   6.120   6.166   9.505
23396SOL    HW271630   5.964   6.117   9.508
23397SOL     OW71631   5.745   6.723  10.776
23397SOL    HW171632   5.767   6.662  10.852
23397SOL    HW271633   5.755   6.674  10.690
23398SOL     OW71634   6.933   6.645  10.544
23398SOL    HW171635   6.957   6.582  10.470
23398SOL    HW271636   6.843   6.685  10.526
23399SOL     OW71637   6.888   6.441   9.619
23399SOL    HW171638   6.802   6.410   9.661
23399SOL    HW271639   6.884   6.427   9.520
23400SOL     OW71640   7.345   7.333  10.464
23400SOL    HW171641   7.406   7.363  10.391
23400SOL    HW271642   7.307   7.244  10.442
23401SOL     OW71643   6.838   7.317  10.438
23401SOL    HW171644   6.922   7.322  10.384
23401SOL    HW271645   6.815   7.221  10.456
23402SOL     OW71646   5.669   6.844  10.332
23402SOL    HW171647   5.664   6.843  10.432
23402SOL    HW271648   5.586   6.803  10.294
23403SOL     OW71649   6.274   7.248  11.026
23403SOL    HW171650   6.218   7.329  11.035
23403SOL    HW271651   6.326   7.252  10.940
23404SOL     OW71652   7.312   5.721   9.833
23404SOL    HW171653   7.385   5.704   9.766
23404SOL    HW271654   7.281   5.634   9.871
23405SOL     OW71655   6.974   7.159   9.787
23405SOL    HW171656   7.041   7.171   9.713
23405SOL    HW271657   6.934   7.248   9.810
23406SOL     OW71658   5.716   7.380  11.161
23406SOL    HW171659   5.675   7.306  11.214
23406SOL    HW271660   5.780   7.431  11.219
23407SOL     OW71661   6.866   6.513   9.982
23407SOL    HW171662   6.926   6.432   9.984
23407SOL    HW271663   6.906   6.582   9.922
23408SOL     OW71664   6.416   6.859  10.732
23408SOL    HW171665   6.411   6.892  10.827
23408SOL    HW271666   6.330   6.878  10.686
23409SOL     OW71667   6.258   7.202   9.464
23409SOL    HW171668   6.267   7.212   9.365
23409SOL    HW271669   6.218   7.113   9.485
23410SOL     OW71670   7.236   7.306  10.704
23410SOL    HW171671   7.289   7.316  10.620
23410SOL    HW271672   7.209   7.396  10.738
23411SOL     OW71673   7.427   5.761  10.273
23411SOL    HW171674   7.466   5.676  10.237
23411SOL    HW271675   7.329   5.763  10.254
23412SOL     OW71676   5.849   5.912  10.030
23412SOL    HW171677   5.770   5.963   9.996
23412SOL    HW271678   5.840   5.897  10.128
23413SOL     OW71679   6.780   7.198   9.341
23413SOL    HW171680   6.786   7.105   9.378
23413SOL    HW271681   6.721   7.198   9.261
23414SOL     OW71682   6.408   6.588  10.682
23414SOL    HW171683   6.448   6.587  10.590
23414SOL    HW271684   6.418   6.680  10.722
23415SOL     OW71685   6.502   6.496   9.601
23415SOL    HW171686   6.565   6.534   9.533
23415SOL    HW271687   6.542   6.413   9.640
23416SOL     OW71688   7.090   7.193   9.354
23416SOL    HW171689   6.998   7.230   9.361
23416SOL    HW271690   7.128   7.213   9.264
23417SOL     OW71691   5.958   6.874  10.800
23417SOL    HW171692   5.945   6.967  10.766
23417SOL    HW271693   5.874   6.822  10.787
23418SOL     OW71694   7.200   6.878  10.599
23418SOL    HW171695   7.260   6.881  10.679
23418SOL    HW271696   7.125   6.942  10.612
23419SOL     OW71697   6.625   6.684  10.006
23419SOL    HW171698   6.555   6.637  10.060
23419SOL    HW271699   6.684   6.616   9.963
23420SOL     OW71700   6.600   5.822  10.281
23420SOL    HW171701   6.592   5.786  10.188
23420SOL    HW271702   6.598   5.746  10.346
23421SOL     OW71703   6.176   7.073   9.801
23421SOL    HW171704   6.218   7.015   9.731
23421SOL    HW271705   6.132   7.152   9.757
23422SOL     OW71706   7.295   5.971  10.691
23422SOL    HW171707   7.368   6.040  10.695
23422SOL    HW271708   7.323   5.896  10.632
23423SOL     OW71709   5.841   6.934   9.600
23423SOL    HW171710   5.745   6.935   9.573
23423SOL    HW271711   5.853   6.987   9.684
23424SOL     OW71712   5.691   6.599  11.036
23424SOL    HW171713   5.614   6.566  11.090
23424SOL    HW271714   5.776   6.569  11.078
23425SOL     OW71715   6.258   5.789  10.799
23425SOL    HW171716   6.348   5.773  10.759
23425SOL    HW271717   6.266   5.794  10.898
23426SOL     OW71718   5.661   5.931   9.343
23426SOL    HW171719   5.569   5.903   9.314
23426SOL    HW271720   5.692   6.008   9.287
23427SOL     OW71721   7.026   6.442  10.708
23427SOL    HW171722   6.969   6.494  10.645
23427SOL    HW271723   7.122   6.454  10.684
23428SOL     OW71724   5.658   5.752   9.628
23428SOL    HW171725   5.641   5.835   9.574
23428SOL    HW271726   5.748   5.715   9.606
23429SOL     OW71727   6.769   6.921   9.429
23429SOL    HW171728   6.670   6.910   9.431
23429SOL    HW271729   6.803   6.936   9.522
23430SOL     OW71730   6.199   6.428  10.741
23430SOL    HW171731   6.255   6.509  10.724
23430SOL    HW271732   6.258   6.348  10.744
23431SOL     OW71733   7.079   7.353  10.269
23431SOL    HW171734   7.112   7.417  10.200
23431SOL    HW271735   7.145   7.347  10.344
23432SOL     OW71736   6.302   6.151  11.018
23432SOL    HW171737   6.321   6.216  11.092
23432SOL    HW271738   6.362   6.071  11.027
23433SOL     OW71739   7.036   6.806  10.943
23433SOL    HW171740   7.027   6.796  11.042
23433SOL    HW271741   7.132   6.799  10.917
23434SOL     OW71742   5.976   7.327  10.870
23434SOL    HW171743   5.885   7.368  10.868
23434SOL    HW271744   5.969   7.233  10.902
23435SOL     OW71745   7.260   6.469  10.564
23435SOL    HW171746   7.233   6.380  10.527
23435SOL    HW271747   7.261   6.537  10.491
23436SOL     OW71748   6.811   5.911   9.759
23436SOL    HW171749   6.876   5.837   9.748
23436SOL    HW271750   6.831   5.961   9.843
23437SOL     OW71751   6.180   6.331   9.962
23437SOL    HW171752   6.230   6.416   9.943
23437SOL    HW271753   6.092   6.333   9.914
23438SOL     OW71754   7.363   5.928  10.952
23438SOL    HW171755   7.346   5.959  10.858
23438SOL    HW271756   7.279   5.891  10.990
23439SOL     OW71757   7.316   6.520  10.827
23439SOL    HW171758   7.354   6.611  10.842
23439SOL    HW271759   7.308   6.503  10.728
23440SOL     OW71760   6.445   6.960   9.326
23440SOL    HW171761   6.399   6.975   9.414
23440SOL    HW271762   6.489   7.045   9.296
23441SOL     OW71763   6.247   7.376  10.263
23441SOL    HW171764   6.201   7.464  10.250
23441SOL    HW271765   6.346   7.388  10.256
23442SOL     OW71766   6.445   6.542  10.171
23442SOL    HW171767   6.499   6.473  10.219
23442SOL    HW271768   6.413   6.611  10.237
23443SOL     OW71769   6.669   6.570   9.397
23443SOL    HW171770   6.646   6.623   9.315
23443SOL    HW271771   6.750   6.514   9.378
23444SOL     OW71772   7.447   7.155  10.161
23444SOL    HW171773   7.376   7.143  10.091
23444SOL    HW271774   7.448   7.076  10.221
23445SOL     OW71775   5.807   6.900  11.154
23445SOL    HW171776   5.742   6.827  11.133
23445SOL    HW271777   5.811   6.914  11.252
23446SOL     OW71778   5.665   6.826   9.963
23446SOL    HW171779   5.664   6.779  10.051
23446SOL    HW271780   5.747   6.798   9.912
23447SOL     OW71781   6.258   6.977  10.934
23447SOL    HW171782   6.180   6.927  10.972
23447SOL    HW271783   6.255   7.072  10.965
23448SOL     OW71784   7.410   5.778  10.537
23448SOL    HW171785   7.406   5.688  10.581
23448SOL    HW271786   7.413   5.767  10.438
23449SOL     OW71787   6.014   6.010   9.830
23449SOL    HW171788   6.044   5.938   9.768
23449SOL    HW271789   5.975   5.970   9.913
23450SOL     OW71790   7.291   7.073  10.414
23450SOL    HW171791   7.198   7.048  10.387
23450SOL    HW271792   7.317   7.023  10.496
23451SOL     OW71793   5.903   6.133  10.590
23451SOL    HW171794   5.941   6.074  10.662
23451SOL    HW271795   5.943   6.107  10.502
23452SOL     OW71796   6.398   7.172   9.997
23452SOL    HW171797   6.430   7.182   9.903
23452SOL    HW271798   6.319   7.110   9.999
23453SOL     OW71799   7.010   5.800  10.422
23453SOL    HW171800   7.062   5.735  10.477
23453SOL    HW271801   6.961   5.863  10.483
23454SOL     OW71802   6.587   5.620  10.464
23454SOL    HW171803   6.524   5.548  10.433
23454SOL    HW271804   6.680   5.584  10.464
23455SOL     OW71805   6.356   6.916   9.611
23455SOL    HW171806   6.310   6.829   9.628
23455SOL    HW271807   6.447   6.913   9.652
23456SOL     OW71808   6.204   7.153  10.594
23456SOL    HW171809   6.199   7.235  10.651
23456SOL    HW271810   6.293   7.150  10.549
23457SOL     OW71811   6.938   5.638   9.478
23457SOL    HW171812   6.973   5.597   9.394
23457SOL    HW271813   6.848   5.600   9.498
23458SOL     OW71814   6.886   6.039  10.001
23458SOL    HW171815   6.827   6.119  10.005
23458SOL    HW271816   6.901   6.004  10.094
23459SOL     OW71817   7.179   5.807  10.192
23459SOL    HW171818   7.095   5.806  10.246
23459SOL    HW271819   7.181   5.890  10.136
23460SOL     OW71820   5.625   6.663   9.610
23460SOL    HW171821   5.724   6.652   9.601
23460SOL    HW271822   5.585   6.577   9.642
23461SOL     OW71823   6.461   7.232   9.647
23461SOL    HW171824   6.384   7.197   9.593
23461SOL    HW271825   6.429   7.303   9.709
23462SOL     OW71826   5.816   6.214  11.285
23462SOL    HW171827   5.723   6.212  11.322
23462SOL    HW271828   5.817   6.175  11.193
23463SOL     OW71829   5.811   5.861  12.168
23463SOL    HW171830   5.846   5.844  12.260
23463SOL    HW271831   5.723   5.816  12.156
23464SOL     OW71832   5.605   5.954  11.819
23464SOL    HW171833   5.523   5.997  11.858
23464SOL    HW271834   5.577   5.881  11.756
23465SOL     OW71835   6.155   6.861  12.337
23465SOL    HW171836   6.062   6.854  12.300
23465SOL    HW271837   6.166   6.950  12.381
23466SOL     OW71838   7.141   7.097  11.875
23466SOL    HW171839   7.084   7.081  11.956
23466SOL    HW271840   7.082   7.107  11.795
23467SOL     OW71841   6.721   6.289  11.889
23467SOL    HW171842   6.778   6.367  11.864
23467SOL    HW271843   6.661   6.315  11.965
23468SOL     OW71844   7.341   6.193  11.403
23468SOL    HW171845   7.329   6.180  11.304
23468SOL    HW271846   7.311   6.112  11.452
23469SOL     OW71847   6.354   6.730  12.195
23469SOL    HW171848   6.276   6.747  12.255
23469SOL    HW271849   6.388   6.817  12.159
23470SOL     OW71850   6.271   6.598  11.837
23470SOL    HW171851   6.340   6.582  11.907
23470SOL    HW271852   6.198   6.655  11.875
23471SOL     OW71853   5.921   7.021  12.233
23471SOL    HW171854   5.843   6.990  12.180
23471SOL    HW271855   5.979   7.079  12.176
23472SOL     OW71856   7.189   6.033  11.909
23472SOL    HW171857   7.115   6.079  11.859
23472SOL    HW271858   7.240   6.101  11.962
23473SOL     OW71859   5.817   7.299  11.655
23473SOL    HW171860   5.851   7.376  11.709
23473SOL    HW271861   5.861   7.299  11.565
23474SOL     OW71862   5.816   7.020  11.710
23474SOL    HW171863   5.790   7.116  11.710
23474SOL    HW271864   5.745   6.966  11.755
23475SOL     OW71865   5.826   6.677  12.058
23475SOL    HW171866   5.840   6.593  12.110
23475SOL    HW271867   5.771   6.741  12.113
23476SOL     OW71868   6.192   6.550  11.295
23476SOL    HW171869   6.199   6.634  11.241
23476SOL    HW271870   6.238   6.563  11.383
23477SOL     OW71871   5.708   6.229  11.735
23477SOL    HW171872   5.663   6.141  11.752
23477SOL    HW271873   5.707   6.283  11.819
23478SOL     OW71874   7.428   7.353  11.531
23478SOL    HW171875   7.482   7.324  11.611
23478SOL    HW271876   7.458   7.443  11.502
23479SOL     OW71877   5.613   7.182  11.289
23479SOL    HW171878   5.594   7.086  11.310
23479SOL    HW271879   5.580   7.240  11.364
23480SOL     OW71880   7.275   6.508  11.784
23480SOL    HW171881   7.370   6.479  11.792
23480SOL    HW271882   7.267   6.573  11.709
23481SOL     OW71883   7.227   6.694  11.604
23481SOL    HW171884   7.313   6.696  11.552
23481SOL    HW271885   7.241   6.741  11.692
23482SOL     OW71886   5.699   6.323  12.769
23482SOL    HW171887   5.787   6.310  12.814
23482SOL    HW271888   5.686   6.420  12.747
23483SOL     OW71889   6.199   6.951  11.898
23483SOL    HW171890   6.150   6.864  11.907
23483SOL    HW271891   6.176   6.994  11.811
23484SOL     OW71892   6.395   5.590  11.674
23484SOL    HW171893   6.435   5.681  11.665
23484SOL    HW271894   6.295   5.598  11.680
23485SOL     OW71895   5.783   6.562  12.436
23485SOL    HW171896   5.872   6.517  12.422
23485SOL    HW271897   5.710   6.497  12.417
23486SOL     OW71898   7.111   6.585  11.362
23486SOL    HW171899   7.048   6.509  11.375
23486SOL    HW271900   7.159   6.603  11.448
23487SOL     OW71901   7.052   7.003  12.125
23487SOL    HW171902   6.993   7.009  12.205
23487SOL    HW271903   7.037   6.915  12.079
23488SOL     OW71904   7.253   7.300  11.744
23488SOL    HW171905   7.212   7.277  11.656
23488SOL    HW271906   7.235   7.226  11.809
23489SOL     OW71907   6.184   6.315  11.442
23489SOL    HW171908   6.208   6.384  11.374
23489SOL    HW271909   6.106   6.348  11.496
23490SOL     OW71910   6.867   5.931  12.116
23490SOL    HW171911   6.781   5.881  12.103
23490SOL    HW271912   6.929   5.877  12.172
23491SOL     OW71913   7.162   7.248  11.479
23491SOL    HW171914   7.251   7.294  11.482
23491SOL    HW271915   7.141   7.224  11.384
23492SOL     OW71916   6.577   5.996  12.414
23492SOL    HW171917   6.500   6.030  12.468
23492SOL    HW271918   6.543   5.945  12.335
23493SOL     OW71919   6.627   6.287  11.601
23493SOL    HW171920   6.653   6.283  11.697
23493SOL    HW271921   6.542   6.236  11.587
23494SOL     OW71922   5.662   6.397  11.961
23494SOL    HW171923   5.761   6.385  11.970
23494SOL    HW271924   5.638   6.492  11.982
23495SOL     OW71925   6.451   5.934  11.367
23495SOL    HW171926   6.510   5.997  11.318
23495SOL    HW271927   6.470   5.840  11.338
23496SOL     OW71928   6.948   6.730  11.717
23496SOL    HW171929   7.031   6.701  11.669
23496SOL    HW271930   6.899   6.797  11.661
23497SOL     OW71931   6.136   5.782  12.057
23497SOL    HW171932   6.131   5.777  12.157
23497SOL    HW271933   6.138   5.878  12.028
23498SOL     OW71934   6.594   7.042  11.649
23498SOL    HW171935   6.548   7.114  11.597
23498SOL    HW271936   6.590   7.062  11.747
23499SOL     OW71937   5.937   7.387  12.025
23499SOL    HW171938   5.987   7.301  12.031
23499SOL    HW271939   6.002   7.464  12.022
23500SOL     OW71940   7.381   6.652  12.045
23500SOL    HW171941   7.319   6.637  11.969
23500SOL    HW271942   7.329   6.663  12.130
23501SOL     OW71943   5.907   6.529  11.414
23501SOL    HW171944   5.989   6.568  11.372
23501SOL    HW271945   5.880   6.447  11.365
23502SOL     OW71946   7.044   6.321  11.900
23502SOL    HW171947   7.039   6.256  11.975
23502SOL    HW271948   7.124   6.380  11.913
23503SOL     OW71949   6.697   7.362  11.409
23503SOL    HW171950   6.637   7.300  11.459
23503SOL    HW271951   6.728   7.318  11.324
23504SOL     OW71952   7.218   6.963  11.253
23504SOL    HW171953   7.186   7.057  11.243
23504SOL    HW271954   7.142   6.900  11.241
23505SOL     OW71955   6.050   7.329  11.495
23505SOL    HW171956   6.083   7.368  11.581
23505SOL    HW271957   6.126   7.322  11.430
23506SOL     OW71958   6.986   5.693  11.598
23506SOL    HW171959   6.962   5.656  11.508
23506SOL    HW271960   7.085   5.709  11.602
23507SOL     OW71961   5.835   7.371  12.413
23507SOL    HW171962   5.892   7.306  12.463
23507SOL    HW271963   5.819   7.338  12.320
23508SOL     OW71964   6.526   7.284  12.076
23508SOL    HW171965   6.606   7.227  12.097
23508SOL    HW271966   6.477   7.244  11.999
23509SOL     OW71967   5.968   6.286  11.652
23509SOL    HW171968   6.013   6.196  11.649
23509SOL    HW271969   5.874   6.275  11.685
23510SOL     OW71970   6.200   5.708  11.289
23510SOL    HW171971   6.298   5.686  11.296
23510SOL    HW271972   6.169   5.691  11.196
23511SOL     OW71973   6.389   6.988  12.096
23511SOL    HW171974   6.479   7.002  12.054
23511SOL    HW271975   6.318   6.990  12.025
23512SOL     OW71976   6.508   6.089  12.071
23512SOL    HW171977   6.483   6.080  11.975
23512SOL    HW271978   6.556   6.007  12.102
23513SOL     OW71979   6.125   5.650  11.684
23513SOL    HW171980   6.044   5.651  11.742
23513SOL    HW271981   6.128   5.733  11.629
23514SOL     OW71982   7.020   6.774  11.213
23514SOL    HW171983   7.052   6.698  11.270
23514SOL    HW271984   6.928   6.801  11.243
23515SOL     OW71985   5.883   5.621  11.343
23515SOL    HW171986   5.932   5.705  11.322
23515SOL    HW271987   5.945   5.556  11.388
23516SOL     OW71988   6.521   5.822  11.652
23516SOL    HW171989   6.473   5.863  11.574
23516SOL    HW271990   6.620   5.820  11.633
23517SOL     OW71991   6.813   7.156  11.965
23517SOL    HW171992   6.834   7.230  11.900
23517SOL    HW271993   6.881   7.156  12.038
23518SOL     OW71994   6.045   6.738  11.913
23518SOL    HW171995   5.974   6.711  11.978
23518SOL    HW271996   6.019   6.710  11.820
23519SOL     OW71997   6.857   7.383  11.763
23519SOL    HW171998   6.901   7.447  11.699
23519SOL    HW271999   6.807   7.435  11.833
23520SOL     OW72000   6.618   6.135  11.188
23520SOL    HW172001   6.577   6.217  11.149
23520SOL    HW272002   6.682   6.161  11.261
23521SOL     OW72003   6.147   5.808  12.319
23521SOL    HW172004   6.185   5.724  12.356
23521SOL    HW272005   6.059   5.827  12.363
23522SOL     OW72006   6.452   6.040  11.814
23522SOL    HW172007   6.420   6.112  11.752
23522SOL    HW272008   6.476   5.959  11.761
23523SOL     OW72009   6.603   5.625  11.925
23523SOL    HW172010   6.531   5.630  11.856
23523SOL    HW272011   6.579   5.556  11.994
23524SOL     OW72012   7.015   6.759  12.039
23524SOL    HW172013   6.960   6.675  12.032
23524SOL    HW272014   7.041   6.788  11.947
23525SOL     OW72015   7.052   6.176  12.164
23525SOL    HW172016   7.022   6.081  12.171
23525SOL    HW272017   7.125   6.192  12.230
23526SOL     OW72018   7.443   6.419  11.549
23526SOL    HW172019   7.485   6.355  11.613
23526SOL    HW272020   7.405   6.368  11.471
23527SOL     OW72021   6.074   6.971  11.346
23527SOL    HW172022   5.987   6.956  11.393
23527SOL    HW272023   6.057   6.997  11.251
23528SOL     OW72024   7.250   6.866  11.829
23528SOL    HW172025   7.349   6.874  11.843
23528SOL    HW272026   7.205   6.950  11.860
23529SOL     OW72027   6.976   6.161  11.250
23529SOL    HW172028   6.922   6.140  11.331
23529SOL    HW272029   7.067   6.120  11.259
23530SOL     OW72030   6.113   5.842  11.500
23530SOL    HW172031   6.140   5.783  11.425
23530SOL    HW272032   6.113   5.937  11.469
23531SOL     OW72033   6.697   6.781  12.272
23531SOL    HW172034   6.657   6.825  12.353
23531SOL    HW272035   6.656   6.818  12.189
23532SOL     OW72036   7.224   6.685  12.251
23532SOL    HW172037   7.229   6.766  12.310
23532SOL    HW272038   7.138   6.687  12.200
23533SOL     OW72039   6.291   6.636  11.540
23533SOL    HW172040   6.277   6.643  11.639
23533SOL    HW272041   6.375   6.585  11.522
23534SOL     OW72042   5.996   6.399  12.423
23534SOL    HW172043   6.082   6.411  12.473
23534SOL    HW272044   5.954   6.312  12.450
23535SOL     OW72045   6.860   5.972  12.434
23535SOL    HW172046   6.881   6.046  12.498
23535SOL    HW272047   6.771   5.989  12.391
23536SOL     OW72048   5.953   6.686  11.673
23536SOL    HW172049   5.946   6.769  11.617
23536SOL    HW272050   5.957   6.606  11.613
23537SOL     OW72051   6.152   6.123  12.037
23537SOL    HW172052   6.164   6.189  11.963
23537SOL    HW272053   6.198   6.157  12.120
23538SOL     OW72054   6.838   6.934  11.560
23538SOL    HW172055   6.888   7.011  11.600
23538SOL    HW272056   6.743   6.936  11.592
23539SOL     OW72057   6.858   7.031  12.314
23539SOL    HW172058   6.905   7.044  12.401
23539SOL    HW272059   6.792   6.957  12.323
23540SOL     OW72060   7.168   6.225  11.644
23540SOL    HW172061   7.137   6.286  11.717
23540SOL    HW272062   7.218   6.277  11.575
23541SOL     OW72063   5.940   7.096  12.501
23541SOL    HW172064   5.919   7.052  12.414
23541SOL    HW272065   6.037   7.122  12.504
23542SOL     OW72066   6.159   6.456  12.201
23542SOL    HW172067   6.203   6.545  12.192
23542SOL    HW272068   6.096   6.456  12.278
23543SOL     OW72069   6.946   6.448  12.217
23543SOL    HW172070   6.871   6.448  12.151
23543SOL    HW272071   6.983   6.356  12.226
23544SOL     OW72072   6.795   6.111  11.447
23544SOL    HW172073   6.808   6.027  11.501
23544SOL    HW272074   6.766   6.185  11.507
23545SOL     OW72075   5.893   5.799  12.403
23545SOL    HW172076   5.870   5.836  12.493
23545SOL    HW272077   5.863   5.704  12.397
23546SOL     OW72078   5.623   6.896  12.454
23546SOL    HW172079   5.676   6.847  12.522
23546SOL    HW272080   5.645   6.994  12.459
23547SOL     OW72081   6.318   6.220  12.236
23547SOL    HW172082   6.377   6.194  12.160
23547SOL    HW272083   6.290   6.316  12.225
23548SOL     OW72084   5.893   5.649  11.790
23548SOL    HW172085   5.882   5.743  11.823
23548SOL    HW272086   5.888   5.586  11.867
23549SOL     OW72087   7.208   5.953  11.546
23549SOL    HW172088   7.210   5.877  11.610
23549SOL    HW272089   7.160   6.030  11.586
23550SOL     OW72090   6.609   6.352  12.138
23550SOL    HW172091   6.624   6.373  12.234
23550SOL    HW272092   6.579   6.257  12.129
23551SOL     OW72093   7.126   5.860  11.297
23551SOL    HW172094   7.065   5.785  11.320
23551SOL    HW272095   7.148   5.912  11.380
23552SOL     OW72096   6.889   6.424  11.214
23552SOL    HW172097   6.923   6.331  11.229
23552SOL    HW272098   6.907   6.451  11.119
23553SOL     OW72099   6.654   6.919  12.021
23553SOL    HW172100   6.661   6.835  11.966
23553SOL    HW272101   6.716   6.988  11.985
23554SOL     OW72102   5.905   6.396  12.121
23554SOL    HW172103   5.998   6.432  12.126
23554SOL    HW272104   5.899   6.311  12.173
23555SOL     OW72105   5.925   6.095  12.178
23555SOL    HW172106   5.873   6.012  12.161
23555SOL    HW272107   6.002   6.100  12.114
23556SOL     OW72108   6.746   5.793  12.649
23556SOL    HW172109   6.746   5.857  12.726
23556SOL    HW272110   6.774   5.841  12.566
23557SOL     OW72111   5.594   6.912  11.372
23557SOL    HW172112   5.501   6.933  11.341
23557SOL    HW272113   5.604   6.813  11.385
23558SOL     OW72114   5.674   7.387  12.099
23558SOL    HW172115   5.632   7.301  12.072
23558SOL    HW272116   5.768   7.390  12.065
23559SOL     OW72117   6.090   7.154  12.082
23559SOL    HW172118   6.156   7.228  12.091
23559SOL    HW272119   6.134   7.075  12.040
23560SOL     OW72120   6.588   6.382  12.410
23560SOL    HW172121   6.629   6.350  12.496
23560SOL    HW272122   6.492   6.355  12.407
23561SOL     OW72123   5.626   6.130  12.286
23561SOL    HW172124   5.711   6.097  12.245
23561SOL    HW272125   5.639   6.145  12.384
23562SOL     OW72126   6.401   6.158  11.497
23562SOL    HW172127   6.408   6.069  11.451
23562SOL    HW272128   6.307   6.192  11.489
23563SOL     OW72129   7.243   6.190  12.378
23563SOL    HW172130   7.205   6.121  12.440
23563SOL    HW272131   7.325   6.154  12.334
23564SOL     OW72132   6.257   6.050  12.441
23564SOL    HW172133   6.223   5.961  12.411
23564SOL    HW272134   6.283   6.104  12.361
23565SOL     OW72135   6.516   7.264  12.637
23565SOL    HW172136   6.492   7.246  12.542
23565SOL    HW272137   6.546   7.358  12.647
23566SOL     OW72138   6.059   6.086  11.363
23566SOL    HW172139   6.120   6.166  11.367
23566SOL    HW272140   5.964   6.117  11.370
23567SOL     OW72141   6.933   6.645  12.406
23567SOL    HW172142   6.957   6.582  12.332
23567SOL    HW272143   6.843   6.685  12.388
23568SOL     OW72144   6.888   6.441  11.481
23568SOL    HW172145   6.802   6.410  11.523
23568SOL    HW272146   6.884   6.427  11.382
23569SOL     OW72147   7.345   7.333  12.326
23569SOL    HW172148   7.406   7.363  12.253
23569SOL    HW272149   7.307   7.244  12.304
23570SOL     OW72150   6.838   7.317  12.300
23570SOL    HW172151   6.922   7.322  12.246
23570SOL    HW272152   6.815   7.221  12.318
23571SOL     OW72153   5.669   6.844  12.194
23571SOL    HW172154   5.664   6.843  12.294
23571SOL    HW272155   5.586   6.803  12.156
23572SOL     OW72156   7.312   5.721  11.695
23572SOL    HW172157   7.385   5.704  11.628
23572SOL    HW272158   7.281   5.634  11.733
23573SOL     OW72159   6.974   7.159  11.649
23573SOL    HW172160   7.041   7.171  11.575
23573SOL    HW272161   6.934   7.248  11.672
23574SOL     OW72162   6.866   6.513  11.844
23574SOL    HW172163   6.926   6.432  11.846
23574SOL    HW272164   6.906   6.582  11.784
23575SOL     OW72165   6.258   7.202  11.326
23575SOL    HW172166   6.267   7.212  11.227
23575SOL    HW272167   6.218   7.113  11.347
23576SOL     OW72168   7.236   7.306  12.566
23576SOL    HW172169   7.289   7.316  12.482
23576SOL    HW272170   7.209   7.396  12.600
23577SOL     OW72171   7.427   5.761  12.135
23577SOL    HW172172   7.466   5.676  12.099
23577SOL    HW272173   7.329   5.763  12.116
23578SOL     OW72174   5.849   5.912  11.892
23578SOL    HW172175   5.770   5.963  11.858
23578SOL    HW272176   5.840   5.897  11.990
23579SOL     OW72177   6.780   7.198  11.203
23579SOL    HW172178   6.786   7.105  11.240
23579SOL    HW272179   6.721   7.198  11.123
23580SOL     OW72180   6.408   6.588  12.544
23580SOL    HW172181   6.448   6.587  12.452
23580SOL    HW272182   6.418   6.680  12.584
23581SOL     OW72183   6.502   6.496  11.463
23581SOL    HW172184   6.565   6.534  11.395
23581SOL    HW272185   6.542   6.413  11.502
23582SOL     OW72186   7.090   7.193  11.216
23582SOL    HW172187   6.998   7.230  11.223
23582SOL    HW272188   7.128   7.213  11.126
23583SOL     OW72189   6.625   6.684  11.868
23583SOL    HW172190   6.555   6.637  11.922
23583SOL    HW272191   6.684   6.616  11.825
23584SOL     OW72192   6.600   5.822  12.143
23584SOL    HW172193   6.592   5.786  12.050
23584SOL    HW272194   6.598   5.746  12.208
23585SOL     OW72195   6.176   7.073  11.663
23585SOL    HW172196   6.218   7.015  11.593
23585SOL    HW272197   6.132   7.152  11.619
23586SOL     OW72198   7.295   5.971  12.553
23586SOL    HW172199   7.368   6.040  12.557
23586SOL    HW272200   7.323   5.896  12.494
23587SOL     OW72201   5.841   6.934  11.462
23587SOL    HW172202   5.745   6.935  11.435
23587SOL    HW272203   5.853   6.987  11.546
23588SOL     OW72204   5.661   5.931  11.205
23588SOL    HW172205   5.569   5.903  11.176
23588SOL    HW272206   5.692   6.008  11.149
23589SOL     OW72207   5.658   5.752  11.490
23589SOL    HW172208   5.641   5.835  11.436
23589SOL    HW272209   5.748   5.715  11.468
23590SOL     OW72210   6.769   6.921  11.291
23590SOL    HW172211   6.670   6.910  11.293
23590SOL    HW272212   6.803   6.936  11.384
23591SOL     OW72213   7.079   7.353  12.131
23591SOL    HW172214   7.112   7.417  12.062
23591SOL    HW272215   7.145   7.347  12.206
23592SOL     OW72216   7.260   6.469  12.426
23592SOL    HW172217   7.233   6.380  12.389
23592SOL    HW272218   7.261   6.537  12.353
23593SOL     OW72219   6.811   5.911  11.621
23593SOL    HW172220   6.876   5.837  11.610
23593SOL    HW272221   6.831   5.961  11.705
23594SOL     OW72222   6.180   6.331  11.824
23594SOL    HW172223   6.230   6.416  11.805
23594SOL    HW272224   6.092   6.333  11.776
23595SOL     OW72225   7.316   6.520  12.689
23595SOL    HW172226   7.354   6.611  12.704
23595SOL    HW272227   7.308   6.503  12.590
23596SOL     OW72228   6.445   6.960  11.188
23596SOL    HW172229   6.399   6.975  11.276
23596SOL    HW272230   6.489   7.045  11.158
23597SOL     OW72231   6.247   7.376  12.125
23597SOL    HW172232   6.201   7.464  12.112
23597SOL    HW272233   6.346   7.388  12.118
23598SOL     OW72234   6.445   6.542  12.033
23598SOL    HW172235   6.499   6.473  12.081
23598SOL    HW272236   6.413   6.611  12.099
23599SOL     OW72237   6.669   6.570  11.259
23599SOL    HW172238   6.646   6.623  11.177
23599SOL    HW272239   6.750   6.514  11.240
23600SOL     OW72240   7.447   7.155  12.023
23600SOL    HW172241   7.376   7.143  11.953
23600SOL    HW272242   7.448   7.076  12.083
23601SOL     OW72243   5.665   6.826  11.825
23601SOL    HW172244   5.664   6.779  11.913
23601SOL    HW272245   5.747   6.798  11.774
23602SOL     OW72246   7.410   5.778  12.399
23602SOL    HW172247   7.406   5.688  12.443
23602SOL    HW272248   7.413   5.767  12.300
23603SOL     OW72249   6.014   6.010  11.692
23603SOL    HW172250   6.044   5.938  11.630
23603SOL    HW272251   5.975   5.970  11.775
23604SOL     OW72252   7.291   7.073  12.276
23604SOL    HW172253   7.198   7.048  12.249
23604SOL    HW272254   7.317   7.023  12.358
23605SOL     OW72255   6.398   7.172  11.859
23605SOL    HW172256   6.430   7.182  11.765
23605SOL    HW272257   6.319   7.110  11.861
23606SOL     OW72258   7.010   5.800  12.284
23606SOL    HW172259   7.062   5.735  12.339
23606SOL    HW272260   6.961   5.863  12.345
23607SOL     OW72261   6.587   5.620  12.326
23607SOL    HW172262   6.524   5.548  12.295
23607SOL    HW272263   6.680   5.584  12.326
23608SOL     OW72264   6.356   6.916  11.473
23608SOL    HW172265   6.310   6.829  11.490
23608SOL    HW272266   6.447   6.913  11.514
23609SOL     OW72267   6.938   5.638  11.340
23609SOL    HW172268   6.973   5.597  11.256
23609SOL    HW272269   6.848   5.600  11.360
23610SOL     OW72270   6.886   6.039  11.863
23610SOL    HW172271   6.827   6.119  11.867
23610SOL    HW272272   6.901   6.004  11.956
23611SOL     OW72273   7.179   5.807  12.054
23611SOL    HW172274   7.095   5.806  12.108
23611SOL    HW272275   7.181   5.890  11.998
23612SOL     OW72276   5.625   6.663  11.472
23612SOL    HW172277   5.724   6.652  11.463
23612SOL    HW272278   5.585   6.577  11.504
23613SOL     OW72279   6.461   7.232  11.509
23613SOL    HW172280   6.384   7.197  11.455
23613SOL    HW272281   6.429   7.303  11.571
23614SOL     OW72282   5.811   7.723   0.996
23614SOL    HW172283   5.846   7.706   1.088
23614SOL    HW272284   5.723   7.678   0.984
23615SOL     OW72285   5.605   7.816   0.647
23615SOL    HW172286   5.523   7.859   0.686
23615SOL    HW272287   5.577   7.743   0.584
23616SOL     OW72288   7.341   8.055   0.231
23616SOL    HW172289   7.329   8.042   0.132
23616SOL    HW272290   7.311   7.974   0.280
23617SOL     OW72291   6.024   7.840   1.499
23617SOL    HW172292   6.106   7.784   1.508
23617SOL    HW272293   5.943   7.782   1.503
23618SOL     OW72294   7.189   7.895   0.737
23618SOL    HW172295   7.115   7.941   0.687
23618SOL    HW272296   7.240   7.963   0.790
23619SOL     OW72297   7.180   7.562   1.480
23619SOL    HW172298   7.162   7.629   1.408
23619SOL    HW272299   7.177   7.608   1.569
23620SOL     OW72300   5.708   8.091   0.563
23620SOL    HW172301   5.663   8.003   0.580
23620SOL    HW272302   5.707   8.145   0.647
23621SOL     OW72303   6.395   7.452   0.502
23621SOL    HW172304   6.435   7.543   0.493
23621SOL    HW272305   6.295   7.460   0.508
23622SOL     OW72306   5.903   7.699   1.801
23622SOL    HW172307   5.974   7.770   1.807
23622SOL    HW272308   5.815   7.738   1.829
23623SOL     OW72309   6.867   7.793   0.944
23623SOL    HW172310   6.781   7.743   0.931
23623SOL    HW272311   6.929   7.739   1.000
23624SOL     OW72312   6.980   7.917   1.674
23624SOL    HW172313   6.960   7.960   1.762
23624SOL    HW272314   7.058   7.855   1.683
23625SOL     OW72315   6.559   8.338   1.572
23625SOL    HW172316   6.605   8.254   1.543
23625SOL    HW272317   6.503   8.372   1.497
23626SOL     OW72318   6.577   7.858   1.242
23626SOL    HW172319   6.500   7.892   1.296
23626SOL    HW272320   6.543   7.807   1.163
23627SOL     OW72321   6.451   7.796   0.195
23627SOL    HW172322   6.510   7.859   0.146
23627SOL    HW272323   6.470   7.702   0.166
23628SOL     OW72324   7.305   8.033   1.831
23628SOL    HW172325   7.279   8.122   1.795
23628SOL    HW272326   7.303   7.965   1.758
23629SOL     OW72327   6.136   7.644   0.885
23629SOL    HW172328   6.131   7.639   0.985
23629SOL    HW272329   6.138   7.740   0.856
23630SOL     OW72330   5.788   7.733   1.498
23630SOL    HW172331   5.708   7.793   1.485
23630SOL    HW272332   5.778   7.684   1.584
23631SOL     OW72333   6.986   7.555   0.426
23631SOL    HW172334   6.962   7.518   0.336
23631SOL    HW272335   7.085   7.571   0.430
23632SOL     OW72336   7.133   7.670   1.729
23632SOL    HW172337   7.128   7.707   1.821
23632SOL    HW272338   7.061   7.601   1.717
23633SOL     OW72339   6.200   7.570   0.117
23633SOL    HW172340   6.298   7.548   0.124
23633SOL    HW272341   6.169   7.553   0.024
23634SOL     OW72342   6.367   7.712   1.749
23634SOL    HW172343   6.434   7.651   1.792
23634SOL    HW272344   6.294   7.731   1.814
23635SOL     OW72345   6.937   8.038   1.433
23635SOL    HW172346   6.965   7.995   1.518
23635SOL    HW272347   6.962   8.134   1.434
23636SOL     OW72348   6.125   7.512   0.512
23636SOL    HW172349   6.044   7.513   0.570
23636SOL    HW272350   6.128   7.595   0.457
23637SOL     OW72351   5.883   7.483   0.171
23637SOL    HW172352   5.932   7.567   0.150
23637SOL    HW272353   5.945   7.418   0.216
23638SOL     OW72354   6.521   7.684   0.480
23638SOL    HW172355   6.473   7.725   0.402
23638SOL    HW272356   6.620   7.682   0.461
23639SOL     OW72357   5.664   8.004   1.386
23639SOL    HW172358   5.756   8.003   1.345
23639SOL    HW272359   5.658   8.078   1.453
23640SOL     OW72360   6.147   7.670   1.147
23640SOL    HW172361   6.185   7.586   1.184
23640SOL    HW272362   6.059   7.689   1.191
23641SOL     OW72363   6.603   7.487   0.753
23641SOL    HW172364   6.531   7.492   0.684
23641SOL    HW272365   6.579   7.418   0.822
23642SOL     OW72366   7.052   8.038   0.992
23642SOL    HW172367   7.022   7.943   0.999
23642SOL    HW272368   7.125   8.054   1.058
23643SOL     OW72369   6.113   7.704   0.328
23643SOL    HW172370   6.140   7.645   0.253
23643SOL    HW272371   6.113   7.799   0.297
23644SOL     OW72372   6.501   7.537   1.402
23644SOL    HW172373   6.526   7.517   1.307
23644SOL    HW272374   6.573   7.593   1.444
23645SOL     OW72375   6.860   7.834   1.262
23645SOL    HW172376   6.881   7.908   1.326
23645SOL    HW272377   6.771   7.851   1.219
23646SOL     OW72378   6.152   7.985   0.865
23646SOL    HW172379   6.164   8.051   0.791
23646SOL    HW272380   6.198   8.019   0.948
23647SOL     OW72381   6.599   7.553   1.770
23647SOL    HW172382   6.605   7.638   1.718
23647SOL    HW272383   6.631   7.477   1.713
23648SOL     OW72384   6.090   7.498   1.740
23648SOL    HW172385   6.048   7.441   1.670
23648SOL    HW272386   6.024   7.567   1.772
23649SOL     OW72387   5.893   7.661   1.231
23649SOL    HW172388   5.870   7.698   1.321
23649SOL    HW272389   5.863   7.566   1.225
23650SOL     OW72390   6.318   8.082   1.064
23650SOL    HW172391   6.377   8.056   0.988
23650SOL    HW272392   6.290   8.178   1.053
23651SOL     OW72393   5.893   7.511   0.618
23651SOL    HW172394   5.882   7.605   0.651
23651SOL    HW272395   5.888   7.448   0.695
23652SOL     OW72396   7.208   7.815   0.374
23652SOL    HW172397   7.210   7.739   0.438
23652SOL    HW272398   7.160   7.892   0.414
23653SOL     OW72399   7.126   7.722   0.125
23653SOL    HW172400   7.065   7.647   0.148
23653SOL    HW272401   7.148   7.774   0.208
23654SOL     OW72402   5.925   7.957   1.006
23654SOL    HW172403   5.873   7.874   0.989
23654SOL    HW272404   6.002   7.962   0.942
23655SOL     OW72405   6.724   7.828   1.678
23655SOL    HW172406   6.679   7.891   1.742
23655SOL    HW272407   6.817   7.859   1.661
23656SOL     OW72408   6.746   7.655   1.477
23656SOL    HW172409   6.746   7.719   1.554
23656SOL    HW272410   6.774   7.703   1.394
23657SOL     OW72411   5.626   7.992   1.114
23657SOL    HW172412   5.711   7.959   1.073
23657SOL    HW272413   5.639   8.007   1.212
23658SOL     OW72414   5.775   7.968   1.722
23658SOL    HW172415   5.834   7.928   1.652
23658SOL    HW272416   5.717   8.039   1.681
23659SOL     OW72417   6.401   8.020   0.325
23659SOL    HW172418   6.408   7.931   0.279
23659SOL    HW272419   6.307   8.054   0.317
23660SOL     OW72420   7.243   8.052   1.206
23660SOL    HW172421   7.205   7.983   1.268
23660SOL    HW272422   7.325   8.016   1.162
23661SOL     OW72423   6.257   7.912   1.269
23661SOL    HW172424   6.223   7.823   1.239
23661SOL    HW272425   6.283   7.966   1.189
23662SOL     OW72426   6.489   7.534   0.133
23662SOL    HW172427   6.540   7.535   0.047
23662SOL    HW272428   6.545   7.492   0.204
23663SOL     OW72429   7.312   7.583   0.523
23663SOL    HW172430   7.385   7.566   0.456
23663SOL    HW272431   7.281   7.496   0.561
23664SOL     OW72432   7.427   7.623   0.963
23664SOL    HW172433   7.466   7.538   0.927
23664SOL    HW272434   7.329   7.625   0.944
23665SOL     OW72435   5.849   7.774   0.720
23665SOL    HW172436   5.770   7.825   0.686
23665SOL    HW272437   5.840   7.759   0.818
23666SOL     OW72438   6.600   7.684   0.971
23666SOL    HW172439   6.592   7.648   0.878
23666SOL    HW272440   6.598   7.608   1.036
23667SOL     OW72441   7.295   7.833   1.381
23667SOL    HW172442   7.368   7.902   1.385
23667SOL    HW272443   7.323   7.758   1.322
23668SOL     OW72444   6.258   7.651   1.489
23668SOL    HW172445   6.348   7.635   1.449
23668SOL    HW272446   6.266   7.656   1.588
23669SOL     OW72447   5.658   7.614   0.318
23669SOL    HW172448   5.641   7.697   0.264
23669SOL    HW272449   5.748   7.577   0.296
23670SOL     OW72450   6.302   8.013   1.708
23670SOL    HW172451   6.321   8.078   1.782
23670SOL    HW272452   6.362   7.933   1.717
23671SOL     OW72453   6.811   7.773   0.449
23671SOL    HW172454   6.876   7.699   0.438
23671SOL    HW272455   6.831   7.823   0.533
23672SOL     OW72456   6.180   8.193   0.652
23672SOL    HW172457   6.230   8.278   0.633
23672SOL    HW272458   6.092   8.195   0.604
23673SOL     OW72459   7.363   7.790   1.642
23673SOL    HW172460   7.346   7.821   1.548
23673SOL    HW272461   7.279   7.753   1.680
23674SOL     OW72462   7.410   7.640   1.227
23674SOL    HW172463   7.406   7.550   1.271
23674SOL    HW272464   7.413   7.629   1.128
23675SOL     OW72465   6.014   7.872   0.520
23675SOL    HW172466   6.044   7.800   0.458
23675SOL    HW272467   5.975   7.832   0.603
23676SOL     OW72468   7.010   7.662   1.112
23676SOL    HW172469   7.062   7.597   1.167
23676SOL    HW272470   6.961   7.725   1.173
23677SOL     OW72471   6.587   7.482   1.154
23677SOL    HW172472   6.524   7.410   1.123
23677SOL    HW272473   6.680   7.446   1.154
23678SOL     OW72474   6.938   7.500   0.168
23678SOL    HW172475   6.973   7.459   0.084
23678SOL    HW272476   6.848   7.462   0.188
23679SOL     OW72477   6.886   7.901   0.691
23679SOL    HW172478   6.827   7.981   0.695
23679SOL    HW272479   6.901   7.866   0.784
23680SOL     OW72480   7.179   7.669   0.882
23680SOL    HW172481   7.095   7.668   0.936
23680SOL    HW272482   7.181   7.752   0.826
23681SOL     OW72483   5.811   7.723   2.858
23681SOL    HW172484   5.846   7.706   2.950
23681SOL    HW272485   5.723   7.678   2.846
23682SOL     OW72486   5.605   7.816   2.509
23682SOL    HW172487   5.523   7.859   2.548
23682SOL    HW272488   5.577   7.743   2.446
23683SOL     OW72489   7.341   8.055   2.093
23683SOL    HW172490   7.329   8.042   1.994
23683SOL    HW272491   7.311   7.974   2.142
23684SOL     OW72492   6.024   7.840   3.361
23684SOL    HW172493   6.106   7.784   3.370
23684SOL    HW272494   5.943   7.782   3.365
23685SOL     OW72495   7.189   7.895   2.599
23685SOL    HW172496   7.115   7.941   2.549
23685SOL    HW272497   7.240   7.963   2.652
23686SOL     OW72498   7.180   7.562   3.342
23686SOL    HW172499   7.162   7.629   3.270
23686SOL    HW272500   7.177   7.608   3.431
23687SOL     OW72501   5.708   8.091   2.425
23687SOL    HW172502   5.663   8.003   2.442
23687SOL    HW272503   5.707   8.145   2.509
23688SOL     OW72504   6.395   7.452   2.364
23688SOL    HW172505   6.435   7.543   2.355
23688SOL    HW272506   6.295   7.460   2.370
23689SOL     OW72507   5.903   7.699   3.663
23689SOL    HW172508   5.974   7.770   3.669
23689SOL    HW272509   5.815   7.738   3.691
23690SOL     OW72510   6.867   7.793   2.806
23690SOL    HW172511   6.781   7.743   2.793
23690SOL    HW272512   6.929   7.739   2.862
23691SOL     OW72513   6.980   7.917   3.536
23691SOL    HW172514   6.960   7.960   3.624
23691SOL    HW272515   7.058   7.855   3.545
23692SOL     OW72516   6.559   8.338   3.434
23692SOL    HW172517   6.605   8.254   3.405
23692SOL    HW272518   6.503   8.372   3.359
23693SOL     OW72519   6.577   7.858   3.104
23693SOL    HW172520   6.500   7.892   3.158
23693SOL    HW272521   6.543   7.807   3.025
23694SOL     OW72522   6.451   7.796   2.057
23694SOL    HW172523   6.510   7.859   2.008
23694SOL    HW272524   6.470   7.702   2.028
23695SOL     OW72525   7.305   8.033   3.693
23695SOL    HW172526   7.279   8.122   3.657
23695SOL    HW272527   7.303   7.965   3.620
23696SOL     OW72528   6.136   7.644   2.747
23696SOL    HW172529   6.131   7.639   2.847
23696SOL    HW272530   6.138   7.740   2.718
23697SOL     OW72531   5.788   7.733   3.360
23697SOL    HW172532   5.708   7.793   3.347
23697SOL    HW272533   5.778   7.684   3.446
23698SOL     OW72534   6.986   7.555   2.288
23698SOL    HW172535   6.962   7.518   2.198
23698SOL    HW272536   7.085   7.571   2.292
23699SOL     OW72537   7.133   7.670   3.591
23699SOL    HW172538   7.128   7.707   3.683
23699SOL    HW272539   7.061   7.601   3.579
23700SOL     OW72540   6.200   7.570   1.979
23700SOL    HW172541   6.298   7.548   1.986
23700SOL    HW272542   6.169   7.553   1.886
23701SOL     OW72543   6.367   7.712   3.611
23701SOL    HW172544   6.434   7.651   3.654
23701SOL    HW272545   6.294   7.731   3.676
23702SOL     OW72546   6.937   8.038   3.295
23702SOL    HW172547   6.965   7.995   3.380
23702SOL    HW272548   6.962   8.134   3.296
23703SOL     OW72549   6.125   7.512   2.374
23703SOL    HW172550   6.044   7.513   2.432
23703SOL    HW272551   6.128   7.595   2.319
23704SOL     OW72552   5.883   7.483   2.033
23704SOL    HW172553   5.932   7.567   2.012
23704SOL    HW272554   5.945   7.418   2.078
23705SOL     OW72555   6.521   7.684   2.342
23705SOL    HW172556   6.473   7.725   2.264
23705SOL    HW272557   6.620   7.682   2.323
23706SOL     OW72558   5.664   8.004   3.248
23706SOL    HW172559   5.756   8.003   3.207
23706SOL    HW272560   5.658   8.078   3.315
23707SOL     OW72561   6.147   7.670   3.009
23707SOL    HW172562   6.185   7.586   3.046
23707SOL    HW272563   6.059   7.689   3.053
23708SOL     OW72564   6.603   7.487   2.615
23708SOL    HW172565   6.531   7.492   2.546
23708SOL    HW272566   6.579   7.418   2.684
23709SOL     OW72567   7.052   8.038   2.854
23709SOL    HW172568   7.022   7.943   2.861
23709SOL    HW272569   7.125   8.054   2.920
23710SOL     OW72570   6.113   7.704   2.190
23710SOL    HW172571   6.140   7.645   2.115
23710SOL    HW272572   6.113   7.799   2.159
23711SOL     OW72573   6.501   7.537   3.264
23711SOL    HW172574   6.526   7.517   3.169
23711SOL    HW272575   6.573   7.593   3.306
23712SOL     OW72576   6.860   7.834   3.124
23712SOL    HW172577   6.881   7.908   3.188
23712SOL    HW272578   6.771   7.851   3.081
23713SOL     OW72579   6.152   7.985   2.727
23713SOL    HW172580   6.164   8.051   2.653
23713SOL    HW272581   6.198   8.019   2.810
23714SOL     OW72582   6.599   7.553   3.632
23714SOL    HW172583   6.605   7.638   3.580
23714SOL    HW272584   6.631   7.477   3.575
23715SOL     OW72585   6.090   7.498   3.602
23715SOL    HW172586   6.048   7.441   3.532
23715SOL    HW272587   6.024   7.567   3.634
23716SOL     OW72588   5.893   7.661   3.093
23716SOL    HW172589   5.870   7.698   3.183
23716SOL    HW272590   5.863   7.566   3.087
23717SOL     OW72591   6.318   8.082   2.926
23717SOL    HW172592   6.377   8.056   2.850
23717SOL    HW272593   6.290   8.178   2.915
23718SOL     OW72594   5.893   7.511   2.480
23718SOL    HW172595   5.882   7.605   2.513
23718SOL    HW272596   5.888   7.448   2.557
23719SOL     OW72597   7.208   7.815   2.236
23719SOL    HW172598   7.210   7.739   2.300
23719SOL    HW272599   7.160   7.892   2.276
23720SOL     OW72600   7.126   7.722   1.987
23720SOL    HW172601   7.065   7.647   2.010
23720SOL    HW272602   7.148   7.774   2.070
23721SOL     OW72603   6.889   8.286   1.904
23721SOL    HW172604   6.923   8.193   1.919
23721SOL    HW272605   6.907   8.313   1.809
23722SOL     OW72606   5.925   7.957   2.868
23722SOL    HW172607   5.873   7.874   2.851
23722SOL    HW272608   6.002   7.962   2.804
23723SOL     OW72609   6.724   7.828   3.540
23723SOL    HW172610   6.679   7.891   3.604
23723SOL    HW272611   6.817   7.859   3.523
23724SOL     OW72612   6.746   7.655   3.339
23724SOL    HW172613   6.746   7.719   3.416
23724SOL    HW272614   6.774   7.703   3.256
23725SOL     OW72615   5.626   7.992   2.976
23725SOL    HW172616   5.711   7.959   2.935
23725SOL    HW272617   5.639   8.007   3.074
23726SOL     OW72618   5.775   7.968   3.584
23726SOL    HW172619   5.834   7.928   3.514
23726SOL    HW272620   5.717   8.039   3.543
23727SOL     OW72621   6.401   8.020   2.187
23727SOL    HW172622   6.408   7.931   2.141
23727SOL    HW272623   6.307   8.054   2.179
23728SOL     OW72624   7.243   8.052   3.068
23728SOL    HW172625   7.205   7.983   3.130
23728SOL    HW272626   7.325   8.016   3.024
23729SOL     OW72627   6.257   7.912   3.131
23729SOL    HW172628   6.223   7.823   3.101
23729SOL    HW272629   6.283   7.966   3.051
23730SOL     OW72630   7.312   7.583   2.385
23730SOL    HW172631   7.385   7.566   2.318
23730SOL    HW272632   7.281   7.496   2.423
23731SOL     OW72633   7.427   7.623   2.825
23731SOL    HW172634   7.466   7.538   2.789
23731SOL    HW272635   7.329   7.625   2.806
23732SOL     OW72636   5.849   7.774   2.582
23732SOL    HW172637   5.770   7.825   2.548
23732SOL    HW272638   5.840   7.759   2.680
23733SOL     OW72639   6.600   7.684   2.833
23733SOL    HW172640   6.592   7.648   2.740
23733SOL    HW272641   6.598   7.608   2.898
23734SOL     OW72642   7.295   7.833   3.243
23734SOL    HW172643   7.368   7.902   3.247
23734SOL    HW272644   7.323   7.758   3.184
23735SOL     OW72645   6.258   7.651   3.351
23735SOL    HW172646   6.348   7.635   3.311
23735SOL    HW272647   6.266   7.656   3.450
23736SOL     OW72648   5.661   7.793   1.895
23736SOL    HW172649   5.569   7.765   1.866
23736SOL    HW272650   5.692   7.870   1.839
23737SOL     OW72651   5.658   7.614   2.180
23737SOL    HW172652   5.641   7.697   2.126
23737SOL    HW272653   5.748   7.577   2.158
23738SOL     OW72654   6.302   8.013   3.570
23738SOL    HW172655   6.321   8.078   3.644
23738SOL    HW272656   6.362   7.933   3.579
23739SOL     OW72657   6.811   7.773   2.311
23739SOL    HW172658   6.876   7.699   2.300
23739SOL    HW272659   6.831   7.823   2.395
23740SOL     OW72660   6.180   8.193   2.514
23740SOL    HW172661   6.230   8.278   2.495
23740SOL    HW272662   6.092   8.195   2.466
23741SOL     OW72663   7.363   7.790   3.504
23741SOL    HW172664   7.346   7.821   3.410
23741SOL    HW272665   7.279   7.753   3.542
23742SOL     OW72666   7.410   7.640   3.089
23742SOL    HW172667   7.406   7.550   3.133
23742SOL    HW272668   7.413   7.629   2.990
23743SOL     OW72669   6.014   7.872   2.382
23743SOL    HW172670   6.044   7.800   2.320
23743SOL    HW272671   5.975   7.832   2.465
23744SOL     OW72672   7.010   7.662   2.974
23744SOL    HW172673   7.062   7.597   3.029
23744SOL    HW272674   6.961   7.725   3.035
23745SOL     OW72675   6.587   7.482   3.016
23745SOL    HW172676   6.524   7.410   2.985
23745SOL    HW272677   6.680   7.446   3.016
23746SOL     OW72678   6.938   7.500   2.030
23746SOL    HW172679   6.973   7.459   1.946
23746SOL    HW272680   6.848   7.462   2.050
23747SOL     OW72681   6.886   7.901   2.553
23747SOL    HW172682   6.827   7.981   2.557
23747SOL    HW272683   6.901   7.866   2.646
23748SOL     OW72684   7.179   7.669   2.744
23748SOL    HW172685   7.095   7.668   2.798
23748SOL    HW272686   7.181   7.752   2.688
23749SOL     OW72687   5.811   7.723   4.720
23749SOL    HW172688   5.846   7.706   4.812
23749SOL    HW272689   5.723   7.678   4.708
23750SOL     OW72690   5.605   7.816   4.371
23750SOL    HW172691   5.523   7.859   4.410
23750SOL    HW272692   5.577   7.743   4.308
23751SOL     OW72693   7.341   8.055   3.955
23751SOL    HW172694   7.329   8.042   3.856
23751SOL    HW272695   7.311   7.974   4.004
23752SOL     OW72696   6.024   7.840   5.223
23752SOL    HW172697   6.106   7.784   5.232
23752SOL    HW272698   5.943   7.782   5.227
23753SOL     OW72699   7.189   7.895   4.461
23753SOL    HW172700   7.115   7.941   4.411
23753SOL    HW272701   7.240   7.963   4.514
23754SOL     OW72702   7.180   7.562   5.204
23754SOL    HW172703   7.162   7.629   5.132
23754SOL    HW272704   7.177   7.608   5.293
23755SOL     OW72705   5.708   8.091   4.287
23755SOL    HW172706   5.663   8.003   4.304
23755SOL    HW272707   5.707   8.145   4.371
23756SOL     OW72708   6.395   7.452   4.226
23756SOL    HW172709   6.435   7.543   4.217
23756SOL    HW272710   6.295   7.460   4.232
23757SOL     OW72711   5.903   7.699   5.525
23757SOL    HW172712   5.974   7.770   5.531
23757SOL    HW272713   5.815   7.738   5.553
23758SOL     OW72714   6.867   7.793   4.668
23758SOL    HW172715   6.781   7.743   4.655
23758SOL    HW272716   6.929   7.739   4.724
23759SOL     OW72717   6.980   7.917   5.398
23759SOL    HW172718   6.960   7.960   5.486
23759SOL    HW272719   7.058   7.855   5.407
23760SOL     OW72720   6.559   8.338   5.296
23760SOL    HW172721   6.605   8.254   5.267
23760SOL    HW272722   6.503   8.372   5.221
23761SOL     OW72723   6.577   7.858   4.966
23761SOL    HW172724   6.500   7.892   5.020
23761SOL    HW272725   6.543   7.807   4.887
23762SOL     OW72726   6.451   7.796   3.919
23762SOL    HW172727   6.510   7.859   3.870
23762SOL    HW272728   6.470   7.702   3.890
23763SOL     OW72729   7.305   8.033   5.555
23763SOL    HW172730   7.279   8.122   5.519
23763SOL    HW272731   7.303   7.965   5.482
23764SOL     OW72732   6.136   7.644   4.609
23764SOL    HW172733   6.131   7.639   4.709
23764SOL    HW272734   6.138   7.740   4.580
23765SOL     OW72735   5.788   7.733   5.222
23765SOL    HW172736   5.708   7.793   5.209
23765SOL    HW272737   5.778   7.684   5.308
23766SOL     OW72738   6.986   7.555   4.150
23766SOL    HW172739   6.962   7.518   4.060
23766SOL    HW272740   7.085   7.571   4.154
23767SOL     OW72741   7.133   7.670   5.453
23767SOL    HW172742   7.128   7.707   5.545
23767SOL    HW272743   7.061   7.601   5.441
23768SOL     OW72744   6.200   7.570   3.841
23768SOL    HW172745   6.298   7.548   3.848
23768SOL    HW272746   6.169   7.553   3.748
23769SOL     OW72747   6.367   7.712   5.473
23769SOL    HW172748   6.434   7.651   5.516
23769SOL    HW272749   6.294   7.731   5.538
23770SOL     OW72750   6.937   8.038   5.157
23770SOL    HW172751   6.965   7.995   5.242
23770SOL    HW272752   6.962   8.134   5.158
23771SOL     OW72753   6.125   7.512   4.236
23771SOL    HW172754   6.044   7.513   4.294
23771SOL    HW272755   6.128   7.595   4.181
23772SOL     OW72756   5.883   7.483   3.895
23772SOL    HW172757   5.932   7.567   3.874
23772SOL    HW272758   5.945   7.418   3.940
23773SOL     OW72759   6.521   7.684   4.204
23773SOL    HW172760   6.473   7.725   4.126
23773SOL    HW272761   6.620   7.682   4.185
23774SOL     OW72762   5.664   8.004   5.110
23774SOL    HW172763   5.756   8.003   5.069
23774SOL    HW272764   5.658   8.078   5.177
23775SOL     OW72765   6.147   7.670   4.871
23775SOL    HW172766   6.185   7.586   4.908
23775SOL    HW272767   6.059   7.689   4.915
23776SOL     OW72768   6.603   7.487   4.477
23776SOL    HW172769   6.531   7.492   4.408
23776SOL    HW272770   6.579   7.418   4.546
23777SOL     OW72771   7.052   8.038   4.716
23777SOL    HW172772   7.022   7.943   4.723
23777SOL    HW272773   7.125   8.054   4.782
23778SOL     OW72774   6.113   7.704   4.052
23778SOL    HW172775   6.140   7.645   3.977
23778SOL    HW272776   6.113   7.799   4.021
23779SOL     OW72777   6.501   7.537   5.126
23779SOL    HW172778   6.526   7.517   5.031
23779SOL    HW272779   6.573   7.593   5.168
23780SOL     OW72780   6.860   7.834   4.986
23780SOL    HW172781   6.881   7.908   5.050
23780SOL    HW272782   6.771   7.851   4.943
23781SOL     OW72783   6.152   7.985   4.589
23781SOL    HW172784   6.164   8.051   4.515
23781SOL    HW272785   6.198   8.019   4.672
23782SOL     OW72786   6.599   7.553   5.494
23782SOL    HW172787   6.605   7.638   5.442
23782SOL    HW272788   6.631   7.477   5.437
23783SOL     OW72789   6.090   7.498   5.464
23783SOL    HW172790   6.048   7.441   5.394
23783SOL    HW272791   6.024   7.567   5.496
23784SOL     OW72792   5.893   7.661   4.955
23784SOL    HW172793   5.870   7.698   5.045
23784SOL    HW272794   5.863   7.566   4.949
23785SOL     OW72795   6.318   8.082   4.788
23785SOL    HW172796   6.377   8.056   4.712
23785SOL    HW272797   6.290   8.178   4.777
23786SOL     OW72798   5.893   7.511   4.342
23786SOL    HW172799   5.882   7.605   4.375
23786SOL    HW272800   5.888   7.448   4.419
23787SOL     OW72801   7.208   7.815   4.098
23787SOL    HW172802   7.210   7.739   4.162
23787SOL    HW272803   7.160   7.892   4.138
23788SOL     OW72804   7.126   7.722   3.849
23788SOL    HW172805   7.065   7.647   3.872
23788SOL    HW272806   7.148   7.774   3.932
23789SOL     OW72807   6.889   8.286   3.766
23789SOL    HW172808   6.923   8.193   3.781
23789SOL    HW272809   6.907   8.313   3.671
23790SOL     OW72810   5.925   7.957   4.730
23790SOL    HW172811   5.873   7.874   4.713
23790SOL    HW272812   6.002   7.962   4.666
23791SOL     OW72813   6.724   7.828   5.402
23791SOL    HW172814   6.679   7.891   5.466
23791SOL    HW272815   6.817   7.859   5.385
23792SOL     OW72816   6.746   7.655   5.201
23792SOL    HW172817   6.746   7.719   5.278
23792SOL    HW272818   6.774   7.703   5.118
23793SOL     OW72819   5.626   7.992   4.838
23793SOL    HW172820   5.711   7.959   4.797
23793SOL    HW272821   5.639   8.007   4.936
23794SOL     OW72822   5.775   7.968   5.446
23794SOL    HW172823   5.834   7.928   5.376
23794SOL    HW272824   5.717   8.039   5.405
23795SOL     OW72825   6.401   8.020   4.049
23795SOL    HW172826   6.408   7.931   4.003
23795SOL    HW272827   6.307   8.054   4.041
23796SOL     OW72828   7.243   8.052   4.930
23796SOL    HW172829   7.205   7.983   4.992
23796SOL    HW272830   7.325   8.016   4.886
23797SOL     OW72831   6.257   7.912   4.993
23797SOL    HW172832   6.223   7.823   4.963
23797SOL    HW272833   6.283   7.966   4.913
23798SOL     OW72834   7.312   7.583   4.247
23798SOL    HW172835   7.385   7.566   4.180
23798SOL    HW272836   7.281   7.496   4.285
23799SOL     OW72837   7.427   7.623   4.687
23799SOL    HW172838   7.466   7.538   4.651
23799SOL    HW272839   7.329   7.625   4.668
23800SOL     OW72840   5.849   7.774   4.444
23800SOL    HW172841   5.770   7.825   4.410
23800SOL    HW272842   5.840   7.759   4.542
23801SOL     OW72843   6.600   7.684   4.695
23801SOL    HW172844   6.592   7.648   4.602
23801SOL    HW272845   6.598   7.608   4.760
23802SOL     OW72846   7.295   7.833   5.105
23802SOL    HW172847   7.368   7.902   5.109
23802SOL    HW272848   7.323   7.758   5.046
23803SOL     OW72849   6.258   7.651   5.213
23803SOL    HW172850   6.348   7.635   5.173
23803SOL    HW272851   6.266   7.656   5.312
23804SOL     OW72852   5.661   7.793   3.757
23804SOL    HW172853   5.569   7.765   3.728
23804SOL    HW272854   5.692   7.870   3.701
23805SOL     OW72855   5.658   7.614   4.042
23805SOL    HW172856   5.641   7.697   3.988
23805SOL    HW272857   5.748   7.577   4.020
23806SOL     OW72858   6.302   8.013   5.432
23806SOL    HW172859   6.321   8.078   5.506
23806SOL    HW272860   6.362   7.933   5.441
23807SOL     OW72861   6.811   7.773   4.173
23807SOL    HW172862   6.876   7.699   4.162
23807SOL    HW272863   6.831   7.823   4.257
23808SOL     OW72864   6.180   8.193   4.376
23808SOL    HW172865   6.230   8.278   4.357
23808SOL    HW272866   6.092   8.195   4.328
23809SOL     OW72867   7.363   7.790   5.366
23809SOL    HW172868   7.346   7.821   5.272
23809SOL    HW272869   7.279   7.753   5.404
23810SOL     OW72870   7.410   7.640   4.951
23810SOL    HW172871   7.406   7.550   4.995
23810SOL    HW272872   7.413   7.629   4.852
23811SOL     OW72873   6.014   7.872   4.244
23811SOL    HW172874   6.044   7.800   4.182
23811SOL    HW272875   5.975   7.832   4.327
23812SOL     OW72876   7.010   7.662   4.836
23812SOL    HW172877   7.062   7.597   4.891
23812SOL    HW272878   6.961   7.725   4.897
23813SOL     OW72879   6.587   7.482   4.878
23813SOL    HW172880   6.524   7.410   4.847
23813SOL    HW272881   6.680   7.446   4.878
23814SOL     OW72882   6.938   7.500   3.892
23814SOL    HW172883   6.973   7.459   3.808
23814SOL    HW272884   6.848   7.462   3.912
23815SOL     OW72885   6.886   7.901   4.415
23815SOL    HW172886   6.827   7.981   4.419
23815SOL    HW272887   6.901   7.866   4.508
23816SOL     OW72888   7.179   7.669   4.606
23816SOL    HW172889   7.095   7.668   4.660
23816SOL    HW272890   7.181   7.752   4.550
23817SOL     OW72891   5.811   7.723   6.582
23817SOL    HW172892   5.846   7.706   6.674
23817SOL    HW272893   5.723   7.678   6.570
23818SOL     OW72894   5.605   7.816   6.233
23818SOL    HW172895   5.523   7.859   6.272
23818SOL    HW272896   5.577   7.743   6.170
23819SOL     OW72897   7.341   8.055   5.817
23819SOL    HW172898   7.329   8.042   5.718
23819SOL    HW272899   7.311   7.974   5.866
23820SOL     OW72900   6.024   7.840   7.085
23820SOL    HW172901   6.106   7.784   7.094
23820SOL    HW272902   5.943   7.782   7.089
23821SOL     OW72903   7.189   7.895   6.323
23821SOL    HW172904   7.115   7.941   6.273
23821SOL    HW272905   7.240   7.963   6.376
23822SOL     OW72906   7.180   7.562   7.066
23822SOL    HW172907   7.162   7.629   6.994
23822SOL    HW272908   7.177   7.608   7.155
23823SOL     OW72909   5.708   8.091   6.149
23823SOL    HW172910   5.663   8.003   6.166
23823SOL    HW272911   5.707   8.145   6.233
23824SOL     OW72912   6.395   7.452   6.088
23824SOL    HW172913   6.435   7.543   6.079
23824SOL    HW272914   6.295   7.460   6.094
23825SOL     OW72915   5.903   7.699   7.387
23825SOL    HW172916   5.974   7.770   7.393
23825SOL    HW272917   5.815   7.738   7.415
23826SOL     OW72918   6.867   7.793   6.530
23826SOL    HW172919   6.781   7.743   6.517
23826SOL    HW272920   6.929   7.739   6.586
23827SOL     OW72921   6.980   7.917   7.260
23827SOL    HW172922   6.960   7.960   7.348
23827SOL    HW272923   7.058   7.855   7.269
23828SOL     OW72924   6.559   8.338   7.158
23828SOL    HW172925   6.605   8.254   7.129
23828SOL    HW272926   6.503   8.372   7.083
23829SOL     OW72927   6.577   7.858   6.828
23829SOL    HW172928   6.500   7.892   6.882
23829SOL    HW272929   6.543   7.807   6.749
23830SOL     OW72930   6.451   7.796   5.781
23830SOL    HW172931   6.510   7.859   5.732
23830SOL    HW272932   6.470   7.702   5.752
23831SOL     OW72933   7.305   8.033   7.417
23831SOL    HW172934   7.279   8.122   7.381
23831SOL    HW272935   7.303   7.965   7.344
23832SOL     OW72936   6.136   7.644   6.471
23832SOL    HW172937   6.131   7.639   6.571
23832SOL    HW272938   6.138   7.740   6.442
23833SOL     OW72939   5.788   7.733   7.084
23833SOL    HW172940   5.708   7.793   7.071
23833SOL    HW272941   5.778   7.684   7.170
23834SOL     OW72942   6.986   7.555   6.012
23834SOL    HW172943   6.962   7.518   5.922
23834SOL    HW272944   7.085   7.571   6.016
23835SOL     OW72945   7.133   7.670   7.315
23835SOL    HW172946   7.128   7.707   7.407
23835SOL    HW272947   7.061   7.601   7.303
23836SOL     OW72948   6.200   7.570   5.703
23836SOL    HW172949   6.298   7.548   5.710
23836SOL    HW272950   6.169   7.553   5.610
23837SOL     OW72951   6.367   7.712   7.335
23837SOL    HW172952   6.434   7.651   7.378
23837SOL    HW272953   6.294   7.731   7.400
23838SOL     OW72954   6.937   8.038   7.019
23838SOL    HW172955   6.965   7.995   7.104
23838SOL    HW272956   6.962   8.134   7.020
23839SOL     OW72957   6.125   7.512   6.098
23839SOL    HW172958   6.044   7.513   6.156
23839SOL    HW272959   6.128   7.595   6.043
23840SOL     OW72960   5.883   7.483   5.757
23840SOL    HW172961   5.932   7.567   5.736
23840SOL    HW272962   5.945   7.418   5.802
23841SOL     OW72963   6.521   7.684   6.066
23841SOL    HW172964   6.473   7.725   5.988
23841SOL    HW272965   6.620   7.682   6.047
23842SOL     OW72966   5.664   8.004   6.972
23842SOL    HW172967   5.756   8.003   6.931
23842SOL    HW272968   5.658   8.078   7.039
23843SOL     OW72969   6.147   7.670   6.733
23843SOL    HW172970   6.185   7.586   6.770
23843SOL    HW272971   6.059   7.689   6.777
23844SOL     OW72972   6.603   7.487   6.339
23844SOL    HW172973   6.531   7.492   6.270
23844SOL    HW272974   6.579   7.418   6.408
23845SOL     OW72975   7.052   8.038   6.578
23845SOL    HW172976   7.022   7.943   6.585
23845SOL    HW272977   7.125   8.054   6.644
23846SOL     OW72978   6.113   7.704   5.914
23846SOL    HW172979   6.140   7.645   5.839
23846SOL    HW272980   6.113   7.799   5.883
23847SOL     OW72981   6.501   7.537   6.988
23847SOL    HW172982   6.526   7.517   6.893
23847SOL    HW272983   6.573   7.593   7.030
23848SOL     OW72984   6.860   7.834   6.848
23848SOL    HW172985   6.881   7.908   6.912
23848SOL    HW272986   6.771   7.851   6.805
23849SOL     OW72987   6.152   7.985   6.451
23849SOL    HW172988   6.164   8.051   6.377
23849SOL    HW272989   6.198   8.019   6.534
23850SOL     OW72990   6.599   7.553   7.356
23850SOL    HW172991   6.605   7.638   7.304
23850SOL    HW272992   6.631   7.477   7.299
23851SOL     OW72993   6.090   7.498   7.326
23851SOL    HW172994   6.048   7.441   7.256
23851SOL    HW272995   6.024   7.567   7.358
23852SOL     OW72996   5.893   7.661   6.817
23852SOL    HW172997   5.870   7.698   6.907
23852SOL    HW272998   5.863   7.566   6.811
23853SOL     OW72999   6.318   8.082   6.650
23853SOL    HW173000   6.377   8.056   6.574
23853SOL    HW273001   6.290   8.178   6.639
23854SOL     OW73002   5.893   7.511   6.204
23854SOL    HW173003   5.882   7.605   6.237
23854SOL    HW273004   5.888   7.448   6.281
23855SOL     OW73005   7.208   7.815   5.960
23855SOL    HW173006   7.210   7.739   6.024
23855SOL    HW273007   7.160   7.892   6.000
23856SOL     OW73008   7.126   7.722   5.711
23856SOL    HW173009   7.065   7.647   5.734
23856SOL    HW273010   7.148   7.774   5.794
23857SOL     OW73011   6.889   8.286   5.628
23857SOL    HW173012   6.923   8.193   5.643
23857SOL    HW273013   6.907   8.313   5.533
23858SOL     OW73014   5.925   7.957   6.592
23858SOL    HW173015   5.873   7.874   6.575
23858SOL    HW273016   6.002   7.962   6.528
23859SOL     OW73017   6.724   7.828   7.264
23859SOL    HW173018   6.679   7.891   7.328
23859SOL    HW273019   6.817   7.859   7.247
23860SOL     OW73020   6.746   7.655   7.063
23860SOL    HW173021   6.746   7.719   7.140
23860SOL    HW273022   6.774   7.703   6.980
23861SOL     OW73023   5.626   7.992   6.700
23861SOL    HW173024   5.711   7.959   6.659
23861SOL    HW273025   5.639   8.007   6.798
23862SOL     OW73026   5.775   7.968   7.308
23862SOL    HW173027   5.834   7.928   7.238
23862SOL    HW273028   5.717   8.039   7.267
23863SOL     OW73029   6.401   8.020   5.911
23863SOL    HW173030   6.408   7.931   5.865
23863SOL    HW273031   6.307   8.054   5.903
23864SOL     OW73032   7.243   8.052   6.792
23864SOL    HW173033   7.205   7.983   6.854
23864SOL    HW273034   7.325   8.016   6.748
23865SOL     OW73035   6.257   7.912   6.855
23865SOL    HW173036   6.223   7.823   6.825
23865SOL    HW273037   6.283   7.966   6.775
23866SOL     OW73038   7.312   7.583   6.109
23866SOL    HW173039   7.385   7.566   6.042
23866SOL    HW273040   7.281   7.496   6.147
23867SOL     OW73041   7.427   7.623   6.549
23867SOL    HW173042   7.466   7.538   6.513
23867SOL    HW273043   7.329   7.625   6.530
23868SOL     OW73044   5.849   7.774   6.306
23868SOL    HW173045   5.770   7.825   6.272
23868SOL    HW273046   5.840   7.759   6.404
23869SOL     OW73047   6.600   7.684   6.557
23869SOL    HW173048   6.592   7.648   6.464
23869SOL    HW273049   6.598   7.608   6.622
23870SOL     OW73050   7.295   7.833   6.967
23870SOL    HW173051   7.368   7.902   6.971
23870SOL    HW273052   7.323   7.758   6.908
23871SOL     OW73053   6.258   7.651   7.075
23871SOL    HW173054   6.348   7.635   7.035
23871SOL    HW273055   6.266   7.656   7.174
23872SOL     OW73056   5.661   7.793   5.619
23872SOL    HW173057   5.569   7.765   5.590
23872SOL    HW273058   5.692   7.870   5.563
23873SOL     OW73059   5.658   7.614   5.904
23873SOL    HW173060   5.641   7.697   5.850
23873SOL    HW273061   5.748   7.577   5.882
23874SOL     OW73062   6.302   8.013   7.294
23874SOL    HW173063   6.321   8.078   7.368
23874SOL    HW273064   6.362   7.933   7.303
23875SOL     OW73065   6.811   7.773   6.035
23875SOL    HW173066   6.876   7.699   6.024
23875SOL    HW273067   6.831   7.823   6.119
23876SOL     OW73068   6.180   8.193   6.238
23876SOL    HW173069   6.230   8.278   6.219
23876SOL    HW273070   6.092   8.195   6.190
23877SOL     OW73071   7.363   7.790   7.228
23877SOL    HW173072   7.346   7.821   7.134
23877SOL    HW273073   7.279   7.753   7.266
23878SOL     OW73074   7.410   7.640   6.813
23878SOL    HW173075   7.406   7.550   6.857
23878SOL    HW273076   7.413   7.629   6.714
23879SOL     OW73077   6.014   7.872   6.106
23879SOL    HW173078   6.044   7.800   6.044
23879SOL    HW273079   5.975   7.832   6.189
23880SOL     OW73080   7.010   7.662   6.698
23880SOL    HW173081   7.062   7.597   6.753
23880SOL    HW273082   6.961   7.725   6.759
23881SOL     OW73083   6.587   7.482   6.740
23881SOL    HW173084   6.524   7.410   6.709
23881SOL    HW273085   6.680   7.446   6.740
23882SOL     OW73086   6.938   7.500   5.754
23882SOL    HW173087   6.973   7.459   5.670
23882SOL    HW273088   6.848   7.462   5.774
23883SOL     OW73089   6.886   7.901   6.277
23883SOL    HW173090   6.827   7.981   6.281
23883SOL    HW273091   6.901   7.866   6.370
23884SOL     OW73092   7.179   7.669   6.468
23884SOL    HW173093   7.095   7.668   6.522
23884SOL    HW273094   7.181   7.752   6.412
23885SOL     OW73095   5.811   7.723   8.444
23885SOL    HW173096   5.846   7.706   8.536
23885SOL    HW273097   5.723   7.678   8.432
23886SOL     OW73098   5.605   7.816   8.095
23886SOL    HW173099   5.523   7.859   8.134
23886SOL    HW273100   5.577   7.743   8.032
23887SOL     OW73101   7.341   8.055   7.679
23887SOL    HW173102   7.329   8.042   7.580
23887SOL    HW273103   7.311   7.974   7.728
23888SOL     OW73104   6.024   7.840   8.947
23888SOL    HW173105   6.106   7.784   8.956
23888SOL    HW273106   5.943   7.782   8.951
23889SOL     OW73107   7.189   7.895   8.185
23889SOL    HW173108   7.115   7.941   8.135
23889SOL    HW273109   7.240   7.963   8.238
23890SOL     OW73110   7.180   7.562   8.928
23890SOL    HW173111   7.162   7.629   8.856
23890SOL    HW273112   7.177   7.608   9.017
23891SOL     OW73113   5.708   8.091   8.011
23891SOL    HW173114   5.663   8.003   8.028
23891SOL    HW273115   5.707   8.145   8.095
23892SOL     OW73116   6.395   7.452   7.950
23892SOL    HW173117   6.435   7.543   7.941
23892SOL    HW273118   6.295   7.460   7.956
23893SOL     OW73119   5.903   7.699   9.249
23893SOL    HW173120   5.974   7.770   9.255
23893SOL    HW273121   5.815   7.738   9.277
23894SOL     OW73122   6.867   7.793   8.392
23894SOL    HW173123   6.781   7.743   8.379
23894SOL    HW273124   6.929   7.739   8.448
23895SOL     OW73125   6.980   7.917   9.122
23895SOL    HW173126   6.960   7.960   9.210
23895SOL    HW273127   7.058   7.855   9.131
23896SOL     OW73128   6.559   8.338   9.020
23896SOL    HW173129   6.605   8.254   8.991
23896SOL    HW273130   6.503   8.372   8.945
23897SOL     OW73131   6.577   7.858   8.690
23897SOL    HW173132   6.500   7.892   8.744
23897SOL    HW273133   6.543   7.807   8.611
23898SOL     OW73134   6.451   7.796   7.643
23898SOL    HW173135   6.510   7.859   7.594
23898SOL    HW273136   6.470   7.702   7.614
23899SOL     OW73137   7.305   8.033   9.279
23899SOL    HW173138   7.279   8.122   9.243
23899SOL    HW273139   7.303   7.965   9.206
23900SOL     OW73140   6.136   7.644   8.333
23900SOL    HW173141   6.131   7.639   8.433
23900SOL    HW273142   6.138   7.740   8.304
23901SOL     OW73143   5.788   7.733   8.946
23901SOL    HW173144   5.708   7.793   8.933
23901SOL    HW273145   5.778   7.684   9.032
23902SOL     OW73146   6.986   7.555   7.874
23902SOL    HW173147   6.962   7.518   7.784
23902SOL    HW273148   7.085   7.571   7.878
23903SOL     OW73149   7.133   7.670   9.177
23903SOL    HW173150   7.128   7.707   9.269
23903SOL    HW273151   7.061   7.601   9.165
23904SOL     OW73152   6.200   7.570   7.565
23904SOL    HW173153   6.298   7.548   7.572
23904SOL    HW273154   6.169   7.553   7.472
23905SOL     OW73155   6.367   7.712   9.197
23905SOL    HW173156   6.434   7.651   9.240
23905SOL    HW273157   6.294   7.731   9.262
23906SOL     OW73158   6.937   8.038   8.881
23906SOL    HW173159   6.965   7.995   8.966
23906SOL    HW273160   6.962   8.134   8.882
23907SOL     OW73161   6.125   7.512   7.960
23907SOL    HW173162   6.044   7.513   8.018
23907SOL    HW273163   6.128   7.595   7.905
23908SOL     OW73164   5.883   7.483   7.619
23908SOL    HW173165   5.932   7.567   7.598
23908SOL    HW273166   5.945   7.418   7.664
23909SOL     OW73167   6.521   7.684   7.928
23909SOL    HW173168   6.473   7.725   7.850
23909SOL    HW273169   6.620   7.682   7.909
23910SOL     OW73170   5.664   8.004   8.834
23910SOL    HW173171   5.756   8.003   8.793
23910SOL    HW273172   5.658   8.078   8.901
23911SOL     OW73173   6.147   7.670   8.595
23911SOL    HW173174   6.185   7.586   8.632
23911SOL    HW273175   6.059   7.689   8.639
23912SOL     OW73176   6.603   7.487   8.201
23912SOL    HW173177   6.531   7.492   8.132
23912SOL    HW273178   6.579   7.418   8.270
23913SOL     OW73179   7.052   8.038   8.440
23913SOL    HW173180   7.022   7.943   8.447
23913SOL    HW273181   7.125   8.054   8.506
23914SOL     OW73182   6.113   7.704   7.776
23914SOL    HW173183   6.140   7.645   7.701
23914SOL    HW273184   6.113   7.799   7.745
23915SOL     OW73185   6.501   7.537   8.850
23915SOL    HW173186   6.526   7.517   8.755
23915SOL    HW273187   6.573   7.593   8.892
23916SOL     OW73188   6.860   7.834   8.710
23916SOL    HW173189   6.881   7.908   8.774
23916SOL    HW273190   6.771   7.851   8.667
23917SOL     OW73191   6.152   7.985   8.313
23917SOL    HW173192   6.164   8.051   8.239
23917SOL    HW273193   6.198   8.019   8.396
23918SOL     OW73194   6.599   7.553   9.218
23918SOL    HW173195   6.605   7.638   9.166
23918SOL    HW273196   6.631   7.477   9.161
23919SOL     OW73197   6.090   7.498   9.188
23919SOL    HW173198   6.048   7.441   9.118
23919SOL    HW273199   6.024   7.567   9.220
23920SOL     OW73200   5.893   7.661   8.679
23920SOL    HW173201   5.870   7.698   8.769
23920SOL    HW273202   5.863   7.566   8.673
23921SOL     OW73203   6.318   8.082   8.512
23921SOL    HW173204   6.377   8.056   8.436
23921SOL    HW273205   6.290   8.178   8.501
23922SOL     OW73206   5.893   7.511   8.066
23922SOL    HW173207   5.882   7.605   8.099
23922SOL    HW273208   5.888   7.448   8.143
23923SOL     OW73209   7.208   7.815   7.822
23923SOL    HW173210   7.210   7.739   7.886
23923SOL    HW273211   7.160   7.892   7.862
23924SOL     OW73212   7.126   7.722   7.573
23924SOL    HW173213   7.065   7.647   7.596
23924SOL    HW273214   7.148   7.774   7.656
23925SOL     OW73215   6.889   8.286   7.490
23925SOL    HW173216   6.923   8.193   7.505
23925SOL    HW273217   6.907   8.313   7.395
23926SOL     OW73218   5.925   7.957   8.454
23926SOL    HW173219   5.873   7.874   8.437
23926SOL    HW273220   6.002   7.962   8.390
23927SOL     OW73221   6.724   7.828   9.126
23927SOL    HW173222   6.679   7.891   9.190
23927SOL    HW273223   6.817   7.859   9.109
23928SOL     OW73224   6.746   7.655   8.925
23928SOL    HW173225   6.746   7.719   9.002
23928SOL    HW273226   6.774   7.703   8.842
23929SOL     OW73227   5.626   7.992   8.562
23929SOL    HW173228   5.711   7.959   8.521
23929SOL    HW273229   5.639   8.007   8.660
23930SOL     OW73230   5.775   7.968   9.170
23930SOL    HW173231   5.834   7.928   9.100
23930SOL    HW273232   5.717   8.039   9.129
23931SOL     OW73233   6.401   8.020   7.773
23931SOL    HW173234   6.408   7.931   7.727
23931SOL    HW273235   6.307   8.054   7.765
23932SOL     OW73236   7.243   8.052   8.654
23932SOL    HW173237   7.205   7.983   8.716
23932SOL    HW273238   7.325   8.016   8.610
23933SOL     OW73239   6.257   7.912   8.717
23933SOL    HW173240   6.223   7.823   8.687
23933SOL    HW273241   6.283   7.966   8.637
23934SOL     OW73242   7.312   7.583   7.971
23934SOL    HW173243   7.385   7.566   7.904
23934SOL    HW273244   7.281   7.496   8.009
23935SOL     OW73245   7.427   7.623   8.411
23935SOL    HW173246   7.466   7.538   8.375
23935SOL    HW273247   7.329   7.625   8.392
23936SOL     OW73248   5.849   7.774   8.168
23936SOL    HW173249   5.770   7.825   8.134
23936SOL    HW273250   5.840   7.759   8.266
23937SOL     OW73251   6.600   7.684   8.419
23937SOL    HW173252   6.592   7.648   8.326
23937SOL    HW273253   6.598   7.608   8.484
23938SOL     OW73254   7.295   7.833   8.829
23938SOL    HW173255   7.368   7.902   8.833
23938SOL    HW273256   7.323   7.758   8.770
23939SOL     OW73257   6.258   7.651   8.937
23939SOL    HW173258   6.348   7.635   8.897
23939SOL    HW273259   6.266   7.656   9.036
23940SOL     OW73260   5.661   7.793   7.481
23940SOL    HW173261   5.569   7.765   7.452
23940SOL    HW273262   5.692   7.870   7.425
23941SOL     OW73263   5.658   7.614   7.766
23941SOL    HW173264   5.641   7.697   7.712
23941SOL    HW273265   5.748   7.577   7.744
23942SOL     OW73266   6.302   8.013   9.156
23942SOL    HW173267   6.321   8.078   9.230
23942SOL    HW273268   6.362   7.933   9.165
23943SOL     OW73269   6.811   7.773   7.897
23943SOL    HW173270   6.876   7.699   7.886
23943SOL    HW273271   6.831   7.823   7.981
23944SOL     OW73272   6.180   8.193   8.100
23944SOL    HW173273   6.230   8.278   8.081
23944SOL    HW273274   6.092   8.195   8.052
23945SOL     OW73275   7.363   7.790   9.090
23945SOL    HW173276   7.346   7.821   8.996
23945SOL    HW273277   7.279   7.753   9.128
23946SOL     OW73278   7.410   7.640   8.675
23946SOL    HW173279   7.406   7.550   8.719
23946SOL    HW273280   7.413   7.629   8.576
23947SOL     OW73281   6.014   7.872   7.968
23947SOL    HW173282   6.044   7.800   7.906
23947SOL    HW273283   5.975   7.832   8.051
23948SOL     OW73284   7.010   7.662   8.560
23948SOL    HW173285   7.062   7.597   8.615
23948SOL    HW273286   6.961   7.725   8.621
23949SOL     OW73287   6.587   7.482   8.602
23949SOL    HW173288   6.524   7.410   8.571
23949SOL    HW273289   6.680   7.446   8.602
23950SOL     OW73290   6.938   7.500   7.616
23950SOL    HW173291   6.973   7.459   7.532
23950SOL    HW273292   6.848   7.462   7.636
23951SOL     OW73293   6.886   7.901   8.139
23951SOL    HW173294   6.827   7.981   8.143
23951SOL    HW273295   6.901   7.866   8.232
23952SOL     OW73296   7.179   7.669   8.330
23952SOL    HW173297   7.095   7.668   8.384
23952SOL    HW273298   7.181   7.752   8.274
23953SOL     OW73299   5.811   7.723  10.306
23953SOL    HW173300   5.846   7.706  10.398
23953SOL    HW273301   5.723   7.678  10.294
23954SOL     OW73302   5.605   7.816   9.957
23954SOL    HW173303   5.523   7.859   9.996
23954SOL    HW273304   5.577   7.743   9.894
23955SOL     OW73305   7.341   8.055   9.541
23955SOL    HW173306   7.329   8.042   9.442
23955SOL    HW273307   7.311   7.974   9.590
23956SOL     OW73308   6.024   7.840  10.809
23956SOL    HW173309   6.106   7.784  10.818
23956SOL    HW273310   5.943   7.782  10.813
23957SOL     OW73311   7.189   7.895  10.047
23957SOL    HW173312   7.115   7.941   9.997
23957SOL    HW273313   7.240   7.963  10.100
23958SOL     OW73314   7.180   7.562  10.790
23958SOL    HW173315   7.162   7.629  10.718
23958SOL    HW273316   7.177   7.608  10.879
23959SOL     OW73317   5.708   8.091   9.873
23959SOL    HW173318   5.663   8.003   9.890
23959SOL    HW273319   5.707   8.145   9.957
23960SOL     OW73320   6.395   7.452   9.812
23960SOL    HW173321   6.435   7.543   9.803
23960SOL    HW273322   6.295   7.460   9.818
23961SOL     OW73323   5.903   7.699  11.111
23961SOL    HW173324   5.974   7.770  11.117
23961SOL    HW273325   5.815   7.738  11.139
23962SOL     OW73326   6.867   7.793  10.254
23962SOL    HW173327   6.781   7.743  10.241
23962SOL    HW273328   6.929   7.739  10.310
23963SOL     OW73329   6.980   7.917  10.984
23963SOL    HW173330   6.960   7.960  11.072
23963SOL    HW273331   7.058   7.855  10.993
23964SOL     OW73332   6.559   8.338  10.882
23964SOL    HW173333   6.605   8.254  10.853
23964SOL    HW273334   6.503   8.372  10.807
23965SOL     OW73335   6.577   7.858  10.552
23965SOL    HW173336   6.500   7.892  10.606
23965SOL    HW273337   6.543   7.807  10.473
23966SOL     OW73338   6.451   7.796   9.505
23966SOL    HW173339   6.510   7.859   9.456
23966SOL    HW273340   6.470   7.702   9.476
23967SOL     OW73341   7.305   8.033  11.141
23967SOL    HW173342   7.279   8.122  11.105
23967SOL    HW273343   7.303   7.965  11.068
23968SOL     OW73344   6.136   7.644  10.195
23968SOL    HW173345   6.131   7.639  10.295
23968SOL    HW273346   6.138   7.740  10.166
23969SOL     OW73347   5.788   7.733  10.808
23969SOL    HW173348   5.708   7.793  10.795
23969SOL    HW273349   5.778   7.684  10.894
23970SOL     OW73350   6.986   7.555   9.736
23970SOL    HW173351   6.962   7.518   9.646
23970SOL    HW273352   7.085   7.571   9.740
23971SOL     OW73353   7.133   7.670  11.039
23971SOL    HW173354   7.128   7.707  11.131
23971SOL    HW273355   7.061   7.601  11.027
23972SOL     OW73356   6.200   7.570   9.427
23972SOL    HW173357   6.298   7.548   9.434
23972SOL    HW273358   6.169   7.553   9.334
23973SOL     OW73359   6.367   7.712  11.059
23973SOL    HW173360   6.434   7.651  11.102
23973SOL    HW273361   6.294   7.731  11.124
23974SOL     OW73362   6.937   8.038  10.743
23974SOL    HW173363   6.965   7.995  10.828
23974SOL    HW273364   6.962   8.134  10.744
23975SOL     OW73365   6.125   7.512   9.822
23975SOL    HW173366   6.044   7.513   9.880
23975SOL    HW273367   6.128   7.595   9.767
23976SOL     OW73368   5.883   7.483   9.481
23976SOL    HW173369   5.932   7.567   9.460
23976SOL    HW273370   5.945   7.418   9.526
23977SOL     OW73371   6.521   7.684   9.790
23977SOL    HW173372   6.473   7.725   9.712
23977SOL    HW273373   6.620   7.682   9.771
23978SOL     OW73374   5.664   8.004  10.696
23978SOL    HW173375   5.756   8.003  10.655
23978SOL    HW273376   5.658   8.078  10.763
23979SOL     OW73377   6.147   7.670  10.457
23979SOL    HW173378   6.185   7.586  10.494
23979SOL    HW273379   6.059   7.689  10.501
23980SOL     OW73380   6.603   7.487  10.063
23980SOL    HW173381   6.531   7.492   9.994
23980SOL    HW273382   6.579   7.418  10.132
23981SOL     OW73383   7.052   8.038  10.302
23981SOL    HW173384   7.022   7.943  10.309
23981SOL    HW273385   7.125   8.054  10.368
23982SOL     OW73386   6.113   7.704   9.638
23982SOL    HW173387   6.140   7.645   9.563
23982SOL    HW273388   6.113   7.799   9.607
23983SOL     OW73389   6.501   7.537  10.712
23983SOL    HW173390   6.526   7.517  10.617
23983SOL    HW273391   6.573   7.593  10.754
23984SOL     OW73392   6.860   7.834  10.572
23984SOL    HW173393   6.881   7.908  10.636
23984SOL    HW273394   6.771   7.851  10.529
23985SOL     OW73395   6.152   7.985  10.175
23985SOL    HW173396   6.164   8.051  10.101
23985SOL    HW273397   6.198   8.019  10.258
23986SOL     OW73398   6.599   7.553  11.080
23986SOL    HW173399   6.605   7.638  11.028
23986SOL    HW273400   6.631   7.477  11.023
23987SOL     OW73401   6.090   7.498  11.050
23987SOL    HW173402   6.048   7.441  10.980
23987SOL    HW273403   6.024   7.567  11.082
23988SOL     OW73404   5.893   7.661  10.541
23988SOL    HW173405   5.870   7.698  10.631
23988SOL    HW273406   5.863   7.566  10.535
23989SOL     OW73407   6.318   8.082  10.374
23989SOL    HW173408   6.377   8.056  10.298
23989SOL    HW273409   6.290   8.178  10.363
23990SOL     OW73410   5.893   7.511   9.928
23990SOL    HW173411   5.882   7.605   9.961
23990SOL    HW273412   5.888   7.448  10.005
23991SOL     OW73413   7.208   7.815   9.684
23991SOL    HW173414   7.210   7.739   9.748
23991SOL    HW273415   7.160   7.892   9.724
23992SOL     OW73416   7.126   7.722   9.435
23992SOL    HW173417   7.065   7.647   9.458
23992SOL    HW273418   7.148   7.774   9.518
23993SOL     OW73419   6.889   8.286   9.352
23993SOL    HW173420   6.923   8.193   9.367
23993SOL    HW273421   6.907   8.313   9.257
23994SOL     OW73422   5.925   7.957  10.316
23994SOL    HW173423   5.873   7.874  10.299
23994SOL    HW273424   6.002   7.962  10.252
23995SOL     OW73425   6.724   7.828  10.988
23995SOL    HW173426   6.679   7.891  11.052
23995SOL    HW273427   6.817   7.859  10.971
23996SOL     OW73428   6.746   7.655  10.787
23996SOL    HW173429   6.746   7.719  10.864
23996SOL    HW273430   6.774   7.703  10.704
23997SOL     OW73431   5.626   7.992  10.424
23997SOL    HW173432   5.711   7.959  10.383
23997SOL    HW273433   5.639   8.007  10.522
23998SOL     OW73434   5.775   7.968  11.032
23998SOL    HW173435   5.834   7.928  10.962
23998SOL    HW273436   5.717   8.039  10.991
23999SOL     OW73437   6.401   8.020   9.635
23999SOL    HW173438   6.408   7.931   9.589
23999SOL    HW273439   6.307   8.054   9.627
24000SOL     OW73440   7.243   8.052  10.516
24000SOL    HW173441   7.205   7.983  10.578
24000SOL    HW273442   7.325   8.016  10.472
24001SOL     OW73443   6.257   7.912  10.579
24001SOL    HW173444   6.223   7.823  10.549
24001SOL    HW273445   6.283   7.966  10.499
24002SOL     OW73446   7.312   7.583   9.833
24002SOL    HW173447   7.385   7.566   9.766
24002SOL    HW273448   7.281   7.496   9.871
24003SOL     OW73449   7.427   7.623  10.273
24003SOL    HW173450   7.466   7.538  10.237
24003SOL    HW273451   7.329   7.625  10.254
24004SOL     OW73452   5.849   7.774  10.030
24004SOL    HW173453   5.770   7.825   9.996
24004SOL    HW273454   5.840   7.759  10.128
24005SOL     OW73455   6.600   7.684  10.281
24005SOL    HW173456   6.592   7.648  10.188
24005SOL    HW273457   6.598   7.608  10.346
24006SOL     OW73458   7.295   7.833  10.691
24006SOL    HW173459   7.368   7.902  10.695
24006SOL    HW273460   7.323   7.758  10.632
24007SOL     OW73461   6.258   7.651  10.799
24007SOL    HW173462   6.348   7.635  10.759
24007SOL    HW273463   6.266   7.656  10.898
24008SOL     OW73464   5.661   7.793   9.343
24008SOL    HW173465   5.569   7.765   9.314
24008SOL    HW273466   5.692   7.870   9.287
24009SOL     OW73467   5.658   7.614   9.628
24009SOL    HW173468   5.641   7.697   9.574
24009SOL    HW273469   5.748   7.577   9.606
24010SOL     OW73470   6.302   8.013  11.018
24010SOL    HW173471   6.321   8.078  11.092
24010SOL    HW273472   6.362   7.933  11.027
24011SOL     OW73473   6.811   7.773   9.759
24011SOL    HW173474   6.876   7.699   9.748
24011SOL    HW273475   6.831   7.823   9.843
24012SOL     OW73476   6.180   8.193   9.962
24012SOL    HW173477   6.230   8.278   9.943
24012SOL    HW273478   6.092   8.195   9.914
24013SOL     OW73479   7.363   7.790  10.952
24013SOL    HW173480   7.346   7.821  10.858
24013SOL    HW273481   7.279   7.753  10.990
24014SOL     OW73482   7.410   7.640  10.537
24014SOL    HW173483   7.406   7.550  10.581
24014SOL    HW273484   7.413   7.629  10.438
24015SOL     OW73485   6.014   7.872   9.830
24015SOL    HW173486   6.044   7.800   9.768
24015SOL    HW273487   5.975   7.832   9.913
24016SOL     OW73488   7.010   7.662  10.422
24016SOL    HW173489   7.062   7.597  10.477
24016SOL    HW273490   6.961   7.725  10.483
24017SOL     OW73491   6.587   7.482  10.464
24017SOL    HW173492   6.524   7.410  10.433
24017SOL    HW273493   6.680   7.446  10.464
24018SOL     OW73494   6.938   7.500   9.478
24018SOL    HW173495   6.973   7.459   9.394
24018SOL    HW273496   6.848   7.462   9.498
24019SOL     OW73497   6.886   7.901  10.001
24019SOL    HW173498   6.827   7.981  10.005
24019SOL    HW273499   6.901   7.866  10.094
24020SOL     OW73500   7.179   7.669  10.192
24020SOL    HW173501   7.095   7.668  10.246
24020SOL    HW273502   7.181   7.752  10.136
24021SOL     OW73503   5.811   7.723  12.168
24021SOL    HW173504   5.846   7.706  12.260
24021SOL    HW273505   5.723   7.678  12.156
24022SOL     OW73506   5.605   7.816  11.819
24022SOL    HW173507   5.523   7.859  11.858
24022SOL    HW273508   5.577   7.743  11.756
24023SOL     OW73509   7.341   8.055  11.403
24023SOL    HW173510   7.329   8.042  11.304
24023SOL    HW273511   7.311   7.974  11.452
24024SOL     OW73512   7.189   7.895  11.909
24024SOL    HW173513   7.115   7.941  11.859
24024SOL    HW273514   7.240   7.963  11.962
24025SOL     OW73515   5.708   8.091  11.735
24025SOL    HW173516   5.663   8.003  11.752
24025SOL    HW273517   5.707   8.145  11.819
24026SOL     OW73518   6.395   7.452  11.674
24026SOL    HW173519   6.435   7.543  11.665
24026SOL    HW273520   6.295   7.460  11.680
24027SOL     OW73521   6.867   7.793  12.116
24027SOL    HW173522   6.781   7.743  12.103
24027SOL    HW273523   6.929   7.739  12.172
24028SOL     OW73524   6.577   7.858  12.414
24028SOL    HW173525   6.500   7.892  12.468
24028SOL    HW273526   6.543   7.807  12.335
24029SOL     OW73527   6.451   7.796  11.367
24029SOL    HW173528   6.510   7.859  11.318
24029SOL    HW273529   6.470   7.702  11.338
24030SOL     OW73530   6.136   7.644  12.057
24030SOL    HW173531   6.131   7.639  12.157
24030SOL    HW273532   6.138   7.740  12.028
24031SOL     OW73533   6.986   7.555  11.598
24031SOL    HW173534   6.962   7.518  11.508
24031SOL    HW273535   7.085   7.571  11.602
24032SOL     OW73536   6.200   7.570  11.289
24032SOL    HW173537   6.298   7.548  11.296
24032SOL    HW273538   6.169   7.553  11.196
24033SOL     OW73539   6.125   7.512  11.684
24033SOL    HW173540   6.044   7.513  11.742
24033SOL    HW273541   6.128   7.595  11.629
24034SOL     OW73542   5.883   7.483  11.343
24034SOL    HW173543   5.932   7.567  11.322
24034SOL    HW273544   5.945   7.418  11.388
24035SOL     OW73545   6.521   7.684  11.652
24035SOL    HW173546   6.473   7.725  11.574
24035SOL    HW273547   6.620   7.682  11.633
24036SOL     OW73548   5.664   8.004  12.558
24036SOL    HW173549   5.756   8.003  12.517
24036SOL    HW273550   5.658   8.078  12.625
24037SOL     OW73551   6.147   7.670  12.319
24037SOL    HW173552   6.185   7.586  12.356
24037SOL    HW273553   6.059   7.689  12.363
24038SOL     OW73554   6.603   7.487  11.925
24038SOL    HW173555   6.531   7.492  11.856
24038SOL    HW273556   6.579   7.418  11.994
24039SOL     OW73557   7.052   8.038  12.164
24039SOL    HW173558   7.022   7.943  12.171
24039SOL    HW273559   7.125   8.054  12.230
24040SOL     OW73560   6.113   7.704  11.500
24040SOL    HW173561   6.140   7.645  11.425
24040SOL    HW273562   6.113   7.799  11.469
24041SOL     OW73563   6.860   7.834  12.434
24041SOL    HW173564   6.881   7.908  12.498
24041SOL    HW273565   6.771   7.851  12.391
24042SOL     OW73566   6.152   7.985  12.037
24042SOL    HW173567   6.164   8.051  11.963
24042SOL    HW273568   6.198   8.019  12.120
24043SOL     OW73569   5.893   7.661  12.403
24043SOL    HW173570   5.870   7.698  12.493
24043SOL    HW273571   5.863   7.566  12.397
24044SOL     OW73572   6.318   8.082  12.236
24044SOL    HW173573   6.377   8.056  12.160
24044SOL    HW273574   6.290   8.178  12.225
24045SOL     OW73575   5.893   7.511  11.790
24045SOL    HW173576   5.882   7.605  11.823
24045SOL    HW273577   5.888   7.448  11.867
24046SOL     OW73578   7.208   7.815  11.546
24046SOL    HW173579   7.210   7.739  11.610
24046SOL    HW273580   7.160   7.892  11.586
24047SOL     OW73581   7.126   7.722  11.297
24047SOL    HW173582   7.065   7.647  11.320
24047SOL    HW273583   7.148   7.774  11.380
24048SOL     OW73584   6.889   8.286  11.214
24048SOL    HW173585   6.923   8.193  11.229
24048SOL    HW273586   6.907   8.313  11.119
24049SOL     OW73587   5.925   7.957  12.178
24049SOL    HW173588   5.873   7.874  12.161
24049SOL    HW273589   6.002   7.962  12.114
24050SOL     OW73590   6.746   7.655  12.649
24050SOL    HW173591   6.746   7.719  12.726
24050SOL    HW273592   6.774   7.703  12.566
24051SOL     OW73593   5.626   7.992  12.286
24051SOL    HW173594   5.711   7.959  12.245
24051SOL    HW273595   5.639   8.007  12.384
24052SOL     OW73596   6.401   8.020  11.497
24052SOL    HW173597   6.408   7.931  11.451
24052SOL    HW273598   6.307   8.054  11.489
24053SOL     OW73599   7.243   8.052  12.378
24053SOL    HW173600   7.205   7.983  12.440
24053SOL    HW273601   7.325   8.016  12.334
24054SOL     OW73602   6.257   7.912  12.441
24054SOL    HW173603   6.223   7.823  12.411
24054SOL    HW273604   6.283   7.966  12.361
24055SOL     OW73605   7.312   7.583  11.695
24055SOL    HW173606   7.385   7.566  11.628
24055SOL    HW273607   7.281   7.496  11.733
24056SOL     OW73608   7.427   7.623  12.135
24056SOL    HW173609   7.466   7.538  12.099
24056SOL    HW273610   7.329   7.625  12.116
24057SOL     OW73611   5.849   7.774  11.892
24057SOL    HW173612   5.770   7.825  11.858
24057SOL    HW273613   5.840   7.759  11.990
24058SOL     OW73614   6.600   7.684  12.143
24058SOL    HW173615   6.592   7.648  12.050
24058SOL    HW273616   6.598   7.608  12.208
24059SOL     OW73617   7.295   7.833  12.553
24059SOL    HW173618   7.368   7.902  12.557
24059SOL    HW273619   7.323   7.758  12.494
24060SOL     OW73620   5.661   7.793  11.205
24060SOL    HW173621   5.569   7.765  11.176
24060SOL    HW273622   5.692   7.870  11.149
24061SOL     OW73623   5.658   7.614  11.490
24061SOL    HW173624   5.641   7.697  11.436
24061SOL    HW273625   5.748   7.577  11.468
24062SOL     OW73626   6.811   7.773  11.621
24062SOL    HW173627   6.876   7.699  11.610
24062SOL    HW273628   6.831   7.823  11.705
24063SOL     OW73629   6.180   8.193  11.824
24063SOL    HW173630   6.230   8.278  11.805
24063SOL    HW273631   6.092   8.195  11.776
24064SOL     OW73632   7.410   7.640  12.399
24064SOL    HW173633   7.406   7.550  12.443
24064SOL    HW273634   7.413   7.629  12.300
24065SOL     OW73635   6.014   7.872  11.692
24065SOL    HW173636   6.044   7.800  11.630
24065SOL    HW273637   5.975   7.832  11.775
24066SOL     OW73638   7.010   7.662  12.284
24066SOL    HW173639   7.062   7.597  12.339
24066SOL    HW273640   6.961   7.725  12.345
24067SOL     OW73641   6.587   7.482  12.326
24067SOL    HW173642   6.524   7.410  12.295
24067SOL    HW273643   6.680   7.446  12.326
24068SOL     OW73644   6.938   7.500  11.340
24068SOL    HW173645   6.973   7.459  11.256
24068SOL    HW273646   6.848   7.462  11.360
24069SOL     OW73647   6.886   7.901  11.863
24069SOL    HW173648   6.827   7.981  11.867
24069SOL    HW273649   6.901   7.866  11.956
24070SOL     OW73650   7.179   7.669  12.054
24070SOL    HW173651   7.095   7.668  12.108
24070SOL    HW273652   7.181   7.752  11.998
24071SOL     OW73653   7.678   0.628   0.113
24071SOL    HW173654   7.585   0.626   0.150
24071SOL    HW273655   7.679   0.589   0.021
24072SOL     OW73656   7.673   0.275   0.996
24072SOL    HW173657   7.708   0.258   1.088
24072SOL    HW273658   7.585   0.230   0.984
24073SOL     OW73659   7.467   0.368   0.647
24073SOL    HW173660   7.385   0.411   0.686
24073SOL    HW273661   7.439   0.295   0.584
24074SOL     OW73662   7.783   1.435   1.061
24074SOL    HW173663   7.705   1.404   1.008
24074SOL    HW273664   7.841   1.493   1.004
24075SOL     OW73665   7.886   0.392   1.499
24075SOL    HW173666   7.968   0.336   1.508
24075SOL    HW273667   7.805   0.334   1.503
24076SOL     OW73668   7.679   1.713   0.483
24076SOL    HW173669   7.713   1.790   0.537
24076SOL    HW273670   7.723   1.713   0.393
24077SOL     OW73671   7.678   1.434   0.538
24077SOL    HW173672   7.652   1.530   0.538
24077SOL    HW273673   7.607   1.380   0.583
24078SOL     OW73674   7.688   1.091   0.886
24078SOL    HW173675   7.702   1.007   0.938
24078SOL    HW273676   7.633   1.155   0.941
24079SOL     OW73677   7.570   0.643   0.563
24079SOL    HW173678   7.525   0.555   0.580
24079SOL    HW273679   7.569   0.697   0.647
24080SOL     OW73680   7.475   1.596   0.117
24080SOL    HW173681   7.456   1.500   0.138
24080SOL    HW273682   7.442   1.654   0.192
24081SOL     OW73683   7.561   0.737   1.597
24081SOL    HW173684   7.649   0.724   1.642
24081SOL    HW273685   7.548   0.834   1.575
24082SOL     OW73686   7.645   0.976   1.264
24082SOL    HW173687   7.734   0.931   1.250
24082SOL    HW273688   7.572   0.911   1.245
24083SOL     OW73689   7.765   0.251   1.801
24083SOL    HW173690   7.836   0.322   1.807
24083SOL    HW273691   7.677   0.290   1.829
24084SOL     OW73692   7.524   0.811   0.789
24084SOL    HW173693   7.623   0.799   0.798
24084SOL    HW273694   7.500   0.906   0.810
24085SOL     OW73695   7.578   1.821   1.571
24085SOL    HW173696   7.568   1.806   1.670
24085SOL    HW273697   7.492   1.857   1.535
24086SOL     OW73698   7.998   0.196   0.885
24086SOL    HW173699   7.993   0.191   0.985
24086SOL    HW273700   8.000   0.292   0.856
24087SOL     OW73701   7.799   1.801   0.853
24087SOL    HW173702   7.849   1.715   0.859
24087SOL    HW273703   7.864   1.878   0.850
24088SOL     OW73704   7.769   0.943   0.242
24088SOL    HW173705   7.851   0.982   0.200
24088SOL    HW273706   7.742   0.861   0.193
24089SOL     OW73707   7.909   1.266   1.727
24089SOL    HW173708   7.859   1.267   1.641
24089SOL    HW273709   7.846   1.248   1.803
24090SOL     OW73710   7.650   0.285   1.498
24090SOL    HW173711   7.570   0.345   1.485
24090SOL    HW273712   7.640   0.236   1.584
24091SOL     OW73713   7.697   1.785   1.241
24091SOL    HW173714   7.754   1.720   1.291
24091SOL    HW273715   7.681   1.752   1.148
24092SOL     OW73716   7.830   0.700   0.480
24092SOL    HW173717   7.875   0.610   0.477
24092SOL    HW273718   7.736   0.689   0.513
24093SOL     OW73719   7.745   0.035   0.171
24093SOL    HW173720   7.794   0.119   0.150
24093SOL    HW273721   7.807  -0.030   0.216
24094SOL     OW73722   7.907   1.152   0.741
24094SOL    HW173723   7.836   1.125   0.806
24094SOL    HW273724   7.881   1.124   0.648
24095SOL     OW73725   7.526   0.556   1.386
24095SOL    HW173726   7.618   0.555   1.345
24095SOL    HW273727   7.520   0.630   1.453
24096SOL     OW73728   7.858   0.813   1.251
24096SOL    HW173729   7.944   0.825   1.301
24096SOL    HW273730   7.816   0.726   1.278
24097SOL     OW73731   7.512   1.564   1.331
24097SOL    HW173732   7.466   1.646   1.297
24097SOL    HW273733   7.610   1.583   1.340
24098SOL     OW73734   7.815   1.100   0.501
24098SOL    HW173735   7.808   1.183   0.445
24098SOL    HW273736   7.819   1.020   0.441
24099SOL     OW73737   8.014   0.537   0.865
24099SOL    HW173738   8.026   0.603   0.791
24099SOL    HW273739   8.060   0.571   0.948
24100SOL     OW73740   7.802   1.510   1.329
24100SOL    HW173741   7.781   1.466   1.242
24100SOL    HW273742   7.899   1.536   1.332
24101SOL     OW73743   7.850   0.751   1.598
24101SOL    HW173744   7.918   0.806   1.551
24101SOL    HW273745   7.890   0.663   1.625
24102SOL     OW73746   7.952   0.050   1.740
24102SOL    HW173747   7.910  -0.007   1.670
24102SOL    HW273748   7.886   0.119   1.772
24103SOL     OW73749   8.021   0.870   1.029
24103SOL    HW173750   8.065   0.959   1.020
24103SOL    HW273751   7.958   0.870   1.106
24104SOL     OW73752   7.755   0.213   1.231
24104SOL    HW173753   7.732   0.250   1.321
24104SOL    HW273754   7.725   0.118   1.225
24105SOL     OW73755   7.485   1.310   1.282
24105SOL    HW173756   7.538   1.261   1.350
24105SOL    HW273757   7.507   1.408   1.287
24106SOL     OW73758   7.755   0.063   0.618
24106SOL    HW173759   7.744   0.157   0.651
24106SOL    HW273760   7.750   0.000   0.695
24107SOL     OW73761   7.798   0.898   1.804
24107SOL    HW173762   7.874   0.942   1.852
24107SOL    HW273763   7.833   0.851   1.722
24108SOL     OW73764   7.767   0.810   0.949
24108SOL    HW173765   7.860   0.846   0.954
24108SOL    HW273766   7.761   0.725   1.001
24109SOL     OW73767   7.787   0.509   1.006
24109SOL    HW173768   7.735   0.426   0.989
24109SOL    HW273769   7.864   0.514   0.942
24110SOL     OW73770   7.536   1.801   0.927
24110SOL    HW173771   7.494   1.715   0.900
24110SOL    HW273772   7.630   1.804   0.893
24111SOL     OW73773   7.488   0.544   1.114
24111SOL    HW173774   7.573   0.511   1.073
24111SOL    HW273775   7.501   0.559   1.212
24112SOL     OW73776   7.637   0.520   1.722
24112SOL    HW173777   7.696   0.480   1.652
24112SOL    HW273778   7.579   0.591   1.681
24113SOL     OW73779   7.700   1.564   1.744
24113SOL    HW173780   7.670   1.621   1.820
24113SOL    HW273781   7.693   1.467   1.770
24114SOL     OW73782   7.921   0.500   0.191
24114SOL    HW173783   7.982   0.580   0.195
24114SOL    HW273784   7.826   0.531   0.198
24115SOL     OW73785   7.607   1.137   1.466
24115SOL    HW173786   7.629   1.076   1.542
24115SOL    HW273787   7.617   1.088   1.380
24116SOL     OW73788   7.531   1.258   1.022
24116SOL    HW173789   7.526   1.257   1.122
24116SOL    HW273790   7.448   1.217   0.984
24117SOL     OW73791   7.578   1.794   1.851
24117SOL    HW173792   7.537   1.720   1.904
24117SOL    HW273793   7.642   1.845   1.909
24118SOL     OW73794   7.711   0.326   0.720
24118SOL    HW173795   7.632   0.377   0.686
24118SOL    HW273796   7.702   0.311   0.818
24119SOL     OW73797   7.820   1.288   1.490
24119SOL    HW173798   7.807   1.381   1.456
24119SOL    HW273799   7.736   1.236   1.477
24120SOL     OW73800   8.038   1.487   0.491
24120SOL    HW173801   8.080   1.429   0.421
24120SOL    HW273802   7.994   1.566   0.447
24121SOL     OW73803   7.703   1.348   0.290
24121SOL    HW173804   7.607   1.349   0.263
24121SOL    HW273805   7.715   1.401   0.374
24122SOL     OW73806   7.553   1.013   1.726
24122SOL    HW173807   7.476   0.980   1.780
24122SOL    HW273808   7.638   0.983   1.768
24123SOL     OW73809   7.520   0.166   0.318
24123SOL    HW173810   7.503   0.249   0.264
24123SOL    HW273811   7.610   0.129   0.296
24124SOL     OW73812   7.838   1.741   1.560
24124SOL    HW173813   7.747   1.782   1.558
24124SOL    HW273814   7.831   1.647   1.592
24125SOL     OW73815   7.669   1.314   1.844
24125SOL    HW173816   7.604   1.241   1.823
24125SOL    HW273817   7.673   1.328   1.942
24126SOL     OW73818   7.527   1.240   0.653
24126SOL    HW173819   7.526   1.193   0.741
24126SOL    HW273820   7.609   1.212   0.602
24127SOL     OW73821   8.120   1.391   1.624
24127SOL    HW173822   8.042   1.341   1.662
24127SOL    HW273823   8.117   1.486   1.655
24128SOL     OW73824   7.765   0.547   1.280
24128SOL    HW173825   7.803   0.488   1.352
24128SOL    HW273826   7.805   0.521   1.192
24129SOL     OW73827   7.487   1.077   0.300
24129SOL    HW173828   7.586   1.066   0.291
24129SOL    HW273829   7.447   0.991   0.332
24130SOL     OW73830   7.678   0.628   1.975
24130SOL    HW173831   7.585   0.626   2.012
24130SOL    HW273832   7.679   0.589   1.883
24131SOL     OW73833   7.673   0.275   2.858
24131SOL    HW173834   7.708   0.258   2.950
24131SOL    HW273835   7.585   0.230   2.846
24132SOL     OW73836   7.467   0.368   2.509
24132SOL    HW173837   7.385   0.411   2.548
24132SOL    HW273838   7.439   0.295   2.446
24133SOL     OW73839   7.783   1.435   2.923
24133SOL    HW173840   7.705   1.404   2.870
24133SOL    HW273841   7.841   1.493   2.866
24134SOL     OW73842   7.886   0.392   3.361
24134SOL    HW173843   7.968   0.336   3.370
24134SOL    HW273844   7.805   0.334   3.365
24135SOL     OW73845   7.679   1.713   2.345
24135SOL    HW173846   7.713   1.790   2.399
24135SOL    HW273847   7.723   1.713   2.255
24136SOL     OW73848   7.678   1.434   2.400
24136SOL    HW173849   7.652   1.530   2.400
24136SOL    HW273850   7.607   1.380   2.445
24137SOL     OW73851   7.688   1.091   2.748
24137SOL    HW173852   7.702   1.007   2.800
24137SOL    HW273853   7.633   1.155   2.803
24138SOL     OW73854   7.570   0.643   2.425
24138SOL    HW173855   7.525   0.555   2.442
24138SOL    HW273856   7.569   0.697   2.509
24139SOL     OW73857   7.475   1.596   1.979
24139SOL    HW173858   7.456   1.500   2.000
24139SOL    HW273859   7.442   1.654   2.054
24140SOL     OW73860   7.561   0.737   3.459
24140SOL    HW173861   7.649   0.724   3.504
24140SOL    HW273862   7.548   0.834   3.437
24141SOL     OW73863   7.645   0.976   3.126
24141SOL    HW173864   7.734   0.931   3.112
24141SOL    HW273865   7.572   0.911   3.107
24142SOL     OW73866   7.765   0.251   3.663
24142SOL    HW173867   7.836   0.322   3.669
24142SOL    HW273868   7.677   0.290   3.691
24143SOL     OW73869   8.046   0.729   2.132
24143SOL    HW173870   8.070   0.798   2.064
24143SOL    HW273871   7.968   0.762   2.186
24144SOL     OW73872   7.524   0.811   2.651
24144SOL    HW173873   7.623   0.799   2.660
24144SOL    HW273874   7.500   0.906   2.672
24145SOL     OW73875   7.578   1.821   3.433
24145SOL    HW173876   7.568   1.806   3.532
24145SOL    HW273877   7.492   1.857   3.397
24146SOL     OW73878   7.998   0.196   2.747
24146SOL    HW173879   7.993   0.191   2.847
24146SOL    HW273880   8.000   0.292   2.718
24147SOL     OW73881   7.799   1.801   2.715
24147SOL    HW173882   7.849   1.715   2.721
24147SOL    HW273883   7.864   1.878   2.712
24148SOL     OW73884   7.769   0.943   2.104
24148SOL    HW173885   7.851   0.982   2.062
24148SOL    HW273886   7.742   0.861   2.055
24149SOL     OW73887   7.909   1.266   3.589
24149SOL    HW173888   7.859   1.267   3.503
24149SOL    HW273889   7.846   1.248   3.665
24150SOL     OW73890   7.650   0.285   3.360
24150SOL    HW173891   7.570   0.345   3.347
24150SOL    HW273892   7.640   0.236   3.446
24151SOL     OW73893   7.697   1.785   3.103
24151SOL    HW173894   7.754   1.720   3.153
24151SOL    HW273895   7.681   1.752   3.010
24152SOL     OW73896   7.830   0.700   2.342
24152SOL    HW173897   7.875   0.610   2.339
24152SOL    HW273898   7.736   0.689   2.375
24153SOL     OW73899   8.062   0.122   1.979
24153SOL    HW173900   8.160   0.100   1.986
24153SOL    HW273901   8.031   0.105   1.886
24154SOL     OW73902   7.745   0.035   2.033
24154SOL    HW173903   7.794   0.119   2.012
24154SOL    HW273904   7.807  -0.030   2.078
24155SOL     OW73905   7.907   1.152   2.603
24155SOL    HW173906   7.836   1.125   2.668
24155SOL    HW273907   7.881   1.124   2.510
24156SOL     OW73908   7.526   0.556   3.248
24156SOL    HW173909   7.618   0.555   3.207
24156SOL    HW273910   7.520   0.630   3.315
24157SOL     OW73911   7.858   0.813   3.113
24157SOL    HW173912   7.944   0.825   3.163
24157SOL    HW273913   7.816   0.726   3.140
24158SOL     OW73914   7.512   1.564   3.193
24158SOL    HW173915   7.466   1.646   3.159
24158SOL    HW273916   7.610   1.583   3.202
24159SOL     OW73917   7.815   1.100   2.363
24159SOL    HW173918   7.808   1.183   2.307
24159SOL    HW273919   7.819   1.020   2.303
24160SOL     OW73920   8.014   0.537   2.727
24160SOL    HW173921   8.026   0.603   2.653
24160SOL    HW273922   8.060   0.571   2.810
24161SOL     OW73923   7.802   1.510   3.191
24161SOL    HW173924   7.781   1.466   3.104
24161SOL    HW273925   7.899   1.536   3.194
24162SOL     OW73926   7.850   0.751   3.460
24162SOL    HW173927   7.918   0.806   3.413
24162SOL    HW273928   7.890   0.663   3.487
24163SOL     OW73929   7.952   0.050   3.602
24163SOL    HW173930   7.910  -0.007   3.532
24163SOL    HW273931   7.886   0.119   3.634
24164SOL     OW73932   8.021   0.870   2.891
24164SOL    HW173933   8.065   0.959   2.882
24164SOL    HW273934   7.958   0.870   2.968
24165SOL     OW73935   7.755   0.213   3.093
24165SOL    HW173936   7.732   0.250   3.183
24165SOL    HW273937   7.725   0.118   3.087
24166SOL     OW73938   7.485   1.310   3.144
24166SOL    HW173939   7.538   1.261   3.212
24166SOL    HW273940   7.507   1.408   3.149
24167SOL     OW73941   7.755   0.063   2.480
24167SOL    HW173942   7.744   0.157   2.513
24167SOL    HW273943   7.750   0.000   2.557
24168SOL     OW73944   7.798   0.898   3.666
24168SOL    HW173945   7.874   0.942   3.714
24168SOL    HW273946   7.833   0.851   3.584
24169SOL     OW73947   7.767   0.810   2.811
24169SOL    HW173948   7.860   0.846   2.816
24169SOL    HW273949   7.761   0.725   2.863
24170SOL     OW73950   7.787   0.509   2.868
24170SOL    HW173951   7.735   0.426   2.851
24170SOL    HW273952   7.864   0.514   2.804
24171SOL     OW73953   7.456   1.326   2.062
24171SOL    HW173954   7.363   1.347   2.031
24171SOL    HW273955   7.466   1.227   2.075
24172SOL     OW73956   7.536   1.801   2.789
24172SOL    HW173957   7.494   1.715   2.762
24172SOL    HW273958   7.630   1.804   2.755
24173SOL     OW73959   7.488   0.544   2.976
24173SOL    HW173960   7.573   0.511   2.935
24173SOL    HW273961   7.501   0.559   3.074
24174SOL     OW73962   7.637   0.520   3.584
24174SOL    HW173963   7.696   0.480   3.514
24174SOL    HW273964   7.579   0.591   3.543
24175SOL     OW73965   8.263   0.572   2.187
24175SOL    HW173966   8.270   0.483   2.141
24175SOL    HW273967   8.169   0.606   2.179
24176SOL     OW73968   7.700   1.564   3.606
24176SOL    HW173969   7.670   1.621   3.682
24176SOL    HW273970   7.693   1.467   3.632
24177SOL     OW73971   7.921   0.500   2.053
24177SOL    HW173972   7.982   0.580   2.057
24177SOL    HW273973   7.826   0.531   2.060
24178SOL     OW73974   7.607   1.137   3.328
24178SOL    HW173975   7.629   1.076   3.404
24178SOL    HW273976   7.617   1.088   3.242
24179SOL     OW73977   7.531   1.258   2.884
24179SOL    HW173978   7.526   1.257   2.984
24179SOL    HW273979   7.448   1.217   2.846
24180SOL     OW73980   7.578   1.794   3.713
24180SOL    HW173981   7.537   1.720   3.766
24180SOL    HW273982   7.642   1.845   3.771
24181SOL     OW73983   7.711   0.326   2.582
24181SOL    HW173984   7.632   0.377   2.548
24181SOL    HW273985   7.702   0.311   2.680
24182SOL     OW73986   7.820   1.288   3.352
24182SOL    HW173987   7.807   1.381   3.318
24182SOL    HW273988   7.736   1.236   3.339
24183SOL     OW73989   8.038   1.487   2.353
24183SOL    HW173990   8.080   1.429   2.283
24183SOL    HW273991   7.994   1.566   2.309
24184SOL     OW73992   7.703   1.348   2.152
24184SOL    HW173993   7.607   1.349   2.125
24184SOL    HW273994   7.715   1.401   2.236
24185SOL     OW73995   7.553   1.013   3.588
24185SOL    HW173996   7.476   0.980   3.642
24185SOL    HW273997   7.638   0.983   3.630
24186SOL     OW73998   7.523   0.345   1.895
24186SOL    HW173999   7.431   0.317   1.866
24186SOL    HW274000   7.554   0.422   1.839
24187SOL     OW74001   7.520   0.166   2.180
24187SOL    HW174002   7.503   0.249   2.126
24187SOL    HW274003   7.610   0.129   2.158
24188SOL     OW74004   7.838   1.741   3.422
24188SOL    HW174005   7.747   1.782   3.420
24188SOL    HW274006   7.831   1.647   3.454
24189SOL     OW74007   7.527   1.240   2.515
24189SOL    HW174008   7.526   1.193   2.603
24189SOL    HW274009   7.609   1.212   2.464
24190SOL     OW74010   8.120   1.391   3.486
24190SOL    HW174011   8.042   1.341   3.524
24190SOL    HW274012   8.117   1.486   3.517
24191SOL     OW74013   7.765   0.547   3.142
24191SOL    HW174014   7.803   0.488   3.214
24191SOL    HW274015   7.805   0.521   3.054
24192SOL     OW74016   7.487   1.077   2.162
24192SOL    HW174017   7.586   1.066   2.153
24192SOL    HW274018   7.447   0.991   2.194
24193SOL     OW74019   7.678   0.628   3.837
24193SOL    HW174020   7.585   0.626   3.874
24193SOL    HW274021   7.679   0.589   3.745
24194SOL     OW74022   7.673   0.275   4.720
24194SOL    HW174023   7.708   0.258   4.812
24194SOL    HW274024   7.585   0.230   4.708
24195SOL     OW74025   7.467   0.368   4.371
24195SOL    HW174026   7.385   0.411   4.410
24195SOL    HW274027   7.439   0.295   4.308
24196SOL     OW74028   7.783   1.435   4.785
24196SOL    HW174029   7.705   1.404   4.732
24196SOL    HW274030   7.841   1.493   4.728
24197SOL     OW74031   7.886   0.392   5.223
24197SOL    HW174032   7.968   0.336   5.232
24197SOL    HW274033   7.805   0.334   5.227
24198SOL     OW74034   7.679   1.713   4.207
24198SOL    HW174035   7.713   1.790   4.261
24198SOL    HW274036   7.723   1.713   4.117
24199SOL     OW74037   7.678   1.434   4.262
24199SOL    HW174038   7.652   1.530   4.262
24199SOL    HW274039   7.607   1.380   4.307
24200SOL     OW74040   7.688   1.091   4.610
24200SOL    HW174041   7.702   1.007   4.662
24200SOL    HW274042   7.633   1.155   4.665
24201SOL     OW74043   7.570   0.643   4.287
24201SOL    HW174044   7.525   0.555   4.304
24201SOL    HW274045   7.569   0.697   4.371
24202SOL     OW74046   7.475   1.596   3.841
24202SOL    HW174047   7.456   1.500   3.862
24202SOL    HW274048   7.442   1.654   3.916
24203SOL     OW74049   7.561   0.737   5.321
24203SOL    HW174050   7.649   0.724   5.366
24203SOL    HW274051   7.548   0.834   5.299
24204SOL     OW74052   7.645   0.976   4.988
24204SOL    HW174053   7.734   0.931   4.974
24204SOL    HW274054   7.572   0.911   4.969
24205SOL     OW74055   7.765   0.251   5.525
24205SOL    HW174056   7.836   0.322   5.531
24205SOL    HW274057   7.677   0.290   5.553
24206SOL     OW74058   8.046   0.729   3.994
24206SOL    HW174059   8.070   0.798   3.926
24206SOL    HW274060   7.968   0.762   4.048
24207SOL     OW74061   7.524   0.811   4.513
24207SOL    HW174062   7.623   0.799   4.522
24207SOL    HW274063   7.500   0.906   4.534
24208SOL     OW74064   7.578   1.821   5.295
24208SOL    HW174065   7.568   1.806   5.394
24208SOL    HW274066   7.492   1.857   5.259
24209SOL     OW74067   7.998   0.196   4.609
24209SOL    HW174068   7.993   0.191   4.709
24209SOL    HW274069   8.000   0.292   4.580
24210SOL     OW74070   7.799   1.801   4.577
24210SOL    HW174071   7.849   1.715   4.583
24210SOL    HW274072   7.864   1.878   4.574
24211SOL     OW74073   7.769   0.943   3.966
24211SOL    HW174074   7.851   0.982   3.924
24211SOL    HW274075   7.742   0.861   3.917
24212SOL     OW74076   7.909   1.266   5.451
24212SOL    HW174077   7.859   1.267   5.365
24212SOL    HW274078   7.846   1.248   5.527
24213SOL     OW74079   7.650   0.285   5.222
24213SOL    HW174080   7.570   0.345   5.209
24213SOL    HW274081   7.640   0.236   5.308
24214SOL     OW74082   7.697   1.785   4.965
24214SOL    HW174083   7.754   1.720   5.015
24214SOL    HW274084   7.681   1.752   4.872
24215SOL     OW74085   7.830   0.700   4.204
24215SOL    HW174086   7.875   0.610   4.201
24215SOL    HW274087   7.736   0.689   4.237
24216SOL     OW74088   8.062   0.122   3.841
24216SOL    HW174089   8.160   0.100   3.848
24216SOL    HW274090   8.031   0.105   3.748
24217SOL     OW74091   7.745   0.035   3.895
24217SOL    HW174092   7.794   0.119   3.874
24217SOL    HW274093   7.807  -0.030   3.940
24218SOL     OW74094   7.907   1.152   4.465
24218SOL    HW174095   7.836   1.125   4.530
24218SOL    HW274096   7.881   1.124   4.372
24219SOL     OW74097   7.526   0.556   5.110
24219SOL    HW174098   7.618   0.555   5.069
24219SOL    HW274099   7.520   0.630   5.177
24220SOL     OW74100   7.858   0.813   4.975
24220SOL    HW174101   7.944   0.825   5.025
24220SOL    HW274102   7.816   0.726   5.002
24221SOL     OW74103   7.512   1.564   5.055
24221SOL    HW174104   7.466   1.646   5.021
24221SOL    HW274105   7.610   1.583   5.064
24222SOL     OW74106   7.815   1.100   4.225
24222SOL    HW174107   7.808   1.183   4.169
24222SOL    HW274108   7.819   1.020   4.165
24223SOL     OW74109   8.014   0.537   4.589
24223SOL    HW174110   8.026   0.603   4.515
24223SOL    HW274111   8.060   0.571   4.672
24224SOL     OW74112   7.802   1.510   5.053
24224SOL    HW174113   7.781   1.466   4.966
24224SOL    HW274114   7.899   1.536   5.056
24225SOL     OW74115   7.850   0.751   5.322
24225SOL    HW174116   7.918   0.806   5.275
24225SOL    HW274117   7.890   0.663   5.349
24226SOL     OW74118   7.952   0.050   5.464
24226SOL    HW174119   7.910  -0.007   5.394
24226SOL    HW274120   7.886   0.119   5.496
24227SOL     OW74121   8.021   0.870   4.753
24227SOL    HW174122   8.065   0.959   4.744
24227SOL    HW274123   7.958   0.870   4.830
24228SOL     OW74124   7.755   0.213   4.955
24228SOL    HW174125   7.732   0.250   5.045
24228SOL    HW274126   7.725   0.118   4.949
24229SOL     OW74127   7.485   1.310   5.006
24229SOL    HW174128   7.538   1.261   5.074
24229SOL    HW274129   7.507   1.408   5.011
24230SOL     OW74130   7.755   0.063   4.342
24230SOL    HW174131   7.744   0.157   4.375
24230SOL    HW274132   7.750   0.000   4.419
24231SOL     OW74133   7.798   0.898   5.528
24231SOL    HW174134   7.874   0.942   5.576
24231SOL    HW274135   7.833   0.851   5.446
24232SOL     OW74136   7.767   0.810   4.673
24232SOL    HW174137   7.860   0.846   4.678
24232SOL    HW274138   7.761   0.725   4.725
24233SOL     OW74139   7.787   0.509   4.730
24233SOL    HW174140   7.735   0.426   4.713
24233SOL    HW274141   7.864   0.514   4.666
24234SOL     OW74142   7.456   1.326   3.924
24234SOL    HW174143   7.363   1.347   3.893
24234SOL    HW274144   7.466   1.227   3.937
24235SOL     OW74145   7.536   1.801   4.651
24235SOL    HW174146   7.494   1.715   4.624
24235SOL    HW274147   7.630   1.804   4.617
24236SOL     OW74148   7.488   0.544   4.838
24236SOL    HW174149   7.573   0.511   4.797
24236SOL    HW274150   7.501   0.559   4.936
24237SOL     OW74151   7.637   0.520   5.446
24237SOL    HW174152   7.696   0.480   5.376
24237SOL    HW274153   7.579   0.591   5.405
24238SOL     OW74154   8.263   0.572   4.049
24238SOL    HW174155   8.270   0.483   4.003
24238SOL    HW274156   8.169   0.606   4.041
24239SOL     OW74157   7.700   1.564   5.468
24239SOL    HW174158   7.670   1.621   5.544
24239SOL    HW274159   7.693   1.467   5.494
24240SOL     OW74160   7.921   0.500   3.915
24240SOL    HW174161   7.982   0.580   3.919
24240SOL    HW274162   7.826   0.531   3.922
24241SOL     OW74163   7.607   1.137   5.190
24241SOL    HW174164   7.629   1.076   5.266
24241SOL    HW274165   7.617   1.088   5.104
24242SOL     OW74166   7.531   1.258   4.746
24242SOL    HW174167   7.526   1.257   4.846
24242SOL    HW274168   7.448   1.217   4.708
24243SOL     OW74169   7.578   1.794   5.575
24243SOL    HW174170   7.537   1.720   5.628
24243SOL    HW274171   7.642   1.845   5.633
24244SOL     OW74172   7.711   0.326   4.444
24244SOL    HW174173   7.632   0.377   4.410
24244SOL    HW274174   7.702   0.311   4.542
24245SOL     OW74175   7.820   1.288   5.214
24245SOL    HW174176   7.807   1.381   5.180
24245SOL    HW274177   7.736   1.236   5.201
24246SOL     OW74178   8.038   1.487   4.215
24246SOL    HW174179   8.080   1.429   4.145
24246SOL    HW274180   7.994   1.566   4.171
24247SOL     OW74181   7.703   1.348   4.014
24247SOL    HW174182   7.607   1.349   3.987
24247SOL    HW274183   7.715   1.401   4.098
24248SOL     OW74184   7.553   1.013   5.450
24248SOL    HW174185   7.476   0.980   5.504
24248SOL    HW274186   7.638   0.983   5.492
24249SOL     OW74187   7.523   0.345   3.757
24249SOL    HW174188   7.431   0.317   3.728
24249SOL    HW274189   7.554   0.422   3.701
24250SOL     OW74190   7.520   0.166   4.042
24250SOL    HW174191   7.503   0.249   3.988
24250SOL    HW274192   7.610   0.129   4.020
24251SOL     OW74193   7.838   1.741   5.284
24251SOL    HW174194   7.747   1.782   5.282
24251SOL    HW274195   7.831   1.647   5.316
24252SOL     OW74196   7.669   1.314   5.568
24252SOL    HW174197   7.604   1.241   5.547
24252SOL    HW274198   7.673   1.328   5.666
24253SOL     OW74199   7.527   1.240   4.377
24253SOL    HW174200   7.526   1.193   4.465
24253SOL    HW274201   7.609   1.212   4.326
24254SOL     OW74202   8.120   1.391   5.348
24254SOL    HW174203   8.042   1.341   5.386
24254SOL    HW274204   8.117   1.486   5.379
24255SOL     OW74205   7.765   0.547   5.004
24255SOL    HW174206   7.803   0.488   5.076
24255SOL    HW274207   7.805   0.521   4.916
24256SOL     OW74208   7.487   1.077   4.024
24256SOL    HW174209   7.586   1.066   4.015
24256SOL    HW274210   7.447   0.991   4.056
24257SOL     OW74211   7.678   0.628   5.699
24257SOL    HW174212   7.585   0.626   5.736
24257SOL    HW274213   7.679   0.589   5.607
24258SOL     OW74214   7.673   0.275   6.582
24258SOL    HW174215   7.708   0.258   6.674
24258SOL    HW274216   7.585   0.230   6.570
24259SOL     OW74217   7.467   0.368   6.233
24259SOL    HW174218   7.385   0.411   6.272
24259SOL    HW274219   7.439   0.295   6.170
24260SOL     OW74220   7.783   1.435   6.647
24260SOL    HW174221   7.705   1.404   6.594
24260SOL    HW274222   7.841   1.493   6.590
24261SOL     OW74223   7.886   0.392   7.085
24261SOL    HW174224   7.968   0.336   7.094
24261SOL    HW274225   7.805   0.334   7.089
24262SOL     OW74226   7.679   1.713   6.069
24262SOL    HW174227   7.713   1.790   6.123
24262SOL    HW274228   7.723   1.713   5.979
24263SOL     OW74229   7.678   1.434   6.124
24263SOL    HW174230   7.652   1.530   6.124
24263SOL    HW274231   7.607   1.380   6.169
24264SOL     OW74232   7.688   1.091   6.472
24264SOL    HW174233   7.702   1.007   6.524
24264SOL    HW274234   7.633   1.155   6.527
24265SOL     OW74235   7.570   0.643   6.149
24265SOL    HW174236   7.525   0.555   6.166
24265SOL    HW274237   7.569   0.697   6.233
24266SOL     OW74238   7.475   1.596   5.703
24266SOL    HW174239   7.456   1.500   5.724
24266SOL    HW274240   7.442   1.654   5.778
24267SOL     OW74241   7.561   0.737   7.183
24267SOL    HW174242   7.649   0.724   7.228
24267SOL    HW274243   7.548   0.834   7.161
24268SOL     OW74244   7.645   0.976   6.850
24268SOL    HW174245   7.734   0.931   6.836
24268SOL    HW274246   7.572   0.911   6.831
24269SOL     OW74247   7.765   0.251   7.387
24269SOL    HW174248   7.836   0.322   7.393
24269SOL    HW274249   7.677   0.290   7.415
24270SOL     OW74250   8.046   0.729   5.856
24270SOL    HW174251   8.070   0.798   5.788
24270SOL    HW274252   7.968   0.762   5.910
24271SOL     OW74253   7.524   0.811   6.375
24271SOL    HW174254   7.623   0.799   6.384
24271SOL    HW274255   7.500   0.906   6.396
24272SOL     OW74256   7.578   1.821   7.157
24272SOL    HW174257   7.568   1.806   7.256
24272SOL    HW274258   7.492   1.857   7.121
24273SOL     OW74259   7.998   0.196   6.471
24273SOL    HW174260   7.993   0.191   6.571
24273SOL    HW274261   8.000   0.292   6.442
24274SOL     OW74262   7.799   1.801   6.439
24274SOL    HW174263   7.849   1.715   6.445
24274SOL    HW274264   7.864   1.878   6.436
24275SOL     OW74265   7.769   0.943   5.828
24275SOL    HW174266   7.851   0.982   5.786
24275SOL    HW274267   7.742   0.861   5.779
24276SOL     OW74268   7.909   1.266   7.313
24276SOL    HW174269   7.859   1.267   7.227
24276SOL    HW274270   7.846   1.248   7.389
24277SOL     OW74271   7.650   0.285   7.084
24277SOL    HW174272   7.570   0.345   7.071
24277SOL    HW274273   7.640   0.236   7.170
24278SOL     OW74274   7.697   1.785   6.827
24278SOL    HW174275   7.754   1.720   6.877
24278SOL    HW274276   7.681   1.752   6.734
24279SOL     OW74277   7.830   0.700   6.066
24279SOL    HW174278   7.875   0.610   6.063
24279SOL    HW274279   7.736   0.689   6.099
24280SOL     OW74280   8.062   0.122   5.703
24280SOL    HW174281   8.160   0.100   5.710
24280SOL    HW274282   8.031   0.105   5.610
24281SOL     OW74283   7.745   0.035   5.757
24281SOL    HW174284   7.794   0.119   5.736
24281SOL    HW274285   7.807  -0.030   5.802
24282SOL     OW74286   7.907   1.152   6.327
24282SOL    HW174287   7.836   1.125   6.392
24282SOL    HW274288   7.881   1.124   6.234
24283SOL     OW74289   7.526   0.556   6.972
24283SOL    HW174290   7.618   0.555   6.931
24283SOL    HW274291   7.520   0.630   7.039
24284SOL     OW74292   7.858   0.813   6.837
24284SOL    HW174293   7.944   0.825   6.887
24284SOL    HW274294   7.816   0.726   6.864
24285SOL     OW74295   7.512   1.564   6.917
24285SOL    HW174296   7.466   1.646   6.883
24285SOL    HW274297   7.610   1.583   6.926
24286SOL     OW74298   7.815   1.100   6.087
24286SOL    HW174299   7.808   1.183   6.031
24286SOL    HW274300   7.819   1.020   6.027
24287SOL     OW74301   8.014   0.537   6.451
24287SOL    HW174302   8.026   0.603   6.377
24287SOL    HW274303   8.060   0.571   6.534
24288SOL     OW74304   7.802   1.510   6.915
24288SOL    HW174305   7.781   1.466   6.828
24288SOL    HW274306   7.899   1.536   6.918
24289SOL     OW74307   7.850   0.751   7.184
24289SOL    HW174308   7.918   0.806   7.137
24289SOL    HW274309   7.890   0.663   7.211
24290SOL     OW74310   7.952   0.050   7.326
24290SOL    HW174311   7.910  -0.007   7.256
24290SOL    HW274312   7.886   0.119   7.358
24291SOL     OW74313   8.021   0.870   6.615
24291SOL    HW174314   8.065   0.959   6.606
24291SOL    HW274315   7.958   0.870   6.692
24292SOL     OW74316   7.755   0.213   6.817
24292SOL    HW174317   7.732   0.250   6.907
24292SOL    HW274318   7.725   0.118   6.811
24293SOL     OW74319   7.485   1.310   6.868
24293SOL    HW174320   7.538   1.261   6.936
24293SOL    HW274321   7.507   1.408   6.873
24294SOL     OW74322   7.755   0.063   6.204
24294SOL    HW174323   7.744   0.157   6.237
24294SOL    HW274324   7.750   0.000   6.281
24295SOL     OW74325   7.798   0.898   7.390
24295SOL    HW174326   7.874   0.942   7.438
24295SOL    HW274327   7.833   0.851   7.308
24296SOL     OW74328   7.767   0.810   6.535
24296SOL    HW174329   7.860   0.846   6.540
24296SOL    HW274330   7.761   0.725   6.587
24297SOL     OW74331   7.787   0.509   6.592
24297SOL    HW174332   7.735   0.426   6.575
24297SOL    HW274333   7.864   0.514   6.528
24298SOL     OW74334   7.456   1.326   5.786
24298SOL    HW174335   7.363   1.347   5.755
24298SOL    HW274336   7.466   1.227   5.799
24299SOL     OW74337   7.536   1.801   6.513
24299SOL    HW174338   7.494   1.715   6.486
24299SOL    HW274339   7.630   1.804   6.479
24300SOL     OW74340   7.488   0.544   6.700
24300SOL    HW174341   7.573   0.511   6.659
24300SOL    HW274342   7.501   0.559   6.798
24301SOL     OW74343   7.637   0.520   7.308
24301SOL    HW174344   7.696   0.480   7.238
24301SOL    HW274345   7.579   0.591   7.267
24302SOL     OW74346   8.263   0.572   5.911
24302SOL    HW174347   8.270   0.483   5.865
24302SOL    HW274348   8.169   0.606   5.903
24303SOL     OW74349   7.700   1.564   7.330
24303SOL    HW174350   7.670   1.621   7.406
24303SOL    HW274351   7.693   1.467   7.356
24304SOL     OW74352   7.921   0.500   5.777
24304SOL    HW174353   7.982   0.580   5.781
24304SOL    HW274354   7.826   0.531   5.784
24305SOL     OW74355   7.607   1.137   7.052
24305SOL    HW174356   7.629   1.076   7.128
24305SOL    HW274357   7.617   1.088   6.966
24306SOL     OW74358   7.531   1.258   6.608
24306SOL    HW174359   7.526   1.257   6.708
24306SOL    HW274360   7.448   1.217   6.570
24307SOL     OW74361   7.578   1.794   7.437
24307SOL    HW174362   7.537   1.720   7.490
24307SOL    HW274363   7.642   1.845   7.495
24308SOL     OW74364   7.711   0.326   6.306
24308SOL    HW174365   7.632   0.377   6.272
24308SOL    HW274366   7.702   0.311   6.404
24309SOL     OW74367   7.820   1.288   7.076
24309SOL    HW174368   7.807   1.381   7.042
24309SOL    HW274369   7.736   1.236   7.063
24310SOL     OW74370   8.038   1.487   6.077
24310SOL    HW174371   8.080   1.429   6.007
24310SOL    HW274372   7.994   1.566   6.033
24311SOL     OW74373   7.703   1.348   5.876
24311SOL    HW174374   7.607   1.349   5.849
24311SOL    HW274375   7.715   1.401   5.960
24312SOL     OW74376   7.553   1.013   7.312
24312SOL    HW174377   7.476   0.980   7.366
24312SOL    HW274378   7.638   0.983   7.354
24313SOL     OW74379   7.523   0.345   5.619
24313SOL    HW174380   7.431   0.317   5.590
24313SOL    HW274381   7.554   0.422   5.563
24314SOL     OW74382   7.520   0.166   5.904
24314SOL    HW174383   7.503   0.249   5.850
24314SOL    HW274384   7.610   0.129   5.882
24315SOL     OW74385   7.838   1.741   7.146
24315SOL    HW174386   7.747   1.782   7.144
24315SOL    HW274387   7.831   1.647   7.178
24316SOL     OW74388   7.669   1.314   7.430
24316SOL    HW174389   7.604   1.241   7.409
24316SOL    HW274390   7.673   1.328   7.528
24317SOL     OW74391   7.527   1.240   6.239
24317SOL    HW174392   7.526   1.193   6.327
24317SOL    HW274393   7.609   1.212   6.188
24318SOL     OW74394   8.120   1.391   7.210
24318SOL    HW174395   8.042   1.341   7.248
24318SOL    HW274396   8.117   1.486   7.241
24319SOL     OW74397   7.765   0.547   6.866
24319SOL    HW174398   7.803   0.488   6.938
24319SOL    HW274399   7.805   0.521   6.778
24320SOL     OW74400   7.487   1.077   5.886
24320SOL    HW174401   7.586   1.066   5.877
24320SOL    HW274402   7.447   0.991   5.918
24321SOL     OW74403   7.678   0.628   7.561
24321SOL    HW174404   7.585   0.626   7.598
24321SOL    HW274405   7.679   0.589   7.469
24322SOL     OW74406   7.673   0.275   8.444
24322SOL    HW174407   7.708   0.258   8.536
24322SOL    HW274408   7.585   0.230   8.432
24323SOL     OW74409   7.467   0.368   8.095
24323SOL    HW174410   7.385   0.411   8.134
24323SOL    HW274411   7.439   0.295   8.032
24324SOL     OW74412   7.783   1.435   8.509
24324SOL    HW174413   7.705   1.404   8.456
24324SOL    HW274414   7.841   1.493   8.452
24325SOL     OW74415   7.886   0.392   8.947
24325SOL    HW174416   7.968   0.336   8.956
24325SOL    HW274417   7.805   0.334   8.951
24326SOL     OW74418   7.679   1.713   7.931
24326SOL    HW174419   7.713   1.790   7.985
24326SOL    HW274420   7.723   1.713   7.841
24327SOL     OW74421   7.678   1.434   7.986
24327SOL    HW174422   7.652   1.530   7.986
24327SOL    HW274423   7.607   1.380   8.031
24328SOL     OW74424   7.688   1.091   8.334
24328SOL    HW174425   7.702   1.007   8.386
24328SOL    HW274426   7.633   1.155   8.389
24329SOL     OW74427   7.570   0.643   8.011
24329SOL    HW174428   7.525   0.555   8.028
24329SOL    HW274429   7.569   0.697   8.095
24330SOL     OW74430   7.475   1.596   7.565
24330SOL    HW174431   7.456   1.500   7.586
24330SOL    HW274432   7.442   1.654   7.640
24331SOL     OW74433   7.561   0.737   9.045
24331SOL    HW174434   7.649   0.724   9.090
24331SOL    HW274435   7.548   0.834   9.023
24332SOL     OW74436   7.645   0.976   8.712
24332SOL    HW174437   7.734   0.931   8.698
24332SOL    HW274438   7.572   0.911   8.693
24333SOL     OW74439   7.765   0.251   9.249
24333SOL    HW174440   7.836   0.322   9.255
24333SOL    HW274441   7.677   0.290   9.277
24334SOL     OW74442   8.046   0.729   7.718
24334SOL    HW174443   8.070   0.798   7.650
24334SOL    HW274444   7.968   0.762   7.772
24335SOL     OW74445   7.524   0.811   8.237
24335SOL    HW174446   7.623   0.799   8.246
24335SOL    HW274447   7.500   0.906   8.258
24336SOL     OW74448   7.578   1.821   9.019
24336SOL    HW174449   7.568   1.806   9.118
24336SOL    HW274450   7.492   1.857   8.983
24337SOL     OW74451   7.998   0.196   8.333
24337SOL    HW174452   7.993   0.191   8.433
24337SOL    HW274453   8.000   0.292   8.304
24338SOL     OW74454   7.799   1.801   8.301
24338SOL    HW174455   7.849   1.715   8.307
24338SOL    HW274456   7.864   1.878   8.298
24339SOL     OW74457   7.769   0.943   7.690
24339SOL    HW174458   7.851   0.982   7.648
24339SOL    HW274459   7.742   0.861   7.641
24340SOL     OW74460   7.909   1.266   9.175
24340SOL    HW174461   7.859   1.267   9.089
24340SOL    HW274462   7.846   1.248   9.251
24341SOL     OW74463   7.650   0.285   8.946
24341SOL    HW174464   7.570   0.345   8.933
24341SOL    HW274465   7.640   0.236   9.032
24342SOL     OW74466   7.697   1.785   8.689
24342SOL    HW174467   7.754   1.720   8.739
24342SOL    HW274468   7.681   1.752   8.596
24343SOL     OW74469   7.830   0.700   7.928
24343SOL    HW174470   7.875   0.610   7.925
24343SOL    HW274471   7.736   0.689   7.961
24344SOL     OW74472   8.062   0.122   7.565
24344SOL    HW174473   8.160   0.100   7.572
24344SOL    HW274474   8.031   0.105   7.472
24345SOL     OW74475   7.745   0.035   7.619
24345SOL    HW174476   7.794   0.119   7.598
24345SOL    HW274477   7.807  -0.030   7.664
24346SOL     OW74478   7.907   1.152   8.189
24346SOL    HW174479   7.836   1.125   8.254
24346SOL    HW274480   7.881   1.124   8.096
24347SOL     OW74481   7.526   0.556   8.834
24347SOL    HW174482   7.618   0.555   8.793
24347SOL    HW274483   7.520   0.630   8.901
24348SOL     OW74484   7.858   0.813   8.699
24348SOL    HW174485   7.944   0.825   8.749
24348SOL    HW274486   7.816   0.726   8.726
24349SOL     OW74487   7.512   1.564   8.779
24349SOL    HW174488   7.466   1.646   8.745
24349SOL    HW274489   7.610   1.583   8.788
24350SOL     OW74490   7.815   1.100   7.949
24350SOL    HW174491   7.808   1.183   7.893
24350SOL    HW274492   7.819   1.020   7.889
24351SOL     OW74493   8.014   0.537   8.313
24351SOL    HW174494   8.026   0.603   8.239
24351SOL    HW274495   8.060   0.571   8.396
24352SOL     OW74496   7.802   1.510   8.777
24352SOL    HW174497   7.781   1.466   8.690
24352SOL    HW274498   7.899   1.536   8.780
24353SOL     OW74499   7.850   0.751   9.046
24353SOL    HW174500   7.918   0.806   8.999
24353SOL    HW274501   7.890   0.663   9.073
24354SOL     OW74502   7.952   0.050   9.188
24354SOL    HW174503   7.910  -0.007   9.118
24354SOL    HW274504   7.886   0.119   9.220
24355SOL     OW74505   8.021   0.870   8.477
24355SOL    HW174506   8.065   0.959   8.468
24355SOL    HW274507   7.958   0.870   8.554
24356SOL     OW74508   7.755   0.213   8.679
24356SOL    HW174509   7.732   0.250   8.769
24356SOL    HW274510   7.725   0.118   8.673
24357SOL     OW74511   7.485   1.310   8.730
24357SOL    HW174512   7.538   1.261   8.798
24357SOL    HW274513   7.507   1.408   8.735
24358SOL     OW74514   7.755   0.063   8.066
24358SOL    HW174515   7.744   0.157   8.099
24358SOL    HW274516   7.750   0.000   8.143
24359SOL     OW74517   7.798   0.898   9.252
24359SOL    HW174518   7.874   0.942   9.300
24359SOL    HW274519   7.833   0.851   9.170
24360SOL     OW74520   7.767   0.810   8.397
24360SOL    HW174521   7.860   0.846   8.402
24360SOL    HW274522   7.761   0.725   8.449
24361SOL     OW74523   7.787   0.509   8.454
24361SOL    HW174524   7.735   0.426   8.437
24361SOL    HW274525   7.864   0.514   8.390
24362SOL     OW74526   7.456   1.326   7.648
24362SOL    HW174527   7.363   1.347   7.617
24362SOL    HW274528   7.466   1.227   7.661
24363SOL     OW74529   7.536   1.801   8.375
24363SOL    HW174530   7.494   1.715   8.348
24363SOL    HW274531   7.630   1.804   8.341
24364SOL     OW74532   7.488   0.544   8.562
24364SOL    HW174533   7.573   0.511   8.521
24364SOL    HW274534   7.501   0.559   8.660
24365SOL     OW74535   8.263   0.572   7.773
24365SOL    HW174536   8.270   0.483   7.727
24365SOL    HW274537   8.169   0.606   7.765
24366SOL     OW74538   7.700   1.564   9.192
24366SOL    HW174539   7.670   1.621   9.268
24366SOL    HW274540   7.693   1.467   9.218
24367SOL     OW74541   7.921   0.500   7.639
24367SOL    HW174542   7.982   0.580   7.643
24367SOL    HW274543   7.826   0.531   7.646
24368SOL     OW74544   7.607   1.137   8.914
24368SOL    HW174545   7.629   1.076   8.990
24368SOL    HW274546   7.617   1.088   8.828
24369SOL     OW74547   7.531   1.258   8.470
24369SOL    HW174548   7.526   1.257   8.570
24369SOL    HW274549   7.448   1.217   8.432
24370SOL     OW74550   7.578   1.794   9.299
24370SOL    HW174551   7.537   1.720   9.352
24370SOL    HW274552   7.642   1.845   9.357
24371SOL     OW74553   7.711   0.326   8.168
24371SOL    HW174554   7.632   0.377   8.134
24371SOL    HW274555   7.702   0.311   8.266
24372SOL     OW74556   7.820   1.288   8.938
24372SOL    HW174557   7.807   1.381   8.904
24372SOL    HW274558   7.736   1.236   8.925
24373SOL     OW74559   8.038   1.487   7.939
24373SOL    HW174560   8.080   1.429   7.869
24373SOL    HW274561   7.994   1.566   7.895
24374SOL     OW74562   7.703   1.348   7.738
24374SOL    HW174563   7.607   1.349   7.711
24374SOL    HW274564   7.715   1.401   7.822
24375SOL     OW74565   7.553   1.013   9.174
24375SOL    HW174566   7.476   0.980   9.228
24375SOL    HW274567   7.638   0.983   9.216
24376SOL     OW74568   7.523   0.345   7.481
24376SOL    HW174569   7.431   0.317   7.452
24376SOL    HW274570   7.554   0.422   7.425
24377SOL     OW74571   7.520   0.166   7.766
24377SOL    HW174572   7.503   0.249   7.712
24377SOL    HW274573   7.610   0.129   7.744
24378SOL     OW74574   7.838   1.741   9.008
24378SOL    HW174575   7.747   1.782   9.006
24378SOL    HW274576   7.831   1.647   9.040
24379SOL     OW74577   7.669   1.314   9.292
24379SOL    HW174578   7.604   1.241   9.271
24379SOL    HW274579   7.673   1.328   9.390
24380SOL     OW74580   7.527   1.240   8.101
24380SOL    HW174581   7.526   1.193   8.189
24380SOL    HW274582   7.609   1.212   8.050
24381SOL     OW74583   8.120   1.391   9.072
24381SOL    HW174584   8.042   1.341   9.110
24381SOL    HW274585   8.117   1.486   9.103
24382SOL     OW74586   7.765   0.547   8.728
24382SOL    HW174587   7.803   0.488   8.800
24382SOL    HW274588   7.805   0.521   8.640
24383SOL     OW74589   7.487   1.077   7.748
24383SOL    HW174590   7.586   1.066   7.739
24383SOL    HW274591   7.447   0.991   7.780
24384SOL     OW74592   7.678   0.628   9.423
24384SOL    HW174593   7.585   0.626   9.460
24384SOL    HW274594   7.679   0.589   9.331
24385SOL     OW74595   7.673   0.275  10.306
24385SOL    HW174596   7.708   0.258  10.398
24385SOL    HW274597   7.585   0.230  10.294
24386SOL     OW74598   7.467   0.368   9.957
24386SOL    HW174599   7.385   0.411   9.996
24386SOL    HW274600   7.439   0.295   9.894
24387SOL     OW74601   7.783   1.435  10.371
24387SOL    HW174602   7.705   1.404  10.318
24387SOL    HW274603   7.841   1.493  10.314
24388SOL     OW74604   7.886   0.392  10.809
24388SOL    HW174605   7.968   0.336  10.818
24388SOL    HW274606   7.805   0.334  10.813
24389SOL     OW74607   7.679   1.713   9.793
24389SOL    HW174608   7.713   1.790   9.847
24389SOL    HW274609   7.723   1.713   9.703
24390SOL     OW74610   7.678   1.434   9.848
24390SOL    HW174611   7.652   1.530   9.848
24390SOL    HW274612   7.607   1.380   9.893
24391SOL     OW74613   7.688   1.091  10.196
24391SOL    HW174614   7.702   1.007  10.248
24391SOL    HW274615   7.633   1.155  10.251
24392SOL     OW74616   7.570   0.643   9.873
24392SOL    HW174617   7.525   0.555   9.890
24392SOL    HW274618   7.569   0.697   9.957
24393SOL     OW74619   7.475   1.596   9.427
24393SOL    HW174620   7.456   1.500   9.448
24393SOL    HW274621   7.442   1.654   9.502
24394SOL     OW74622   7.561   0.737  10.907
24394SOL    HW174623   7.649   0.724  10.952
24394SOL    HW274624   7.548   0.834  10.885
24395SOL     OW74625   7.645   0.976  10.574
24395SOL    HW174626   7.734   0.931  10.560
24395SOL    HW274627   7.572   0.911  10.555
24396SOL     OW74628   7.765   0.251  11.111
24396SOL    HW174629   7.836   0.322  11.117
24396SOL    HW274630   7.677   0.290  11.139
24397SOL     OW74631   8.046   0.729   9.580
24397SOL    HW174632   8.070   0.798   9.512
24397SOL    HW274633   7.968   0.762   9.634
24398SOL     OW74634   7.524   0.811  10.099
24398SOL    HW174635   7.623   0.799  10.108
24398SOL    HW274636   7.500   0.906  10.120
24399SOL     OW74637   7.578   1.821  10.881
24399SOL    HW174638   7.568   1.806  10.980
24399SOL    HW274639   7.492   1.857  10.845
24400SOL     OW74640   7.998   0.196  10.195
24400SOL    HW174641   7.993   0.191  10.295
24400SOL    HW274642   8.000   0.292  10.166
24401SOL     OW74643   7.799   1.801  10.163
24401SOL    HW174644   7.849   1.715  10.169
24401SOL    HW274645   7.864   1.878  10.160
24402SOL     OW74646   7.769   0.943   9.552
24402SOL    HW174647   7.851   0.982   9.510
24402SOL    HW274648   7.742   0.861   9.503
24403SOL     OW74649   7.909   1.266  11.037
24403SOL    HW174650   7.859   1.267  10.951
24403SOL    HW274651   7.846   1.248  11.113
24404SOL     OW74652   7.650   0.285  10.808
24404SOL    HW174653   7.570   0.345  10.795
24404SOL    HW274654   7.640   0.236  10.894
24405SOL     OW74655   7.697   1.785  10.551
24405SOL    HW174656   7.754   1.720  10.601
24405SOL    HW274657   7.681   1.752  10.458
24406SOL     OW74658   7.830   0.700   9.790
24406SOL    HW174659   7.875   0.610   9.787
24406SOL    HW274660   7.736   0.689   9.823
24407SOL     OW74661   8.062   0.122   9.427
24407SOL    HW174662   8.160   0.100   9.434
24407SOL    HW274663   8.031   0.105   9.334
24408SOL     OW74664   7.745   0.035   9.481
24408SOL    HW174665   7.794   0.119   9.460
24408SOL    HW274666   7.807  -0.030   9.526
24409SOL     OW74667   7.907   1.152  10.051
24409SOL    HW174668   7.836   1.125  10.116
24409SOL    HW274669   7.881   1.124   9.958
24410SOL     OW74670   7.526   0.556  10.696
24410SOL    HW174671   7.618   0.555  10.655
24410SOL    HW274672   7.520   0.630  10.763
24411SOL     OW74673   7.858   0.813  10.561
24411SOL    HW174674   7.944   0.825  10.611
24411SOL    HW274675   7.816   0.726  10.588
24412SOL     OW74676   7.512   1.564  10.641
24412SOL    HW174677   7.466   1.646  10.607
24412SOL    HW274678   7.610   1.583  10.650
24413SOL     OW74679   7.815   1.100   9.811
24413SOL    HW174680   7.808   1.183   9.755
24413SOL    HW274681   7.819   1.020   9.751
24414SOL     OW74682   8.014   0.537  10.175
24414SOL    HW174683   8.026   0.603  10.101
24414SOL    HW274684   8.060   0.571  10.258
24415SOL     OW74685   7.802   1.510  10.639
24415SOL    HW174686   7.781   1.466  10.552
24415SOL    HW274687   7.899   1.536  10.642
24416SOL     OW74688   7.850   0.751  10.908
24416SOL    HW174689   7.918   0.806  10.861
24416SOL    HW274690   7.890   0.663  10.935
24417SOL     OW74691   7.952   0.050  11.050
24417SOL    HW174692   7.910  -0.007  10.980
24417SOL    HW274693   7.886   0.119  11.082
24418SOL     OW74694   8.021   0.870  10.339
24418SOL    HW174695   8.065   0.959  10.330
24418SOL    HW274696   7.958   0.870  10.416
24419SOL     OW74697   7.755   0.213  10.541
24419SOL    HW174698   7.732   0.250  10.631
24419SOL    HW274699   7.725   0.118  10.535
24420SOL     OW74700   7.485   1.310  10.592
24420SOL    HW174701   7.538   1.261  10.660
24420SOL    HW274702   7.507   1.408  10.597
24421SOL     OW74703   7.755   0.063   9.928
24421SOL    HW174704   7.744   0.157   9.961
24421SOL    HW274705   7.750   0.000  10.005
24422SOL     OW74706   7.798   0.898  11.114
24422SOL    HW174707   7.874   0.942  11.162
24422SOL    HW274708   7.833   0.851  11.032
24423SOL     OW74709   7.767   0.810  10.259
24423SOL    HW174710   7.860   0.846  10.264
24423SOL    HW274711   7.761   0.725  10.311
24424SOL     OW74712   7.787   0.509  10.316
24424SOL    HW174713   7.735   0.426  10.299
24424SOL    HW274714   7.864   0.514  10.252
24425SOL     OW74715   7.456   1.326   9.510
24425SOL    HW174716   7.363   1.347   9.479
24425SOL    HW274717   7.466   1.227   9.523
24426SOL     OW74718   7.536   1.801  10.237
24426SOL    HW174719   7.494   1.715  10.210
24426SOL    HW274720   7.630   1.804  10.203
24427SOL     OW74721   7.488   0.544  10.424
24427SOL    HW174722   7.573   0.511  10.383
24427SOL    HW274723   7.501   0.559  10.522
24428SOL     OW74724   7.637   0.520  11.032
24428SOL    HW174725   7.696   0.480  10.962
24428SOL    HW274726   7.579   0.591  10.991
24429SOL     OW74727   8.263   0.572   9.635
24429SOL    HW174728   8.270   0.483   9.589
24429SOL    HW274729   8.169   0.606   9.627
24430SOL     OW74730   7.700   1.564  11.054
24430SOL    HW174731   7.670   1.621  11.130
24430SOL    HW274732   7.693   1.467  11.080
24431SOL     OW74733   7.921   0.500   9.501
24431SOL    HW174734   7.982   0.580   9.505
24431SOL    HW274735   7.826   0.531   9.508
24432SOL     OW74736   7.607   1.137  10.776
24432SOL    HW174737   7.629   1.076  10.852
24432SOL    HW274738   7.617   1.088  10.690
24433SOL     OW74739   7.531   1.258  10.332
24433SOL    HW174740   7.526   1.257  10.432
24433SOL    HW274741   7.448   1.217  10.294
24434SOL     OW74742   7.578   1.794  11.161
24434SOL    HW174743   7.537   1.720  11.214
24434SOL    HW274744   7.642   1.845  11.219
24435SOL     OW74745   7.711   0.326  10.030
24435SOL    HW174746   7.632   0.377   9.996
24435SOL    HW274747   7.702   0.311  10.128
24436SOL     OW74748   7.820   1.288  10.800
24436SOL    HW174749   7.807   1.381  10.766
24436SOL    HW274750   7.736   1.236  10.787
24437SOL     OW74751   8.038   1.487   9.801
24437SOL    HW174752   8.080   1.429   9.731
24437SOL    HW274753   7.994   1.566   9.757
24438SOL     OW74754   7.703   1.348   9.600
24438SOL    HW174755   7.607   1.349   9.573
24438SOL    HW274756   7.715   1.401   9.684
24439SOL     OW74757   7.553   1.013  11.036
24439SOL    HW174758   7.476   0.980  11.090
24439SOL    HW274759   7.638   0.983  11.078
24440SOL     OW74760   7.523   0.345   9.343
24440SOL    HW174761   7.431   0.317   9.314
24440SOL    HW274762   7.554   0.422   9.287
24441SOL     OW74763   7.520   0.166   9.628
24441SOL    HW174764   7.503   0.249   9.574
24441SOL    HW274765   7.610   0.129   9.606
24442SOL     OW74766   7.838   1.741  10.870
24442SOL    HW174767   7.747   1.782  10.868
24442SOL    HW274768   7.831   1.647  10.902
24443SOL     OW74769   7.669   1.314  11.154
24443SOL    HW174770   7.604   1.241  11.133
24443SOL    HW274771   7.673   1.328  11.252
24444SOL     OW74772   7.527   1.240   9.963
24444SOL    HW174773   7.526   1.193  10.051
24444SOL    HW274774   7.609   1.212   9.912
24445SOL     OW74775   8.120   1.391  10.934
24445SOL    HW174776   8.042   1.341  10.972
24445SOL    HW274777   8.117   1.486  10.965
24446SOL     OW74778   7.765   0.547  10.590
24446SOL    HW174779   7.803   0.488  10.662
24446SOL    HW274780   7.805   0.521  10.502
24447SOL     OW74781   7.487   1.077   9.610
24447SOL    HW174782   7.586   1.066   9.601
24447SOL    HW274783   7.447   0.991   9.642
24448SOL     OW74784   7.678   0.628  11.285
24448SOL    HW174785   7.585   0.626  11.322
24448SOL    HW274786   7.679   0.589  11.193
24449SOL     OW74787   7.673   0.275  12.168
24449SOL    HW174788   7.708   0.258  12.260
24449SOL    HW274789   7.585   0.230  12.156
24450SOL     OW74790   7.467   0.368  11.819
24450SOL    HW174791   7.385   0.411  11.858
24450SOL    HW274792   7.439   0.295  11.756
24451SOL     OW74793   7.783   1.435  12.233
24451SOL    HW174794   7.705   1.404  12.180
24451SOL    HW274795   7.841   1.493  12.176
24452SOL     OW74796   7.679   1.713  11.655
24452SOL    HW174797   7.713   1.790  11.709
24452SOL    HW274798   7.723   1.713  11.565
24453SOL     OW74799   7.678   1.434  11.710
24453SOL    HW174800   7.652   1.530  11.710
24453SOL    HW274801   7.607   1.380  11.755
24454SOL     OW74802   7.688   1.091  12.058
24454SOL    HW174803   7.702   1.007  12.110
24454SOL    HW274804   7.633   1.155  12.113
24455SOL     OW74805   7.570   0.643  11.735
24455SOL    HW174806   7.525   0.555  11.752
24455SOL    HW274807   7.569   0.697  11.819
24456SOL     OW74808   7.475   1.596  11.289
24456SOL    HW174809   7.456   1.500  11.310
24456SOL    HW274810   7.442   1.654  11.364
24457SOL     OW74811   7.561   0.737  12.769
24457SOL    HW174812   7.649   0.724  12.814
24457SOL    HW274813   7.548   0.834  12.747
24458SOL     OW74814   7.645   0.976  12.436
24458SOL    HW174815   7.734   0.931  12.422
24458SOL    HW274816   7.572   0.911  12.417
24459SOL     OW74817   8.046   0.729  11.442
24459SOL    HW174818   8.070   0.798  11.374
24459SOL    HW274819   7.968   0.762  11.496
24460SOL     OW74820   7.524   0.811  11.961
24460SOL    HW174821   7.623   0.799  11.970
24460SOL    HW274822   7.500   0.906  11.982
24461SOL     OW74823   7.998   0.196  12.057
24461SOL    HW174824   7.993   0.191  12.157
24461SOL    HW274825   8.000   0.292  12.028
24462SOL     OW74826   7.799   1.801  12.025
24462SOL    HW174827   7.849   1.715  12.031
24462SOL    HW274828   7.864   1.878  12.022
24463SOL     OW74829   7.769   0.943  11.414
24463SOL    HW174830   7.851   0.982  11.372
24463SOL    HW274831   7.742   0.861  11.365
24464SOL     OW74832   7.697   1.785  12.413
24464SOL    HW174833   7.754   1.720  12.463
24464SOL    HW274834   7.681   1.752  12.320
24465SOL     OW74835   7.830   0.700  11.652
24465SOL    HW174836   7.875   0.610  11.649
24465SOL    HW274837   7.736   0.689  11.685
24466SOL     OW74838   8.062   0.122  11.289
24466SOL    HW174839   8.160   0.100  11.296
24466SOL    HW274840   8.031   0.105  11.196
24467SOL     OW74841   7.745   0.035  11.343
24467SOL    HW174842   7.794   0.119  11.322
24467SOL    HW274843   7.807  -0.030  11.388
24468SOL     OW74844   7.907   1.152  11.913
24468SOL    HW174845   7.836   1.125  11.978
24468SOL    HW274846   7.881   1.124  11.820
24469SOL     OW74847   7.858   0.813  12.423
24469SOL    HW174848   7.944   0.825  12.473
24469SOL    HW274849   7.816   0.726  12.450
24470SOL     OW74850   7.815   1.100  11.673
24470SOL    HW174851   7.808   1.183  11.617
24470SOL    HW274852   7.819   1.020  11.613
24471SOL     OW74853   8.014   0.537  12.037
24471SOL    HW174854   8.026   0.603  11.963
24471SOL    HW274855   8.060   0.571  12.120
24472SOL     OW74856   7.802   1.510  12.501
24472SOL    HW174857   7.781   1.466  12.414
24472SOL    HW274858   7.899   1.536  12.504
24473SOL     OW74859   7.850   0.751  12.770
24473SOL    HW174860   7.918   0.806  12.723
24473SOL    HW274861   7.890   0.663  12.797
24474SOL     OW74862   8.021   0.870  12.201
24474SOL    HW174863   8.065   0.959  12.192
24474SOL    HW274864   7.958   0.870  12.278
24475SOL     OW74865   7.755   0.213  12.403
24475SOL    HW174866   7.732   0.250  12.493
24475SOL    HW274867   7.725   0.118  12.397
24476SOL     OW74868   7.485   1.310  12.454
24476SOL    HW174869   7.538   1.261  12.522
24476SOL    HW274870   7.507   1.408  12.459
24477SOL     OW74871   7.755   0.063  11.790
24477SOL    HW174872   7.744   0.157  11.823
24477SOL    HW274873   7.750   0.000  11.867
24478SOL     OW74874   7.767   0.810  12.121
24478SOL    HW174875   7.860   0.846  12.126
24478SOL    HW274876   7.761   0.725  12.173
24479SOL     OW74877   7.787   0.509  12.178
24479SOL    HW174878   7.735   0.426  12.161
24479SOL    HW274879   7.864   0.514  12.114
24480SOL     OW74880   7.456   1.326  11.372
24480SOL    HW174881   7.363   1.347  11.341
24480SOL    HW274882   7.466   1.227  11.385
24481SOL     OW74883   7.536   1.801  12.099
24481SOL    HW174884   7.494   1.715  12.072
24481SOL    HW274885   7.630   1.804  12.065
24482SOL     OW74886   7.488   0.544  12.286
24482SOL    HW174887   7.573   0.511  12.245
24482SOL    HW274888   7.501   0.559  12.384
24483SOL     OW74889   8.263   0.572  11.497
24483SOL    HW174890   8.270   0.483  11.451
24483SOL    HW274891   8.169   0.606  11.489
24484SOL     OW74892   7.921   0.500  11.363
24484SOL    HW174893   7.982   0.580  11.367
24484SOL    HW274894   7.826   0.531  11.370
24485SOL     OW74895   7.531   1.258  12.194
24485SOL    HW174896   7.526   1.257  12.294
24485SOL    HW274897   7.448   1.217  12.156
24486SOL     OW74898   7.711   0.326  11.892
24486SOL    HW174899   7.632   0.377  11.858
24486SOL    HW274900   7.702   0.311  11.990
24487SOL     OW74901   8.038   1.487  11.663
24487SOL    HW174902   8.080   1.429  11.593
24487SOL    HW274903   7.994   1.566  11.619
24488SOL     OW74904   7.703   1.348  11.462
24488SOL    HW174905   7.607   1.349  11.435
24488SOL    HW274906   7.715   1.401  11.546
24489SOL     OW74907   7.523   0.345  11.205
24489SOL    HW174908   7.431   0.317  11.176
24489SOL    HW274909   7.554   0.422  11.149
24490SOL     OW74910   7.520   0.166  11.490
24490SOL    HW174911   7.503   0.249  11.436
24490SOL    HW274912   7.610   0.129  11.468
24491SOL     OW74913   7.838   1.741  12.732
24491SOL    HW174914   7.747   1.782  12.730
24491SOL    HW274915   7.831   1.647  12.764
24492SOL     OW74916   7.527   1.240  11.825
24492SOL    HW174917   7.526   1.193  11.913
24492SOL    HW274918   7.609   1.212  11.774
24493SOL     OW74919   7.487   1.077  11.472
24493SOL    HW174920   7.586   1.066  11.463
24493SOL    HW274921   7.447   0.991  11.504
24494SOL     OW74922   7.678   2.490   0.113
24494SOL    HW174923   7.585   2.488   0.150
24494SOL    HW274924   7.679   2.451   0.021
24495SOL     OW74925   7.673   2.137   0.996
24495SOL    HW174926   7.708   2.120   1.088
24495SOL    HW274927   7.585   2.092   0.984
24496SOL     OW74928   7.467   2.230   0.647
24496SOL    HW174929   7.385   2.273   0.686
24496SOL    HW274930   7.439   2.157   0.584
24497SOL     OW74931   7.783   3.297   1.061
24497SOL    HW174932   7.705   3.266   1.008
24497SOL    HW274933   7.841   3.355   1.004
24498SOL     OW74934   7.886   2.254   1.499
24498SOL    HW174935   7.968   2.198   1.508
24498SOL    HW274936   7.805   2.196   1.503
24499SOL     OW74937   7.679   3.575   0.483
24499SOL    HW174938   7.713   3.652   0.537
24499SOL    HW274939   7.723   3.575   0.393
24500SOL     OW74940   7.678   3.296   0.538
24500SOL    HW174941   7.652   3.392   0.538
24500SOL    HW274942   7.607   3.242   0.583
24501SOL     OW74943   7.688   2.953   0.886
24501SOL    HW174944   7.702   2.869   0.938
24501SOL    HW274945   7.633   3.017   0.941
24502SOL     OW74946   7.570   2.505   0.563
24502SOL    HW174947   7.525   2.417   0.580
24502SOL    HW274948   7.569   2.559   0.647
24503SOL     OW74949   7.475   3.458   0.117
24503SOL    HW174950   7.456   3.362   0.138
24503SOL    HW274951   7.442   3.516   0.192
24504SOL     OW74952   7.561   2.599   1.597
24504SOL    HW174953   7.649   2.586   1.642
24504SOL    HW274954   7.548   2.696   1.575
24505SOL     OW74955   7.645   2.838   1.264
24505SOL    HW174956   7.734   2.793   1.250
24505SOL    HW274957   7.572   2.773   1.245
24506SOL     OW74958   7.765   2.113   1.801
24506SOL    HW174959   7.836   2.184   1.807
24506SOL    HW274960   7.677   2.152   1.829
24507SOL     OW74961   7.524   2.673   0.789
24507SOL    HW174962   7.623   2.661   0.798
24507SOL    HW274963   7.500   2.768   0.810
24508SOL     OW74964   7.578   3.683   1.571
24508SOL    HW174965   7.568   3.668   1.670
24508SOL    HW274966   7.492   3.719   1.535
24509SOL     OW74967   7.998   2.058   0.885
24509SOL    HW174968   7.993   2.053   0.985
24509SOL    HW274969   8.000   2.154   0.856
24510SOL     OW74970   7.799   3.663   0.853
24510SOL    HW174971   7.849   3.577   0.859
24510SOL    HW274972   7.864   3.740   0.850
24511SOL     OW74973   7.769   2.805   0.242
24511SOL    HW174974   7.851   2.844   0.200
24511SOL    HW274975   7.742   2.723   0.193
24512SOL     OW74976   7.909   3.128   1.727
24512SOL    HW174977   7.859   3.129   1.641
24512SOL    HW274978   7.846   3.110   1.803
24513SOL     OW74979   7.650   2.147   1.498
24513SOL    HW174980   7.570   2.207   1.485
24513SOL    HW274981   7.640   2.098   1.584
24514SOL     OW74982   7.697   3.647   1.241
24514SOL    HW174983   7.754   3.582   1.291
24514SOL    HW274984   7.681   3.614   1.148
24515SOL     OW74985   7.830   2.562   0.480
24515SOL    HW174986   7.875   2.472   0.477
24515SOL    HW274987   7.736   2.551   0.513
24516SOL     OW74988   8.062   1.984   0.117
24516SOL    HW174989   8.160   1.962   0.124
24516SOL    HW274990   8.031   1.967   0.024
24517SOL     OW74991   7.987   1.926   0.512
24517SOL    HW174992   7.906   1.927   0.570
24517SOL    HW274993   7.990   2.009   0.457
24518SOL     OW74994   7.907   3.014   0.741
24518SOL    HW174995   7.836   2.987   0.806
24518SOL    HW274996   7.881   2.986   0.648
24519SOL     OW74997   7.526   2.418   1.386
24519SOL    HW174998   7.618   2.417   1.345
24519SOL    HW274999   7.520   2.492   1.453
24520SOL     OW75000   8.009   2.084   1.147
24520SOL    HW175001   8.047   2.000   1.184
24520SOL    HW275002   7.921   2.103   1.191
24521SOL     OW75003   7.858   2.675   1.251
24521SOL    HW175004   7.944   2.687   1.301
24521SOL    HW275005   7.816   2.588   1.278
24522SOL     OW75006   7.512   3.426   1.331
24522SOL    HW175007   7.466   3.508   1.297
24522SOL    HW275008   7.610   3.445   1.340
24523SOL     OW75009   7.815   2.962   0.501
24523SOL    HW175010   7.808   3.045   0.445
24523SOL    HW275011   7.819   2.882   0.441
24524SOL     OW75012   8.014   2.399   0.865
24524SOL    HW175013   8.026   2.465   0.791
24524SOL    HW275014   8.060   2.433   0.948
24525SOL     OW75015   7.802   3.372   1.329
24525SOL    HW175016   7.781   3.328   1.242
24525SOL    HW275017   7.899   3.398   1.332
24526SOL     OW75018   7.850   2.613   1.598
24526SOL    HW175019   7.918   2.668   1.551
24526SOL    HW275020   7.890   2.525   1.625
24527SOL     OW75021   7.952   1.912   1.740
24527SOL    HW175022   7.910   1.855   1.670
24527SOL    HW275023   7.886   1.981   1.772
24528SOL     OW75024   8.021   2.732   1.029
24528SOL    HW175025   8.065   2.821   1.020
24528SOL    HW275026   7.958   2.732   1.106
24529SOL     OW75027   7.755   2.075   1.231
24529SOL    HW175028   7.732   2.112   1.321
24529SOL    HW275029   7.725   1.980   1.225
24530SOL     OW75030   7.485   3.172   1.282
24530SOL    HW175031   7.538   3.123   1.350
24530SOL    HW275032   7.507   3.270   1.287
24531SOL     OW75033   7.755   1.925   0.618
24531SOL    HW175034   7.744   2.019   0.651
24531SOL    HW275035   7.750   1.862   0.695
24532SOL     OW75036   7.798   2.760   1.804
24532SOL    HW175037   7.874   2.804   1.852
24532SOL    HW275038   7.833   2.713   1.722
24533SOL     OW75039   7.767   2.672   0.949
24533SOL    HW175040   7.860   2.708   0.954
24533SOL    HW275041   7.761   2.587   1.001
24534SOL     OW75042   7.787   2.371   1.006
24534SOL    HW175043   7.735   2.288   0.989
24534SOL    HW275044   7.864   2.376   0.942
24535SOL     OW75045   7.536   3.663   0.927
24535SOL    HW175046   7.494   3.577   0.900
24535SOL    HW275047   7.630   3.666   0.893
24536SOL     OW75048   7.488   2.406   1.114
24536SOL    HW175049   7.573   2.373   1.073
24536SOL    HW275050   7.501   2.421   1.212
24537SOL     OW75051   7.637   2.382   1.722
24537SOL    HW175052   7.696   2.342   1.652
24537SOL    HW275053   7.579   2.453   1.681
24538SOL     OW75054   7.700   3.426   1.744
24538SOL    HW175055   7.670   3.483   1.820
24538SOL    HW275056   7.693   3.329   1.770
24539SOL     OW75057   7.921   2.362   0.191
24539SOL    HW175058   7.982   2.442   0.195
24539SOL    HW275059   7.826   2.393   0.198
24540SOL     OW75060   7.607   2.999   1.466
24540SOL    HW175061   7.629   2.938   1.542
24540SOL    HW275062   7.617   2.950   1.380
24541SOL     OW75063   7.531   3.120   1.022
24541SOL    HW175064   7.526   3.119   1.122
24541SOL    HW275065   7.448   3.079   0.984
24542SOL     OW75066   7.578   3.656   1.851
24542SOL    HW175067   7.537   3.582   1.904
24542SOL    HW275068   7.642   3.707   1.909
24543SOL     OW75069   7.711   2.188   0.720
24543SOL    HW175070   7.632   2.239   0.686
24543SOL    HW275071   7.702   2.173   0.818
24544SOL     OW75072   7.820   3.150   1.490
24544SOL    HW175073   7.807   3.243   1.456
24544SOL    HW275074   7.736   3.098   1.477
24545SOL     OW75075   8.038   3.349   0.491
24545SOL    HW175076   8.080   3.291   0.421
24545SOL    HW275077   7.994   3.428   0.447
24546SOL     OW75078   7.703   3.210   0.290
24546SOL    HW175079   7.607   3.211   0.263
24546SOL    HW275080   7.715   3.263   0.374
24547SOL     OW75081   7.553   2.875   1.726
24547SOL    HW175082   7.476   2.842   1.780
24547SOL    HW275083   7.638   2.845   1.768
24548SOL     OW75084   7.520   2.028   0.318
24548SOL    HW175085   7.503   2.111   0.264
24548SOL    HW275086   7.610   1.991   0.296
24549SOL     OW75087   7.838   3.603   1.560
24549SOL    HW175088   7.747   3.644   1.558
24549SOL    HW275089   7.831   3.509   1.592
24550SOL     OW75090   7.669   3.176   1.844
24550SOL    HW175091   7.604   3.103   1.823
24550SOL    HW275092   7.673   3.190   1.942
24551SOL     OW75093   7.527   3.102   0.653
24551SOL    HW175094   7.526   3.055   0.741
24551SOL    HW275095   7.609   3.074   0.602
24552SOL     OW75096   8.120   3.253   1.624
24552SOL    HW175097   8.042   3.203   1.662
24552SOL    HW275098   8.117   3.348   1.655
24553SOL     OW75099   7.765   2.409   1.280
24553SOL    HW175100   7.803   2.350   1.352
24553SOL    HW275101   7.805   2.383   1.192
24554SOL     OW75102   7.487   2.939   0.300
24554SOL    HW175103   7.586   2.928   0.291
24554SOL    HW275104   7.447   2.853   0.332
24555SOL     OW75105   7.678   2.490   1.975
24555SOL    HW175106   7.585   2.488   2.012
24555SOL    HW275107   7.679   2.451   1.883
24556SOL     OW75108   7.673   2.137   2.858
24556SOL    HW175109   7.708   2.120   2.950
24556SOL    HW275110   7.585   2.092   2.846
24557SOL     OW75111   7.467   2.230   2.509
24557SOL    HW175112   7.385   2.273   2.548
24557SOL    HW275113   7.439   2.157   2.446
24558SOL     OW75114   7.783   3.297   2.923
24558SOL    HW175115   7.705   3.266   2.870
24558SOL    HW275116   7.841   3.355   2.866
24559SOL     OW75117   7.886   2.254   3.361
24559SOL    HW175118   7.968   2.198   3.370
24559SOL    HW275119   7.805   2.196   3.365
24560SOL     OW75120   7.679   3.575   2.345
24560SOL    HW175121   7.713   3.652   2.399
24560SOL    HW275122   7.723   3.575   2.255
24561SOL     OW75123   7.678   3.296   2.400
24561SOL    HW175124   7.652   3.392   2.400
24561SOL    HW275125   7.607   3.242   2.445
24562SOL     OW75126   7.688   2.953   2.748
24562SOL    HW175127   7.702   2.869   2.800
24562SOL    HW275128   7.633   3.017   2.803
24563SOL     OW75129   7.570   2.505   2.425
24563SOL    HW175130   7.525   2.417   2.442
24563SOL    HW275131   7.569   2.559   2.509
24564SOL     OW75132   7.475   3.458   1.979
24564SOL    HW175133   7.456   3.362   2.000
24564SOL    HW275134   7.442   3.516   2.054
24565SOL     OW75135   7.561   2.599   3.459
24565SOL    HW175136   7.649   2.586   3.504
24565SOL    HW275137   7.548   2.696   3.437
24566SOL     OW75138   7.645   2.838   3.126
24566SOL    HW175139   7.734   2.793   3.112
24566SOL    HW275140   7.572   2.773   3.107
24567SOL     OW75141   7.765   2.113   3.663
24567SOL    HW175142   7.836   2.184   3.669
24567SOL    HW275143   7.677   2.152   3.691
24568SOL     OW75144   8.046   2.591   2.132
24568SOL    HW175145   8.070   2.660   2.064
24568SOL    HW275146   7.968   2.624   2.186
24569SOL     OW75147   7.524   2.673   2.651
24569SOL    HW175148   7.623   2.661   2.660
24569SOL    HW275149   7.500   2.768   2.672
24570SOL     OW75150   7.578   3.683   3.433
24570SOL    HW175151   7.568   3.668   3.532
24570SOL    HW275152   7.492   3.719   3.397
24571SOL     OW75153   7.998   2.058   2.747
24571SOL    HW175154   7.993   2.053   2.847
24571SOL    HW275155   8.000   2.154   2.718
24572SOL     OW75156   7.799   3.663   2.715
24572SOL    HW175157   7.849   3.577   2.721
24572SOL    HW275158   7.864   3.740   2.712
24573SOL     OW75159   7.769   2.805   2.104
24573SOL    HW175160   7.851   2.844   2.062
24573SOL    HW275161   7.742   2.723   2.055
24574SOL     OW75162   7.909   3.128   3.589
24574SOL    HW175163   7.859   3.129   3.503
24574SOL    HW275164   7.846   3.110   3.665
24575SOL     OW75165   7.650   2.147   3.360
24575SOL    HW175166   7.570   2.207   3.347
24575SOL    HW275167   7.640   2.098   3.446
24576SOL     OW75168   7.697   3.647   3.103
24576SOL    HW175169   7.754   3.582   3.153
24576SOL    HW275170   7.681   3.614   3.010
24577SOL     OW75171   7.830   2.562   2.342
24577SOL    HW175172   7.875   2.472   2.339
24577SOL    HW275173   7.736   2.551   2.375
24578SOL     OW75174   8.062   1.984   1.979
24578SOL    HW175175   8.160   1.962   1.986
24578SOL    HW275176   8.031   1.967   1.886
24579SOL     OW75177   7.987   1.926   2.374
24579SOL    HW175178   7.906   1.927   2.432
24579SOL    HW275179   7.990   2.009   2.319
24580SOL     OW75180   7.745   1.897   2.033
24580SOL    HW175181   7.794   1.981   2.012
24580SOL    HW275182   7.807   1.832   2.078
24581SOL     OW75183   7.907   3.014   2.603
24581SOL    HW175184   7.836   2.987   2.668
24581SOL    HW275185   7.881   2.986   2.510
24582SOL     OW75186   7.526   2.418   3.248
24582SOL    HW175187   7.618   2.417   3.207
24582SOL    HW275188   7.520   2.492   3.315
24583SOL     OW75189   8.009   2.084   3.009
24583SOL    HW175190   8.047   2.000   3.046
24583SOL    HW275191   7.921   2.103   3.053
24584SOL     OW75192   7.858   2.675   3.113
24584SOL    HW175193   7.944   2.687   3.163
24584SOL    HW275194   7.816   2.588   3.140
24585SOL     OW75195   7.512   3.426   3.193
24585SOL    HW175196   7.466   3.508   3.159
24585SOL    HW275197   7.610   3.445   3.202
24586SOL     OW75198   7.815   2.962   2.363
24586SOL    HW175199   7.808   3.045   2.307
24586SOL    HW275200   7.819   2.882   2.303
24587SOL     OW75201   8.014   2.399   2.727
24587SOL    HW175202   8.026   2.465   2.653
24587SOL    HW275203   8.060   2.433   2.810
24588SOL     OW75204   7.802   3.372   3.191
24588SOL    HW175205   7.781   3.328   3.104
24588SOL    HW275206   7.899   3.398   3.194
24589SOL     OW75207   7.850   2.613   3.460
24589SOL    HW175208   7.918   2.668   3.413
24589SOL    HW275209   7.890   2.525   3.487
24590SOL     OW75210   7.952   1.912   3.602
24590SOL    HW175211   7.910   1.855   3.532
24590SOL    HW275212   7.886   1.981   3.634
24591SOL     OW75213   8.021   2.732   2.891
24591SOL    HW175214   8.065   2.821   2.882
24591SOL    HW275215   7.958   2.732   2.968
24592SOL     OW75216   7.755   2.075   3.093
24592SOL    HW175217   7.732   2.112   3.183
24592SOL    HW275218   7.725   1.980   3.087
24593SOL     OW75219   7.485   3.172   3.144
24593SOL    HW175220   7.538   3.123   3.212
24593SOL    HW275221   7.507   3.270   3.149
24594SOL     OW75222   7.755   1.925   2.480
24594SOL    HW175223   7.744   2.019   2.513
24594SOL    HW275224   7.750   1.862   2.557
24595SOL     OW75225   7.798   2.760   3.666
24595SOL    HW175226   7.874   2.804   3.714
24595SOL    HW275227   7.833   2.713   3.584
24596SOL     OW75228   7.767   2.672   2.811
24596SOL    HW175229   7.860   2.708   2.816
24596SOL    HW275230   7.761   2.587   2.863
24597SOL     OW75231   7.787   2.371   2.868
24597SOL    HW175232   7.735   2.288   2.851
24597SOL    HW275233   7.864   2.376   2.804
24598SOL     OW75234   7.456   3.188   2.062
24598SOL    HW175235   7.363   3.209   2.031
24598SOL    HW275236   7.466   3.089   2.075
24599SOL     OW75237   7.536   3.663   2.789
24599SOL    HW175238   7.494   3.577   2.762
24599SOL    HW275239   7.630   3.666   2.755
24600SOL     OW75240   7.488   2.406   2.976
24600SOL    HW175241   7.573   2.373   2.935
24600SOL    HW275242   7.501   2.421   3.074
24601SOL     OW75243   7.637   2.382   3.584
24601SOL    HW175244   7.696   2.342   3.514
24601SOL    HW275245   7.579   2.453   3.543
24602SOL     OW75246   8.263   2.434   2.187
24602SOL    HW175247   8.270   2.345   2.141
24602SOL    HW275248   8.169   2.468   2.179
24603SOL     OW75249   7.700   3.426   3.606
24603SOL    HW175250   7.670   3.483   3.682
24603SOL    HW275251   7.693   3.329   3.632
24604SOL     OW75252   7.921   2.362   2.053
24604SOL    HW175253   7.982   2.442   2.057
24604SOL    HW275254   7.826   2.393   2.060
24605SOL     OW75255   7.607   2.999   3.328
24605SOL    HW175256   7.629   2.938   3.404
24605SOL    HW275257   7.617   2.950   3.242
24606SOL     OW75258   7.531   3.120   2.884
24606SOL    HW175259   7.526   3.119   2.984
24606SOL    HW275260   7.448   3.079   2.846
24607SOL     OW75261   7.578   3.656   3.713
24607SOL    HW175262   7.537   3.582   3.766
24607SOL    HW275263   7.642   3.707   3.771
24608SOL     OW75264   7.711   2.188   2.582
24608SOL    HW175265   7.632   2.239   2.548
24608SOL    HW275266   7.702   2.173   2.680
24609SOL     OW75267   7.820   3.150   3.352
24609SOL    HW175268   7.807   3.243   3.318
24609SOL    HW275269   7.736   3.098   3.339
24610SOL     OW75270   8.038   3.349   2.353
24610SOL    HW175271   8.080   3.291   2.283
24610SOL    HW275272   7.994   3.428   2.309
24611SOL     OW75273   7.703   3.210   2.152
24611SOL    HW175274   7.607   3.211   2.125
24611SOL    HW275275   7.715   3.263   2.236
24612SOL     OW75276   7.553   2.875   3.588
24612SOL    HW175277   7.476   2.842   3.642
24612SOL    HW275278   7.638   2.845   3.630
24613SOL     OW75279   7.523   2.207   1.895
24613SOL    HW175280   7.431   2.179   1.866
24613SOL    HW275281   7.554   2.284   1.839
24614SOL     OW75282   7.520   2.028   2.180
24614SOL    HW175283   7.503   2.111   2.126
24614SOL    HW275284   7.610   1.991   2.158
24615SOL     OW75285   7.838   3.603   3.422
24615SOL    HW175286   7.747   3.644   3.420
24615SOL    HW275287   7.831   3.509   3.454
24616SOL     OW75288   7.669   3.176   3.706
24616SOL    HW175289   7.604   3.103   3.685
24616SOL    HW275290   7.673   3.190   3.804
24617SOL     OW75291   7.527   3.102   2.515
24617SOL    HW175292   7.526   3.055   2.603
24617SOL    HW275293   7.609   3.074   2.464
24618SOL     OW75294   8.120   3.253   3.486
24618SOL    HW175295   8.042   3.203   3.524
24618SOL    HW275296   8.117   3.348   3.517
24619SOL     OW75297   7.765   2.409   3.142
24619SOL    HW175298   7.803   2.350   3.214
24619SOL    HW275299   7.805   2.383   3.054
24620SOL     OW75300   7.487   2.939   2.162
24620SOL    HW175301   7.586   2.928   2.153
24620SOL    HW275302   7.447   2.853   2.194
24621SOL     OW75303   7.678   2.490   3.837
24621SOL    HW175304   7.585   2.488   3.874
24621SOL    HW275305   7.679   2.451   3.745
24622SOL     OW75306   7.673   2.137   4.720
24622SOL    HW175307   7.708   2.120   4.812
24622SOL    HW275308   7.585   2.092   4.708
24623SOL     OW75309   7.467   2.230   4.371
24623SOL    HW175310   7.385   2.273   4.410
24623SOL    HW275311   7.439   2.157   4.308
24624SOL     OW75312   7.783   3.297   4.785
24624SOL    HW175313   7.705   3.266   4.732
24624SOL    HW275314   7.841   3.355   4.728
24625SOL     OW75315   7.886   2.254   5.223
24625SOL    HW175316   7.968   2.198   5.232
24625SOL    HW275317   7.805   2.196   5.227
24626SOL     OW75318   7.679   3.575   4.207
24626SOL    HW175319   7.713   3.652   4.261
24626SOL    HW275320   7.723   3.575   4.117
24627SOL     OW75321   7.678   3.296   4.262
24627SOL    HW175322   7.652   3.392   4.262
24627SOL    HW275323   7.607   3.242   4.307
24628SOL     OW75324   7.688   2.953   4.610
24628SOL    HW175325   7.702   2.869   4.662
24628SOL    HW275326   7.633   3.017   4.665
24629SOL     OW75327   7.570   2.505   4.287
24629SOL    HW175328   7.525   2.417   4.304
24629SOL    HW275329   7.569   2.559   4.371
24630SOL     OW75330   7.475   3.458   3.841
24630SOL    HW175331   7.456   3.362   3.862
24630SOL    HW275332   7.442   3.516   3.916
24631SOL     OW75333   7.561   2.599   5.321
24631SOL    HW175334   7.649   2.586   5.366
24631SOL    HW275335   7.548   2.696   5.299
24632SOL     OW75336   7.645   2.838   4.988
24632SOL    HW175337   7.734   2.793   4.974
24632SOL    HW275338   7.572   2.773   4.969
24633SOL     OW75339   7.765   2.113   5.525
24633SOL    HW175340   7.836   2.184   5.531
24633SOL    HW275341   7.677   2.152   5.553
24634SOL     OW75342   8.046   2.591   3.994
24634SOL    HW175343   8.070   2.660   3.926
24634SOL    HW275344   7.968   2.624   4.048
24635SOL     OW75345   7.524   2.673   4.513
24635SOL    HW175346   7.623   2.661   4.522
24635SOL    HW275347   7.500   2.768   4.534
24636SOL     OW75348   7.578   3.683   5.295
24636SOL    HW175349   7.568   3.668   5.394
24636SOL    HW275350   7.492   3.719   5.259
24637SOL     OW75351   7.998   2.058   4.609
24637SOL    HW175352   7.993   2.053   4.709
24637SOL    HW275353   8.000   2.154   4.580
24638SOL     OW75354   7.799   3.663   4.577
24638SOL    HW175355   7.849   3.577   4.583
24638SOL    HW275356   7.864   3.740   4.574
24639SOL     OW75357   7.769   2.805   3.966
24639SOL    HW175358   7.851   2.844   3.924
24639SOL    HW275359   7.742   2.723   3.917
24640SOL     OW75360   7.909   3.128   5.451
24640SOL    HW175361   7.859   3.129   5.365
24640SOL    HW275362   7.846   3.110   5.527
24641SOL     OW75363   7.650   2.147   5.222
24641SOL    HW175364   7.570   2.207   5.209
24641SOL    HW275365   7.640   2.098   5.308
24642SOL     OW75366   7.697   3.647   4.965
24642SOL    HW175367   7.754   3.582   5.015
24642SOL    HW275368   7.681   3.614   4.872
24643SOL     OW75369   7.830   2.562   4.204
24643SOL    HW175370   7.875   2.472   4.201
24643SOL    HW275371   7.736   2.551   4.237
24644SOL     OW75372   8.062   1.984   3.841
24644SOL    HW175373   8.160   1.962   3.848
24644SOL    HW275374   8.031   1.967   3.748
24645SOL     OW75375   7.987   1.926   4.236
24645SOL    HW175376   7.906   1.927   4.294
24645SOL    HW275377   7.990   2.009   4.181
24646SOL     OW75378   7.745   1.897   3.895
24646SOL    HW175379   7.794   1.981   3.874
24646SOL    HW275380   7.807   1.832   3.940
24647SOL     OW75381   7.907   3.014   4.465
24647SOL    HW175382   7.836   2.987   4.530
24647SOL    HW275383   7.881   2.986   4.372
24648SOL     OW75384   7.526   2.418   5.110
24648SOL    HW175385   7.618   2.417   5.069
24648SOL    HW275386   7.520   2.492   5.177
24649SOL     OW75387   8.009   2.084   4.871
24649SOL    HW175388   8.047   2.000   4.908
24649SOL    HW275389   7.921   2.103   4.915
24650SOL     OW75390   7.858   2.675   4.975
24650SOL    HW175391   7.944   2.687   5.025
24650SOL    HW275392   7.816   2.588   5.002
24651SOL     OW75393   7.512   3.426   5.055
24651SOL    HW175394   7.466   3.508   5.021
24651SOL    HW275395   7.610   3.445   5.064
24652SOL     OW75396   7.815   2.962   4.225
24652SOL    HW175397   7.808   3.045   4.169
24652SOL    HW275398   7.819   2.882   4.165
24653SOL     OW75399   8.014   2.399   4.589
24653SOL    HW175400   8.026   2.465   4.515
24653SOL    HW275401   8.060   2.433   4.672
24654SOL     OW75402   7.802   3.372   5.053
24654SOL    HW175403   7.781   3.328   4.966
24654SOL    HW275404   7.899   3.398   5.056
24655SOL     OW75405   7.850   2.613   5.322
24655SOL    HW175406   7.918   2.668   5.275
24655SOL    HW275407   7.890   2.525   5.349
24656SOL     OW75408   7.952   1.912   5.464
24656SOL    HW175409   7.910   1.855   5.394
24656SOL    HW275410   7.886   1.981   5.496
24657SOL     OW75411   8.021   2.732   4.753
24657SOL    HW175412   8.065   2.821   4.744
24657SOL    HW275413   7.958   2.732   4.830
24658SOL     OW75414   7.755   2.075   4.955
24658SOL    HW175415   7.732   2.112   5.045
24658SOL    HW275416   7.725   1.980   4.949
24659SOL     OW75417   7.485   3.172   5.006
24659SOL    HW175418   7.538   3.123   5.074
24659SOL    HW275419   7.507   3.270   5.011
24660SOL     OW75420   7.755   1.925   4.342
24660SOL    HW175421   7.744   2.019   4.375
24660SOL    HW275422   7.750   1.862   4.419
24661SOL     OW75423   7.798   2.760   5.528
24661SOL    HW175424   7.874   2.804   5.576
24661SOL    HW275425   7.833   2.713   5.446
24662SOL     OW75426   7.767   2.672   4.673
24662SOL    HW175427   7.860   2.708   4.678
24662SOL    HW275428   7.761   2.587   4.725
24663SOL     OW75429   7.787   2.371   4.730
24663SOL    HW175430   7.735   2.288   4.713
24663SOL    HW275431   7.864   2.376   4.666
24664SOL     OW75432   7.456   3.188   3.924
24664SOL    HW175433   7.363   3.209   3.893
24664SOL    HW275434   7.466   3.089   3.937
24665SOL     OW75435   7.536   3.663   4.651
24665SOL    HW175436   7.494   3.577   4.624
24665SOL    HW275437   7.630   3.666   4.617
24666SOL     OW75438   7.488   2.406   4.838
24666SOL    HW175439   7.573   2.373   4.797
24666SOL    HW275440   7.501   2.421   4.936
24667SOL     OW75441   7.637   2.382   5.446
24667SOL    HW175442   7.696   2.342   5.376
24667SOL    HW275443   7.579   2.453   5.405
24668SOL     OW75444   8.263   2.434   4.049
24668SOL    HW175445   8.270   2.345   4.003
24668SOL    HW275446   8.169   2.468   4.041
24669SOL     OW75447   7.700   3.426   5.468
24669SOL    HW175448   7.670   3.483   5.544
24669SOL    HW275449   7.693   3.329   5.494
24670SOL     OW75450   7.921   2.362   3.915
24670SOL    HW175451   7.982   2.442   3.919
24670SOL    HW275452   7.826   2.393   3.922
24671SOL     OW75453   7.607   2.999   5.190
24671SOL    HW175454   7.629   2.938   5.266
24671SOL    HW275455   7.617   2.950   5.104
24672SOL     OW75456   7.531   3.120   4.746
24672SOL    HW175457   7.526   3.119   4.846
24672SOL    HW275458   7.448   3.079   4.708
24673SOL     OW75459   7.578   3.656   5.575
24673SOL    HW175460   7.537   3.582   5.628
24673SOL    HW275461   7.642   3.707   5.633
24674SOL     OW75462   7.711   2.188   4.444
24674SOL    HW175463   7.632   2.239   4.410
24674SOL    HW275464   7.702   2.173   4.542
24675SOL     OW75465   7.820   3.150   5.214
24675SOL    HW175466   7.807   3.243   5.180
24675SOL    HW275467   7.736   3.098   5.201
24676SOL     OW75468   8.038   3.349   4.215
24676SOL    HW175469   8.080   3.291   4.145
24676SOL    HW275470   7.994   3.428   4.171
24677SOL     OW75471   7.703   3.210   4.014
24677SOL    HW175472   7.607   3.211   3.987
24677SOL    HW275473   7.715   3.263   4.098
24678SOL     OW75474   7.553   2.875   5.450
24678SOL    HW175475   7.476   2.842   5.504
24678SOL    HW275476   7.638   2.845   5.492
24679SOL     OW75477   7.523   2.207   3.757
24679SOL    HW175478   7.431   2.179   3.728
24679SOL    HW275479   7.554   2.284   3.701
24680SOL     OW75480   7.520   2.028   4.042
24680SOL    HW175481   7.503   2.111   3.988
24680SOL    HW275482   7.610   1.991   4.020
24681SOL     OW75483   7.838   3.603   5.284
24681SOL    HW175484   7.747   3.644   5.282
24681SOL    HW275485   7.831   3.509   5.316
24682SOL     OW75486   7.669   3.176   5.568
24682SOL    HW175487   7.604   3.103   5.547
24682SOL    HW275488   7.673   3.190   5.666
24683SOL     OW75489   7.527   3.102   4.377
24683SOL    HW175490   7.526   3.055   4.465
24683SOL    HW275491   7.609   3.074   4.326
24684SOL     OW75492   8.120   3.253   5.348
24684SOL    HW175493   8.042   3.203   5.386
24684SOL    HW275494   8.117   3.348   5.379
24685SOL     OW75495   7.765   2.409   5.004
24685SOL    HW175496   7.803   2.350   5.076
24685SOL    HW275497   7.805   2.383   4.916
24686SOL     OW75498   7.487   2.939   4.024
24686SOL    HW175499   7.586   2.928   4.015
24686SOL    HW275500   7.447   2.853   4.056
24687SOL     OW75501   7.678   2.490   5.699
24687SOL    HW175502   7.585   2.488   5.736
24687SOL    HW275503   7.679   2.451   5.607
24688SOL     OW75504   7.673   2.137   6.582
24688SOL    HW175505   7.708   2.120   6.674
24688SOL    HW275506   7.585   2.092   6.570
24689SOL     OW75507   7.467   2.230   6.233
24689SOL    HW175508   7.385   2.273   6.272
24689SOL    HW275509   7.439   2.157   6.170
24690SOL     OW75510   7.783   3.297   6.647
24690SOL    HW175511   7.705   3.266   6.594
24690SOL    HW275512   7.841   3.355   6.590
24691SOL     OW75513   7.886   2.254   7.085
24691SOL    HW175514   7.968   2.198   7.094
24691SOL    HW275515   7.805   2.196   7.089
24692SOL     OW75516   7.679   3.575   6.069
24692SOL    HW175517   7.713   3.652   6.123
24692SOL    HW275518   7.723   3.575   5.979
24693SOL     OW75519   7.678   3.296   6.124
24693SOL    HW175520   7.652   3.392   6.124
24693SOL    HW275521   7.607   3.242   6.169
24694SOL     OW75522   7.688   2.953   6.472
24694SOL    HW175523   7.702   2.869   6.524
24694SOL    HW275524   7.633   3.017   6.527
24695SOL     OW75525   7.570   2.505   6.149
24695SOL    HW175526   7.525   2.417   6.166
24695SOL    HW275527   7.569   2.559   6.233
24696SOL     OW75528   7.475   3.458   5.703
24696SOL    HW175529   7.456   3.362   5.724
24696SOL    HW275530   7.442   3.516   5.778
24697SOL     OW75531   7.561   2.599   7.183
24697SOL    HW175532   7.649   2.586   7.228
24697SOL    HW275533   7.548   2.696   7.161
24698SOL     OW75534   7.645   2.838   6.850
24698SOL    HW175535   7.734   2.793   6.836
24698SOL    HW275536   7.572   2.773   6.831
24699SOL     OW75537   7.765   2.113   7.387
24699SOL    HW175538   7.836   2.184   7.393
24699SOL    HW275539   7.677   2.152   7.415
24700SOL     OW75540   8.046   2.591   5.856
24700SOL    HW175541   8.070   2.660   5.788
24700SOL    HW275542   7.968   2.624   5.910
24701SOL     OW75543   7.524   2.673   6.375
24701SOL    HW175544   7.623   2.661   6.384
24701SOL    HW275545   7.500   2.768   6.396
24702SOL     OW75546   7.578   3.683   7.157
24702SOL    HW175547   7.568   3.668   7.256
24702SOL    HW275548   7.492   3.719   7.121
24703SOL     OW75549   7.998   2.058   6.471
24703SOL    HW175550   7.993   2.053   6.571
24703SOL    HW275551   8.000   2.154   6.442
24704SOL     OW75552   7.769   2.805   5.828
24704SOL    HW175553   7.851   2.844   5.786
24704SOL    HW275554   7.742   2.723   5.779
24705SOL     OW75555   7.909   3.128   7.313
24705SOL    HW175556   7.859   3.129   7.227
24705SOL    HW275557   7.846   3.110   7.389
24706SOL     OW75558   7.650   2.147   7.084
24706SOL    HW175559   7.570   2.207   7.071
24706SOL    HW275560   7.640   2.098   7.170
24707SOL     OW75561   7.697   3.647   6.827
24707SOL    HW175562   7.754   3.582   6.877
24707SOL    HW275563   7.681   3.614   6.734
24708SOL     OW75564   7.830   2.562   6.066
24708SOL    HW175565   7.875   2.472   6.063
24708SOL    HW275566   7.736   2.551   6.099
24709SOL     OW75567   8.062   1.984   5.703
24709SOL    HW175568   8.160   1.962   5.710
24709SOL    HW275569   8.031   1.967   5.610
24710SOL     OW75570   7.987   1.926   6.098
24710SOL    HW175571   7.906   1.927   6.156
24710SOL    HW275572   7.990   2.009   6.043
24711SOL     OW75573   7.745   1.897   5.757
24711SOL    HW175574   7.794   1.981   5.736
24711SOL    HW275575   7.807   1.832   5.802
24712SOL     OW75576   7.907   3.014   6.327
24712SOL    HW175577   7.836   2.987   6.392
24712SOL    HW275578   7.881   2.986   6.234
24713SOL     OW75579   7.526   2.418   6.972
24713SOL    HW175580   7.618   2.417   6.931
24713SOL    HW275581   7.520   2.492   7.039
24714SOL     OW75582   8.009   2.084   6.733
24714SOL    HW175583   8.047   2.000   6.770
24714SOL    HW275584   7.921   2.103   6.777
24715SOL     OW75585   7.858   2.675   6.837
24715SOL    HW175586   7.944   2.687   6.887
24715SOL    HW275587   7.816   2.588   6.864
24716SOL     OW75588   7.512   3.426   6.917
24716SOL    HW175589   7.466   3.508   6.883
24716SOL    HW275590   7.610   3.445   6.926
24717SOL     OW75591   7.815   2.962   6.087
24717SOL    HW175592   7.808   3.045   6.031
24717SOL    HW275593   7.819   2.882   6.027
24718SOL     OW75594   8.014   2.399   6.451
24718SOL    HW175595   8.026   2.465   6.377
24718SOL    HW275596   8.060   2.433   6.534
24719SOL     OW75597   7.802   3.372   6.915
24719SOL    HW175598   7.781   3.328   6.828
24719SOL    HW275599   7.899   3.398   6.918
24720SOL     OW75600   7.850   2.613   7.184
24720SOL    HW175601   7.918   2.668   7.137
24720SOL    HW275602   7.890   2.525   7.211
24721SOL     OW75603   7.952   1.912   7.326
24721SOL    HW175604   7.910   1.855   7.256
24721SOL    HW275605   7.886   1.981   7.358
24722SOL     OW75606   8.021   2.732   6.615
24722SOL    HW175607   8.065   2.821   6.606
24722SOL    HW275608   7.958   2.732   6.692
24723SOL     OW75609   7.755   2.075   6.817
24723SOL    HW175610   7.732   2.112   6.907
24723SOL    HW275611   7.725   1.980   6.811
24724SOL     OW75612   7.485   3.172   6.868
24724SOL    HW175613   7.538   3.123   6.936
24724SOL    HW275614   7.507   3.270   6.873
24725SOL     OW75615   7.755   1.925   6.204
24725SOL    HW175616   7.744   2.019   6.237
24725SOL    HW275617   7.750   1.862   6.281
24726SOL     OW75618   7.798   2.760   7.390
24726SOL    HW175619   7.874   2.804   7.438
24726SOL    HW275620   7.833   2.713   7.308
24727SOL     OW75621   7.767   2.672   6.535
24727SOL    HW175622   7.860   2.708   6.540
24727SOL    HW275623   7.761   2.587   6.587
24728SOL     OW75624   7.787   2.371   6.592
24728SOL    HW175625   7.735   2.288   6.575
24728SOL    HW275626   7.864   2.376   6.528
24729SOL     OW75627   7.456   3.188   5.786
24729SOL    HW175628   7.363   3.209   5.755
24729SOL    HW275629   7.466   3.089   5.799
24730SOL     OW75630   7.536   3.663   6.513
24730SOL    HW175631   7.494   3.577   6.486
24730SOL    HW275632   7.630   3.666   6.479
24731SOL     OW75633   7.488   2.406   6.700
24731SOL    HW175634   7.573   2.373   6.659
24731SOL    HW275635   7.501   2.421   6.798
24732SOL     OW75636   7.637   2.382   7.308
24732SOL    HW175637   7.696   2.342   7.238
24732SOL    HW275638   7.579   2.453   7.267
24733SOL     OW75639   8.263   2.434   5.911
24733SOL    HW175640   8.270   2.345   5.865
24733SOL    HW275641   8.169   2.468   5.903
24734SOL     OW75642   7.700   3.426   7.330
24734SOL    HW175643   7.670   3.483   7.406
24734SOL    HW275644   7.693   3.329   7.356
24735SOL     OW75645   7.921   2.362   5.777
24735SOL    HW175646   7.982   2.442   5.781
24735SOL    HW275647   7.826   2.393   5.784
24736SOL     OW75648   7.607   2.999   7.052
24736SOL    HW175649   7.629   2.938   7.128
24736SOL    HW275650   7.617   2.950   6.966
24737SOL     OW75651   7.531   3.120   6.608
24737SOL    HW175652   7.526   3.119   6.708
24737SOL    HW275653   7.448   3.079   6.570
24738SOL     OW75654   7.578   3.656   7.437
24738SOL    HW175655   7.537   3.582   7.490
24738SOL    HW275656   7.642   3.707   7.495
24739SOL     OW75657   7.711   2.188   6.306
24739SOL    HW175658   7.632   2.239   6.272
24739SOL    HW275659   7.702   2.173   6.404
24740SOL     OW75660   7.820   3.150   7.076
24740SOL    HW175661   7.807   3.243   7.042
24740SOL    HW275662   7.736   3.098   7.063
24741SOL     OW75663   8.038   3.349   6.077
24741SOL    HW175664   8.080   3.291   6.007
24741SOL    HW275665   7.994   3.428   6.033
24742SOL     OW75666   7.703   3.210   5.876
24742SOL    HW175667   7.607   3.211   5.849
24742SOL    HW275668   7.715   3.263   5.960
24743SOL     OW75669   7.553   2.875   7.312
24743SOL    HW175670   7.476   2.842   7.366
24743SOL    HW275671   7.638   2.845   7.354
24744SOL     OW75672   7.523   2.207   5.619
24744SOL    HW175673   7.431   2.179   5.590
24744SOL    HW275674   7.554   2.284   5.563
24745SOL     OW75675   7.520   2.028   5.904
24745SOL    HW175676   7.503   2.111   5.850
24745SOL    HW275677   7.610   1.991   5.882
24746SOL     OW75678   7.838   3.603   7.146
24746SOL    HW175679   7.747   3.644   7.144
24746SOL    HW275680   7.831   3.509   7.178
24747SOL     OW75681   7.669   3.176   7.430
24747SOL    HW175682   7.604   3.103   7.409
24747SOL    HW275683   7.673   3.190   7.528
24748SOL     OW75684   7.527   3.102   6.239
24748SOL    HW175685   7.526   3.055   6.327
24748SOL    HW275686   7.609   3.074   6.188
24749SOL     OW75687   8.120   3.253   7.210
24749SOL    HW175688   8.042   3.203   7.248
24749SOL    HW275689   8.117   3.348   7.241
24750SOL     OW75690   7.765   2.409   6.866
24750SOL    HW175691   7.803   2.350   6.938
24750SOL    HW275692   7.805   2.383   6.778
24751SOL     OW75693   7.487   2.939   5.886
24751SOL    HW175694   7.586   2.928   5.877
24751SOL    HW275695   7.447   2.853   5.918
24752SOL     OW75696   7.678   2.490   7.561
24752SOL    HW175697   7.585   2.488   7.598
24752SOL    HW275698   7.679   2.451   7.469
24753SOL     OW75699   7.673   2.137   8.444
24753SOL    HW175700   7.708   2.120   8.536
24753SOL    HW275701   7.585   2.092   8.432
24754SOL     OW75702   7.467   2.230   8.095
24754SOL    HW175703   7.385   2.273   8.134
24754SOL    HW275704   7.439   2.157   8.032
24755SOL     OW75705   7.783   3.297   8.509
24755SOL    HW175706   7.705   3.266   8.456
24755SOL    HW275707   7.841   3.355   8.452
24756SOL     OW75708   7.886   2.254   8.947
24756SOL    HW175709   7.968   2.198   8.956
24756SOL    HW275710   7.805   2.196   8.951
24757SOL     OW75711   7.679   3.575   7.931
24757SOL    HW175712   7.713   3.652   7.985
24757SOL    HW275713   7.723   3.575   7.841
24758SOL     OW75714   7.678   3.296   7.986
24758SOL    HW175715   7.652   3.392   7.986
24758SOL    HW275716   7.607   3.242   8.031
24759SOL     OW75717   7.688   2.953   8.334
24759SOL    HW175718   7.702   2.869   8.386
24759SOL    HW275719   7.633   3.017   8.389
24760SOL     OW75720   7.570   2.505   8.011
24760SOL    HW175721   7.525   2.417   8.028
24760SOL    HW275722   7.569   2.559   8.095
24761SOL     OW75723   7.475   3.458   7.565
24761SOL    HW175724   7.456   3.362   7.586
24761SOL    HW275725   7.442   3.516   7.640
24762SOL     OW75726   7.561   2.599   9.045
24762SOL    HW175727   7.649   2.586   9.090
24762SOL    HW275728   7.548   2.696   9.023
24763SOL     OW75729   7.645   2.838   8.712
24763SOL    HW175730   7.734   2.793   8.698
24763SOL    HW275731   7.572   2.773   8.693
24764SOL     OW75732   7.765   2.113   9.249
24764SOL    HW175733   7.836   2.184   9.255
24764SOL    HW275734   7.677   2.152   9.277
24765SOL     OW75735   8.046   2.591   7.718
24765SOL    HW175736   8.070   2.660   7.650
24765SOL    HW275737   7.968   2.624   7.772
24766SOL     OW75738   7.524   2.673   8.237
24766SOL    HW175739   7.623   2.661   8.246
24766SOL    HW275740   7.500   2.768   8.258
24767SOL     OW75741   7.578   3.683   9.019
24767SOL    HW175742   7.568   3.668   9.118
24767SOL    HW275743   7.492   3.719   8.983
24768SOL     OW75744   7.998   2.058   8.333
24768SOL    HW175745   7.993   2.053   8.433
24768SOL    HW275746   8.000   2.154   8.304
24769SOL     OW75747   7.799   3.663   8.301
24769SOL    HW175748   7.849   3.577   8.307
24769SOL    HW275749   7.864   3.740   8.298
24770SOL     OW75750   7.769   2.805   7.690
24770SOL    HW175751   7.851   2.844   7.648
24770SOL    HW275752   7.742   2.723   7.641
24771SOL     OW75753   7.909   3.128   9.175
24771SOL    HW175754   7.859   3.129   9.089
24771SOL    HW275755   7.846   3.110   9.251
24772SOL     OW75756   7.650   2.147   8.946
24772SOL    HW175757   7.570   2.207   8.933
24772SOL    HW275758   7.640   2.098   9.032
24773SOL     OW75759   7.697   3.647   8.689
24773SOL    HW175760   7.754   3.582   8.739
24773SOL    HW275761   7.681   3.614   8.596
24774SOL     OW75762   7.830   2.562   7.928
24774SOL    HW175763   7.875   2.472   7.925
24774SOL    HW275764   7.736   2.551   7.961
24775SOL     OW75765   8.062   1.984   7.565
24775SOL    HW175766   8.160   1.962   7.572
24775SOL    HW275767   8.031   1.967   7.472
24776SOL     OW75768   7.987   1.926   7.960
24776SOL    HW175769   7.906   1.927   8.018
24776SOL    HW275770   7.990   2.009   7.905
24777SOL     OW75771   7.745   1.897   7.619
24777SOL    HW175772   7.794   1.981   7.598
24777SOL    HW275773   7.807   1.832   7.664
24778SOL     OW75774   7.907   3.014   8.189
24778SOL    HW175775   7.836   2.987   8.254
24778SOL    HW275776   7.881   2.986   8.096
24779SOL     OW75777   7.526   2.418   8.834
24779SOL    HW175778   7.618   2.417   8.793
24779SOL    HW275779   7.520   2.492   8.901
24780SOL     OW75780   8.009   2.084   8.595
24780SOL    HW175781   8.047   2.000   8.632
24780SOL    HW275782   7.921   2.103   8.639
24781SOL     OW75783   7.858   2.675   8.699
24781SOL    HW175784   7.944   2.687   8.749
24781SOL    HW275785   7.816   2.588   8.726
24782SOL     OW75786   7.512   3.426   8.779
24782SOL    HW175787   7.466   3.508   8.745
24782SOL    HW275788   7.610   3.445   8.788
24783SOL     OW75789   7.815   2.962   7.949
24783SOL    HW175790   7.808   3.045   7.893
24783SOL    HW275791   7.819   2.882   7.889
24784SOL     OW75792   8.014   2.399   8.313
24784SOL    HW175793   8.026   2.465   8.239
24784SOL    HW275794   8.060   2.433   8.396
24785SOL     OW75795   7.802   3.372   8.777
24785SOL    HW175796   7.781   3.328   8.690
24785SOL    HW275797   7.899   3.398   8.780
24786SOL     OW75798   7.850   2.613   9.046
24786SOL    HW175799   7.918   2.668   8.999
24786SOL    HW275800   7.890   2.525   9.073
24787SOL     OW75801   7.952   1.912   9.188
24787SOL    HW175802   7.910   1.855   9.118
24787SOL    HW275803   7.886   1.981   9.220
24788SOL     OW75804   8.021   2.732   8.477
24788SOL    HW175805   8.065   2.821   8.468
24788SOL    HW275806   7.958   2.732   8.554
24789SOL     OW75807   7.755   2.075   8.679
24789SOL    HW175808   7.732   2.112   8.769
24789SOL    HW275809   7.725   1.980   8.673
24790SOL     OW75810   7.485   3.172   8.730
24790SOL    HW175811   7.538   3.123   8.798
24790SOL    HW275812   7.507   3.270   8.735
24791SOL     OW75813   7.755   1.925   8.066
24791SOL    HW175814   7.744   2.019   8.099
24791SOL    HW275815   7.750   1.862   8.143
24792SOL     OW75816   7.798   2.760   9.252
24792SOL    HW175817   7.874   2.804   9.300
24792SOL    HW275818   7.833   2.713   9.170
24793SOL     OW75819   7.767   2.672   8.397
24793SOL    HW175820   7.860   2.708   8.402
24793SOL    HW275821   7.761   2.587   8.449
24794SOL     OW75822   7.787   2.371   8.454
24794SOL    HW175823   7.735   2.288   8.437
24794SOL    HW275824   7.864   2.376   8.390
24795SOL     OW75825   7.456   3.188   7.648
24795SOL    HW175826   7.363   3.209   7.617
24795SOL    HW275827   7.466   3.089   7.661
24796SOL     OW75828   7.536   3.663   8.375
24796SOL    HW175829   7.494   3.577   8.348
24796SOL    HW275830   7.630   3.666   8.341
24797SOL     OW75831   7.488   2.406   8.562
24797SOL    HW175832   7.573   2.373   8.521
24797SOL    HW275833   7.501   2.421   8.660
24798SOL     OW75834   7.637   2.382   9.170
24798SOL    HW175835   7.696   2.342   9.100
24798SOL    HW275836   7.579   2.453   9.129
24799SOL     OW75837   8.263   2.434   7.773
24799SOL    HW175838   8.270   2.345   7.727
24799SOL    HW275839   8.169   2.468   7.765
24800SOL     OW75840   7.700   3.426   9.192
24800SOL    HW175841   7.670   3.483   9.268
24800SOL    HW275842   7.693   3.329   9.218
24801SOL     OW75843   7.921   2.362   7.639
24801SOL    HW175844   7.982   2.442   7.643
24801SOL    HW275845   7.826   2.393   7.646
24802SOL     OW75846   7.607   2.999   8.914
24802SOL    HW175847   7.629   2.938   8.990
24802SOL    HW275848   7.617   2.950   8.828
24803SOL     OW75849   7.531   3.120   8.470
24803SOL    HW175850   7.526   3.119   8.570
24803SOL    HW275851   7.448   3.079   8.432
24804SOL     OW75852   7.578   3.656   9.299
24804SOL    HW175853   7.537   3.582   9.352
24804SOL    HW275854   7.642   3.707   9.357
24805SOL     OW75855   7.711   2.188   8.168
24805SOL    HW175856   7.632   2.239   8.134
24805SOL    HW275857   7.702   2.173   8.266
24806SOL     OW75858   7.820   3.150   8.938
24806SOL    HW175859   7.807   3.243   8.904
24806SOL    HW275860   7.736   3.098   8.925
24807SOL     OW75861   8.038   3.349   7.939
24807SOL    HW175862   8.080   3.291   7.869
24807SOL    HW275863   7.994   3.428   7.895
24808SOL     OW75864   7.703   3.210   7.738
24808SOL    HW175865   7.607   3.211   7.711
24808SOL    HW275866   7.715   3.263   7.822
24809SOL     OW75867   7.553   2.875   9.174
24809SOL    HW175868   7.476   2.842   9.228
24809SOL    HW275869   7.638   2.845   9.216
24810SOL     OW75870   7.523   2.207   7.481
24810SOL    HW175871   7.431   2.179   7.452
24810SOL    HW275872   7.554   2.284   7.425
24811SOL     OW75873   7.520   2.028   7.766
24811SOL    HW175874   7.503   2.111   7.712
24811SOL    HW275875   7.610   1.991   7.744
24812SOL     OW75876   7.838   3.603   9.008
24812SOL    HW175877   7.747   3.644   9.006
24812SOL    HW275878   7.831   3.509   9.040
24813SOL     OW75879   7.669   3.176   9.292
24813SOL    HW175880   7.604   3.103   9.271
24813SOL    HW275881   7.673   3.190   9.390
24814SOL     OW75882   7.527   3.102   8.101
24814SOL    HW175883   7.526   3.055   8.189
24814SOL    HW275884   7.609   3.074   8.050
24815SOL     OW75885   8.120   3.253   9.072
24815SOL    HW175886   8.042   3.203   9.110
24815SOL    HW275887   8.117   3.348   9.103
24816SOL     OW75888   7.765   2.409   8.728
24816SOL    HW175889   7.803   2.350   8.800
24816SOL    HW275890   7.805   2.383   8.640
24817SOL     OW75891   7.487   2.939   7.748
24817SOL    HW175892   7.586   2.928   7.739
24817SOL    HW275893   7.447   2.853   7.780
24818SOL     OW75894   7.678   2.490   9.423
24818SOL    HW175895   7.585   2.488   9.460
24818SOL    HW275896   7.679   2.451   9.331
24819SOL     OW75897   7.673   2.137  10.306
24819SOL    HW175898   7.708   2.120  10.398
24819SOL    HW275899   7.585   2.092  10.294
24820SOL     OW75900   7.467   2.230   9.957
24820SOL    HW175901   7.385   2.273   9.996
24820SOL    HW275902   7.439   2.157   9.894
24821SOL     OW75903   7.783   3.297  10.371
24821SOL    HW175904   7.705   3.266  10.318
24821SOL    HW275905   7.841   3.355  10.314
24822SOL     OW75906   7.886   2.254  10.809
24822SOL    HW175907   7.968   2.198  10.818
24822SOL    HW275908   7.805   2.196  10.813
24823SOL     OW75909   7.679   3.575   9.793
24823SOL    HW175910   7.713   3.652   9.847
24823SOL    HW275911   7.723   3.575   9.703
24824SOL     OW75912   7.678   3.296   9.848
24824SOL    HW175913   7.652   3.392   9.848
24824SOL    HW275914   7.607   3.242   9.893
24825SOL     OW75915   7.688   2.953  10.196
24825SOL    HW175916   7.702   2.869  10.248
24825SOL    HW275917   7.633   3.017  10.251
24826SOL     OW75918   7.570   2.505   9.873
24826SOL    HW175919   7.525   2.417   9.890
24826SOL    HW275920   7.569   2.559   9.957
24827SOL     OW75921   7.475   3.458   9.427
24827SOL    HW175922   7.456   3.362   9.448
24827SOL    HW275923   7.442   3.516   9.502
24828SOL     OW75924   7.561   2.599  10.907
24828SOL    HW175925   7.649   2.586  10.952
24828SOL    HW275926   7.548   2.696  10.885
24829SOL     OW75927   7.645   2.838  10.574
24829SOL    HW175928   7.734   2.793  10.560
24829SOL    HW275929   7.572   2.773  10.555
24830SOL     OW75930   7.765   2.113  11.111
24830SOL    HW175931   7.836   2.184  11.117
24830SOL    HW275932   7.677   2.152  11.139
24831SOL     OW75933   8.046   2.591   9.580
24831SOL    HW175934   8.070   2.660   9.512
24831SOL    HW275935   7.968   2.624   9.634
24832SOL     OW75936   7.524   2.673  10.099
24832SOL    HW175937   7.623   2.661  10.108
24832SOL    HW275938   7.500   2.768  10.120
24833SOL     OW75939   7.578   3.683  10.881
24833SOL    HW175940   7.568   3.668  10.980
24833SOL    HW275941   7.492   3.719  10.845
24834SOL     OW75942   7.998   2.058  10.195
24834SOL    HW175943   7.993   2.053  10.295
24834SOL    HW275944   8.000   2.154  10.166
24835SOL     OW75945   7.799   3.663  10.163
24835SOL    HW175946   7.849   3.577  10.169
24835SOL    HW275947   7.864   3.740  10.160
24836SOL     OW75948   7.769   2.805   9.552
24836SOL    HW175949   7.851   2.844   9.510
24836SOL    HW275950   7.742   2.723   9.503
24837SOL     OW75951   7.909   3.128  11.037
24837SOL    HW175952   7.859   3.129  10.951
24837SOL    HW275953   7.846   3.110  11.113
24838SOL     OW75954   7.650   2.147  10.808
24838SOL    HW175955   7.570   2.207  10.795
24838SOL    HW275956   7.640   2.098  10.894
24839SOL     OW75957   7.697   3.647  10.551
24839SOL    HW175958   7.754   3.582  10.601
24839SOL    HW275959   7.681   3.614  10.458
24840SOL     OW75960   7.830   2.562   9.790
24840SOL    HW175961   7.875   2.472   9.787
24840SOL    HW275962   7.736   2.551   9.823
24841SOL     OW75963   8.062   1.984   9.427
24841SOL    HW175964   8.160   1.962   9.434
24841SOL    HW275965   8.031   1.967   9.334
24842SOL     OW75966   7.987   1.926   9.822
24842SOL    HW175967   7.906   1.927   9.880
24842SOL    HW275968   7.990   2.009   9.767
24843SOL     OW75969   7.745   1.897   9.481
24843SOL    HW175970   7.794   1.981   9.460
24843SOL    HW275971   7.807   1.832   9.526
24844SOL     OW75972   7.907   3.014  10.051
24844SOL    HW175973   7.836   2.987  10.116
24844SOL    HW275974   7.881   2.986   9.958
24845SOL     OW75975   7.526   2.418  10.696
24845SOL    HW175976   7.618   2.417  10.655
24845SOL    HW275977   7.520   2.492  10.763
24846SOL     OW75978   8.009   2.084  10.457
24846SOL    HW175979   8.047   2.000  10.494
24846SOL    HW275980   7.921   2.103  10.501
24847SOL     OW75981   7.858   2.675  10.561
24847SOL    HW175982   7.944   2.687  10.611
24847SOL    HW275983   7.816   2.588  10.588
24848SOL     OW75984   7.512   3.426  10.641
24848SOL    HW175985   7.466   3.508  10.607
24848SOL    HW275986   7.610   3.445  10.650
24849SOL     OW75987   7.815   2.962   9.811
24849SOL    HW175988   7.808   3.045   9.755
24849SOL    HW275989   7.819   2.882   9.751
24850SOL     OW75990   8.014   2.399  10.175
24850SOL    HW175991   8.026   2.465  10.101
24850SOL    HW275992   8.060   2.433  10.258
24851SOL     OW75993   7.802   3.372  10.639
24851SOL    HW175994   7.781   3.328  10.552
24851SOL    HW275995   7.899   3.398  10.642
24852SOL     OW75996   7.850   2.613  10.908
24852SOL    HW175997   7.918   2.668  10.861
24852SOL    HW275998   7.890   2.525  10.935
24853SOL     OW75999   7.952   1.912  11.050
24853SOL    HW176000   7.910   1.855  10.980
24853SOL    HW276001   7.886   1.981  11.082
24854SOL     OW76002   8.021   2.732  10.339
24854SOL    HW176003   8.065   2.821  10.330
24854SOL    HW276004   7.958   2.732  10.416
24855SOL     OW76005   7.755   2.075  10.541
24855SOL    HW176006   7.732   2.112  10.631
24855SOL    HW276007   7.725   1.980  10.535
24856SOL     OW76008   7.485   3.172  10.592
24856SOL    HW176009   7.538   3.123  10.660
24856SOL    HW276010   7.507   3.270  10.597
24857SOL     OW76011   7.755   1.925   9.928
24857SOL    HW176012   7.744   2.019   9.961
24857SOL    HW276013   7.750   1.862  10.005
24858SOL     OW76014   7.798   2.760  11.114
24858SOL    HW176015   7.874   2.804  11.162
24858SOL    HW276016   7.833   2.713  11.032
24859SOL     OW76017   7.767   2.672  10.259
24859SOL    HW176018   7.860   2.708  10.264
24859SOL    HW276019   7.761   2.587  10.311
24860SOL     OW76020   7.787   2.371  10.316
24860SOL    HW176021   7.735   2.288  10.299
24860SOL    HW276022   7.864   2.376  10.252
24861SOL     OW76023   7.456   3.188   9.510
24861SOL    HW176024   7.363   3.209   9.479
24861SOL    HW276025   7.466   3.089   9.523
24862SOL     OW76026   7.536   3.663  10.237
24862SOL    HW176027   7.494   3.577  10.210
24862SOL    HW276028   7.630   3.666  10.203
24863SOL     OW76029   7.488   2.406  10.424
24863SOL    HW176030   7.573   2.373  10.383
24863SOL    HW276031   7.501   2.421  10.522
24864SOL     OW76032   7.637   2.382  11.032
24864SOL    HW176033   7.696   2.342  10.962
24864SOL    HW276034   7.579   2.453  10.991
24865SOL     OW76035   8.263   2.434   9.635
24865SOL    HW176036   8.270   2.345   9.589
24865SOL    HW276037   8.169   2.468   9.627
24866SOL     OW76038   7.700   3.426  11.054
24866SOL    HW176039   7.670   3.483  11.130
24866SOL    HW276040   7.693   3.329  11.080
24867SOL     OW76041   7.921   2.362   9.501
24867SOL    HW176042   7.982   2.442   9.505
24867SOL    HW276043   7.826   2.393   9.508
24868SOL     OW76044   7.607   2.999  10.776
24868SOL    HW176045   7.629   2.938  10.852
24868SOL    HW276046   7.617   2.950  10.690
24869SOL     OW76047   7.531   3.120  10.332
24869SOL    HW176048   7.526   3.119  10.432
24869SOL    HW276049   7.448   3.079  10.294
24870SOL     OW76050   7.578   3.656  11.161
24870SOL    HW176051   7.537   3.582  11.214
24870SOL    HW276052   7.642   3.707  11.219
24871SOL     OW76053   7.711   2.188  10.030
24871SOL    HW176054   7.632   2.239   9.996
24871SOL    HW276055   7.702   2.173  10.128
24872SOL     OW76056   7.820   3.150  10.800
24872SOL    HW176057   7.807   3.243  10.766
24872SOL    HW276058   7.736   3.098  10.787
24873SOL     OW76059   8.038   3.349   9.801
24873SOL    HW176060   8.080   3.291   9.731
24873SOL    HW276061   7.994   3.428   9.757
24874SOL     OW76062   7.703   3.210   9.600
24874SOL    HW176063   7.607   3.211   9.573
24874SOL    HW276064   7.715   3.263   9.684
24875SOL     OW76065   7.553   2.875  11.036
24875SOL    HW176066   7.476   2.842  11.090
24875SOL    HW276067   7.638   2.845  11.078
24876SOL     OW76068   7.523   2.207   9.343
24876SOL    HW176069   7.431   2.179   9.314
24876SOL    HW276070   7.554   2.284   9.287
24877SOL     OW76071   7.520   2.028   9.628
24877SOL    HW176072   7.503   2.111   9.574
24877SOL    HW276073   7.610   1.991   9.606
24878SOL     OW76074   7.838   3.603  10.870
24878SOL    HW176075   7.747   3.644  10.868
24878SOL    HW276076   7.831   3.509  10.902
24879SOL     OW76077   7.669   3.176  11.154
24879SOL    HW176078   7.604   3.103  11.133
24879SOL    HW276079   7.673   3.190  11.252
24880SOL     OW76080   7.527   3.102   9.963
24880SOL    HW176081   7.526   3.055  10.051
24880SOL    HW276082   7.609   3.074   9.912
24881SOL     OW76083   8.120   3.253  10.934
24881SOL    HW176084   8.042   3.203  10.972
24881SOL    HW276085   8.117   3.348  10.965
24882SOL     OW76086   7.765   2.409  10.590
24882SOL    HW176087   7.803   2.350  10.662
24882SOL    HW276088   7.805   2.383  10.502
24883SOL     OW76089   7.487   2.939   9.610
24883SOL    HW176090   7.586   2.928   9.601
24883SOL    HW276091   7.447   2.853   9.642
24884SOL     OW76092   7.678   2.490  11.285
24884SOL    HW176093   7.585   2.488  11.322
24884SOL    HW276094   7.679   2.451  11.193
24885SOL     OW76095   7.673   2.137  12.168
24885SOL    HW176096   7.708   2.120  12.260
24885SOL    HW276097   7.585   2.092  12.156
24886SOL     OW76098   7.467   2.230  11.819
24886SOL    HW176099   7.385   2.273  11.858
24886SOL    HW276100   7.439   2.157  11.756
24887SOL     OW76101   7.783   3.297  12.233
24887SOL    HW176102   7.705   3.266  12.180
24887SOL    HW276103   7.841   3.355  12.176
24888SOL     OW76104   7.679   3.575  11.655
24888SOL    HW176105   7.713   3.652  11.709
24888SOL    HW276106   7.723   3.575  11.565
24889SOL     OW76107   7.678   3.296  11.710
24889SOL    HW176108   7.652   3.392  11.710
24889SOL    HW276109   7.607   3.242  11.755
24890SOL     OW76110   7.688   2.953  12.058
24890SOL    HW176111   7.702   2.869  12.110
24890SOL    HW276112   7.633   3.017  12.113
24891SOL     OW76113   7.570   2.505  11.735
24891SOL    HW176114   7.525   2.417  11.752
24891SOL    HW276115   7.569   2.559  11.819
24892SOL     OW76116   7.475   3.458  11.289
24892SOL    HW176117   7.456   3.362  11.310
24892SOL    HW276118   7.442   3.516  11.364
24893SOL     OW76119   7.561   2.599  12.769
24893SOL    HW176120   7.649   2.586  12.814
24893SOL    HW276121   7.548   2.696  12.747
24894SOL     OW76122   7.645   2.838  12.436
24894SOL    HW176123   7.734   2.793  12.422
24894SOL    HW276124   7.572   2.773  12.417
24895SOL     OW76125   8.046   2.591  11.442
24895SOL    HW176126   8.070   2.660  11.374
24895SOL    HW276127   7.968   2.624  11.496
24896SOL     OW76128   7.524   2.673  11.961
24896SOL    HW176129   7.623   2.661  11.970
24896SOL    HW276130   7.500   2.768  11.982
24897SOL     OW76131   7.998   2.058  12.057
24897SOL    HW176132   7.993   2.053  12.157
24897SOL    HW276133   8.000   2.154  12.028
24898SOL     OW76134   7.799   3.663  12.025
24898SOL    HW176135   7.849   3.577  12.031
24898SOL    HW276136   7.864   3.740  12.022
24899SOL     OW76137   7.769   2.805  11.414
24899SOL    HW176138   7.851   2.844  11.372
24899SOL    HW276139   7.742   2.723  11.365
24900SOL     OW76140   7.697   3.647  12.413
24900SOL    HW176141   7.754   3.582  12.463
24900SOL    HW276142   7.681   3.614  12.320
24901SOL     OW76143   7.830   2.562  11.652
24901SOL    HW176144   7.875   2.472  11.649
24901SOL    HW276145   7.736   2.551  11.685
24902SOL     OW76146   8.062   1.984  11.289
24902SOL    HW176147   8.160   1.962  11.296
24902SOL    HW276148   8.031   1.967  11.196
24903SOL     OW76149   7.987   1.926  11.684
24903SOL    HW176150   7.906   1.927  11.742
24903SOL    HW276151   7.990   2.009  11.629
24904SOL     OW76152   7.745   1.897  11.343
24904SOL    HW176153   7.794   1.981  11.322
24904SOL    HW276154   7.807   1.832  11.388
24905SOL     OW76155   7.907   3.014  11.913
24905SOL    HW176156   7.836   2.987  11.978
24905SOL    HW276157   7.881   2.986  11.820
24906SOL     OW76158   8.009   2.084  12.319
24906SOL    HW176159   8.047   2.000  12.356
24906SOL    HW276160   7.921   2.103  12.363
24907SOL     OW76161   7.858   2.675  12.423
24907SOL    HW176162   7.944   2.687  12.473
24907SOL    HW276163   7.816   2.588  12.450
24908SOL     OW76164   7.815   2.962  11.673
24908SOL    HW176165   7.808   3.045  11.617
24908SOL    HW276166   7.819   2.882  11.613
24909SOL     OW76167   8.014   2.399  12.037
24909SOL    HW176168   8.026   2.465  11.963
24909SOL    HW276169   8.060   2.433  12.120
24910SOL     OW76170   7.802   3.372  12.501
24910SOL    HW176171   7.781   3.328  12.414
24910SOL    HW276172   7.899   3.398  12.504
24911SOL     OW76173   7.850   2.613  12.770
24911SOL    HW176174   7.918   2.668  12.723
24911SOL    HW276175   7.890   2.525  12.797
24912SOL     OW76176   8.021   2.732  12.201
24912SOL    HW176177   8.065   2.821  12.192
24912SOL    HW276178   7.958   2.732  12.278
24913SOL     OW76179   7.755   2.075  12.403
24913SOL    HW176180   7.732   2.112  12.493
24913SOL    HW276181   7.725   1.980  12.397
24914SOL     OW76182   7.485   3.172  12.454
24914SOL    HW176183   7.538   3.123  12.522
24914SOL    HW276184   7.507   3.270  12.459
24915SOL     OW76185   7.755   1.925  11.790
24915SOL    HW176186   7.744   2.019  11.823
24915SOL    HW276187   7.750   1.862  11.867
24916SOL     OW76188   7.767   2.672  12.121
24916SOL    HW176189   7.860   2.708  12.126
24916SOL    HW276190   7.761   2.587  12.173
24917SOL     OW76191   7.787   2.371  12.178
24917SOL    HW176192   7.735   2.288  12.161
24917SOL    HW276193   7.864   2.376  12.114
24918SOL     OW76194   7.456   3.188  11.372
24918SOL    HW176195   7.363   3.209  11.341
24918SOL    HW276196   7.466   3.089  11.385
24919SOL     OW76197   7.536   3.663  12.099
24919SOL    HW176198   7.494   3.577  12.072
24919SOL    HW276199   7.630   3.666  12.065
24920SOL     OW76200   7.488   2.406  12.286
24920SOL    HW176201   7.573   2.373  12.245
24920SOL    HW276202   7.501   2.421  12.384
24921SOL     OW76203   8.263   2.434  11.497
24921SOL    HW176204   8.270   2.345  11.451
24921SOL    HW276205   8.169   2.468  11.489
24922SOL     OW76206   7.921   2.362  11.363
24922SOL    HW176207   7.982   2.442  11.367
24922SOL    HW276208   7.826   2.393  11.370
24923SOL     OW76209   7.531   3.120  12.194
24923SOL    HW176210   7.526   3.119  12.294
24923SOL    HW276211   7.448   3.079  12.156
24924SOL     OW76212   7.711   2.188  11.892
24924SOL    HW176213   7.632   2.239  11.858
24924SOL    HW276214   7.702   2.173  11.990
24925SOL     OW76215   8.038   3.349  11.663
24925SOL    HW176216   8.080   3.291  11.593
24925SOL    HW276217   7.994   3.428  11.619
24926SOL     OW76218   7.703   3.210  11.462
24926SOL    HW176219   7.607   3.211  11.435
24926SOL    HW276220   7.715   3.263  11.546
24927SOL     OW76221   7.523   2.207  11.205
24927SOL    HW176222   7.431   2.179  11.176
24927SOL    HW276223   7.554   2.284  11.149
24928SOL     OW76224   7.520   2.028  11.490
24928SOL    HW176225   7.503   2.111  11.436
24928SOL    HW276226   7.610   1.991  11.468
24929SOL     OW76227   7.838   3.603  12.732
24929SOL    HW176228   7.747   3.644  12.730
24929SOL    HW276229   7.831   3.509  12.764
24930SOL     OW76230   7.527   3.102  11.825
24930SOL    HW176231   7.526   3.055  11.913
24930SOL    HW276232   7.609   3.074  11.774
24931SOL     OW76233   7.487   2.939  11.472
24931SOL    HW176234   7.586   2.928  11.463
24931SOL    HW276235   7.447   2.853  11.504
24932SOL     OW76236   7.678   4.352   0.113
24932SOL    HW176237   7.585   4.350   0.150
24932SOL    HW276238   7.679   4.313   0.021
24933SOL     OW76239   7.673   3.999   0.996
24933SOL    HW176240   7.708   3.982   1.088
24933SOL    HW276241   7.585   3.954   0.984
24934SOL     OW76242   7.467   4.092   0.647
24934SOL    HW176243   7.385   4.135   0.686
24934SOL    HW276244   7.439   4.019   0.584
24935SOL     OW76245   7.783   5.159   1.061
24935SOL    HW176246   7.705   5.128   1.008
24935SOL    HW276247   7.841   5.217   1.004
24936SOL     OW76248   7.886   4.116   1.499
24936SOL    HW176249   7.968   4.060   1.508
24936SOL    HW276250   7.805   4.058   1.503
24937SOL     OW76251   7.679   5.437   0.483
24937SOL    HW176252   7.713   5.514   0.537
24937SOL    HW276253   7.723   5.437   0.393
24938SOL     OW76254   7.678   5.158   0.538
24938SOL    HW176255   7.652   5.254   0.538
24938SOL    HW276256   7.607   5.104   0.583
24939SOL     OW76257   7.688   4.815   0.886
24939SOL    HW176258   7.702   4.731   0.938
24939SOL    HW276259   7.633   4.879   0.941
24940SOL     OW76260   7.570   4.367   0.563
24940SOL    HW176261   7.525   4.279   0.580
24940SOL    HW276262   7.569   4.421   0.647
24941SOL     OW76263   7.475   5.320   0.117
24941SOL    HW176264   7.456   5.224   0.138
24941SOL    HW276265   7.442   5.378   0.192
24942SOL     OW76266   7.561   4.461   1.597
24942SOL    HW176267   7.649   4.448   1.642
24942SOL    HW276268   7.548   4.558   1.575
24943SOL     OW76269   7.645   4.700   1.264
24943SOL    HW176270   7.734   4.655   1.250
24943SOL    HW276271   7.572   4.635   1.245
24944SOL     OW76272   7.765   3.975   1.801
24944SOL    HW176273   7.836   4.046   1.807
24944SOL    HW276274   7.677   4.014   1.829
24945SOL     OW76275   7.524   4.535   0.789
24945SOL    HW176276   7.623   4.523   0.798
24945SOL    HW276277   7.500   4.630   0.810
24946SOL     OW76278   7.578   5.545   1.571
24946SOL    HW176279   7.568   5.530   1.670
24946SOL    HW276280   7.492   5.581   1.535
24947SOL     OW76281   7.998   3.920   0.885
24947SOL    HW176282   7.993   3.915   0.985
24947SOL    HW276283   8.000   4.016   0.856
24948SOL     OW76284   7.799   5.525   0.853
24948SOL    HW176285   7.849   5.439   0.859
24948SOL    HW276286   7.864   5.602   0.850
24949SOL     OW76287   7.769   4.667   0.242
24949SOL    HW176288   7.851   4.706   0.200
24949SOL    HW276289   7.742   4.585   0.193
24950SOL     OW76290   7.909   4.990   1.727
24950SOL    HW176291   7.859   4.991   1.641
24950SOL    HW276292   7.846   4.972   1.803
24951SOL     OW76293   7.650   4.009   1.498
24951SOL    HW176294   7.570   4.069   1.485
24951SOL    HW276295   7.640   3.960   1.584
24952SOL     OW76296   7.697   5.509   1.241
24952SOL    HW176297   7.754   5.444   1.291
24952SOL    HW276298   7.681   5.476   1.148
24953SOL     OW76299   7.830   4.424   0.480
24953SOL    HW176300   7.875   4.334   0.477
24953SOL    HW276301   7.736   4.413   0.513
24954SOL     OW76302   8.062   3.846   0.117
24954SOL    HW176303   8.160   3.824   0.124
24954SOL    HW276304   8.031   3.829   0.024
24955SOL     OW76305   7.987   3.788   0.512
24955SOL    HW176306   7.906   3.789   0.570
24955SOL    HW276307   7.990   3.871   0.457
24956SOL     OW76308   7.907   4.876   0.741
24956SOL    HW176309   7.836   4.849   0.806
24956SOL    HW276310   7.881   4.848   0.648
24957SOL     OW76311   7.526   4.280   1.386
24957SOL    HW176312   7.618   4.279   1.345
24957SOL    HW276313   7.520   4.354   1.453
24958SOL     OW76314   8.009   3.946   1.147
24958SOL    HW176315   8.047   3.862   1.184
24958SOL    HW276316   7.921   3.965   1.191
24959SOL     OW76317   7.858   4.537   1.251
24959SOL    HW176318   7.944   4.549   1.301
24959SOL    HW276319   7.816   4.450   1.278
24960SOL     OW76320   7.512   5.288   1.331
24960SOL    HW176321   7.466   5.370   1.297
24960SOL    HW276322   7.610   5.307   1.340
24961SOL     OW76323   7.815   4.824   0.501
24961SOL    HW176324   7.808   4.907   0.445
24961SOL    HW276325   7.819   4.744   0.441
24962SOL     OW76326   8.014   4.261   0.865
24962SOL    HW176327   8.026   4.327   0.791
24962SOL    HW276328   8.060   4.295   0.948
24963SOL     OW76329   7.802   5.234   1.329
24963SOL    HW176330   7.781   5.190   1.242
24963SOL    HW276331   7.899   5.260   1.332
24964SOL     OW76332   7.850   4.475   1.598
24964SOL    HW176333   7.918   4.530   1.551
24964SOL    HW276334   7.890   4.387   1.625
24965SOL     OW76335   7.952   3.774   1.740
24965SOL    HW176336   7.910   3.717   1.670
24965SOL    HW276337   7.886   3.843   1.772
24966SOL     OW76338   8.021   4.594   1.029
24966SOL    HW176339   8.065   4.683   1.020
24966SOL    HW276340   7.958   4.594   1.106
24967SOL     OW76341   7.755   3.937   1.231
24967SOL    HW176342   7.732   3.974   1.321
24967SOL    HW276343   7.725   3.842   1.225
24968SOL     OW76344   7.485   5.034   1.282
24968SOL    HW176345   7.538   4.985   1.350
24968SOL    HW276346   7.507   5.132   1.287
24969SOL     OW76347   7.755   3.787   0.618
24969SOL    HW176348   7.744   3.881   0.651
24969SOL    HW276349   7.750   3.724   0.695
24970SOL     OW76350   7.798   4.622   1.804
24970SOL    HW176351   7.874   4.666   1.852
24970SOL    HW276352   7.833   4.575   1.722
24971SOL     OW76353   7.767   4.534   0.949
24971SOL    HW176354   7.860   4.570   0.954
24971SOL    HW276355   7.761   4.449   1.001
24972SOL     OW76356   7.787   4.233   1.006
24972SOL    HW176357   7.735   4.150   0.989
24972SOL    HW276358   7.864   4.238   0.942
24973SOL     OW76359   7.536   5.525   0.927
24973SOL    HW176360   7.494   5.439   0.900
24973SOL    HW276361   7.630   5.528   0.893
24974SOL     OW76362   7.488   4.268   1.114
24974SOL    HW176363   7.573   4.235   1.073
24974SOL    HW276364   7.501   4.283   1.212
24975SOL     OW76365   7.637   4.244   1.722
24975SOL    HW176366   7.696   4.204   1.652
24975SOL    HW276367   7.579   4.315   1.681
24976SOL     OW76368   7.700   5.288   1.744
24976SOL    HW176369   7.670   5.345   1.820
24976SOL    HW276370   7.693   5.191   1.770
24977SOL     OW76371   7.921   4.224   0.191
24977SOL    HW176372   7.982   4.304   0.195
24977SOL    HW276373   7.826   4.255   0.198
24978SOL     OW76374   7.607   4.861   1.466
24978SOL    HW176375   7.629   4.800   1.542
24978SOL    HW276376   7.617   4.812   1.380
24979SOL     OW76377   7.531   4.982   1.022
24979SOL    HW176378   7.526   4.981   1.122
24979SOL    HW276379   7.448   4.941   0.984
24980SOL     OW76380   7.578   5.518   1.851
24980SOL    HW176381   7.537   5.444   1.904
24980SOL    HW276382   7.642   5.569   1.909
24981SOL     OW76383   7.711   4.050   0.720
24981SOL    HW176384   7.632   4.101   0.686
24981SOL    HW276385   7.702   4.035   0.818
24982SOL     OW76386   7.820   5.012   1.490
24982SOL    HW176387   7.807   5.105   1.456
24982SOL    HW276388   7.736   4.960   1.477
24983SOL     OW76389   8.038   5.211   0.491
24983SOL    HW176390   8.080   5.153   0.421
24983SOL    HW276391   7.994   5.290   0.447
24984SOL     OW76392   7.703   5.072   0.290
24984SOL    HW176393   7.607   5.073   0.263
24984SOL    HW276394   7.715   5.125   0.374
24985SOL     OW76395   7.553   4.737   1.726
24985SOL    HW176396   7.476   4.704   1.780
24985SOL    HW276397   7.638   4.707   1.768
24986SOL     OW76398   7.520   3.890   0.318
24986SOL    HW176399   7.503   3.973   0.264
24986SOL    HW276400   7.610   3.853   0.296
24987SOL     OW76401   7.838   5.465   1.560
24987SOL    HW176402   7.747   5.506   1.558
24987SOL    HW276403   7.831   5.371   1.592
24988SOL     OW76404   7.669   5.038   1.844
24988SOL    HW176405   7.604   4.965   1.823
24988SOL    HW276406   7.673   5.052   1.942
24989SOL     OW76407   7.527   4.964   0.653
24989SOL    HW176408   7.526   4.917   0.741
24989SOL    HW276409   7.609   4.936   0.602
24990SOL     OW76410   8.120   5.115   1.624
24990SOL    HW176411   8.042   5.065   1.662
24990SOL    HW276412   8.117   5.210   1.655
24991SOL     OW76413   7.765   4.271   1.280
24991SOL    HW176414   7.803   4.212   1.352
24991SOL    HW276415   7.805   4.245   1.192
24992SOL     OW76416   7.487   4.801   0.300
24992SOL    HW176417   7.586   4.790   0.291
24992SOL    HW276418   7.447   4.715   0.332
24993SOL     OW76419   7.678   4.352   1.975
24993SOL    HW176420   7.585   4.350   2.012
24993SOL    HW276421   7.679   4.313   1.883
24994SOL     OW76422   7.673   3.999   2.858
24994SOL    HW176423   7.708   3.982   2.950
24994SOL    HW276424   7.585   3.954   2.846
24995SOL     OW76425   7.467   4.092   2.509
24995SOL    HW176426   7.385   4.135   2.548
24995SOL    HW276427   7.439   4.019   2.446
24996SOL     OW76428   7.783   5.159   2.923
24996SOL    HW176429   7.705   5.128   2.870
24996SOL    HW276430   7.841   5.217   2.866
24997SOL     OW76431   7.886   4.116   3.361
24997SOL    HW176432   7.968   4.060   3.370
24997SOL    HW276433   7.805   4.058   3.365
24998SOL     OW76434   7.679   5.437   2.345
24998SOL    HW176435   7.713   5.514   2.399
24998SOL    HW276436   7.723   5.437   2.255
24999SOL     OW76437   7.678   5.158   2.400
24999SOL    HW176438   7.652   5.254   2.400
24999SOL    HW276439   7.607   5.104   2.445
25000SOL     OW76440   7.688   4.815   2.748
25000SOL    HW176441   7.702   4.731   2.800
25000SOL    HW276442   7.633   4.879   2.803
25001SOL     OW76443   7.570   4.367   2.425
25001SOL    HW176444   7.525   4.279   2.442
25001SOL    HW276445   7.569   4.421   2.509
25002SOL     OW76446   7.475   5.320   1.979
25002SOL    HW176447   7.456   5.224   2.000
25002SOL    HW276448   7.442   5.378   2.054
25003SOL     OW76449   7.561   4.461   3.459
25003SOL    HW176450   7.649   4.448   3.504
25003SOL    HW276451   7.548   4.558   3.437
25004SOL     OW76452   7.645   4.700   3.126
25004SOL    HW176453   7.734   4.655   3.112
25004SOL    HW276454   7.572   4.635   3.107
25005SOL     OW76455   7.765   3.975   3.663
25005SOL    HW176456   7.836   4.046   3.669
25005SOL    HW276457   7.677   4.014   3.691
25006SOL     OW76458   8.046   4.453   2.132
25006SOL    HW176459   8.070   4.522   2.064
25006SOL    HW276460   7.968   4.486   2.186
25007SOL     OW76461   7.524   4.535   2.651
25007SOL    HW176462   7.623   4.523   2.660
25007SOL    HW276463   7.500   4.630   2.672
25008SOL     OW76464   7.578   5.545   3.433
25008SOL    HW176465   7.568   5.530   3.532
25008SOL    HW276466   7.492   5.581   3.397
25009SOL     OW76467   7.998   3.920   2.747
25009SOL    HW176468   7.993   3.915   2.847
25009SOL    HW276469   8.000   4.016   2.718
25010SOL     OW76470   7.799   5.525   2.715
25010SOL    HW176471   7.849   5.439   2.721
25010SOL    HW276472   7.864   5.602   2.712
25011SOL     OW76473   7.769   4.667   2.104
25011SOL    HW176474   7.851   4.706   2.062
25011SOL    HW276475   7.742   4.585   2.055
25012SOL     OW76476   7.909   4.990   3.589
25012SOL    HW176477   7.859   4.991   3.503
25012SOL    HW276478   7.846   4.972   3.665
25013SOL     OW76479   7.650   4.009   3.360
25013SOL    HW176480   7.570   4.069   3.347
25013SOL    HW276481   7.640   3.960   3.446
25014SOL     OW76482   7.697   5.509   3.103
25014SOL    HW176483   7.754   5.444   3.153
25014SOL    HW276484   7.681   5.476   3.010
25015SOL     OW76485   7.830   4.424   2.342
25015SOL    HW176486   7.875   4.334   2.339
25015SOL    HW276487   7.736   4.413   2.375
25016SOL     OW76488   8.062   3.846   1.979
25016SOL    HW176489   8.160   3.824   1.986
25016SOL    HW276490   8.031   3.829   1.886
25017SOL     OW76491   7.987   3.788   2.374
25017SOL    HW176492   7.906   3.789   2.432
25017SOL    HW276493   7.990   3.871   2.319
25018SOL     OW76494   7.745   3.759   2.033
25018SOL    HW176495   7.794   3.843   2.012
25018SOL    HW276496   7.807   3.694   2.078
25019SOL     OW76497   7.907   4.876   2.603
25019SOL    HW176498   7.836   4.849   2.668
25019SOL    HW276499   7.881   4.848   2.510
25020SOL     OW76500   7.526   4.280   3.248
25020SOL    HW176501   7.618   4.279   3.207
25020SOL    HW276502   7.520   4.354   3.315
25021SOL     OW76503   8.009   3.946   3.009
25021SOL    HW176504   8.047   3.862   3.046
25021SOL    HW276505   7.921   3.965   3.053
25022SOL     OW76506   7.858   4.537   3.113
25022SOL    HW176507   7.944   4.549   3.163
25022SOL    HW276508   7.816   4.450   3.140
25023SOL     OW76509   7.512   5.288   3.193
25023SOL    HW176510   7.466   5.370   3.159
25023SOL    HW276511   7.610   5.307   3.202
25024SOL     OW76512   7.815   4.824   2.363
25024SOL    HW176513   7.808   4.907   2.307
25024SOL    HW276514   7.819   4.744   2.303
25025SOL     OW76515   8.014   4.261   2.727
25025SOL    HW176516   8.026   4.327   2.653
25025SOL    HW276517   8.060   4.295   2.810
25026SOL     OW76518   7.802   5.234   3.191
25026SOL    HW176519   7.781   5.190   3.104
25026SOL    HW276520   7.899   5.260   3.194
25027SOL     OW76521   7.952   3.774   3.602
25027SOL    HW176522   7.910   3.717   3.532
25027SOL    HW276523   7.886   3.843   3.634
25028SOL     OW76524   8.021   4.594   2.891
25028SOL    HW176525   8.065   4.683   2.882
25028SOL    HW276526   7.958   4.594   2.968
25029SOL     OW76527   7.755   3.937   3.093
25029SOL    HW176528   7.732   3.974   3.183
25029SOL    HW276529   7.725   3.842   3.087
25030SOL     OW76530   7.485   5.034   3.144
25030SOL    HW176531   7.538   4.985   3.212
25030SOL    HW276532   7.507   5.132   3.149
25031SOL     OW76533   7.755   3.787   2.480
25031SOL    HW176534   7.744   3.881   2.513
25031SOL    HW276535   7.750   3.724   2.557
25032SOL     OW76536   7.798   4.622   3.666
25032SOL    HW176537   7.874   4.666   3.714
25032SOL    HW276538   7.833   4.575   3.584
25033SOL     OW76539   7.767   4.534   2.811
25033SOL    HW176540   7.860   4.570   2.816
25033SOL    HW276541   7.761   4.449   2.863
25034SOL     OW76542   7.787   4.233   2.868
25034SOL    HW176543   7.735   4.150   2.851
25034SOL    HW276544   7.864   4.238   2.804
25035SOL     OW76545   7.456   5.050   2.062
25035SOL    HW176546   7.363   5.071   2.031
25035SOL    HW276547   7.466   4.951   2.075
25036SOL     OW76548   7.536   5.525   2.789
25036SOL    HW176549   7.494   5.439   2.762
25036SOL    HW276550   7.630   5.528   2.755
25037SOL     OW76551   7.488   4.268   2.976
25037SOL    HW176552   7.573   4.235   2.935
25037SOL    HW276553   7.501   4.283   3.074
25038SOL     OW76554   7.637   4.244   3.584
25038SOL    HW176555   7.696   4.204   3.514
25038SOL    HW276556   7.579   4.315   3.543
25039SOL     OW76557   8.263   4.296   2.187
25039SOL    HW176558   8.270   4.207   2.141
25039SOL    HW276559   8.169   4.330   2.179
25040SOL     OW76560   7.700   5.288   3.606
25040SOL    HW176561   7.670   5.345   3.682
25040SOL    HW276562   7.693   5.191   3.632
25041SOL     OW76563   7.921   4.224   2.053
25041SOL    HW176564   7.982   4.304   2.057
25041SOL    HW276565   7.826   4.255   2.060
25042SOL     OW76566   7.607   4.861   3.328
25042SOL    HW176567   7.629   4.800   3.404
25042SOL    HW276568   7.617   4.812   3.242
25043SOL     OW76569   7.531   4.982   2.884
25043SOL    HW176570   7.526   4.981   2.984
25043SOL    HW276571   7.448   4.941   2.846
25044SOL     OW76572   7.578   5.518   3.713
25044SOL    HW176573   7.537   5.444   3.766
25044SOL    HW276574   7.642   5.569   3.771
25045SOL     OW76575   7.711   4.050   2.582
25045SOL    HW176576   7.632   4.101   2.548
25045SOL    HW276577   7.702   4.035   2.680
25046SOL     OW76578   7.820   5.012   3.352
25046SOL    HW176579   7.807   5.105   3.318
25046SOL    HW276580   7.736   4.960   3.339
25047SOL     OW76581   8.038   5.211   2.353
25047SOL    HW176582   8.080   5.153   2.283
25047SOL    HW276583   7.994   5.290   2.309
25048SOL     OW76584   7.703   5.072   2.152
25048SOL    HW176585   7.607   5.073   2.125
25048SOL    HW276586   7.715   5.125   2.236
25049SOL     OW76587   7.553   4.737   3.588
25049SOL    HW176588   7.476   4.704   3.642
25049SOL    HW276589   7.638   4.707   3.630
25050SOL     OW76590   7.523   4.069   1.895
25050SOL    HW176591   7.431   4.041   1.866
25050SOL    HW276592   7.554   4.146   1.839
25051SOL     OW76593   7.520   3.890   2.180
25051SOL    HW176594   7.503   3.973   2.126
25051SOL    HW276595   7.610   3.853   2.158
25052SOL     OW76596   7.838   5.465   3.422
25052SOL    HW176597   7.747   5.506   3.420
25052SOL    HW276598   7.831   5.371   3.454
25053SOL     OW76599   7.669   5.038   3.706
25053SOL    HW176600   7.604   4.965   3.685
25053SOL    HW276601   7.673   5.052   3.804
25054SOL     OW76602   7.527   4.964   2.515
25054SOL    HW176603   7.526   4.917   2.603
25054SOL    HW276604   7.609   4.936   2.464
25055SOL     OW76605   8.120   5.115   3.486
25055SOL    HW176606   8.042   5.065   3.524
25055SOL    HW276607   8.117   5.210   3.517
25056SOL     OW76608   7.765   4.271   3.142
25056SOL    HW176609   7.803   4.212   3.214
25056SOL    HW276610   7.805   4.245   3.054
25057SOL     OW76611   7.487   4.801   2.162
25057SOL    HW176612   7.586   4.790   2.153
25057SOL    HW276613   7.447   4.715   2.194
25058SOL     OW76614   7.678   4.352   3.837
25058SOL    HW176615   7.585   4.350   3.874
25058SOL    HW276616   7.679   4.313   3.745
25059SOL     OW76617   7.673   3.999   4.720
25059SOL    HW176618   7.708   3.982   4.812
25059SOL    HW276619   7.585   3.954   4.708
25060SOL     OW76620   7.467   4.092   4.371
25060SOL    HW176621   7.385   4.135   4.410
25060SOL    HW276622   7.439   4.019   4.308
25061SOL     OW76623   7.783   5.159   4.785
25061SOL    HW176624   7.705   5.128   4.732
25061SOL    HW276625   7.841   5.217   4.728
25062SOL     OW76626   7.886   4.116   5.223
25062SOL    HW176627   7.968   4.060   5.232
25062SOL    HW276628   7.805   4.058   5.227
25063SOL     OW76629   7.679   5.437   4.207
25063SOL    HW176630   7.713   5.514   4.261
25063SOL    HW276631   7.723   5.437   4.117
25064SOL     OW76632   7.678   5.158   4.262
25064SOL    HW176633   7.652   5.254   4.262
25064SOL    HW276634   7.607   5.104   4.307
25065SOL     OW76635   7.688   4.815   4.610
25065SOL    HW176636   7.702   4.731   4.662
25065SOL    HW276637   7.633   4.879   4.665
25066SOL     OW76638   7.570   4.367   4.287
25066SOL    HW176639   7.525   4.279   4.304
25066SOL    HW276640   7.569   4.421   4.371
25067SOL     OW76641   7.475   5.320   3.841
25067SOL    HW176642   7.456   5.224   3.862
25067SOL    HW276643   7.442   5.378   3.916
25068SOL     OW76644   7.561   4.461   5.321
25068SOL    HW176645   7.649   4.448   5.366
25068SOL    HW276646   7.548   4.558   5.299
25069SOL     OW76647   7.645   4.700   4.988
25069SOL    HW176648   7.734   4.655   4.974
25069SOL    HW276649   7.572   4.635   4.969
25070SOL     OW76650   7.765   3.975   5.525
25070SOL    HW176651   7.836   4.046   5.531
25070SOL    HW276652   7.677   4.014   5.553
25071SOL     OW76653   8.046   4.453   3.994
25071SOL    HW176654   8.070   4.522   3.926
25071SOL    HW276655   7.968   4.486   4.048
25072SOL     OW76656   7.524   4.535   4.513
25072SOL    HW176657   7.623   4.523   4.522
25072SOL    HW276658   7.500   4.630   4.534
25073SOL     OW76659   7.578   5.545   5.295
25073SOL    HW176660   7.568   5.530   5.394
25073SOL    HW276661   7.492   5.581   5.259
25074SOL     OW76662   7.998   3.920   4.609
25074SOL    HW176663   7.993   3.915   4.709
25074SOL    HW276664   8.000   4.016   4.580
25075SOL     OW76665   7.799   5.525   4.577
25075SOL    HW176666   7.849   5.439   4.583
25075SOL    HW276667   7.864   5.602   4.574
25076SOL     OW76668   7.769   4.667   3.966
25076SOL    HW176669   7.851   4.706   3.924
25076SOL    HW276670   7.742   4.585   3.917
25077SOL     OW76671   7.909   4.990   5.451
25077SOL    HW176672   7.859   4.991   5.365
25077SOL    HW276673   7.846   4.972   5.527
25078SOL     OW76674   7.650   4.009   5.222
25078SOL    HW176675   7.570   4.069   5.209
25078SOL    HW276676   7.640   3.960   5.308
25079SOL     OW76677   7.697   5.509   4.965
25079SOL    HW176678   7.754   5.444   5.015
25079SOL    HW276679   7.681   5.476   4.872
25080SOL     OW76680   7.830   4.424   4.204
25080SOL    HW176681   7.875   4.334   4.201
25080SOL    HW276682   7.736   4.413   4.237
25081SOL     OW76683   8.062   3.846   3.841
25081SOL    HW176684   8.160   3.824   3.848
25081SOL    HW276685   8.031   3.829   3.748
25082SOL     OW76686   7.987   3.788   4.236
25082SOL    HW176687   7.906   3.789   4.294
25082SOL    HW276688   7.990   3.871   4.181
25083SOL     OW76689   7.745   3.759   3.895
25083SOL    HW176690   7.794   3.843   3.874
25083SOL    HW276691   7.807   3.694   3.940
25084SOL     OW76692   7.907   4.876   4.465
25084SOL    HW176693   7.836   4.849   4.530
25084SOL    HW276694   7.881   4.848   4.372
25085SOL     OW76695   7.526   4.280   5.110
25085SOL    HW176696   7.618   4.279   5.069
25085SOL    HW276697   7.520   4.354   5.177
25086SOL     OW76698   8.009   3.946   4.871
25086SOL    HW176699   8.047   3.862   4.908
25086SOL    HW276700   7.921   3.965   4.915
25087SOL     OW76701   7.858   4.537   4.975
25087SOL    HW176702   7.944   4.549   5.025
25087SOL    HW276703   7.816   4.450   5.002
25088SOL     OW76704   7.512   5.288   5.055
25088SOL    HW176705   7.466   5.370   5.021
25088SOL    HW276706   7.610   5.307   5.064
25089SOL     OW76707   7.815   4.824   4.225
25089SOL    HW176708   7.808   4.907   4.169
25089SOL    HW276709   7.819   4.744   4.165
25090SOL     OW76710   8.014   4.261   4.589
25090SOL    HW176711   8.026   4.327   4.515
25090SOL    HW276712   8.060   4.295   4.672
25091SOL     OW76713   7.802   5.234   5.053
25091SOL    HW176714   7.781   5.190   4.966
25091SOL    HW276715   7.899   5.260   5.056
25092SOL     OW76716   7.850   4.475   5.322
25092SOL    HW176717   7.918   4.530   5.275
25092SOL    HW276718   7.890   4.387   5.349
25093SOL     OW76719   7.952   3.774   5.464
25093SOL    HW176720   7.910   3.717   5.394
25093SOL    HW276721   7.886   3.843   5.496
25094SOL     OW76722   8.021   4.594   4.753
25094SOL    HW176723   8.065   4.683   4.744
25094SOL    HW276724   7.958   4.594   4.830
25095SOL     OW76725   7.755   3.937   4.955
25095SOL    HW176726   7.732   3.974   5.045
25095SOL    HW276727   7.725   3.842   4.949
25096SOL     OW76728   7.485   5.034   5.006
25096SOL    HW176729   7.538   4.985   5.074
25096SOL    HW276730   7.507   5.132   5.011
25097SOL     OW76731   7.755   3.787   4.342
25097SOL    HW176732   7.744   3.881   4.375
25097SOL    HW276733   7.750   3.724   4.419
25098SOL     OW76734   7.798   4.622   5.528
25098SOL    HW176735   7.874   4.666   5.576
25098SOL    HW276736   7.833   4.575   5.446
25099SOL     OW76737   7.767   4.534   4.673
25099SOL    HW176738   7.860   4.570   4.678
25099SOL    HW276739   7.761   4.449   4.725
25100SOL     OW76740   7.787   4.233   4.730
25100SOL    HW176741   7.735   4.150   4.713
25100SOL    HW276742   7.864   4.238   4.666
25101SOL     OW76743   7.456   5.050   3.924
25101SOL    HW176744   7.363   5.071   3.893
25101SOL    HW276745   7.466   4.951   3.937
25102SOL     OW76746   7.536   5.525   4.651
25102SOL    HW176747   7.494   5.439   4.624
25102SOL    HW276748   7.630   5.528   4.617
25103SOL     OW76749   7.488   4.268   4.838
25103SOL    HW176750   7.573   4.235   4.797
25103SOL    HW276751   7.501   4.283   4.936
25104SOL     OW76752   7.637   4.244   5.446
25104SOL    HW176753   7.696   4.204   5.376
25104SOL    HW276754   7.579   4.315   5.405
25105SOL     OW76755   8.263   4.296   4.049
25105SOL    HW176756   8.270   4.207   4.003
25105SOL    HW276757   8.169   4.330   4.041
25106SOL     OW76758   7.700   5.288   5.468
25106SOL    HW176759   7.670   5.345   5.544
25106SOL    HW276760   7.693   5.191   5.494
25107SOL     OW76761   7.921   4.224   3.915
25107SOL    HW176762   7.982   4.304   3.919
25107SOL    HW276763   7.826   4.255   3.922
25108SOL     OW76764   7.607   4.861   5.190
25108SOL    HW176765   7.629   4.800   5.266
25108SOL    HW276766   7.617   4.812   5.104
25109SOL     OW76767   7.531   4.982   4.746
25109SOL    HW176768   7.526   4.981   4.846
25109SOL    HW276769   7.448   4.941   4.708
25110SOL     OW76770   7.578   5.518   5.575
25110SOL    HW176771   7.537   5.444   5.628
25110SOL    HW276772   7.642   5.569   5.633
25111SOL     OW76773   7.711   4.050   4.444
25111SOL    HW176774   7.632   4.101   4.410
25111SOL    HW276775   7.702   4.035   4.542
25112SOL     OW76776   7.820   5.012   5.214
25112SOL    HW176777   7.807   5.105   5.180
25112SOL    HW276778   7.736   4.960   5.201
25113SOL     OW76779   8.038   5.211   4.215
25113SOL    HW176780   8.080   5.153   4.145
25113SOL    HW276781   7.994   5.290   4.171
25114SOL     OW76782   7.703   5.072   4.014
25114SOL    HW176783   7.607   5.073   3.987
25114SOL    HW276784   7.715   5.125   4.098
25115SOL     OW76785   7.553   4.737   5.450
25115SOL    HW176786   7.476   4.704   5.504
25115SOL    HW276787   7.638   4.707   5.492
25116SOL     OW76788   7.523   4.069   3.757
25116SOL    HW176789   7.431   4.041   3.728
25116SOL    HW276790   7.554   4.146   3.701
25117SOL     OW76791   7.520   3.890   4.042
25117SOL    HW176792   7.503   3.973   3.988
25117SOL    HW276793   7.610   3.853   4.020
25118SOL     OW76794   7.838   5.465   5.284
25118SOL    HW176795   7.747   5.506   5.282
25118SOL    HW276796   7.831   5.371   5.316
25119SOL     OW76797   7.669   5.038   5.568
25119SOL    HW176798   7.604   4.965   5.547
25119SOL    HW276799   7.673   5.052   5.666
25120SOL     OW76800   7.527   4.964   4.377
25120SOL    HW176801   7.526   4.917   4.465
25120SOL    HW276802   7.609   4.936   4.326
25121SOL     OW76803   8.120   5.115   5.348
25121SOL    HW176804   8.042   5.065   5.386
25121SOL    HW276805   8.117   5.210   5.379
25122SOL     OW76806   7.765   4.271   5.004
25122SOL    HW176807   7.803   4.212   5.076
25122SOL    HW276808   7.805   4.245   4.916
25123SOL     OW76809   7.487   4.801   4.024
25123SOL    HW176810   7.586   4.790   4.015
25123SOL    HW276811   7.447   4.715   4.056
25124SOL     OW76812   7.678   4.352   5.699
25124SOL    HW176813   7.585   4.350   5.736
25124SOL    HW276814   7.679   4.313   5.607
25125SOL     OW76815   7.673   3.999   6.582
25125SOL    HW176816   7.708   3.982   6.674
25125SOL    HW276817   7.585   3.954   6.570
25126SOL     OW76818   7.467   4.092   6.233
25126SOL    HW176819   7.385   4.135   6.272
25126SOL    HW276820   7.439   4.019   6.170
25127SOL     OW76821   7.783   5.159   6.647
25127SOL    HW176822   7.705   5.128   6.594
25127SOL    HW276823   7.841   5.217   6.590
25128SOL     OW76824   7.886   4.116   7.085
25128SOL    HW176825   7.968   4.060   7.094
25128SOL    HW276826   7.805   4.058   7.089
25129SOL     OW76827   7.679   5.437   6.069
25129SOL    HW176828   7.713   5.514   6.123
25129SOL    HW276829   7.723   5.437   5.979
25130SOL     OW76830   7.678   5.158   6.124
25130SOL    HW176831   7.652   5.254   6.124
25130SOL    HW276832   7.607   5.104   6.169
25131SOL     OW76833   7.688   4.815   6.472
25131SOL    HW176834   7.702   4.731   6.524
25131SOL    HW276835   7.633   4.879   6.527
25132SOL     OW76836   7.570   4.367   6.149
25132SOL    HW176837   7.525   4.279   6.166
25132SOL    HW276838   7.569   4.421   6.233
25133SOL     OW76839   7.475   5.320   5.703
25133SOL    HW176840   7.456   5.224   5.724
25133SOL    HW276841   7.442   5.378   5.778
25134SOL     OW76842   7.561   4.461   7.183
25134SOL    HW176843   7.649   4.448   7.228
25134SOL    HW276844   7.548   4.558   7.161
25135SOL     OW76845   7.645   4.700   6.850
25135SOL    HW176846   7.734   4.655   6.836
25135SOL    HW276847   7.572   4.635   6.831
25136SOL     OW76848   7.765   3.975   7.387
25136SOL    HW176849   7.836   4.046   7.393
25136SOL    HW276850   7.677   4.014   7.415
25137SOL     OW76851   8.046   4.453   5.856
25137SOL    HW176852   8.070   4.522   5.788
25137SOL    HW276853   7.968   4.486   5.910
25138SOL     OW76854   7.524   4.535   6.375
25138SOL    HW176855   7.623   4.523   6.384
25138SOL    HW276856   7.500   4.630   6.396
25139SOL     OW76857   7.578   5.545   7.157
25139SOL    HW176858   7.568   5.530   7.256
25139SOL    HW276859   7.492   5.581   7.121
25140SOL     OW76860   7.998   3.920   6.471
25140SOL    HW176861   7.993   3.915   6.571
25140SOL    HW276862   8.000   4.016   6.442
25141SOL     OW76863   7.799   5.525   6.439
25141SOL    HW176864   7.849   5.439   6.445
25141SOL    HW276865   7.864   5.602   6.436
25142SOL     OW76866   7.769   4.667   5.828
25142SOL    HW176867   7.851   4.706   5.786
25142SOL    HW276868   7.742   4.585   5.779
25143SOL     OW76869   7.909   4.990   7.313
25143SOL    HW176870   7.859   4.991   7.227
25143SOL    HW276871   7.846   4.972   7.389
25144SOL     OW76872   7.650   4.009   7.084
25144SOL    HW176873   7.570   4.069   7.071
25144SOL    HW276874   7.640   3.960   7.170
25145SOL     OW76875   7.697   5.509   6.827
25145SOL    HW176876   7.754   5.444   6.877
25145SOL    HW276877   7.681   5.476   6.734
25146SOL     OW76878   7.830   4.424   6.066
25146SOL    HW176879   7.875   4.334   6.063
25146SOL    HW276880   7.736   4.413   6.099
25147SOL     OW76881   8.062   3.846   5.703
25147SOL    HW176882   8.160   3.824   5.710
25147SOL    HW276883   8.031   3.829   5.610
25148SOL     OW76884   7.987   3.788   6.098
25148SOL    HW176885   7.906   3.789   6.156
25148SOL    HW276886   7.990   3.871   6.043
25149SOL     OW76887   7.745   3.759   5.757
25149SOL    HW176888   7.794   3.843   5.736
25149SOL    HW276889   7.807   3.694   5.802
25150SOL     OW76890   7.907   4.876   6.327
25150SOL    HW176891   7.836   4.849   6.392
25150SOL    HW276892   7.881   4.848   6.234
25151SOL     OW76893   7.526   4.280   6.972
25151SOL    HW176894   7.618   4.279   6.931
25151SOL    HW276895   7.520   4.354   7.039
25152SOL     OW76896   8.009   3.946   6.733
25152SOL    HW176897   8.047   3.862   6.770
25152SOL    HW276898   7.921   3.965   6.777
25153SOL     OW76899   7.858   4.537   6.837
25153SOL    HW176900   7.944   4.549   6.887
25153SOL    HW276901   7.816   4.450   6.864
25154SOL     OW76902   7.512   5.288   6.917
25154SOL    HW176903   7.466   5.370   6.883
25154SOL    HW276904   7.610   5.307   6.926
25155SOL     OW76905   7.815   4.824   6.087
25155SOL    HW176906   7.808   4.907   6.031
25155SOL    HW276907   7.819   4.744   6.027
25156SOL     OW76908   8.014   4.261   6.451
25156SOL    HW176909   8.026   4.327   6.377
25156SOL    HW276910   8.060   4.295   6.534
25157SOL     OW76911   7.802   5.234   6.915
25157SOL    HW176912   7.781   5.190   6.828
25157SOL    HW276913   7.899   5.260   6.918
25158SOL     OW76914   7.850   4.475   7.184
25158SOL    HW176915   7.918   4.530   7.137
25158SOL    HW276916   7.890   4.387   7.211
25159SOL     OW76917   7.952   3.774   7.326
25159SOL    HW176918   7.910   3.717   7.256
25159SOL    HW276919   7.886   3.843   7.358
25160SOL     OW76920   8.021   4.594   6.615
25160SOL    HW176921   8.065   4.683   6.606
25160SOL    HW276922   7.958   4.594   6.692
25161SOL     OW76923   7.755   3.937   6.817
25161SOL    HW176924   7.732   3.974   6.907
25161SOL    HW276925   7.725   3.842   6.811
25162SOL     OW76926   7.485   5.034   6.868
25162SOL    HW176927   7.538   4.985   6.936
25162SOL    HW276928   7.507   5.132   6.873
25163SOL     OW76929   7.755   3.787   6.204
25163SOL    HW176930   7.744   3.881   6.237
25163SOL    HW276931   7.750   3.724   6.281
25164SOL     OW76932   7.798   4.622   7.390
25164SOL    HW176933   7.874   4.666   7.438
25164SOL    HW276934   7.833   4.575   7.308
25165SOL     OW76935   7.767   4.534   6.535
25165SOL    HW176936   7.860   4.570   6.540
25165SOL    HW276937   7.761   4.449   6.587
25166SOL     OW76938   7.787   4.233   6.592
25166SOL    HW176939   7.735   4.150   6.575
25166SOL    HW276940   7.864   4.238   6.528
25167SOL     OW76941   7.456   5.050   5.786
25167SOL    HW176942   7.363   5.071   5.755
25167SOL    HW276943   7.466   4.951   5.799
25168SOL     OW76944   7.536   5.525   6.513
25168SOL    HW176945   7.494   5.439   6.486
25168SOL    HW276946   7.630   5.528   6.479
25169SOL     OW76947   7.488   4.268   6.700
25169SOL    HW176948   7.573   4.235   6.659
25169SOL    HW276949   7.501   4.283   6.798
25170SOL     OW76950   7.637   4.244   7.308
25170SOL    HW176951   7.696   4.204   7.238
25170SOL    HW276952   7.579   4.315   7.267
25171SOL     OW76953   8.263   4.296   5.911
25171SOL    HW176954   8.270   4.207   5.865
25171SOL    HW276955   8.169   4.330   5.903
25172SOL     OW76956   7.700   5.288   7.330
25172SOL    HW176957   7.670   5.345   7.406
25172SOL    HW276958   7.693   5.191   7.356
25173SOL     OW76959   7.921   4.224   5.777
25173SOL    HW176960   7.982   4.304   5.781
25173SOL    HW276961   7.826   4.255   5.784
25174SOL     OW76962   7.607   4.861   7.052
25174SOL    HW176963   7.629   4.800   7.128
25174SOL    HW276964   7.617   4.812   6.966
25175SOL     OW76965   7.531   4.982   6.608
25175SOL    HW176966   7.526   4.981   6.708
25175SOL    HW276967   7.448   4.941   6.570
25176SOL     OW76968   7.578   5.518   7.437
25176SOL    HW176969   7.537   5.444   7.490
25176SOL    HW276970   7.642   5.569   7.495
25177SOL     OW76971   7.711   4.050   6.306
25177SOL    HW176972   7.632   4.101   6.272
25177SOL    HW276973   7.702   4.035   6.404
25178SOL     OW76974   7.820   5.012   7.076
25178SOL    HW176975   7.807   5.105   7.042
25178SOL    HW276976   7.736   4.960   7.063
25179SOL     OW76977   8.038   5.211   6.077
25179SOL    HW176978   8.080   5.153   6.007
25179SOL    HW276979   7.994   5.290   6.033
25180SOL     OW76980   7.703   5.072   5.876
25180SOL    HW176981   7.607   5.073   5.849
25180SOL    HW276982   7.715   5.125   5.960
25181SOL     OW76983   7.553   4.737   7.312
25181SOL    HW176984   7.476   4.704   7.366
25181SOL    HW276985   7.638   4.707   7.354
25182SOL     OW76986   7.523   4.069   5.619
25182SOL    HW176987   7.431   4.041   5.590
25182SOL    HW276988   7.554   4.146   5.563
25183SOL     OW76989   7.520   3.890   5.904
25183SOL    HW176990   7.503   3.973   5.850
25183SOL    HW276991   7.610   3.853   5.882
25184SOL     OW76992   7.838   5.465   7.146
25184SOL    HW176993   7.747   5.506   7.144
25184SOL    HW276994   7.831   5.371   7.178
25185SOL     OW76995   7.669   5.038   7.430
25185SOL    HW176996   7.604   4.965   7.409
25185SOL    HW276997   7.673   5.052   7.528
25186SOL     OW76998   7.527   4.964   6.239
25186SOL    HW176999   7.526   4.917   6.327
25186SOL    HW277000   7.609   4.936   6.188
25187SOL     OW77001   8.120   5.115   7.210
25187SOL    HW177002   8.042   5.065   7.248
25187SOL    HW277003   8.117   5.210   7.241
25188SOL     OW77004   7.765   4.271   6.866
25188SOL    HW177005   7.803   4.212   6.938
25188SOL    HW277006   7.805   4.245   6.778
25189SOL     OW77007   7.487   4.801   5.886
25189SOL    HW177008   7.586   4.790   5.877
25189SOL    HW277009   7.447   4.715   5.918
25190SOL     OW77010   7.678   4.352   7.561
25190SOL    HW177011   7.585   4.350   7.598
25190SOL    HW277012   7.679   4.313   7.469
25191SOL     OW77013   7.673   3.999   8.444
25191SOL    HW177014   7.708   3.982   8.536
25191SOL    HW277015   7.585   3.954   8.432
25192SOL     OW77016   7.467   4.092   8.095
25192SOL    HW177017   7.385   4.135   8.134
25192SOL    HW277018   7.439   4.019   8.032
25193SOL     OW77019   7.783   5.159   8.509
25193SOL    HW177020   7.705   5.128   8.456
25193SOL    HW277021   7.841   5.217   8.452
25194SOL     OW77022   7.886   4.116   8.947
25194SOL    HW177023   7.968   4.060   8.956
25194SOL    HW277024   7.805   4.058   8.951
25195SOL     OW77025   7.679   5.437   7.931
25195SOL    HW177026   7.713   5.514   7.985
25195SOL    HW277027   7.723   5.437   7.841
25196SOL     OW77028   7.678   5.158   7.986
25196SOL    HW177029   7.652   5.254   7.986
25196SOL    HW277030   7.607   5.104   8.031
25197SOL     OW77031   7.688   4.815   8.334
25197SOL    HW177032   7.702   4.731   8.386
25197SOL    HW277033   7.633   4.879   8.389
25198SOL     OW77034   7.570   4.367   8.011
25198SOL    HW177035   7.525   4.279   8.028
25198SOL    HW277036   7.569   4.421   8.095
25199SOL     OW77037   7.475   5.320   7.565
25199SOL    HW177038   7.456   5.224   7.586
25199SOL    HW277039   7.442   5.378   7.640
25200SOL     OW77040   7.561   4.461   9.045
25200SOL    HW177041   7.649   4.448   9.090
25200SOL    HW277042   7.548   4.558   9.023
25201SOL     OW77043   7.645   4.700   8.712
25201SOL    HW177044   7.734   4.655   8.698
25201SOL    HW277045   7.572   4.635   8.693
25202SOL     OW77046   7.765   3.975   9.249
25202SOL    HW177047   7.836   4.046   9.255
25202SOL    HW277048   7.677   4.014   9.277
25203SOL     OW77049   8.046   4.453   7.718
25203SOL    HW177050   8.070   4.522   7.650
25203SOL    HW277051   7.968   4.486   7.772
25204SOL     OW77052   7.524   4.535   8.237
25204SOL    HW177053   7.623   4.523   8.246
25204SOL    HW277054   7.500   4.630   8.258
25205SOL     OW77055   7.578   5.545   9.019
25205SOL    HW177056   7.568   5.530   9.118
25205SOL    HW277057   7.492   5.581   8.983
25206SOL     OW77058   7.998   3.920   8.333
25206SOL    HW177059   7.993   3.915   8.433
25206SOL    HW277060   8.000   4.016   8.304
25207SOL     OW77061   7.799   5.525   8.301
25207SOL    HW177062   7.849   5.439   8.307
25207SOL    HW277063   7.864   5.602   8.298
25208SOL     OW77064   7.769   4.667   7.690
25208SOL    HW177065   7.851   4.706   7.648
25208SOL    HW277066   7.742   4.585   7.641
25209SOL     OW77067   7.909   4.990   9.175
25209SOL    HW177068   7.859   4.991   9.089
25209SOL    HW277069   7.846   4.972   9.251
25210SOL     OW77070   7.650   4.009   8.946
25210SOL    HW177071   7.570   4.069   8.933
25210SOL    HW277072   7.640   3.960   9.032
25211SOL     OW77073   7.697   5.509   8.689
25211SOL    HW177074   7.754   5.444   8.739
25211SOL    HW277075   7.681   5.476   8.596
25212SOL     OW77076   7.830   4.424   7.928
25212SOL    HW177077   7.875   4.334   7.925
25212SOL    HW277078   7.736   4.413   7.961
25213SOL     OW77079   8.062   3.846   7.565
25213SOL    HW177080   8.160   3.824   7.572
25213SOL    HW277081   8.031   3.829   7.472
25214SOL     OW77082   7.987   3.788   7.960
25214SOL    HW177083   7.906   3.789   8.018
25214SOL    HW277084   7.990   3.871   7.905
25215SOL     OW77085   7.745   3.759   7.619
25215SOL    HW177086   7.794   3.843   7.598
25215SOL    HW277087   7.807   3.694   7.664
25216SOL     OW77088   7.907   4.876   8.189
25216SOL    HW177089   7.836   4.849   8.254
25216SOL    HW277090   7.881   4.848   8.096
25217SOL     OW77091   7.526   4.280   8.834
25217SOL    HW177092   7.618   4.279   8.793
25217SOL    HW277093   7.520   4.354   8.901
25218SOL     OW77094   8.009   3.946   8.595
25218SOL    HW177095   8.047   3.862   8.632
25218SOL    HW277096   7.921   3.965   8.639
25219SOL     OW77097   7.858   4.537   8.699
25219SOL    HW177098   7.944   4.549   8.749
25219SOL    HW277099   7.816   4.450   8.726
25220SOL     OW77100   7.512   5.288   8.779
25220SOL    HW177101   7.466   5.370   8.745
25220SOL    HW277102   7.610   5.307   8.788
25221SOL     OW77103   7.815   4.824   7.949
25221SOL    HW177104   7.808   4.907   7.893
25221SOL    HW277105   7.819   4.744   7.889
25222SOL     OW77106   8.014   4.261   8.313
25222SOL    HW177107   8.026   4.327   8.239
25222SOL    HW277108   8.060   4.295   8.396
25223SOL     OW77109   7.802   5.234   8.777
25223SOL    HW177110   7.781   5.190   8.690
25223SOL    HW277111   7.899   5.260   8.780
25224SOL     OW77112   7.850   4.475   9.046
25224SOL    HW177113   7.918   4.530   8.999
25224SOL    HW277114   7.890   4.387   9.073
25225SOL     OW77115   7.952   3.774   9.188
25225SOL    HW177116   7.910   3.717   9.118
25225SOL    HW277117   7.886   3.843   9.220
25226SOL     OW77118   8.021   4.594   8.477
25226SOL    HW177119   8.065   4.683   8.468
25226SOL    HW277120   7.958   4.594   8.554
25227SOL     OW77121   7.755   3.937   8.679
25227SOL    HW177122   7.732   3.974   8.769
25227SOL    HW277123   7.725   3.842   8.673
25228SOL     OW77124   7.485   5.034   8.730
25228SOL    HW177125   7.538   4.985   8.798
25228SOL    HW277126   7.507   5.132   8.735
25229SOL     OW77127   7.755   3.787   8.066
25229SOL    HW177128   7.744   3.881   8.099
25229SOL    HW277129   7.750   3.724   8.143
25230SOL     OW77130   7.798   4.622   9.252
25230SOL    HW177131   7.874   4.666   9.300
25230SOL    HW277132   7.833   4.575   9.170
25231SOL     OW77133   7.767   4.534   8.397
25231SOL    HW177134   7.860   4.570   8.402
25231SOL    HW277135   7.761   4.449   8.449
25232SOL     OW77136   7.787   4.233   8.454
25232SOL    HW177137   7.735   4.150   8.437
25232SOL    HW277138   7.864   4.238   8.390
25233SOL     OW77139   7.456   5.050   7.648
25233SOL    HW177140   7.363   5.071   7.617
25233SOL    HW277141   7.466   4.951   7.661
25234SOL     OW77142   7.536   5.525   8.375
25234SOL    HW177143   7.494   5.439   8.348
25234SOL    HW277144   7.630   5.528   8.341
25235SOL     OW77145   7.488   4.268   8.562
25235SOL    HW177146   7.573   4.235   8.521
25235SOL    HW277147   7.501   4.283   8.660
25236SOL     OW77148   7.637   4.244   9.170
25236SOL    HW177149   7.696   4.204   9.100
25236SOL    HW277150   7.579   4.315   9.129
25237SOL     OW77151   8.263   4.296   7.773
25237SOL    HW177152   8.270   4.207   7.727
25237SOL    HW277153   8.169   4.330   7.765
25238SOL     OW77154   7.700   5.288   9.192
25238SOL    HW177155   7.670   5.345   9.268
25238SOL    HW277156   7.693   5.191   9.218
25239SOL     OW77157   7.921   4.224   7.639
25239SOL    HW177158   7.982   4.304   7.643
25239SOL    HW277159   7.826   4.255   7.646
25240SOL     OW77160   7.607   4.861   8.914
25240SOL    HW177161   7.629   4.800   8.990
25240SOL    HW277162   7.617   4.812   8.828
25241SOL     OW77163   7.531   4.982   8.470
25241SOL    HW177164   7.526   4.981   8.570
25241SOL    HW277165   7.448   4.941   8.432
25242SOL     OW77166   7.578   5.518   9.299
25242SOL    HW177167   7.537   5.444   9.352
25242SOL    HW277168   7.642   5.569   9.357
25243SOL     OW77169   7.711   4.050   8.168
25243SOL    HW177170   7.632   4.101   8.134
25243SOL    HW277171   7.702   4.035   8.266
25244SOL     OW77172   7.820   5.012   8.938
25244SOL    HW177173   7.807   5.105   8.904
25244SOL    HW277174   7.736   4.960   8.925
25245SOL     OW77175   8.038   5.211   7.939
25245SOL    HW177176   8.080   5.153   7.869
25245SOL    HW277177   7.994   5.290   7.895
25246SOL     OW77178   7.703   5.072   7.738
25246SOL    HW177179   7.607   5.073   7.711
25246SOL    HW277180   7.715   5.125   7.822
25247SOL     OW77181   7.553   4.737   9.174
25247SOL    HW177182   7.476   4.704   9.228
25247SOL    HW277183   7.638   4.707   9.216
25248SOL     OW77184   7.523   4.069   7.481
25248SOL    HW177185   7.431   4.041   7.452
25248SOL    HW277186   7.554   4.146   7.425
25249SOL     OW77187   7.520   3.890   7.766
25249SOL    HW177188   7.503   3.973   7.712
25249SOL    HW277189   7.610   3.853   7.744
25250SOL     OW77190   7.838   5.465   9.008
25250SOL    HW177191   7.747   5.506   9.006
25250SOL    HW277192   7.831   5.371   9.040
25251SOL     OW77193   7.669   5.038   9.292
25251SOL    HW177194   7.604   4.965   9.271
25251SOL    HW277195   7.673   5.052   9.390
25252SOL     OW77196   7.527   4.964   8.101
25252SOL    HW177197   7.526   4.917   8.189
25252SOL    HW277198   7.609   4.936   8.050
25253SOL     OW77199   8.120   5.115   9.072
25253SOL    HW177200   8.042   5.065   9.110
25253SOL    HW277201   8.117   5.210   9.103
25254SOL     OW77202   7.765   4.271   8.728
25254SOL    HW177203   7.803   4.212   8.800
25254SOL    HW277204   7.805   4.245   8.640
25255SOL     OW77205   7.487   4.801   7.748
25255SOL    HW177206   7.586   4.790   7.739
25255SOL    HW277207   7.447   4.715   7.780
25256SOL     OW77208   7.678   4.352   9.423
25256SOL    HW177209   7.585   4.350   9.460
25256SOL    HW277210   7.679   4.313   9.331
25257SOL     OW77211   7.673   3.999  10.306
25257SOL    HW177212   7.708   3.982  10.398
25257SOL    HW277213   7.585   3.954  10.294
25258SOL     OW77214   7.467   4.092   9.957
25258SOL    HW177215   7.385   4.135   9.996
25258SOL    HW277216   7.439   4.019   9.894
25259SOL     OW77217   7.783   5.159  10.371
25259SOL    HW177218   7.705   5.128  10.318
25259SOL    HW277219   7.841   5.217  10.314
25260SOL     OW77220   7.886   4.116  10.809
25260SOL    HW177221   7.968   4.060  10.818
25260SOL    HW277222   7.805   4.058  10.813
25261SOL     OW77223   7.679   5.437   9.793
25261SOL    HW177224   7.713   5.514   9.847
25261SOL    HW277225   7.723   5.437   9.703
25262SOL     OW77226   7.678   5.158   9.848
25262SOL    HW177227   7.652   5.254   9.848
25262SOL    HW277228   7.607   5.104   9.893
25263SOL     OW77229   7.688   4.815  10.196
25263SOL    HW177230   7.702   4.731  10.248
25263SOL    HW277231   7.633   4.879  10.251
25264SOL     OW77232   7.570   4.367   9.873
25264SOL    HW177233   7.525   4.279   9.890
25264SOL    HW277234   7.569   4.421   9.957
25265SOL     OW77235   7.475   5.320   9.427
25265SOL    HW177236   7.456   5.224   9.448
25265SOL    HW277237   7.442   5.378   9.502
25266SOL     OW77238   7.561   4.461  10.907
25266SOL    HW177239   7.649   4.448  10.952
25266SOL    HW277240   7.548   4.558  10.885
25267SOL     OW77241   7.645   4.700  10.574
25267SOL    HW177242   7.734   4.655  10.560
25267SOL    HW277243   7.572   4.635  10.555
25268SOL     OW77244   7.765   3.975  11.111
25268SOL    HW177245   7.836   4.046  11.117
25268SOL    HW277246   7.677   4.014  11.139
25269SOL     OW77247   8.046   4.453   9.580
25269SOL    HW177248   8.070   4.522   9.512
25269SOL    HW277249   7.968   4.486   9.634
25270SOL     OW77250   7.524   4.535  10.099
25270SOL    HW177251   7.623   4.523  10.108
25270SOL    HW277252   7.500   4.630  10.120
25271SOL     OW77253   7.578   5.545  10.881
25271SOL    HW177254   7.568   5.530  10.980
25271SOL    HW277255   7.492   5.581  10.845
25272SOL     OW77256   7.998   3.920  10.195
25272SOL    HW177257   7.993   3.915  10.295
25272SOL    HW277258   8.000   4.016  10.166
25273SOL     OW77259   7.799   5.525  10.163
25273SOL    HW177260   7.849   5.439  10.169
25273SOL    HW277261   7.864   5.602  10.160
25274SOL     OW77262   7.769   4.667   9.552
25274SOL    HW177263   7.851   4.706   9.510
25274SOL    HW277264   7.742   4.585   9.503
25275SOL     OW77265   7.909   4.990  11.037
25275SOL    HW177266   7.859   4.991  10.951
25275SOL    HW277267   7.846   4.972  11.113
25276SOL     OW77268   7.650   4.009  10.808
25276SOL    HW177269   7.570   4.069  10.795
25276SOL    HW277270   7.640   3.960  10.894
25277SOL     OW77271   7.697   5.509  10.551
25277SOL    HW177272   7.754   5.444  10.601
25277SOL    HW277273   7.681   5.476  10.458
25278SOL     OW77274   7.830   4.424   9.790
25278SOL    HW177275   7.875   4.334   9.787
25278SOL    HW277276   7.736   4.413   9.823
25279SOL     OW77277   8.062   3.846   9.427
25279SOL    HW177278   8.160   3.824   9.434
25279SOL    HW277279   8.031   3.829   9.334
25280SOL     OW77280   7.987   3.788   9.822
25280SOL    HW177281   7.906   3.789   9.880
25280SOL    HW277282   7.990   3.871   9.767
25281SOL     OW77283   7.745   3.759   9.481
25281SOL    HW177284   7.794   3.843   9.460
25281SOL    HW277285   7.807   3.694   9.526
25282SOL     OW77286   7.907   4.876  10.051
25282SOL    HW177287   7.836   4.849  10.116
25282SOL    HW277288   7.881   4.848   9.958
25283SOL     OW77289   7.526   4.280  10.696
25283SOL    HW177290   7.618   4.279  10.655
25283SOL    HW277291   7.520   4.354  10.763
25284SOL     OW77292   8.009   3.946  10.457
25284SOL    HW177293   8.047   3.862  10.494
25284SOL    HW277294   7.921   3.965  10.501
25285SOL     OW77295   7.858   4.537  10.561
25285SOL    HW177296   7.944   4.549  10.611
25285SOL    HW277297   7.816   4.450  10.588
25286SOL     OW77298   7.512   5.288  10.641
25286SOL    HW177299   7.466   5.370  10.607
25286SOL    HW277300   7.610   5.307  10.650
25287SOL     OW77301   7.815   4.824   9.811
25287SOL    HW177302   7.808   4.907   9.755
25287SOL    HW277303   7.819   4.744   9.751
25288SOL     OW77304   8.014   4.261  10.175
25288SOL    HW177305   8.026   4.327  10.101
25288SOL    HW277306   8.060   4.295  10.258
25289SOL     OW77307   7.802   5.234  10.639
25289SOL    HW177308   7.781   5.190  10.552
25289SOL    HW277309   7.899   5.260  10.642
25290SOL     OW77310   7.850   4.475  10.908
25290SOL    HW177311   7.918   4.530  10.861
25290SOL    HW277312   7.890   4.387  10.935
25291SOL     OW77313   7.952   3.774  11.050
25291SOL    HW177314   7.910   3.717  10.980
25291SOL    HW277315   7.886   3.843  11.082
25292SOL     OW77316   8.021   4.594  10.339
25292SOL    HW177317   8.065   4.683  10.330
25292SOL    HW277318   7.958   4.594  10.416
25293SOL     OW77319   7.755   3.937  10.541
25293SOL    HW177320   7.732   3.974  10.631
25293SOL    HW277321   7.725   3.842  10.535
25294SOL     OW77322   7.485   5.034  10.592
25294SOL    HW177323   7.538   4.985  10.660
25294SOL    HW277324   7.507   5.132  10.597
25295SOL     OW77325   7.755   3.787   9.928
25295SOL    HW177326   7.744   3.881   9.961
25295SOL    HW277327   7.750   3.724  10.005
25296SOL     OW77328   7.798   4.622  11.114
25296SOL    HW177329   7.874   4.666  11.162
25296SOL    HW277330   7.833   4.575  11.032
25297SOL     OW77331   7.767   4.534  10.259
25297SOL    HW177332   7.860   4.570  10.264
25297SOL    HW277333   7.761   4.449  10.311
25298SOL     OW77334   7.787   4.233  10.316
25298SOL    HW177335   7.735   4.150  10.299
25298SOL    HW277336   7.864   4.238  10.252
25299SOL     OW77337   7.456   5.050   9.510
25299SOL    HW177338   7.363   5.071   9.479
25299SOL    HW277339   7.466   4.951   9.523
25300SOL     OW77340   7.536   5.525  10.237
25300SOL    HW177341   7.494   5.439  10.210
25300SOL    HW277342   7.630   5.528  10.203
25301SOL     OW77343   7.488   4.268  10.424
25301SOL    HW177344   7.573   4.235  10.383
25301SOL    HW277345   7.501   4.283  10.522
25302SOL     OW77346   7.637   4.244  11.032
25302SOL    HW177347   7.696   4.204  10.962
25302SOL    HW277348   7.579   4.315  10.991
25303SOL     OW77349   8.263   4.296   9.635
25303SOL    HW177350   8.270   4.207   9.589
25303SOL    HW277351   8.169   4.330   9.627
25304SOL     OW77352   7.700   5.288  11.054
25304SOL    HW177353   7.670   5.345  11.130
25304SOL    HW277354   7.693   5.191  11.080
25305SOL     OW77355   7.921   4.224   9.501
25305SOL    HW177356   7.982   4.304   9.505
25305SOL    HW277357   7.826   4.255   9.508
25306SOL     OW77358   7.607   4.861  10.776
25306SOL    HW177359   7.629   4.800  10.852
25306SOL    HW277360   7.617   4.812  10.690
25307SOL     OW77361   7.531   4.982  10.332
25307SOL    HW177362   7.526   4.981  10.432
25307SOL    HW277363   7.448   4.941  10.294
25308SOL     OW77364   7.578   5.518  11.161
25308SOL    HW177365   7.537   5.444  11.214
25308SOL    HW277366   7.642   5.569  11.219
25309SOL     OW77367   7.711   4.050  10.030
25309SOL    HW177368   7.632   4.101   9.996
25309SOL    HW277369   7.702   4.035  10.128
25310SOL     OW77370   7.820   5.012  10.800
25310SOL    HW177371   7.807   5.105  10.766
25310SOL    HW277372   7.736   4.960  10.787
25311SOL     OW77373   8.038   5.211   9.801
25311SOL    HW177374   8.080   5.153   9.731
25311SOL    HW277375   7.994   5.290   9.757
25312SOL     OW77376   7.703   5.072   9.600
25312SOL    HW177377   7.607   5.073   9.573
25312SOL    HW277378   7.715   5.125   9.684
25313SOL     OW77379   7.553   4.737  11.036
25313SOL    HW177380   7.476   4.704  11.090
25313SOL    HW277381   7.638   4.707  11.078
25314SOL     OW77382   7.523   4.069   9.343
25314SOL    HW177383   7.431   4.041   9.314
25314SOL    HW277384   7.554   4.146   9.287
25315SOL     OW77385   7.520   3.890   9.628
25315SOL    HW177386   7.503   3.973   9.574
25315SOL    HW277387   7.610   3.853   9.606
25316SOL     OW77388   7.838   5.465  10.870
25316SOL    HW177389   7.747   5.506  10.868
25316SOL    HW277390   7.831   5.371  10.902
25317SOL     OW77391   7.669   5.038  11.154
25317SOL    HW177392   7.604   4.965  11.133
25317SOL    HW277393   7.673   5.052  11.252
25318SOL     OW77394   7.527   4.964   9.963
25318SOL    HW177395   7.526   4.917  10.051
25318SOL    HW277396   7.609   4.936   9.912
25319SOL     OW77397   8.120   5.115  10.934
25319SOL    HW177398   8.042   5.065  10.972
25319SOL    HW277399   8.117   5.210  10.965
25320SOL     OW77400   7.765   4.271  10.590
25320SOL    HW177401   7.803   4.212  10.662
25320SOL    HW277402   7.805   4.245  10.502
25321SOL     OW77403   7.487   4.801   9.610
25321SOL    HW177404   7.586   4.790   9.601
25321SOL    HW277405   7.447   4.715   9.642
25322SOL     OW77406   7.678   4.352  11.285
25322SOL    HW177407   7.585   4.350  11.322
25322SOL    HW277408   7.679   4.313  11.193
25323SOL     OW77409   7.673   3.999  12.168
25323SOL    HW177410   7.708   3.982  12.260
25323SOL    HW277411   7.585   3.954  12.156
25324SOL     OW77412   7.467   4.092  11.819
25324SOL    HW177413   7.385   4.135  11.858
25324SOL    HW277414   7.439   4.019  11.756
25325SOL     OW77415   7.783   5.159  12.233
25325SOL    HW177416   7.705   5.128  12.180
25325SOL    HW277417   7.841   5.217  12.176
25326SOL     OW77418   7.679   5.437  11.655
25326SOL    HW177419   7.713   5.514  11.709
25326SOL    HW277420   7.723   5.437  11.565
25327SOL     OW77421   7.678   5.158  11.710
25327SOL    HW177422   7.652   5.254  11.710
25327SOL    HW277423   7.607   5.104  11.755
25328SOL     OW77424   7.688   4.815  12.058
25328SOL    HW177425   7.702   4.731  12.110
25328SOL    HW277426   7.633   4.879  12.113
25329SOL     OW77427   7.570   4.367  11.735
25329SOL    HW177428   7.525   4.279  11.752
25329SOL    HW277429   7.569   4.421  11.819
25330SOL     OW77430   7.475   5.320  11.289
25330SOL    HW177431   7.456   5.224  11.310
25330SOL    HW277432   7.442   5.378  11.364
25331SOL     OW77433   7.561   4.461  12.769
25331SOL    HW177434   7.649   4.448  12.814
25331SOL    HW277435   7.548   4.558  12.747
25332SOL     OW77436   7.645   4.700  12.436
25332SOL    HW177437   7.734   4.655  12.422
25332SOL    HW277438   7.572   4.635  12.417
25333SOL     OW77439   8.046   4.453  11.442
25333SOL    HW177440   8.070   4.522  11.374
25333SOL    HW277441   7.968   4.486  11.496
25334SOL     OW77442   7.524   4.535  11.961
25334SOL    HW177443   7.623   4.523  11.970
25334SOL    HW277444   7.500   4.630  11.982
25335SOL     OW77445   7.998   3.920  12.057
25335SOL    HW177446   7.993   3.915  12.157
25335SOL    HW277447   8.000   4.016  12.028
25336SOL     OW77448   7.799   5.525  12.025
25336SOL    HW177449   7.849   5.439  12.031
25336SOL    HW277450   7.864   5.602  12.022
25337SOL     OW77451   7.769   4.667  11.414
25337SOL    HW177452   7.851   4.706  11.372
25337SOL    HW277453   7.742   4.585  11.365
25338SOL     OW77454   7.697   5.509  12.413
25338SOL    HW177455   7.754   5.444  12.463
25338SOL    HW277456   7.681   5.476  12.320
25339SOL     OW77457   7.830   4.424  11.652
25339SOL    HW177458   7.875   4.334  11.649
25339SOL    HW277459   7.736   4.413  11.685
25340SOL     OW77460   8.062   3.846  11.289
25340SOL    HW177461   8.160   3.824  11.296
25340SOL    HW277462   8.031   3.829  11.196
25341SOL     OW77463   7.987   3.788  11.684
25341SOL    HW177464   7.906   3.789  11.742
25341SOL    HW277465   7.990   3.871  11.629
25342SOL     OW77466   7.745   3.759  11.343
25342SOL    HW177467   7.794   3.843  11.322
25342SOL    HW277468   7.807   3.694  11.388
25343SOL     OW77469   7.907   4.876  11.913
25343SOL    HW177470   7.836   4.849  11.978
25343SOL    HW277471   7.881   4.848  11.820
25344SOL     OW77472   8.009   3.946  12.319
25344SOL    HW177473   8.047   3.862  12.356
25344SOL    HW277474   7.921   3.965  12.363
25345SOL     OW77475   7.858   4.537  12.423
25345SOL    HW177476   7.944   4.549  12.473
25345SOL    HW277477   7.816   4.450  12.450
25346SOL     OW77478   7.815   4.824  11.673
25346SOL    HW177479   7.808   4.907  11.617
25346SOL    HW277480   7.819   4.744  11.613
25347SOL     OW77481   8.014   4.261  12.037
25347SOL    HW177482   8.026   4.327  11.963
25347SOL    HW277483   8.060   4.295  12.120
25348SOL     OW77484   7.802   5.234  12.501
25348SOL    HW177485   7.781   5.190  12.414
25348SOL    HW277486   7.899   5.260  12.504
25349SOL     OW77487   7.850   4.475  12.770
25349SOL    HW177488   7.918   4.530  12.723
25349SOL    HW277489   7.890   4.387  12.797
25350SOL     OW77490   8.021   4.594  12.201
25350SOL    HW177491   8.065   4.683  12.192
25350SOL    HW277492   7.958   4.594  12.278
25351SOL     OW77493   7.755   3.937  12.403
25351SOL    HW177494   7.732   3.974  12.493
25351SOL    HW277495   7.725   3.842  12.397
25352SOL     OW77496   7.485   5.034  12.454
25352SOL    HW177497   7.538   4.985  12.522
25352SOL    HW277498   7.507   5.132  12.459
25353SOL     OW77499   7.755   3.787  11.790
25353SOL    HW177500   7.744   3.881  11.823
25353SOL    HW277501   7.750   3.724  11.867
25354SOL     OW77502   7.767   4.534  12.121
25354SOL    HW177503   7.860   4.570  12.126
25354SOL    HW277504   7.761   4.449  12.173
25355SOL     OW77505   7.787   4.233  12.178
25355SOL    HW177506   7.735   4.150  12.161
25355SOL    HW277507   7.864   4.238  12.114
25356SOL     OW77508   7.456   5.050  11.372
25356SOL    HW177509   7.363   5.071  11.341
25356SOL    HW277510   7.466   4.951  11.385
25357SOL     OW77511   7.536   5.525  12.099
25357SOL    HW177512   7.494   5.439  12.072
25357SOL    HW277513   7.630   5.528  12.065
25358SOL     OW77514   7.488   4.268  12.286
25358SOL    HW177515   7.573   4.235  12.245
25358SOL    HW277516   7.501   4.283  12.384
25359SOL     OW77517   8.263   4.296  11.497
25359SOL    HW177518   8.270   4.207  11.451
25359SOL    HW277519   8.169   4.330  11.489
25360SOL     OW77520   7.921   4.224  11.363
25360SOL    HW177521   7.982   4.304  11.367
25360SOL    HW277522   7.826   4.255  11.370
25361SOL     OW77523   7.531   4.982  12.194
25361SOL    HW177524   7.526   4.981  12.294
25361SOL    HW277525   7.448   4.941  12.156
25362SOL     OW77526   7.711   4.050  11.892
25362SOL    HW177527   7.632   4.101  11.858
25362SOL    HW277528   7.702   4.035  11.990
25363SOL     OW77529   8.038   5.211  11.663
25363SOL    HW177530   8.080   5.153  11.593
25363SOL    HW277531   7.994   5.290  11.619
25364SOL     OW77532   7.703   5.072  11.462
25364SOL    HW177533   7.607   5.073  11.435
25364SOL    HW277534   7.715   5.125  11.546
25365SOL     OW77535   7.523   4.069  11.205
25365SOL    HW177536   7.431   4.041  11.176
25365SOL    HW277537   7.554   4.146  11.149
25366SOL     OW77538   7.520   3.890  11.490
25366SOL    HW177539   7.503   3.973  11.436
25366SOL    HW277540   7.610   3.853  11.468
25367SOL     OW77541   7.838   5.465  12.732
25367SOL    HW177542   7.747   5.506  12.730
25367SOL    HW277543   7.831   5.371  12.764
25368SOL     OW77544   7.527   4.964  11.825
25368SOL    HW177545   7.526   4.917  11.913
25368SOL    HW277546   7.609   4.936  11.774
25369SOL     OW77547   7.487   4.801  11.472
25369SOL    HW177548   7.586   4.790  11.463
25369SOL    HW277549   7.447   4.715  11.504
25370SOL     OW77550   7.678   6.214   0.113
25370SOL    HW177551   7.585   6.212   0.150
25370SOL    HW277552   7.679   6.175   0.021
25371SOL     OW77553   7.673   5.861   0.996
25371SOL    HW177554   7.708   5.844   1.088
25371SOL    HW277555   7.585   5.816   0.984
25372SOL     OW77556   7.467   5.954   0.647
25372SOL    HW177557   7.385   5.997   0.686
25372SOL    HW277558   7.439   5.881   0.584
25373SOL     OW77559   7.783   7.021   1.061
25373SOL    HW177560   7.705   6.990   1.008
25373SOL    HW277561   7.841   7.079   1.004
25374SOL     OW77562   7.886   5.978   1.499
25374SOL    HW177563   7.968   5.922   1.508
25374SOL    HW277564   7.805   5.920   1.503
25375SOL     OW77565   7.679   7.299   0.483
25375SOL    HW177566   7.713   7.376   0.537
25375SOL    HW277567   7.723   7.299   0.393
25376SOL     OW77568   7.678   7.020   0.538
25376SOL    HW177569   7.652   7.116   0.538
25376SOL    HW277570   7.607   6.966   0.583
25377SOL     OW77571   7.688   6.677   0.886
25377SOL    HW177572   7.702   6.593   0.938
25377SOL    HW277573   7.633   6.741   0.941
25378SOL     OW77574   7.570   6.229   0.563
25378SOL    HW177575   7.525   6.141   0.580
25378SOL    HW277576   7.569   6.283   0.647
25379SOL     OW77577   7.475   7.182   0.117
25379SOL    HW177578   7.456   7.086   0.138
25379SOL    HW277579   7.442   7.240   0.192
25380SOL     OW77580   7.561   6.323   1.597
25380SOL    HW177581   7.649   6.310   1.642
25380SOL    HW277582   7.548   6.420   1.575
25381SOL     OW77583   7.645   6.562   1.264
25381SOL    HW177584   7.734   6.517   1.250
25381SOL    HW277585   7.572   6.497   1.245
25382SOL     OW77586   7.765   5.837   1.801
25382SOL    HW177587   7.836   5.908   1.807
25382SOL    HW277588   7.677   5.876   1.829
25383SOL     OW77589   7.524   6.397   0.789
25383SOL    HW177590   7.623   6.385   0.798
25383SOL    HW277591   7.500   6.492   0.810
25384SOL     OW77592   7.578   7.407   1.571
25384SOL    HW177593   7.568   7.392   1.670
25384SOL    HW277594   7.492   7.443   1.535
25385SOL     OW77595   7.998   5.782   0.885
25385SOL    HW177596   7.993   5.777   0.985
25385SOL    HW277597   8.000   5.878   0.856
25386SOL     OW77598   7.799   7.387   0.853
25386SOL    HW177599   7.849   7.301   0.859
25386SOL    HW277600   7.864   7.464   0.850
25387SOL     OW77601   7.769   6.529   0.242
25387SOL    HW177602   7.851   6.568   0.200
25387SOL    HW277603   7.742   6.447   0.193
25388SOL     OW77604   7.909   6.852   1.727
25388SOL    HW177605   7.859   6.853   1.641
25388SOL    HW277606   7.846   6.834   1.803
25389SOL     OW77607   7.650   5.871   1.498
25389SOL    HW177608   7.570   5.931   1.485
25389SOL    HW277609   7.640   5.822   1.584
25390SOL     OW77610   7.697   7.371   1.241
25390SOL    HW177611   7.754   7.306   1.291
25390SOL    HW277612   7.681   7.338   1.148
25391SOL     OW77613   7.830   6.286   0.480
25391SOL    HW177614   7.875   6.196   0.477
25391SOL    HW277615   7.736   6.275   0.513
25392SOL     OW77616   8.062   5.708   0.117
25392SOL    HW177617   8.160   5.686   0.124
25392SOL    HW277618   8.031   5.691   0.024
25393SOL     OW77619   7.987   5.650   0.512
25393SOL    HW177620   7.906   5.651   0.570
25393SOL    HW277621   7.990   5.733   0.457
25394SOL     OW77622   7.907   6.738   0.741
25394SOL    HW177623   7.836   6.711   0.806
25394SOL    HW277624   7.881   6.710   0.648
25395SOL     OW77625   7.526   6.142   1.386
25395SOL    HW177626   7.618   6.141   1.345
25395SOL    HW277627   7.520   6.216   1.453
25396SOL     OW77628   8.009   5.808   1.147
25396SOL    HW177629   8.047   5.724   1.184
25396SOL    HW277630   7.921   5.827   1.191
25397SOL     OW77631   7.858   6.399   1.251
25397SOL    HW177632   7.944   6.411   1.301
25397SOL    HW277633   7.816   6.312   1.278
25398SOL     OW77634   7.512   7.150   1.331
25398SOL    HW177635   7.466   7.232   1.297
25398SOL    HW277636   7.610   7.169   1.340
25399SOL     OW77637   7.815   6.686   0.501
25399SOL    HW177638   7.808   6.769   0.445
25399SOL    HW277639   7.819   6.606   0.441
25400SOL     OW77640   8.014   6.123   0.865
25400SOL    HW177641   8.026   6.189   0.791
25400SOL    HW277642   8.060   6.157   0.948
25401SOL     OW77643   7.802   7.096   1.329
25401SOL    HW177644   7.781   7.052   1.242
25401SOL    HW277645   7.899   7.122   1.332
25402SOL     OW77646   7.850   6.337   1.598
25402SOL    HW177647   7.918   6.392   1.551
25402SOL    HW277648   7.890   6.249   1.625
25403SOL     OW77649   7.952   5.636   1.740
25403SOL    HW177650   7.910   5.579   1.670
25403SOL    HW277651   7.886   5.705   1.772
25404SOL     OW77652   8.021   6.456   1.029
25404SOL    HW177653   8.065   6.545   1.020
25404SOL    HW277654   7.958   6.456   1.106
25405SOL     OW77655   7.755   5.799   1.231
25405SOL    HW177656   7.732   5.836   1.321
25405SOL    HW277657   7.725   5.704   1.225
25406SOL     OW77658   7.485   6.896   1.282
25406SOL    HW177659   7.538   6.847   1.350
25406SOL    HW277660   7.507   6.994   1.287
25407SOL     OW77661   7.755   5.649   0.618
25407SOL    HW177662   7.744   5.743   0.651
25407SOL    HW277663   7.750   5.586   0.695
25408SOL     OW77664   7.798   6.484   1.804
25408SOL    HW177665   7.874   6.528   1.852
25408SOL    HW277666   7.833   6.437   1.722
25409SOL     OW77667   7.767   6.396   0.949
25409SOL    HW177668   7.860   6.432   0.954
25409SOL    HW277669   7.761   6.311   1.001
25410SOL     OW77670   7.787   6.095   1.006
25410SOL    HW177671   7.735   6.012   0.989
25410SOL    HW277672   7.864   6.100   0.942
25411SOL     OW77673   7.536   7.387   0.927
25411SOL    HW177674   7.494   7.301   0.900
25411SOL    HW277675   7.630   7.390   0.893
25412SOL     OW77676   7.488   6.130   1.114
25412SOL    HW177677   7.573   6.097   1.073
25412SOL    HW277678   7.501   6.145   1.212
25413SOL     OW77679   7.637   6.106   1.722
25413SOL    HW177680   7.696   6.066   1.652
25413SOL    HW277681   7.579   6.177   1.681
25414SOL     OW77682   7.700   7.150   1.744
25414SOL    HW177683   7.670   7.207   1.820
25414SOL    HW277684   7.693   7.053   1.770
25415SOL     OW77685   7.921   6.086   0.191
25415SOL    HW177686   7.982   6.166   0.195
25415SOL    HW277687   7.826   6.117   0.198
25416SOL     OW77688   7.607   6.723   1.466
25416SOL    HW177689   7.629   6.662   1.542
25416SOL    HW277690   7.617   6.674   1.380
25417SOL     OW77691   7.531   6.844   1.022
25417SOL    HW177692   7.526   6.843   1.122
25417SOL    HW277693   7.448   6.803   0.984
25418SOL     OW77694   7.578   7.380   1.851
25418SOL    HW177695   7.537   7.306   1.904
25418SOL    HW277696   7.642   7.431   1.909
25419SOL     OW77697   7.711   5.912   0.720
25419SOL    HW177698   7.632   5.963   0.686
25419SOL    HW277699   7.702   5.897   0.818
25420SOL     OW77700   7.820   6.874   1.490
25420SOL    HW177701   7.807   6.967   1.456
25420SOL    HW277702   7.736   6.822   1.477
25421SOL     OW77703   8.038   7.073   0.491
25421SOL    HW177704   8.080   7.015   0.421
25421SOL    HW277705   7.994   7.152   0.447
25422SOL     OW77706   7.703   6.934   0.290
25422SOL    HW177707   7.607   6.935   0.263
25422SOL    HW277708   7.715   6.987   0.374
25423SOL     OW77709   7.553   6.599   1.726
25423SOL    HW177710   7.476   6.566   1.780
25423SOL    HW277711   7.638   6.569   1.768
25424SOL     OW77712   7.520   5.752   0.318
25424SOL    HW177713   7.503   5.835   0.264
25424SOL    HW277714   7.610   5.715   0.296
25425SOL     OW77715   7.838   7.327   1.560
25425SOL    HW177716   7.747   7.368   1.558
25425SOL    HW277717   7.831   7.233   1.592
25426SOL     OW77718   7.669   6.900   1.844
25426SOL    HW177719   7.604   6.827   1.823
25426SOL    HW277720   7.673   6.914   1.942
25427SOL     OW77721   7.527   6.826   0.653
25427SOL    HW177722   7.526   6.779   0.741
25427SOL    HW277723   7.609   6.798   0.602
25428SOL     OW77724   8.120   6.977   1.624
25428SOL    HW177725   8.042   6.927   1.662
25428SOL    HW277726   8.117   7.072   1.655
25429SOL     OW77727   7.765   6.133   1.280
25429SOL    HW177728   7.803   6.074   1.352
25429SOL    HW277729   7.805   6.107   1.192
25430SOL     OW77730   7.487   6.663   0.300
25430SOL    HW177731   7.586   6.652   0.291
25430SOL    HW277732   7.447   6.577   0.332
25431SOL     OW77733   7.678   6.214   1.975
25431SOL    HW177734   7.585   6.212   2.012
25431SOL    HW277735   7.679   6.175   1.883
25432SOL     OW77736   7.673   5.861   2.858
25432SOL    HW177737   7.708   5.844   2.950
25432SOL    HW277738   7.585   5.816   2.846
25433SOL     OW77739   7.467   5.954   2.509
25433SOL    HW177740   7.385   5.997   2.548
25433SOL    HW277741   7.439   5.881   2.446
25434SOL     OW77742   7.783   7.021   2.923
25434SOL    HW177743   7.705   6.990   2.870
25434SOL    HW277744   7.841   7.079   2.866
25435SOL     OW77745   7.886   5.978   3.361
25435SOL    HW177746   7.968   5.922   3.370
25435SOL    HW277747   7.805   5.920   3.365
25436SOL     OW77748   7.679   7.299   2.345
25436SOL    HW177749   7.713   7.376   2.399
25436SOL    HW277750   7.723   7.299   2.255
25437SOL     OW77751   7.678   7.020   2.400
25437SOL    HW177752   7.652   7.116   2.400
25437SOL    HW277753   7.607   6.966   2.445
25438SOL     OW77754   7.688   6.677   2.748
25438SOL    HW177755   7.702   6.593   2.800
25438SOL    HW277756   7.633   6.741   2.803
25439SOL     OW77757   7.570   6.229   2.425
25439SOL    HW177758   7.525   6.141   2.442
25439SOL    HW277759   7.569   6.283   2.509
25440SOL     OW77760   7.475   7.182   1.979
25440SOL    HW177761   7.456   7.086   2.000
25440SOL    HW277762   7.442   7.240   2.054
25441SOL     OW77763   7.561   6.323   3.459
25441SOL    HW177764   7.649   6.310   3.504
25441SOL    HW277765   7.548   6.420   3.437
25442SOL     OW77766   7.645   6.562   3.126
25442SOL    HW177767   7.734   6.517   3.112
25442SOL    HW277768   7.572   6.497   3.107
25443SOL     OW77769   7.765   5.837   3.663
25443SOL    HW177770   7.836   5.908   3.669
25443SOL    HW277771   7.677   5.876   3.691
25444SOL     OW77772   8.046   6.315   2.132
25444SOL    HW177773   8.070   6.384   2.064
25444SOL    HW277774   7.968   6.348   2.186
25445SOL     OW77775   7.524   6.397   2.651
25445SOL    HW177776   7.623   6.385   2.660
25445SOL    HW277777   7.500   6.492   2.672
25446SOL     OW77778   7.578   7.407   3.433
25446SOL    HW177779   7.568   7.392   3.532
25446SOL    HW277780   7.492   7.443   3.397
25447SOL     OW77781   7.998   5.782   2.747
25447SOL    HW177782   7.993   5.777   2.847
25447SOL    HW277783   8.000   5.878   2.718
25448SOL     OW77784   7.799   7.387   2.715
25448SOL    HW177785   7.849   7.301   2.721
25448SOL    HW277786   7.864   7.464   2.712
25449SOL     OW77787   7.769   6.529   2.104
25449SOL    HW177788   7.851   6.568   2.062
25449SOL    HW277789   7.742   6.447   2.055
25450SOL     OW77790   7.909   6.852   3.589
25450SOL    HW177791   7.859   6.853   3.503
25450SOL    HW277792   7.846   6.834   3.665
25451SOL     OW77793   7.650   5.871   3.360
25451SOL    HW177794   7.570   5.931   3.347
25451SOL    HW277795   7.640   5.822   3.446
25452SOL     OW77796   7.697   7.371   3.103
25452SOL    HW177797   7.754   7.306   3.153
25452SOL    HW277798   7.681   7.338   3.010
25453SOL     OW77799   7.830   6.286   2.342
25453SOL    HW177800   7.875   6.196   2.339
25453SOL    HW277801   7.736   6.275   2.375
25454SOL     OW77802   8.062   5.708   1.979
25454SOL    HW177803   8.160   5.686   1.986
25454SOL    HW277804   8.031   5.691   1.886
25455SOL     OW77805   7.987   5.650   2.374
25455SOL    HW177806   7.906   5.651   2.432
25455SOL    HW277807   7.990   5.733   2.319
25456SOL     OW77808   7.745   5.621   2.033
25456SOL    HW177809   7.794   5.705   2.012
25456SOL    HW277810   7.807   5.556   2.078
25457SOL     OW77811   7.907   6.738   2.603
25457SOL    HW177812   7.836   6.711   2.668
25457SOL    HW277813   7.881   6.710   2.510
25458SOL     OW77814   7.526   6.142   3.248
25458SOL    HW177815   7.618   6.141   3.207
25458SOL    HW277816   7.520   6.216   3.315
25459SOL     OW77817   8.009   5.808   3.009
25459SOL    HW177818   8.047   5.724   3.046
25459SOL    HW277819   7.921   5.827   3.053
25460SOL     OW77820   7.858   6.399   3.113
25460SOL    HW177821   7.944   6.411   3.163
25460SOL    HW277822   7.816   6.312   3.140
25461SOL     OW77823   7.512   7.150   3.193
25461SOL    HW177824   7.466   7.232   3.159
25461SOL    HW277825   7.610   7.169   3.202
25462SOL     OW77826   7.815   6.686   2.363
25462SOL    HW177827   7.808   6.769   2.307
25462SOL    HW277828   7.819   6.606   2.303
25463SOL     OW77829   8.014   6.123   2.727
25463SOL    HW177830   8.026   6.189   2.653
25463SOL    HW277831   8.060   6.157   2.810
25464SOL     OW77832   7.802   7.096   3.191
25464SOL    HW177833   7.781   7.052   3.104
25464SOL    HW277834   7.899   7.122   3.194
25465SOL     OW77835   7.850   6.337   3.460
25465SOL    HW177836   7.918   6.392   3.413
25465SOL    HW277837   7.890   6.249   3.487
25466SOL     OW77838   7.952   5.636   3.602
25466SOL    HW177839   7.910   5.579   3.532
25466SOL    HW277840   7.886   5.705   3.634
25467SOL     OW77841   8.021   6.456   2.891
25467SOL    HW177842   8.065   6.545   2.882
25467SOL    HW277843   7.958   6.456   2.968
25468SOL     OW77844   7.755   5.799   3.093
25468SOL    HW177845   7.732   5.836   3.183
25468SOL    HW277846   7.725   5.704   3.087
25469SOL     OW77847   7.485   6.896   3.144
25469SOL    HW177848   7.538   6.847   3.212
25469SOL    HW277849   7.507   6.994   3.149
25470SOL     OW77850   7.755   5.649   2.480
25470SOL    HW177851   7.744   5.743   2.513
25470SOL    HW277852   7.750   5.586   2.557
25471SOL     OW77853   7.798   6.484   3.666
25471SOL    HW177854   7.874   6.528   3.714
25471SOL    HW277855   7.833   6.437   3.584
25472SOL     OW77856   7.767   6.396   2.811
25472SOL    HW177857   7.860   6.432   2.816
25472SOL    HW277858   7.761   6.311   2.863
25473SOL     OW77859   7.787   6.095   2.868
25473SOL    HW177860   7.735   6.012   2.851
25473SOL    HW277861   7.864   6.100   2.804
25474SOL     OW77862   7.456   6.912   2.062
25474SOL    HW177863   7.363   6.933   2.031
25474SOL    HW277864   7.466   6.813   2.075
25475SOL     OW77865   7.536   7.387   2.789
25475SOL    HW177866   7.494   7.301   2.762
25475SOL    HW277867   7.630   7.390   2.755
25476SOL     OW77868   7.488   6.130   2.976
25476SOL    HW177869   7.573   6.097   2.935
25476SOL    HW277870   7.501   6.145   3.074
25477SOL     OW77871   7.637   6.106   3.584
25477SOL    HW177872   7.696   6.066   3.514
25477SOL    HW277873   7.579   6.177   3.543
25478SOL     OW77874   8.263   6.158   2.187
25478SOL    HW177875   8.270   6.069   2.141
25478SOL    HW277876   8.169   6.192   2.179
25479SOL     OW77877   7.700   7.150   3.606
25479SOL    HW177878   7.670   7.207   3.682
25479SOL    HW277879   7.693   7.053   3.632
25480SOL     OW77880   7.921   6.086   2.053
25480SOL    HW177881   7.982   6.166   2.057
25480SOL    HW277882   7.826   6.117   2.060
25481SOL     OW77883   7.607   6.723   3.328
25481SOL    HW177884   7.629   6.662   3.404
25481SOL    HW277885   7.617   6.674   3.242
25482SOL     OW77886   7.531   6.844   2.884
25482SOL    HW177887   7.526   6.843   2.984
25482SOL    HW277888   7.448   6.803   2.846
25483SOL     OW77889   7.578   7.380   3.713
25483SOL    HW177890   7.537   7.306   3.766
25483SOL    HW277891   7.642   7.431   3.771
25484SOL     OW77892   7.711   5.912   2.582
25484SOL    HW177893   7.632   5.963   2.548
25484SOL    HW277894   7.702   5.897   2.680
25485SOL     OW77895   7.820   6.874   3.352
25485SOL    HW177896   7.807   6.967   3.318
25485SOL    HW277897   7.736   6.822   3.339
25486SOL     OW77898   8.038   7.073   2.353
25486SOL    HW177899   8.080   7.015   2.283
25486SOL    HW277900   7.994   7.152   2.309
25487SOL     OW77901   7.703   6.934   2.152
25487SOL    HW177902   7.607   6.935   2.125
25487SOL    HW277903   7.715   6.987   2.236
25488SOL     OW77904   7.553   6.599   3.588
25488SOL    HW177905   7.476   6.566   3.642
25488SOL    HW277906   7.638   6.569   3.630
25489SOL     OW77907   7.523   5.931   1.895
25489SOL    HW177908   7.431   5.903   1.866
25489SOL    HW277909   7.554   6.008   1.839
25490SOL     OW77910   7.520   5.752   2.180
25490SOL    HW177911   7.503   5.835   2.126
25490SOL    HW277912   7.610   5.715   2.158
25491SOL     OW77913   7.838   7.327   3.422
25491SOL    HW177914   7.747   7.368   3.420
25491SOL    HW277915   7.831   7.233   3.454
25492SOL     OW77916   7.669   6.900   3.706
25492SOL    HW177917   7.604   6.827   3.685
25492SOL    HW277918   7.673   6.914   3.804
25493SOL     OW77919   7.527   6.826   2.515
25493SOL    HW177920   7.526   6.779   2.603
25493SOL    HW277921   7.609   6.798   2.464
25494SOL     OW77922   8.120   6.977   3.486
25494SOL    HW177923   8.042   6.927   3.524
25494SOL    HW277924   8.117   7.072   3.517
25495SOL     OW77925   7.765   6.133   3.142
25495SOL    HW177926   7.803   6.074   3.214
25495SOL    HW277927   7.805   6.107   3.054
25496SOL     OW77928   7.487   6.663   2.162
25496SOL    HW177929   7.586   6.652   2.153
25496SOL    HW277930   7.447   6.577   2.194
25497SOL     OW77931   7.678   6.214   3.837
25497SOL    HW177932   7.585   6.212   3.874
25497SOL    HW277933   7.679   6.175   3.745
25498SOL     OW77934   7.673   5.861   4.720
25498SOL    HW177935   7.708   5.844   4.812
25498SOL    HW277936   7.585   5.816   4.708
25499SOL     OW77937   7.467   5.954   4.371
25499SOL    HW177938   7.385   5.997   4.410
25499SOL    HW277939   7.439   5.881   4.308
25500SOL     OW77940   7.783   7.021   4.785
25500SOL    HW177941   7.705   6.990   4.732
25500SOL    HW277942   7.841   7.079   4.728
25501SOL     OW77943   7.886   5.978   5.223
25501SOL    HW177944   7.968   5.922   5.232
25501SOL    HW277945   7.805   5.920   5.227
25502SOL     OW77946   7.679   7.299   4.207
25502SOL    HW177947   7.713   7.376   4.261
25502SOL    HW277948   7.723   7.299   4.117
25503SOL     OW77949   7.678   7.020   4.262
25503SOL    HW177950   7.652   7.116   4.262
25503SOL    HW277951   7.607   6.966   4.307
25504SOL     OW77952   7.688   6.677   4.610
25504SOL    HW177953   7.702   6.593   4.662
25504SOL    HW277954   7.633   6.741   4.665
25505SOL     OW77955   7.570   6.229   4.287
25505SOL    HW177956   7.525   6.141   4.304
25505SOL    HW277957   7.569   6.283   4.371
25506SOL     OW77958   7.475   7.182   3.841
25506SOL    HW177959   7.456   7.086   3.862
25506SOL    HW277960   7.442   7.240   3.916
25507SOL     OW77961   7.561   6.323   5.321
25507SOL    HW177962   7.649   6.310   5.366
25507SOL    HW277963   7.548   6.420   5.299
25508SOL     OW77964   7.645   6.562   4.988
25508SOL    HW177965   7.734   6.517   4.974
25508SOL    HW277966   7.572   6.497   4.969
25509SOL     OW77967   7.765   5.837   5.525
25509SOL    HW177968   7.836   5.908   5.531
25509SOL    HW277969   7.677   5.876   5.553
25510SOL     OW77970   8.046   6.315   3.994
25510SOL    HW177971   8.070   6.384   3.926
25510SOL    HW277972   7.968   6.348   4.048
25511SOL     OW77973   7.524   6.397   4.513
25511SOL    HW177974   7.623   6.385   4.522
25511SOL    HW277975   7.500   6.492   4.534
25512SOL     OW77976   7.578   7.407   5.295
25512SOL    HW177977   7.568   7.392   5.394
25512SOL    HW277978   7.492   7.443   5.259
25513SOL     OW77979   7.998   5.782   4.609
25513SOL    HW177980   7.993   5.777   4.709
25513SOL    HW277981   8.000   5.878   4.580
25514SOL     OW77982   7.799   7.387   4.577
25514SOL    HW177983   7.849   7.301   4.583
25514SOL    HW277984   7.864   7.464   4.574
25515SOL     OW77985   7.769   6.529   3.966
25515SOL    HW177986   7.851   6.568   3.924
25515SOL    HW277987   7.742   6.447   3.917
25516SOL     OW77988   7.909   6.852   5.451
25516SOL    HW177989   7.859   6.853   5.365
25516SOL    HW277990   7.846   6.834   5.527
25517SOL     OW77991   7.650   5.871   5.222
25517SOL    HW177992   7.570   5.931   5.209
25517SOL    HW277993   7.640   5.822   5.308
25518SOL     OW77994   7.697   7.371   4.965
25518SOL    HW177995   7.754   7.306   5.015
25518SOL    HW277996   7.681   7.338   4.872
25519SOL     OW77997   7.830   6.286   4.204
25519SOL    HW177998   7.875   6.196   4.201
25519SOL    HW277999   7.736   6.275   4.237
25520SOL     OW78000   8.062   5.708   3.841
25520SOL    HW178001   8.160   5.686   3.848
25520SOL    HW278002   8.031   5.691   3.748
25521SOL     OW78003   7.987   5.650   4.236
25521SOL    HW178004   7.906   5.651   4.294
25521SOL    HW278005   7.990   5.733   4.181
25522SOL     OW78006   7.745   5.621   3.895
25522SOL    HW178007   7.794   5.705   3.874
25522SOL    HW278008   7.807   5.556   3.940
25523SOL     OW78009   7.907   6.738   4.465
25523SOL    HW178010   7.836   6.711   4.530
25523SOL    HW278011   7.881   6.710   4.372
25524SOL     OW78012   7.526   6.142   5.110
25524SOL    HW178013   7.618   6.141   5.069
25524SOL    HW278014   7.520   6.216   5.177
25525SOL     OW78015   8.009   5.808   4.871
25525SOL    HW178016   8.047   5.724   4.908
25525SOL    HW278017   7.921   5.827   4.915
25526SOL     OW78018   7.858   6.399   4.975
25526SOL    HW178019   7.944   6.411   5.025
25526SOL    HW278020   7.816   6.312   5.002
25527SOL     OW78021   7.512   7.150   5.055
25527SOL    HW178022   7.466   7.232   5.021
25527SOL    HW278023   7.610   7.169   5.064
25528SOL     OW78024   7.815   6.686   4.225
25528SOL    HW178025   7.808   6.769   4.169
25528SOL    HW278026   7.819   6.606   4.165
25529SOL     OW78027   8.014   6.123   4.589
25529SOL    HW178028   8.026   6.189   4.515
25529SOL    HW278029   8.060   6.157   4.672
25530SOL     OW78030   7.802   7.096   5.053
25530SOL    HW178031   7.781   7.052   4.966
25530SOL    HW278032   7.899   7.122   5.056
25531SOL     OW78033   7.850   6.337   5.322
25531SOL    HW178034   7.918   6.392   5.275
25531SOL    HW278035   7.890   6.249   5.349
25532SOL     OW78036   7.952   5.636   5.464
25532SOL    HW178037   7.910   5.579   5.394
25532SOL    HW278038   7.886   5.705   5.496
25533SOL     OW78039   8.021   6.456   4.753
25533SOL    HW178040   8.065   6.545   4.744
25533SOL    HW278041   7.958   6.456   4.830
25534SOL     OW78042   7.755   5.799   4.955
25534SOL    HW178043   7.732   5.836   5.045
25534SOL    HW278044   7.725   5.704   4.949
25535SOL     OW78045   7.485   6.896   5.006
25535SOL    HW178046   7.538   6.847   5.074
25535SOL    HW278047   7.507   6.994   5.011
25536SOL     OW78048   7.755   5.649   4.342
25536SOL    HW178049   7.744   5.743   4.375
25536SOL    HW278050   7.750   5.586   4.419
25537SOL     OW78051   7.798   6.484   5.528
25537SOL    HW178052   7.874   6.528   5.576
25537SOL    HW278053   7.833   6.437   5.446
25538SOL     OW78054   7.767   6.396   4.673
25538SOL    HW178055   7.860   6.432   4.678
25538SOL    HW278056   7.761   6.311   4.725
25539SOL     OW78057   7.787   6.095   4.730
25539SOL    HW178058   7.735   6.012   4.713
25539SOL    HW278059   7.864   6.100   4.666
25540SOL     OW78060   7.456   6.912   3.924
25540SOL    HW178061   7.363   6.933   3.893
25540SOL    HW278062   7.466   6.813   3.937
25541SOL     OW78063   7.536   7.387   4.651
25541SOL    HW178064   7.494   7.301   4.624
25541SOL    HW278065   7.630   7.390   4.617
25542SOL     OW78066   7.488   6.130   4.838
25542SOL    HW178067   7.573   6.097   4.797
25542SOL    HW278068   7.501   6.145   4.936
25543SOL     OW78069   7.637   6.106   5.446
25543SOL    HW178070   7.696   6.066   5.376
25543SOL    HW278071   7.579   6.177   5.405
25544SOL     OW78072   8.263   6.158   4.049
25544SOL    HW178073   8.270   6.069   4.003
25544SOL    HW278074   8.169   6.192   4.041
25545SOL     OW78075   7.700   7.150   5.468
25545SOL    HW178076   7.670   7.207   5.544
25545SOL    HW278077   7.693   7.053   5.494
25546SOL     OW78078   7.921   6.086   3.915
25546SOL    HW178079   7.982   6.166   3.919
25546SOL    HW278080   7.826   6.117   3.922
25547SOL     OW78081   7.607   6.723   5.190
25547SOL    HW178082   7.629   6.662   5.266
25547SOL    HW278083   7.617   6.674   5.104
25548SOL     OW78084   7.531   6.844   4.746
25548SOL    HW178085   7.526   6.843   4.846
25548SOL    HW278086   7.448   6.803   4.708
25549SOL     OW78087   7.578   7.380   5.575
25549SOL    HW178088   7.537   7.306   5.628
25549SOL    HW278089   7.642   7.431   5.633
25550SOL     OW78090   7.711   5.912   4.444
25550SOL    HW178091   7.632   5.963   4.410
25550SOL    HW278092   7.702   5.897   4.542
25551SOL     OW78093   7.820   6.874   5.214
25551SOL    HW178094   7.807   6.967   5.180
25551SOL    HW278095   7.736   6.822   5.201
25552SOL     OW78096   8.038   7.073   4.215
25552SOL    HW178097   8.080   7.015   4.145
25552SOL    HW278098   7.994   7.152   4.171
25553SOL     OW78099   7.703   6.934   4.014
25553SOL    HW178100   7.607   6.935   3.987
25553SOL    HW278101   7.715   6.987   4.098
25554SOL     OW78102   7.553   6.599   5.450
25554SOL    HW178103   7.476   6.566   5.504
25554SOL    HW278104   7.638   6.569   5.492
25555SOL     OW78105   7.523   5.931   3.757
25555SOL    HW178106   7.431   5.903   3.728
25555SOL    HW278107   7.554   6.008   3.701
25556SOL     OW78108   7.520   5.752   4.042
25556SOL    HW178109   7.503   5.835   3.988
25556SOL    HW278110   7.610   5.715   4.020
25557SOL     OW78111   7.838   7.327   5.284
25557SOL    HW178112   7.747   7.368   5.282
25557SOL    HW278113   7.831   7.233   5.316
25558SOL     OW78114   7.669   6.900   5.568
25558SOL    HW178115   7.604   6.827   5.547
25558SOL    HW278116   7.673   6.914   5.666
25559SOL     OW78117   7.527   6.826   4.377
25559SOL    HW178118   7.526   6.779   4.465
25559SOL    HW278119   7.609   6.798   4.326
25560SOL     OW78120   8.120   6.977   5.348
25560SOL    HW178121   8.042   6.927   5.386
25560SOL    HW278122   8.117   7.072   5.379
25561SOL     OW78123   7.765   6.133   5.004
25561SOL    HW178124   7.803   6.074   5.076
25561SOL    HW278125   7.805   6.107   4.916
25562SOL     OW78126   7.487   6.663   4.024
25562SOL    HW178127   7.586   6.652   4.015
25562SOL    HW278128   7.447   6.577   4.056
25563SOL     OW78129   7.678   6.214   5.699
25563SOL    HW178130   7.585   6.212   5.736
25563SOL    HW278131   7.679   6.175   5.607
25564SOL     OW78132   7.673   5.861   6.582
25564SOL    HW178133   7.708   5.844   6.674
25564SOL    HW278134   7.585   5.816   6.570
25565SOL     OW78135   7.467   5.954   6.233
25565SOL    HW178136   7.385   5.997   6.272
25565SOL    HW278137   7.439   5.881   6.170
25566SOL     OW78138   7.783   7.021   6.647
25566SOL    HW178139   7.705   6.990   6.594
25566SOL    HW278140   7.841   7.079   6.590
25567SOL     OW78141   7.886   5.978   7.085
25567SOL    HW178142   7.968   5.922   7.094
25567SOL    HW278143   7.805   5.920   7.089
25568SOL     OW78144   7.679   7.299   6.069
25568SOL    HW178145   7.713   7.376   6.123
25568SOL    HW278146   7.723   7.299   5.979
25569SOL     OW78147   7.678   7.020   6.124
25569SOL    HW178148   7.652   7.116   6.124
25569SOL    HW278149   7.607   6.966   6.169
25570SOL     OW78150   7.688   6.677   6.472
25570SOL    HW178151   7.702   6.593   6.524
25570SOL    HW278152   7.633   6.741   6.527
25571SOL     OW78153   7.570   6.229   6.149
25571SOL    HW178154   7.525   6.141   6.166
25571SOL    HW278155   7.569   6.283   6.233
25572SOL     OW78156   7.475   7.182   5.703
25572SOL    HW178157   7.456   7.086   5.724
25572SOL    HW278158   7.442   7.240   5.778
25573SOL     OW78159   7.561   6.323   7.183
25573SOL    HW178160   7.649   6.310   7.228
25573SOL    HW278161   7.548   6.420   7.161
25574SOL     OW78162   7.645   6.562   6.850
25574SOL    HW178163   7.734   6.517   6.836
25574SOL    HW278164   7.572   6.497   6.831
25575SOL     OW78165   7.765   5.837   7.387
25575SOL    HW178166   7.836   5.908   7.393
25575SOL    HW278167   7.677   5.876   7.415
25576SOL     OW78168   8.046   6.315   5.856
25576SOL    HW178169   8.070   6.384   5.788
25576SOL    HW278170   7.968   6.348   5.910
25577SOL     OW78171   7.524   6.397   6.375
25577SOL    HW178172   7.623   6.385   6.384
25577SOL    HW278173   7.500   6.492   6.396
25578SOL     OW78174   7.578   7.407   7.157
25578SOL    HW178175   7.568   7.392   7.256
25578SOL    HW278176   7.492   7.443   7.121
25579SOL     OW78177   7.998   5.782   6.471
25579SOL    HW178178   7.993   5.777   6.571
25579SOL    HW278179   8.000   5.878   6.442
25580SOL     OW78180   7.799   7.387   6.439
25580SOL    HW178181   7.849   7.301   6.445
25580SOL    HW278182   7.864   7.464   6.436
25581SOL     OW78183   7.769   6.529   5.828
25581SOL    HW178184   7.851   6.568   5.786
25581SOL    HW278185   7.742   6.447   5.779
25582SOL     OW78186   7.909   6.852   7.313
25582SOL    HW178187   7.859   6.853   7.227
25582SOL    HW278188   7.846   6.834   7.389
25583SOL     OW78189   7.650   5.871   7.084
25583SOL    HW178190   7.570   5.931   7.071
25583SOL    HW278191   7.640   5.822   7.170
25584SOL     OW78192   7.697   7.371   6.827
25584SOL    HW178193   7.754   7.306   6.877
25584SOL    HW278194   7.681   7.338   6.734
25585SOL     OW78195   7.830   6.286   6.066
25585SOL    HW178196   7.875   6.196   6.063
25585SOL    HW278197   7.736   6.275   6.099
25586SOL     OW78198   8.062   5.708   5.703
25586SOL    HW178199   8.160   5.686   5.710
25586SOL    HW278200   8.031   5.691   5.610
25587SOL     OW78201   7.987   5.650   6.098
25587SOL    HW178202   7.906   5.651   6.156
25587SOL    HW278203   7.990   5.733   6.043
25588SOL     OW78204   7.745   5.621   5.757
25588SOL    HW178205   7.794   5.705   5.736
25588SOL    HW278206   7.807   5.556   5.802
25589SOL     OW78207   7.907   6.738   6.327
25589SOL    HW178208   7.836   6.711   6.392
25589SOL    HW278209   7.881   6.710   6.234
25590SOL     OW78210   7.526   6.142   6.972
25590SOL    HW178211   7.618   6.141   6.931
25590SOL    HW278212   7.520   6.216   7.039
25591SOL     OW78213   8.009   5.808   6.733
25591SOL    HW178214   8.047   5.724   6.770
25591SOL    HW278215   7.921   5.827   6.777
25592SOL     OW78216   7.858   6.399   6.837
25592SOL    HW178217   7.944   6.411   6.887
25592SOL    HW278218   7.816   6.312   6.864
25593SOL     OW78219   7.512   7.150   6.917
25593SOL    HW178220   7.466   7.232   6.883
25593SOL    HW278221   7.610   7.169   6.926
25594SOL     OW78222   7.815   6.686   6.087
25594SOL    HW178223   7.808   6.769   6.031
25594SOL    HW278224   7.819   6.606   6.027
25595SOL     OW78225   8.014   6.123   6.451
25595SOL    HW178226   8.026   6.189   6.377
25595SOL    HW278227   8.060   6.157   6.534
25596SOL     OW78228   7.802   7.096   6.915
25596SOL    HW178229   7.781   7.052   6.828
25596SOL    HW278230   7.899   7.122   6.918
25597SOL     OW78231   7.850   6.337   7.184
25597SOL    HW178232   7.918   6.392   7.137
25597SOL    HW278233   7.890   6.249   7.211
25598SOL     OW78234   7.952   5.636   7.326
25598SOL    HW178235   7.910   5.579   7.256
25598SOL    HW278236   7.886   5.705   7.358
25599SOL     OW78237   8.021   6.456   6.615
25599SOL    HW178238   8.065   6.545   6.606
25599SOL    HW278239   7.958   6.456   6.692
25600SOL     OW78240   7.755   5.799   6.817
25600SOL    HW178241   7.732   5.836   6.907
25600SOL    HW278242   7.725   5.704   6.811
25601SOL     OW78243   7.485   6.896   6.868
25601SOL    HW178244   7.538   6.847   6.936
25601SOL    HW278245   7.507   6.994   6.873
25602SOL     OW78246   7.755   5.649   6.204
25602SOL    HW178247   7.744   5.743   6.237
25602SOL    HW278248   7.750   5.586   6.281
25603SOL     OW78249   7.798   6.484   7.390
25603SOL    HW178250   7.874   6.528   7.438
25603SOL    HW278251   7.833   6.437   7.308
25604SOL     OW78252   7.767   6.396   6.535
25604SOL    HW178253   7.860   6.432   6.540
25604SOL    HW278254   7.761   6.311   6.587
25605SOL     OW78255   7.787   6.095   6.592
25605SOL    HW178256   7.735   6.012   6.575
25605SOL    HW278257   7.864   6.100   6.528
25606SOL     OW78258   7.456   6.912   5.786
25606SOL    HW178259   7.363   6.933   5.755
25606SOL    HW278260   7.466   6.813   5.799
25607SOL     OW78261   7.536   7.387   6.513
25607SOL    HW178262   7.494   7.301   6.486
25607SOL    HW278263   7.630   7.390   6.479
25608SOL     OW78264   7.488   6.130   6.700
25608SOL    HW178265   7.573   6.097   6.659
25608SOL    HW278266   7.501   6.145   6.798
25609SOL     OW78267   7.637   6.106   7.308
25609SOL    HW178268   7.696   6.066   7.238
25609SOL    HW278269   7.579   6.177   7.267
25610SOL     OW78270   8.263   6.158   5.911
25610SOL    HW178271   8.270   6.069   5.865
25610SOL    HW278272   8.169   6.192   5.903
25611SOL     OW78273   7.700   7.150   7.330
25611SOL    HW178274   7.670   7.207   7.406
25611SOL    HW278275   7.693   7.053   7.356
25612SOL     OW78276   7.921   6.086   5.777
25612SOL    HW178277   7.982   6.166   5.781
25612SOL    HW278278   7.826   6.117   5.784
25613SOL     OW78279   7.607   6.723   7.052
25613SOL    HW178280   7.629   6.662   7.128
25613SOL    HW278281   7.617   6.674   6.966
25614SOL     OW78282   7.531   6.844   6.608
25614SOL    HW178283   7.526   6.843   6.708
25614SOL    HW278284   7.448   6.803   6.570
25615SOL     OW78285   7.578   7.380   7.437
25615SOL    HW178286   7.537   7.306   7.490
25615SOL    HW278287   7.642   7.431   7.495
25616SOL     OW78288   7.711   5.912   6.306
25616SOL    HW178289   7.632   5.963   6.272
25616SOL    HW278290   7.702   5.897   6.404
25617SOL     OW78291   7.820   6.874   7.076
25617SOL    HW178292   7.807   6.967   7.042
25617SOL    HW278293   7.736   6.822   7.063
25618SOL     OW78294   8.038   7.073   6.077
25618SOL    HW178295   8.080   7.015   6.007
25618SOL    HW278296   7.994   7.152   6.033
25619SOL     OW78297   7.703   6.934   5.876
25619SOL    HW178298   7.607   6.935   5.849
25619SOL    HW278299   7.715   6.987   5.960
25620SOL     OW78300   7.553   6.599   7.312
25620SOL    HW178301   7.476   6.566   7.366
25620SOL    HW278302   7.638   6.569   7.354
25621SOL     OW78303   7.523   5.931   5.619
25621SOL    HW178304   7.431   5.903   5.590
25621SOL    HW278305   7.554   6.008   5.563
25622SOL     OW78306   7.520   5.752   5.904
25622SOL    HW178307   7.503   5.835   5.850
25622SOL    HW278308   7.610   5.715   5.882
25623SOL     OW78309   7.838   7.327   7.146
25623SOL    HW178310   7.747   7.368   7.144
25623SOL    HW278311   7.831   7.233   7.178
25624SOL     OW78312   7.669   6.900   7.430
25624SOL    HW178313   7.604   6.827   7.409
25624SOL    HW278314   7.673   6.914   7.528
25625SOL     OW78315   7.527   6.826   6.239
25625SOL    HW178316   7.526   6.779   6.327
25625SOL    HW278317   7.609   6.798   6.188
25626SOL     OW78318   8.120   6.977   7.210
25626SOL    HW178319   8.042   6.927   7.248
25626SOL    HW278320   8.117   7.072   7.241
25627SOL     OW78321   7.765   6.133   6.866
25627SOL    HW178322   7.803   6.074   6.938
25627SOL    HW278323   7.805   6.107   6.778
25628SOL     OW78324   7.487   6.663   5.886
25628SOL    HW178325   7.586   6.652   5.877
25628SOL    HW278326   7.447   6.577   5.918
25629SOL     OW78327   7.678   6.214   7.561
25629SOL    HW178328   7.585   6.212   7.598
25629SOL    HW278329   7.679   6.175   7.469
25630SOL     OW78330   7.673   5.861   8.444
25630SOL    HW178331   7.708   5.844   8.536
25630SOL    HW278332   7.585   5.816   8.432
25631SOL     OW78333   7.467   5.954   8.095
25631SOL    HW178334   7.385   5.997   8.134
25631SOL    HW278335   7.439   5.881   8.032
25632SOL     OW78336   7.783   7.021   8.509
25632SOL    HW178337   7.705   6.990   8.456
25632SOL    HW278338   7.841   7.079   8.452
25633SOL     OW78339   7.886   5.978   8.947
25633SOL    HW178340   7.968   5.922   8.956
25633SOL    HW278341   7.805   5.920   8.951
25634SOL     OW78342   7.679   7.299   7.931
25634SOL    HW178343   7.713   7.376   7.985
25634SOL    HW278344   7.723   7.299   7.841
25635SOL     OW78345   7.678   7.020   7.986
25635SOL    HW178346   7.652   7.116   7.986
25635SOL    HW278347   7.607   6.966   8.031
25636SOL     OW78348   7.688   6.677   8.334
25636SOL    HW178349   7.702   6.593   8.386
25636SOL    HW278350   7.633   6.741   8.389
25637SOL     OW78351   7.570   6.229   8.011
25637SOL    HW178352   7.525   6.141   8.028
25637SOL    HW278353   7.569   6.283   8.095
25638SOL     OW78354   7.475   7.182   7.565
25638SOL    HW178355   7.456   7.086   7.586
25638SOL    HW278356   7.442   7.240   7.640
25639SOL     OW78357   7.561   6.323   9.045
25639SOL    HW178358   7.649   6.310   9.090
25639SOL    HW278359   7.548   6.420   9.023
25640SOL     OW78360   7.645   6.562   8.712
25640SOL    HW178361   7.734   6.517   8.698
25640SOL    HW278362   7.572   6.497   8.693
25641SOL     OW78363   7.765   5.837   9.249
25641SOL    HW178364   7.836   5.908   9.255
25641SOL    HW278365   7.677   5.876   9.277
25642SOL     OW78366   8.046   6.315   7.718
25642SOL    HW178367   8.070   6.384   7.650
25642SOL    HW278368   7.968   6.348   7.772
25643SOL     OW78369   7.524   6.397   8.237
25643SOL    HW178370   7.623   6.385   8.246
25643SOL    HW278371   7.500   6.492   8.258
25644SOL     OW78372   7.578   7.407   9.019
25644SOL    HW178373   7.568   7.392   9.118
25644SOL    HW278374   7.492   7.443   8.983
25645SOL     OW78375   7.998   5.782   8.333
25645SOL    HW178376   7.993   5.777   8.433
25645SOL    HW278377   8.000   5.878   8.304
25646SOL     OW78378   7.799   7.387   8.301
25646SOL    HW178379   7.849   7.301   8.307
25646SOL    HW278380   7.864   7.464   8.298
25647SOL     OW78381   7.769   6.529   7.690
25647SOL    HW178382   7.851   6.568   7.648
25647SOL    HW278383   7.742   6.447   7.641
25648SOL     OW78384   7.909   6.852   9.175
25648SOL    HW178385   7.859   6.853   9.089
25648SOL    HW278386   7.846   6.834   9.251
25649SOL     OW78387   7.650   5.871   8.946
25649SOL    HW178388   7.570   5.931   8.933
25649SOL    HW278389   7.640   5.822   9.032
25650SOL     OW78390   7.697   7.371   8.689
25650SOL    HW178391   7.754   7.306   8.739
25650SOL    HW278392   7.681   7.338   8.596
25651SOL     OW78393   7.830   6.286   7.928
25651SOL    HW178394   7.875   6.196   7.925
25651SOL    HW278395   7.736   6.275   7.961
25652SOL     OW78396   8.062   5.708   7.565
25652SOL    HW178397   8.160   5.686   7.572
25652SOL    HW278398   8.031   5.691   7.472
25653SOL     OW78399   7.987   5.650   7.960
25653SOL    HW178400   7.906   5.651   8.018
25653SOL    HW278401   7.990   5.733   7.905
25654SOL     OW78402   7.745   5.621   7.619
25654SOL    HW178403   7.794   5.705   7.598
25654SOL    HW278404   7.807   5.556   7.664
25655SOL     OW78405   7.907   6.738   8.189
25655SOL    HW178406   7.836   6.711   8.254
25655SOL    HW278407   7.881   6.710   8.096
25656SOL     OW78408   7.526   6.142   8.834
25656SOL    HW178409   7.618   6.141   8.793
25656SOL    HW278410   7.520   6.216   8.901
25657SOL     OW78411   8.009   5.808   8.595
25657SOL    HW178412   8.047   5.724   8.632
25657SOL    HW278413   7.921   5.827   8.639
25658SOL     OW78414   7.858   6.399   8.699
25658SOL    HW178415   7.944   6.411   8.749
25658SOL    HW278416   7.816   6.312   8.726
25659SOL     OW78417   7.512   7.150   8.779
25659SOL    HW178418   7.466   7.232   8.745
25659SOL    HW278419   7.610   7.169   8.788
25660SOL     OW78420   7.815   6.686   7.949
25660SOL    HW178421   7.808   6.769   7.893
25660SOL    HW278422   7.819   6.606   7.889
25661SOL     OW78423   8.014   6.123   8.313
25661SOL    HW178424   8.026   6.189   8.239
25661SOL    HW278425   8.060   6.157   8.396
25662SOL     OW78426   7.802   7.096   8.777
25662SOL    HW178427   7.781   7.052   8.690
25662SOL    HW278428   7.899   7.122   8.780
25663SOL     OW78429   7.850   6.337   9.046
25663SOL    HW178430   7.918   6.392   8.999
25663SOL    HW278431   7.890   6.249   9.073
25664SOL     OW78432   7.952   5.636   9.188
25664SOL    HW178433   7.910   5.579   9.118
25664SOL    HW278434   7.886   5.705   9.220
25665SOL     OW78435   8.021   6.456   8.477
25665SOL    HW178436   8.065   6.545   8.468
25665SOL    HW278437   7.958   6.456   8.554
25666SOL     OW78438   7.755   5.799   8.679
25666SOL    HW178439   7.732   5.836   8.769
25666SOL    HW278440   7.725   5.704   8.673
25667SOL     OW78441   7.485   6.896   8.730
25667SOL    HW178442   7.538   6.847   8.798
25667SOL    HW278443   7.507   6.994   8.735
25668SOL     OW78444   7.755   5.649   8.066
25668SOL    HW178445   7.744   5.743   8.099
25668SOL    HW278446   7.750   5.586   8.143
25669SOL     OW78447   7.798   6.484   9.252
25669SOL    HW178448   7.874   6.528   9.300
25669SOL    HW278449   7.833   6.437   9.170
25670SOL     OW78450   7.767   6.396   8.397
25670SOL    HW178451   7.860   6.432   8.402
25670SOL    HW278452   7.761   6.311   8.449
25671SOL     OW78453   7.787   6.095   8.454
25671SOL    HW178454   7.735   6.012   8.437
25671SOL    HW278455   7.864   6.100   8.390
25672SOL     OW78456   7.456   6.912   7.648
25672SOL    HW178457   7.363   6.933   7.617
25672SOL    HW278458   7.466   6.813   7.661
25673SOL     OW78459   7.536   7.387   8.375
25673SOL    HW178460   7.494   7.301   8.348
25673SOL    HW278461   7.630   7.390   8.341
25674SOL     OW78462   7.488   6.130   8.562
25674SOL    HW178463   7.573   6.097   8.521
25674SOL    HW278464   7.501   6.145   8.660
25675SOL     OW78465   7.637   6.106   9.170
25675SOL    HW178466   7.696   6.066   9.100
25675SOL    HW278467   7.579   6.177   9.129
25676SOL     OW78468   8.263   6.158   7.773
25676SOL    HW178469   8.270   6.069   7.727
25676SOL    HW278470   8.169   6.192   7.765
25677SOL     OW78471   7.700   7.150   9.192
25677SOL    HW178472   7.670   7.207   9.268
25677SOL    HW278473   7.693   7.053   9.218
25678SOL     OW78474   7.921   6.086   7.639
25678SOL    HW178475   7.982   6.166   7.643
25678SOL    HW278476   7.826   6.117   7.646
25679SOL     OW78477   7.607   6.723   8.914
25679SOL    HW178478   7.629   6.662   8.990
25679SOL    HW278479   7.617   6.674   8.828
25680SOL     OW78480   7.531   6.844   8.470
25680SOL    HW178481   7.526   6.843   8.570
25680SOL    HW278482   7.448   6.803   8.432
25681SOL     OW78483   7.578   7.380   9.299
25681SOL    HW178484   7.537   7.306   9.352
25681SOL    HW278485   7.642   7.431   9.357
25682SOL     OW78486   7.711   5.912   8.168
25682SOL    HW178487   7.632   5.963   8.134
25682SOL    HW278488   7.702   5.897   8.266
25683SOL     OW78489   7.820   6.874   8.938
25683SOL    HW178490   7.807   6.967   8.904
25683SOL    HW278491   7.736   6.822   8.925
25684SOL     OW78492   8.038   7.073   7.939
25684SOL    HW178493   8.080   7.015   7.869
25684SOL    HW278494   7.994   7.152   7.895
25685SOL     OW78495   7.703   6.934   7.738
25685SOL    HW178496   7.607   6.935   7.711
25685SOL    HW278497   7.715   6.987   7.822
25686SOL     OW78498   7.553   6.599   9.174
25686SOL    HW178499   7.476   6.566   9.228
25686SOL    HW278500   7.638   6.569   9.216
25687SOL     OW78501   7.523   5.931   7.481
25687SOL    HW178502   7.431   5.903   7.452
25687SOL    HW278503   7.554   6.008   7.425
25688SOL     OW78504   7.520   5.752   7.766
25688SOL    HW178505   7.503   5.835   7.712
25688SOL    HW278506   7.610   5.715   7.744
25689SOL     OW78507   7.838   7.327   9.008
25689SOL    HW178508   7.747   7.368   9.006
25689SOL    HW278509   7.831   7.233   9.040
25690SOL     OW78510   7.669   6.900   9.292
25690SOL    HW178511   7.604   6.827   9.271
25690SOL    HW278512   7.673   6.914   9.390
25691SOL     OW78513   7.527   6.826   8.101
25691SOL    HW178514   7.526   6.779   8.189
25691SOL    HW278515   7.609   6.798   8.050
25692SOL     OW78516   8.120   6.977   9.072
25692SOL    HW178517   8.042   6.927   9.110
25692SOL    HW278518   8.117   7.072   9.103
25693SOL     OW78519   7.765   6.133   8.728
25693SOL    HW178520   7.803   6.074   8.800
25693SOL    HW278521   7.805   6.107   8.640
25694SOL     OW78522   7.487   6.663   7.748
25694SOL    HW178523   7.586   6.652   7.739
25694SOL    HW278524   7.447   6.577   7.780
25695SOL     OW78525   7.678   6.214   9.423
25695SOL    HW178526   7.585   6.212   9.460
25695SOL    HW278527   7.679   6.175   9.331
25696SOL     OW78528   7.673   5.861  10.306
25696SOL    HW178529   7.708   5.844  10.398
25696SOL    HW278530   7.585   5.816  10.294
25697SOL     OW78531   7.467   5.954   9.957
25697SOL    HW178532   7.385   5.997   9.996
25697SOL    HW278533   7.439   5.881   9.894
25698SOL     OW78534   7.783   7.021  10.371
25698SOL    HW178535   7.705   6.990  10.318
25698SOL    HW278536   7.841   7.079  10.314
25699SOL     OW78537   7.886   5.978  10.809
25699SOL    HW178538   7.968   5.922  10.818
25699SOL    HW278539   7.805   5.920  10.813
25700SOL     OW78540   7.679   7.299   9.793
25700SOL    HW178541   7.713   7.376   9.847
25700SOL    HW278542   7.723   7.299   9.703
25701SOL     OW78543   7.678   7.020   9.848
25701SOL    HW178544   7.652   7.116   9.848
25701SOL    HW278545   7.607   6.966   9.893
25702SOL     OW78546   7.688   6.677  10.196
25702SOL    HW178547   7.702   6.593  10.248
25702SOL    HW278548   7.633   6.741  10.251
25703SOL     OW78549   7.570   6.229   9.873
25703SOL    HW178550   7.525   6.141   9.890
25703SOL    HW278551   7.569   6.283   9.957
25704SOL     OW78552   7.475   7.182   9.427
25704SOL    HW178553   7.456   7.086   9.448
25704SOL    HW278554   7.442   7.240   9.502
25705SOL     OW78555   7.561   6.323  10.907
25705SOL    HW178556   7.649   6.310  10.952
25705SOL    HW278557   7.548   6.420  10.885
25706SOL     OW78558   7.645   6.562  10.574
25706SOL    HW178559   7.734   6.517  10.560
25706SOL    HW278560   7.572   6.497  10.555
25707SOL     OW78561   7.765   5.837  11.111
25707SOL    HW178562   7.836   5.908  11.117
25707SOL    HW278563   7.677   5.876  11.139
25708SOL     OW78564   8.046   6.315   9.580
25708SOL    HW178565   8.070   6.384   9.512
25708SOL    HW278566   7.968   6.348   9.634
25709SOL     OW78567   7.524   6.397  10.099
25709SOL    HW178568   7.623   6.385  10.108
25709SOL    HW278569   7.500   6.492  10.120
25710SOL     OW78570   7.578   7.407  10.881
25710SOL    HW178571   7.568   7.392  10.980
25710SOL    HW278572   7.492   7.443  10.845
25711SOL     OW78573   7.998   5.782  10.195
25711SOL    HW178574   7.993   5.777  10.295
25711SOL    HW278575   8.000   5.878  10.166
25712SOL     OW78576   7.799   7.387  10.163
25712SOL    HW178577   7.849   7.301  10.169
25712SOL    HW278578   7.864   7.464  10.160
25713SOL     OW78579   7.769   6.529   9.552
25713SOL    HW178580   7.851   6.568   9.510
25713SOL    HW278581   7.742   6.447   9.503
25714SOL     OW78582   7.909   6.852  11.037
25714SOL    HW178583   7.859   6.853  10.951
25714SOL    HW278584   7.846   6.834  11.113
25715SOL     OW78585   7.650   5.871  10.808
25715SOL    HW178586   7.570   5.931  10.795
25715SOL    HW278587   7.640   5.822  10.894
25716SOL     OW78588   7.697   7.371  10.551
25716SOL    HW178589   7.754   7.306  10.601
25716SOL    HW278590   7.681   7.338  10.458
25717SOL     OW78591   7.830   6.286   9.790
25717SOL    HW178592   7.875   6.196   9.787
25717SOL    HW278593   7.736   6.275   9.823
25718SOL     OW78594   8.062   5.708   9.427
25718SOL    HW178595   8.160   5.686   9.434
25718SOL    HW278596   8.031   5.691   9.334
25719SOL     OW78597   7.987   5.650   9.822
25719SOL    HW178598   7.906   5.651   9.880
25719SOL    HW278599   7.990   5.733   9.767
25720SOL     OW78600   7.745   5.621   9.481
25720SOL    HW178601   7.794   5.705   9.460
25720SOL    HW278602   7.807   5.556   9.526
25721SOL     OW78603   7.907   6.738  10.051
25721SOL    HW178604   7.836   6.711  10.116
25721SOL    HW278605   7.881   6.710   9.958
25722SOL     OW78606   7.526   6.142  10.696
25722SOL    HW178607   7.618   6.141  10.655
25722SOL    HW278608   7.520   6.216  10.763
25723SOL     OW78609   8.009   5.808  10.457
25723SOL    HW178610   8.047   5.724  10.494
25723SOL    HW278611   7.921   5.827  10.501
25724SOL     OW78612   7.858   6.399  10.561
25724SOL    HW178613   7.944   6.411  10.611
25724SOL    HW278614   7.816   6.312  10.588
25725SOL     OW78615   7.512   7.150  10.641
25725SOL    HW178616   7.466   7.232  10.607
25725SOL    HW278617   7.610   7.169  10.650
25726SOL     OW78618   7.815   6.686   9.811
25726SOL    HW178619   7.808   6.769   9.755
25726SOL    HW278620   7.819   6.606   9.751
25727SOL     OW78621   8.014   6.123  10.175
25727SOL    HW178622   8.026   6.189  10.101
25727SOL    HW278623   8.060   6.157  10.258
25728SOL     OW78624   7.802   7.096  10.639
25728SOL    HW178625   7.781   7.052  10.552
25728SOL    HW278626   7.899   7.122  10.642
25729SOL     OW78627   7.850   6.337  10.908
25729SOL    HW178628   7.918   6.392  10.861
25729SOL    HW278629   7.890   6.249  10.935
25730SOL     OW78630   7.952   5.636  11.050
25730SOL    HW178631   7.910   5.579  10.980
25730SOL    HW278632   7.886   5.705  11.082
25731SOL     OW78633   8.021   6.456  10.339
25731SOL    HW178634   8.065   6.545  10.330
25731SOL    HW278635   7.958   6.456  10.416
25732SOL     OW78636   7.755   5.799  10.541
25732SOL    HW178637   7.732   5.836  10.631
25732SOL    HW278638   7.725   5.704  10.535
25733SOL     OW78639   7.485   6.896  10.592
25733SOL    HW178640   7.538   6.847  10.660
25733SOL    HW278641   7.507   6.994  10.597
25734SOL     OW78642   7.755   5.649   9.928
25734SOL    HW178643   7.744   5.743   9.961
25734SOL    HW278644   7.750   5.586  10.005
25735SOL     OW78645   7.798   6.484  11.114
25735SOL    HW178646   7.874   6.528  11.162
25735SOL    HW278647   7.833   6.437  11.032
25736SOL     OW78648   7.767   6.396  10.259
25736SOL    HW178649   7.860   6.432  10.264
25736SOL    HW278650   7.761   6.311  10.311
25737SOL     OW78651   7.787   6.095  10.316
25737SOL    HW178652   7.735   6.012  10.299
25737SOL    HW278653   7.864   6.100  10.252
25738SOL     OW78654   7.456   6.912   9.510
25738SOL    HW178655   7.363   6.933   9.479
25738SOL    HW278656   7.466   6.813   9.523
25739SOL     OW78657   7.536   7.387  10.237
25739SOL    HW178658   7.494   7.301  10.210
25739SOL    HW278659   7.630   7.390  10.203
25740SOL     OW78660   7.488   6.130  10.424
25740SOL    HW178661   7.573   6.097  10.383
25740SOL    HW278662   7.501   6.145  10.522
25741SOL     OW78663   7.637   6.106  11.032
25741SOL    HW178664   7.696   6.066  10.962
25741SOL    HW278665   7.579   6.177  10.991
25742SOL     OW78666   8.263   6.158   9.635
25742SOL    HW178667   8.270   6.069   9.589
25742SOL    HW278668   8.169   6.192   9.627
25743SOL     OW78669   7.700   7.150  11.054
25743SOL    HW178670   7.670   7.207  11.130
25743SOL    HW278671   7.693   7.053  11.080
25744SOL     OW78672   7.921   6.086   9.501
25744SOL    HW178673   7.982   6.166   9.505
25744SOL    HW278674   7.826   6.117   9.508
25745SOL     OW78675   7.607   6.723  10.776
25745SOL    HW178676   7.629   6.662  10.852
25745SOL    HW278677   7.617   6.674  10.690
25746SOL     OW78678   7.531   6.844  10.332
25746SOL    HW178679   7.526   6.843  10.432
25746SOL    HW278680   7.448   6.803  10.294
25747SOL     OW78681   7.578   7.380  11.161
25747SOL    HW178682   7.537   7.306  11.214
25747SOL    HW278683   7.642   7.431  11.219
25748SOL     OW78684   7.711   5.912  10.030
25748SOL    HW178685   7.632   5.963   9.996
25748SOL    HW278686   7.702   5.897  10.128
25749SOL     OW78687   7.820   6.874  10.800
25749SOL    HW178688   7.807   6.967  10.766
25749SOL    HW278689   7.736   6.822  10.787
25750SOL     OW78690   8.038   7.073   9.801
25750SOL    HW178691   8.080   7.015   9.731
25750SOL    HW278692   7.994   7.152   9.757
25751SOL     OW78693   7.703   6.934   9.600
25751SOL    HW178694   7.607   6.935   9.573
25751SOL    HW278695   7.715   6.987   9.684
25752SOL     OW78696   7.553   6.599  11.036
25752SOL    HW178697   7.476   6.566  11.090
25752SOL    HW278698   7.638   6.569  11.078
25753SOL     OW78699   7.523   5.931   9.343
25753SOL    HW178700   7.431   5.903   9.314
25753SOL    HW278701   7.554   6.008   9.287
25754SOL     OW78702   7.520   5.752   9.628
25754SOL    HW178703   7.503   5.835   9.574
25754SOL    HW278704   7.610   5.715   9.606
25755SOL     OW78705   7.838   7.327  10.870
25755SOL    HW178706   7.747   7.368  10.868
25755SOL    HW278707   7.831   7.233  10.902
25756SOL     OW78708   7.669   6.900  11.154
25756SOL    HW178709   7.604   6.827  11.133
25756SOL    HW278710   7.673   6.914  11.252
25757SOL     OW78711   7.527   6.826   9.963
25757SOL    HW178712   7.526   6.779  10.051
25757SOL    HW278713   7.609   6.798   9.912
25758SOL     OW78714   8.120   6.977  10.934
25758SOL    HW178715   8.042   6.927  10.972
25758SOL    HW278716   8.117   7.072  10.965
25759SOL     OW78717   7.765   6.133  10.590
25759SOL    HW178718   7.803   6.074  10.662
25759SOL    HW278719   7.805   6.107  10.502
25760SOL     OW78720   7.487   6.663   9.610
25760SOL    HW178721   7.586   6.652   9.601
25760SOL    HW278722   7.447   6.577   9.642
25761SOL     OW78723   7.678   6.214  11.285
25761SOL    HW178724   7.585   6.212  11.322
25761SOL    HW278725   7.679   6.175  11.193
25762SOL     OW78726   7.673   5.861  12.168
25762SOL    HW178727   7.708   5.844  12.260
25762SOL    HW278728   7.585   5.816  12.156
25763SOL     OW78729   7.467   5.954  11.819
25763SOL    HW178730   7.385   5.997  11.858
25763SOL    HW278731   7.439   5.881  11.756
25764SOL     OW78732   7.783   7.021  12.233
25764SOL    HW178733   7.705   6.990  12.180
25764SOL    HW278734   7.841   7.079  12.176
25765SOL     OW78735   7.679   7.299  11.655
25765SOL    HW178736   7.713   7.376  11.709
25765SOL    HW278737   7.723   7.299  11.565
25766SOL     OW78738   7.678   7.020  11.710
25766SOL    HW178739   7.652   7.116  11.710
25766SOL    HW278740   7.607   6.966  11.755
25767SOL     OW78741   7.688   6.677  12.058
25767SOL    HW178742   7.702   6.593  12.110
25767SOL    HW278743   7.633   6.741  12.113
25768SOL     OW78744   7.570   6.229  11.735
25768SOL    HW178745   7.525   6.141  11.752
25768SOL    HW278746   7.569   6.283  11.819
25769SOL     OW78747   7.475   7.182  11.289
25769SOL    HW178748   7.456   7.086  11.310
25769SOL    HW278749   7.442   7.240  11.364
25770SOL     OW78750   7.561   6.323  12.769
25770SOL    HW178751   7.649   6.310  12.814
25770SOL    HW278752   7.548   6.420  12.747
25771SOL     OW78753   7.645   6.562  12.436
25771SOL    HW178754   7.734   6.517  12.422
25771SOL    HW278755   7.572   6.497  12.417
25772SOL     OW78756   8.046   6.315  11.442
25772SOL    HW178757   8.070   6.384  11.374
25772SOL    HW278758   7.968   6.348  11.496
25773SOL     OW78759   7.524   6.397  11.961
25773SOL    HW178760   7.623   6.385  11.970
25773SOL    HW278761   7.500   6.492  11.982
25774SOL     OW78762   7.998   5.782  12.057
25774SOL    HW178763   7.993   5.777  12.157
25774SOL    HW278764   8.000   5.878  12.028
25775SOL     OW78765   7.799   7.387  12.025
25775SOL    HW178766   7.849   7.301  12.031
25775SOL    HW278767   7.864   7.464  12.022
25776SOL     OW78768   7.769   6.529  11.414
25776SOL    HW178769   7.851   6.568  11.372
25776SOL    HW278770   7.742   6.447  11.365
25777SOL     OW78771   7.697   7.371  12.413
25777SOL    HW178772   7.754   7.306  12.463
25777SOL    HW278773   7.681   7.338  12.320
25778SOL     OW78774   7.830   6.286  11.652
25778SOL    HW178775   7.875   6.196  11.649
25778SOL    HW278776   7.736   6.275  11.685
25779SOL     OW78777   8.062   5.708  11.289
25779SOL    HW178778   8.160   5.686  11.296
25779SOL    HW278779   8.031   5.691  11.196
25780SOL     OW78780   7.987   5.650  11.684
25780SOL    HW178781   7.906   5.651  11.742
25780SOL    HW278782   7.990   5.733  11.629
25781SOL     OW78783   7.745   5.621  11.343
25781SOL    HW178784   7.794   5.705  11.322
25781SOL    HW278785   7.807   5.556  11.388
25782SOL     OW78786   7.907   6.738  11.913
25782SOL    HW178787   7.836   6.711  11.978
25782SOL    HW278788   7.881   6.710  11.820
25783SOL     OW78789   8.009   5.808  12.319
25783SOL    HW178790   8.047   5.724  12.356
25783SOL    HW278791   7.921   5.827  12.363
25784SOL     OW78792   7.858   6.399  12.423
25784SOL    HW178793   7.944   6.411  12.473
25784SOL    HW278794   7.816   6.312  12.450
25785SOL     OW78795   7.815   6.686  11.673
25785SOL    HW178796   7.808   6.769  11.617
25785SOL    HW278797   7.819   6.606  11.613
25786SOL     OW78798   8.014   6.123  12.037
25786SOL    HW178799   8.026   6.189  11.963
25786SOL    HW278800   8.060   6.157  12.120
25787SOL     OW78801   7.802   7.096  12.501
25787SOL    HW178802   7.781   7.052  12.414
25787SOL    HW278803   7.899   7.122  12.504
25788SOL     OW78804   7.850   6.337  12.770
25788SOL    HW178805   7.918   6.392  12.723
25788SOL    HW278806   7.890   6.249  12.797
25789SOL     OW78807   8.021   6.456  12.201
25789SOL    HW178808   8.065   6.545  12.192
25789SOL    HW278809   7.958   6.456  12.278
25790SOL     OW78810   7.755   5.799  12.403
25790SOL    HW178811   7.732   5.836  12.493
25790SOL    HW278812   7.725   5.704  12.397
25791SOL     OW78813   7.485   6.896  12.454
25791SOL    HW178814   7.538   6.847  12.522
25791SOL    HW278815   7.507   6.994  12.459
25792SOL     OW78816   7.755   5.649  11.790
25792SOL    HW178817   7.744   5.743  11.823
25792SOL    HW278818   7.750   5.586  11.867
25793SOL     OW78819   7.767   6.396  12.121
25793SOL    HW178820   7.860   6.432  12.126
25793SOL    HW278821   7.761   6.311  12.173
25794SOL     OW78822   7.787   6.095  12.178
25794SOL    HW178823   7.735   6.012  12.161
25794SOL    HW278824   7.864   6.100  12.114
25795SOL     OW78825   7.456   6.912  11.372
25795SOL    HW178826   7.363   6.933  11.341
25795SOL    HW278827   7.466   6.813  11.385
25796SOL     OW78828   7.536   7.387  12.099
25796SOL    HW178829   7.494   7.301  12.072
25796SOL    HW278830   7.630   7.390  12.065
25797SOL     OW78831   7.488   6.130  12.286
25797SOL    HW178832   7.573   6.097  12.245
25797SOL    HW278833   7.501   6.145  12.384
25798SOL     OW78834   8.263   6.158  11.497
25798SOL    HW178835   8.270   6.069  11.451
25798SOL    HW278836   8.169   6.192  11.489
25799SOL     OW78837   7.921   6.086  11.363
25799SOL    HW178838   7.982   6.166  11.367
25799SOL    HW278839   7.826   6.117  11.370
25800SOL     OW78840   7.531   6.844  12.194
25800SOL    HW178841   7.526   6.843  12.294
25800SOL    HW278842   7.448   6.803  12.156
25801SOL     OW78843   7.711   5.912  11.892
25801SOL    HW178844   7.632   5.963  11.858
25801SOL    HW278845   7.702   5.897  11.990
25802SOL     OW78846   8.038   7.073  11.663
25802SOL    HW178847   8.080   7.015  11.593
25802SOL    HW278848   7.994   7.152  11.619
25803SOL     OW78849   7.703   6.934  11.462
25803SOL    HW178850   7.607   6.935  11.435
25803SOL    HW278851   7.715   6.987  11.546
25804SOL     OW78852   7.523   5.931  11.205
25804SOL    HW178853   7.431   5.903  11.176
25804SOL    HW278854   7.554   6.008  11.149
25805SOL     OW78855   7.520   5.752  11.490
25805SOL    HW178856   7.503   5.835  11.436
25805SOL    HW278857   7.610   5.715  11.468
25806SOL     OW78858   7.838   7.327  12.732
25806SOL    HW178859   7.747   7.368  12.730
25806SOL    HW278860   7.831   7.233  12.764
25807SOL     OW78861   7.527   6.826  11.825
25807SOL    HW178862   7.526   6.779  11.913
25807SOL    HW278863   7.609   6.798  11.774
25808SOL     OW78864   7.487   6.663  11.472
25808SOL    HW178865   7.586   6.652  11.463
25808SOL    HW278866   7.447   6.577  11.504
25809SOL     OW78867   7.673   7.723   0.996
25809SOL    HW178868   7.708   7.706   1.088
25809SOL    HW278869   7.585   7.678   0.984
25810SOL     OW78870   7.467   7.816   0.647
25810SOL    HW178871   7.385   7.859   0.686
25810SOL    HW278872   7.439   7.743   0.584
25811SOL     OW78873   7.886   7.840   1.499
25811SOL    HW178874   7.968   7.784   1.508
25811SOL    HW278875   7.805   7.782   1.503
25812SOL     OW78876   7.570   8.091   0.563
25812SOL    HW178877   7.525   8.003   0.580
25812SOL    HW278878   7.569   8.145   0.647
25813SOL     OW78879   7.765   7.699   1.801
25813SOL    HW178880   7.836   7.770   1.807
25813SOL    HW278881   7.677   7.738   1.829
25814SOL     OW78882   7.998   7.644   0.885
25814SOL    HW178883   7.993   7.639   0.985
25814SOL    HW278884   8.000   7.740   0.856
25815SOL     OW78885   7.650   7.733   1.498
25815SOL    HW178886   7.570   7.793   1.485
25815SOL    HW278887   7.640   7.684   1.584
25816SOL     OW78888   8.062   7.570   0.117
25816SOL    HW178889   8.160   7.548   0.124
25816SOL    HW278890   8.031   7.553   0.024
25817SOL     OW78891   7.987   7.512   0.512
25817SOL    HW178892   7.906   7.513   0.570
25817SOL    HW278893   7.990   7.595   0.457
25818SOL     OW78894   7.526   8.004   1.386
25818SOL    HW178895   7.618   8.003   1.345
25818SOL    HW278896   7.520   8.078   1.453
25819SOL     OW78897   8.009   7.670   1.147
25819SOL    HW178898   8.047   7.586   1.184
25819SOL    HW278899   7.921   7.689   1.191
25820SOL     OW78900   8.014   7.985   0.865
25820SOL    HW178901   8.026   8.051   0.791
25820SOL    HW278902   8.060   8.019   0.948
25821SOL     OW78903   7.952   7.498   1.740
25821SOL    HW178904   7.910   7.441   1.670
25821SOL    HW278905   7.886   7.567   1.772
25822SOL     OW78906   7.755   7.661   1.231
25822SOL    HW178907   7.732   7.698   1.321
25822SOL    HW278908   7.725   7.566   1.225
25823SOL     OW78909   7.755   7.511   0.618
25823SOL    HW178910   7.744   7.605   0.651
25823SOL    HW278911   7.750   7.448   0.695
25824SOL     OW78912   7.787   7.957   1.006
25824SOL    HW178913   7.735   7.874   0.989
25824SOL    HW278914   7.864   7.962   0.942
25825SOL     OW78915   7.488   7.992   1.114
25825SOL    HW178916   7.573   7.959   1.073
25825SOL    HW278917   7.501   8.007   1.212
25826SOL     OW78918   7.637   7.968   1.722
25826SOL    HW178919   7.696   7.928   1.652
25826SOL    HW278920   7.579   8.039   1.681
25827SOL     OW78921   7.711   7.774   0.720
25827SOL    HW178922   7.632   7.825   0.686
25827SOL    HW278923   7.702   7.759   0.818
25828SOL     OW78924   7.520   7.614   0.318
25828SOL    HW178925   7.503   7.697   0.264
25828SOL    HW278926   7.610   7.577   0.296
25829SOL     OW78927   7.673   7.723   2.858
25829SOL    HW178928   7.708   7.706   2.950
25829SOL    HW278929   7.585   7.678   2.846
25830SOL     OW78930   7.467   7.816   2.509
25830SOL    HW178931   7.385   7.859   2.548
25830SOL    HW278932   7.439   7.743   2.446
25831SOL     OW78933   7.886   7.840   3.361
25831SOL    HW178934   7.968   7.784   3.370
25831SOL    HW278935   7.805   7.782   3.365
25832SOL     OW78936   7.570   8.091   2.425
25832SOL    HW178937   7.525   8.003   2.442
25832SOL    HW278938   7.569   8.145   2.509
25833SOL     OW78939   7.765   7.699   3.663
25833SOL    HW178940   7.836   7.770   3.669
25833SOL    HW278941   7.677   7.738   3.691
25834SOL     OW78942   7.998   7.644   2.747
25834SOL    HW178943   7.993   7.639   2.847
25834SOL    HW278944   8.000   7.740   2.718
25835SOL     OW78945   7.650   7.733   3.360
25835SOL    HW178946   7.570   7.793   3.347
25835SOL    HW278947   7.640   7.684   3.446
25836SOL     OW78948   8.062   7.570   1.979
25836SOL    HW178949   8.160   7.548   1.986
25836SOL    HW278950   8.031   7.553   1.886
25837SOL     OW78951   7.987   7.512   2.374
25837SOL    HW178952   7.906   7.513   2.432
25837SOL    HW278953   7.990   7.595   2.319
25838SOL     OW78954   7.745   7.483   2.033
25838SOL    HW178955   7.794   7.567   2.012
25838SOL    HW278956   7.807   7.418   2.078
25839SOL     OW78957   7.526   8.004   3.248
25839SOL    HW178958   7.618   8.003   3.207
25839SOL    HW278959   7.520   8.078   3.315
25840SOL     OW78960   8.009   7.670   3.009
25840SOL    HW178961   8.047   7.586   3.046
25840SOL    HW278962   7.921   7.689   3.053
25841SOL     OW78963   8.014   7.985   2.727
25841SOL    HW178964   8.026   8.051   2.653
25841SOL    HW278965   8.060   8.019   2.810
25842SOL     OW78966   7.952   7.498   3.602
25842SOL    HW178967   7.910   7.441   3.532
25842SOL    HW278968   7.886   7.567   3.634
25843SOL     OW78969   7.755   7.661   3.093
25843SOL    HW178970   7.732   7.698   3.183
25843SOL    HW278971   7.725   7.566   3.087
25844SOL     OW78972   7.755   7.511   2.480
25844SOL    HW178973   7.744   7.605   2.513
25844SOL    HW278974   7.750   7.448   2.557
25845SOL     OW78975   7.787   7.957   2.868
25845SOL    HW178976   7.735   7.874   2.851
25845SOL    HW278977   7.864   7.962   2.804
25846SOL     OW78978   7.488   7.992   2.976
25846SOL    HW178979   7.573   7.959   2.935
25846SOL    HW278980   7.501   8.007   3.074
25847SOL     OW78981   7.637   7.968   3.584
25847SOL    HW178982   7.696   7.928   3.514
25847SOL    HW278983   7.579   8.039   3.543
25848SOL     OW78984   7.711   7.774   2.582
25848SOL    HW178985   7.632   7.825   2.548
25848SOL    HW278986   7.702   7.759   2.680
25849SOL     OW78987   7.523   7.793   1.895
25849SOL    HW178988   7.431   7.765   1.866
25849SOL    HW278989   7.554   7.870   1.839
25850SOL     OW78990   7.520   7.614   2.180
25850SOL    HW178991   7.503   7.697   2.126
25850SOL    HW278992   7.610   7.577   2.158
25851SOL     OW78993   7.673   7.723   4.720
25851SOL    HW178994   7.708   7.706   4.812
25851SOL    HW278995   7.585   7.678   4.708
25852SOL     OW78996   7.467   7.816   4.371
25852SOL    HW178997   7.385   7.859   4.410
25852SOL    HW278998   7.439   7.743   4.308
25853SOL     OW78999   7.886   7.840   5.223
25853SOL    HW179000   7.968   7.784   5.232
25853SOL    HW279001   7.805   7.782   5.227
25854SOL     OW79002   7.570   8.091   4.287
25854SOL    HW179003   7.525   8.003   4.304
25854SOL    HW279004   7.569   8.145   4.371
25855SOL     OW79005   7.765   7.699   5.525
25855SOL    HW179006   7.836   7.770   5.531
25855SOL    HW279007   7.677   7.738   5.553
25856SOL     OW79008   7.998   7.644   4.609
25856SOL    HW179009   7.993   7.639   4.709
25856SOL    HW279010   8.000   7.740   4.580
25857SOL     OW79011   7.650   7.733   5.222
25857SOL    HW179012   7.570   7.793   5.209
25857SOL    HW279013   7.640   7.684   5.308
25858SOL     OW79014   8.062   7.570   3.841
25858SOL    HW179015   8.160   7.548   3.848
25858SOL    HW279016   8.031   7.553   3.748
25859SOL     OW79017   7.987   7.512   4.236
25859SOL    HW179018   7.906   7.513   4.294
25859SOL    HW279019   7.990   7.595   4.181
25860SOL     OW79020   7.745   7.483   3.895
25860SOL    HW179021   7.794   7.567   3.874
25860SOL    HW279022   7.807   7.418   3.940
25861SOL     OW79023   7.526   8.004   5.110
25861SOL    HW179024   7.618   8.003   5.069
25861SOL    HW279025   7.520   8.078   5.177
25862SOL     OW79026   8.009   7.670   4.871
25862SOL    HW179027   8.047   7.586   4.908
25862SOL    HW279028   7.921   7.689   4.915
25863SOL     OW79029   8.014   7.985   4.589
25863SOL    HW179030   8.026   8.051   4.515
25863SOL    HW279031   8.060   8.019   4.672
25864SOL     OW79032   7.952   7.498   5.464
25864SOL    HW179033   7.910   7.441   5.394
25864SOL    HW279034   7.886   7.567   5.496
25865SOL     OW79035   7.755   7.661   4.955
25865SOL    HW179036   7.732   7.698   5.045
25865SOL    HW279037   7.725   7.566   4.949
25866SOL     OW79038   7.755   7.511   4.342
25866SOL    HW179039   7.744   7.605   4.375
25866SOL    HW279040   7.750   7.448   4.419
25867SOL     OW79041   7.787   7.957   4.730
25867SOL    HW179042   7.735   7.874   4.713
25867SOL    HW279043   7.864   7.962   4.666
25868SOL     OW79044   7.488   7.992   4.838
25868SOL    HW179045   7.573   7.959   4.797
25868SOL    HW279046   7.501   8.007   4.936
25869SOL     OW79047   7.637   7.968   5.446
25869SOL    HW179048   7.696   7.928   5.376
25869SOL    HW279049   7.579   8.039   5.405
25870SOL     OW79050   7.711   7.774   4.444
25870SOL    HW179051   7.632   7.825   4.410
25870SOL    HW279052   7.702   7.759   4.542
25871SOL     OW79053   7.523   7.793   3.757
25871SOL    HW179054   7.431   7.765   3.728
25871SOL    HW279055   7.554   7.870   3.701
25872SOL     OW79056   7.520   7.614   4.042
25872SOL    HW179057   7.503   7.697   3.988
25872SOL    HW279058   7.610   7.577   4.020
25873SOL     OW79059   7.673   7.723   6.582
25873SOL    HW179060   7.708   7.706   6.674
25873SOL    HW279061   7.585   7.678   6.570
25874SOL     OW79062   7.467   7.816   6.233
25874SOL    HW179063   7.385   7.859   6.272
25874SOL    HW279064   7.439   7.743   6.170
25875SOL     OW79065   7.886   7.840   7.085
25875SOL    HW179066   7.968   7.784   7.094
25875SOL    HW279067   7.805   7.782   7.089
25876SOL     OW79068   7.570   8.091   6.149
25876SOL    HW179069   7.525   8.003   6.166
25876SOL    HW279070   7.569   8.145   6.233
25877SOL     OW79071   7.765   7.699   7.387
25877SOL    HW179072   7.836   7.770   7.393
25877SOL    HW279073   7.677   7.738   7.415
25878SOL     OW79074   7.998   7.644   6.471
25878SOL    HW179075   7.993   7.639   6.571
25878SOL    HW279076   8.000   7.740   6.442
25879SOL     OW79077   7.650   7.733   7.084
25879SOL    HW179078   7.570   7.793   7.071
25879SOL    HW279079   7.640   7.684   7.170
25880SOL     OW79080   7.987   7.512   6.098
25880SOL    HW179081   7.906   7.513   6.156
25880SOL    HW279082   7.990   7.595   6.043
25881SOL     OW79083   7.745   7.483   5.757
25881SOL    HW179084   7.794   7.567   5.736
25881SOL    HW279085   7.807   7.418   5.802
25882SOL     OW79086   7.526   8.004   6.972
25882SOL    HW179087   7.618   8.003   6.931
25882SOL    HW279088   7.520   8.078   7.039
25883SOL     OW79089   8.009   7.670   6.733
25883SOL    HW179090   8.047   7.586   6.770
25883SOL    HW279091   7.921   7.689   6.777
25884SOL     OW79092   8.014   7.985   6.451
25884SOL    HW179093   8.026   8.051   6.377
25884SOL    HW279094   8.060   8.019   6.534
25885SOL     OW79095   7.952   7.498   7.326
25885SOL    HW179096   7.910   7.441   7.256
25885SOL    HW279097   7.886   7.567   7.358
25886SOL     OW79098   7.755   7.661   6.817
25886SOL    HW179099   7.732   7.698   6.907
25886SOL    HW279100   7.725   7.566   6.811
25887SOL     OW79101   7.755   7.511   6.204
25887SOL    HW179102   7.744   7.605   6.237
25887SOL    HW279103   7.750   7.448   6.281
25888SOL     OW79104   7.787   7.957   6.592
25888SOL    HW179105   7.735   7.874   6.575
25888SOL    HW279106   7.864   7.962   6.528
25889SOL     OW79107   7.488   7.992   6.700
25889SOL    HW179108   7.573   7.959   6.659
25889SOL    HW279109   7.501   8.007   6.798
25890SOL     OW79110   7.637   7.968   7.308
25890SOL    HW179111   7.696   7.928   7.238
25890SOL    HW279112   7.579   8.039   7.267
25891SOL     OW79113   7.711   7.774   6.306
25891SOL    HW179114   7.632   7.825   6.272
25891SOL    HW279115   7.702   7.759   6.404
25892SOL     OW79116   7.523   7.793   5.619
25892SOL    HW179117   7.431   7.765   5.590
25892SOL    HW279118   7.554   7.870   5.563
25893SOL     OW79119   7.520   7.614   5.904
25893SOL    HW179120   7.503   7.697   5.850
25893SOL    HW279121   7.610   7.577   5.882
25894SOL     OW79122   7.673   7.723   8.444
25894SOL    HW179123   7.708   7.706   8.536
25894SOL    HW279124   7.585   7.678   8.432
25895SOL     OW79125   7.467   7.816   8.095
25895SOL    HW179126   7.385   7.859   8.134
25895SOL    HW279127   7.439   7.743   8.032
25896SOL     OW79128   7.886   7.840   8.947
25896SOL    HW179129   7.968   7.784   8.956
25896SOL    HW279130   7.805   7.782   8.951
25897SOL     OW79131   7.570   8.091   8.011
25897SOL    HW179132   7.525   8.003   8.028
25897SOL    HW279133   7.569   8.145   8.095
25898SOL     OW79134   7.765   7.699   9.249
25898SOL    HW179135   7.836   7.770   9.255
25898SOL    HW279136   7.677   7.738   9.277
25899SOL     OW79137   7.998   7.644   8.333
25899SOL    HW179138   7.993   7.639   8.433
25899SOL    HW279139   8.000   7.740   8.304
25900SOL     OW79140   7.650   7.733   8.946
25900SOL    HW179141   7.570   7.793   8.933
25900SOL    HW279142   7.640   7.684   9.032
25901SOL     OW79143   8.062   7.570   7.565
25901SOL    HW179144   8.160   7.548   7.572
25901SOL    HW279145   8.031   7.553   7.472
25902SOL     OW79146   7.987   7.512   7.960
25902SOL    HW179147   7.906   7.513   8.018
25902SOL    HW279148   7.990   7.595   7.905
25903SOL     OW79149   7.745   7.483   7.619
25903SOL    HW179150   7.794   7.567   7.598
25903SOL    HW279151   7.807   7.418   7.664
25904SOL     OW79152   7.526   8.004   8.834
25904SOL    HW179153   7.618   8.003   8.793
25904SOL    HW279154   7.520   8.078   8.901
25905SOL     OW79155   8.009   7.670   8.595
25905SOL    HW179156   8.047   7.586   8.632
25905SOL    HW279157   7.921   7.689   8.639
25906SOL     OW79158   8.014   7.985   8.313
25906SOL    HW179159   8.026   8.051   8.239
25906SOL    HW279160   8.060   8.019   8.396
25907SOL     OW79161   7.952   7.498   9.188
25907SOL    HW179162   7.910   7.441   9.118
25907SOL    HW279163   7.886   7.567   9.220
25908SOL     OW79164   7.755   7.661   8.679
25908SOL    HW179165   7.732   7.698   8.769
25908SOL    HW279166   7.725   7.566   8.673
25909SOL     OW79167   7.755   7.511   8.066
25909SOL    HW179168   7.744   7.605   8.099
25909SOL    HW279169   7.750   7.448   8.143
25910SOL     OW79170   7.787   7.957   8.454
25910SOL    HW179171   7.735   7.874   8.437
25910SOL    HW279172   7.864   7.962   8.390
25911SOL     OW79173   7.488   7.992   8.562
25911SOL    HW179174   7.573   7.959   8.521
25911SOL    HW279175   7.501   8.007   8.660
25912SOL     OW79176   7.637   7.968   9.170
25912SOL    HW179177   7.696   7.928   9.100
25912SOL    HW279178   7.579   8.039   9.129
25913SOL     OW79179   7.711   7.774   8.168
25913SOL    HW179180   7.632   7.825   8.134
25913SOL    HW279181   7.702   7.759   8.266
25914SOL     OW79182   7.523   7.793   7.481
25914SOL    HW179183   7.431   7.765   7.452
25914SOL    HW279184   7.554   7.870   7.425
25915SOL     OW79185   7.520   7.614   7.766
25915SOL    HW179186   7.503   7.697   7.712
25915SOL    HW279187   7.610   7.577   7.744
25916SOL     OW79188   7.673   7.723  10.306
25916SOL    HW179189   7.708   7.706  10.398
25916SOL    HW279190   7.585   7.678  10.294
25917SOL     OW79191   7.467   7.816   9.957
25917SOL    HW179192   7.385   7.859   9.996
25917SOL    HW279193   7.439   7.743   9.894
25918SOL     OW79194   7.886   7.840  10.809
25918SOL    HW179195   7.968   7.784  10.818
25918SOL    HW279196   7.805   7.782  10.813
25919SOL     OW79197   7.570   8.091   9.873
25919SOL    HW179198   7.525   8.003   9.890
25919SOL    HW279199   7.569   8.145   9.957
25920SOL     OW79200   7.765   7.699  11.111
25920SOL    HW179201   7.836   7.770  11.117
25920SOL    HW279202   7.677   7.738  11.139
25921SOL     OW79203   7.998   7.644  10.195
25921SOL    HW179204   7.993   7.639  10.295
25921SOL    HW279205   8.000   7.740  10.166
25922SOL     OW79206   7.650   7.733  10.808
25922SOL    HW179207   7.570   7.793  10.795
25922SOL    HW279208   7.640   7.684  10.894
25923SOL     OW79209   8.062   7.570   9.427
25923SOL    HW179210   8.160   7.548   9.434
25923SOL    HW279211   8.031   7.553   9.334
25924SOL     OW79212   7.987   7.512   9.822
25924SOL    HW179213   7.906   7.513   9.880
25924SOL    HW279214   7.990   7.595   9.767
25925SOL     OW79215   7.745   7.483   9.481
25925SOL    HW179216   7.794   7.567   9.460
25925SOL    HW279217   7.807   7.418   9.526
25926SOL     OW79218   7.526   8.004  10.696
25926SOL    HW179219   7.618   8.003  10.655
25926SOL    HW279220   7.520   8.078  10.763
25927SOL     OW79221   8.009   7.670  10.457
25927SOL    HW179222   8.047   7.586  10.494
25927SOL    HW279223   7.921   7.689  10.501
25928SOL     OW79224   8.014   7.985  10.175
25928SOL    HW179225   8.026   8.051  10.101
25928SOL    HW279226   8.060   8.019  10.258
25929SOL     OW79227   7.952   7.498  11.050
25929SOL    HW179228   7.910   7.441  10.980
25929SOL    HW279229   7.886   7.567  11.082
25930SOL     OW79230   7.755   7.661  10.541
25930SOL    HW179231   7.732   7.698  10.631
25930SOL    HW279232   7.725   7.566  10.535
25931SOL     OW79233   7.755   7.511   9.928
25931SOL    HW179234   7.744   7.605   9.961
25931SOL    HW279235   7.750   7.448  10.005
25932SOL     OW79236   7.787   7.957  10.316
25932SOL    HW179237   7.735   7.874  10.299
25932SOL    HW279238   7.864   7.962  10.252
25933SOL     OW79239   7.488   7.992  10.424
25933SOL    HW179240   7.573   7.959  10.383
25933SOL    HW279241   7.501   8.007  10.522
25934SOL     OW79242   7.637   7.968  11.032
25934SOL    HW179243   7.696   7.928  10.962
25934SOL    HW279244   7.579   8.039  10.991
25935SOL     OW79245   7.711   7.774  10.030
25935SOL    HW179246   7.632   7.825   9.996
25935SOL    HW279247   7.702   7.759  10.128
25936SOL     OW79248   7.523   7.793   9.343
25936SOL    HW179249   7.431   7.765   9.314
25936SOL    HW279250   7.554   7.870   9.287
25937SOL     OW79251   7.520   7.614   9.628
25937SOL    HW179252   7.503   7.697   9.574
25937SOL    HW279253   7.610   7.577   9.606
25938SOL     OW79254   7.673   7.723  12.168
25938SOL    HW179255   7.708   7.706  12.260
25938SOL    HW279256   7.585   7.678  12.156
25939SOL     OW79257   7.467   7.816  11.819
25939SOL    HW179258   7.385   7.859  11.858
25939SOL    HW279259   7.439   7.743  11.756
25940SOL     OW79260   7.886   7.840  12.671
25940SOL    HW179261   7.968   7.784  12.680
25940SOL    HW279262   7.805   7.782  12.675
25941SOL     OW79263   7.570   8.091  11.735
25941SOL    HW179264   7.525   8.003  11.752
25941SOL    HW279265   7.569   8.145  11.819
25942SOL     OW79266   7.998   7.644  12.057
25942SOL    HW179267   7.993   7.639  12.157
25942SOL    HW279268   8.000   7.740  12.028
25943SOL     OW79269   8.062   7.570  11.289
25943SOL    HW179270   8.160   7.548  11.296
25943SOL    HW279271   8.031   7.553  11.196
25944SOL     OW79272   7.987   7.512  11.684
25944SOL    HW179273   7.906   7.513  11.742
25944SOL    HW279274   7.990   7.595  11.629
25945SOL     OW79275   7.745   7.483  11.343
25945SOL    HW179276   7.794   7.567  11.322
25945SOL    HW279277   7.807   7.418  11.388
25946SOL     OW79278   7.526   8.004  12.558
25946SOL    HW179279   7.618   8.003  12.517
25946SOL    HW279280   7.520   8.078  12.625
25947SOL     OW79281   8.009   7.670  12.319
25947SOL    HW179282   8.047   7.586  12.356
25947SOL    HW279283   7.921   7.689  12.363
25948SOL     OW79284   8.014   7.985  12.037
25948SOL    HW179285   8.026   8.051  11.963
25948SOL    HW279286   8.060   8.019  12.120
25949SOL     OW79287   7.850   8.199  12.770
25949SOL    HW179288   7.918   8.254  12.723
25949SOL    HW279289   7.890   8.111  12.797
25950SOL     OW79290   7.755   7.661  12.403
25950SOL    HW179291   7.732   7.698  12.493
25950SOL    HW279292   7.725   7.566  12.397
25951SOL     OW79293   7.755   7.511  11.790
25951SOL    HW179294   7.744   7.605  11.823
25951SOL    HW279295   7.750   7.448  11.867
25952SOL     OW79296   7.787   7.957  12.178
25952SOL    HW179297   7.735   7.874  12.161
25952SOL    HW279298   7.864   7.962  12.114
25953SOL     OW79299   7.488   7.992  12.286
25953SOL    HW179300   7.573   7.959  12.245
25953SOL    HW279301   7.501   8.007  12.384
25954SOL     OW79302   7.711   7.774  11.892
25954SOL    HW179303   7.632   7.825  11.858
25954SOL    HW279304   7.702   7.759  11.990
25955SOL     OW79305   7.523   7.793  11.205
25955SOL    HW179306   7.431   7.765  11.176
25955SOL    HW279307   7.554   7.870  11.149
25956SOL     OW79308   7.520   7.614  11.490
25956SOL    HW179309   7.503   7.697  11.436
25956SOL    HW279310   7.610   7.577  11.468
25957NA      NA79311   0.620   1.786   3.301
25958NA      NA79312   1.440   0.856   8.846
25959NA      NA79313   0.122   0.643  11.735
25960NA      NA79314   1.032   0.549  11.188
25961NA      NA79315   0.807   2.467   3.327
25962NA      NA79316   0.402   2.613   5.322
25963NA      NA79317   1.493   3.629   4.683
25964NA      NA79318   0.464   3.605   7.771
25965NA      NA79319   1.271   3.659   8.039
25966NA      NA79320   0.230   4.352   5.699
25967NA      NA79321   1.466   5.141  12.125
25968NA      NA79322   0.390   7.327   7.146
25969NA      NA79323   0.317   6.133   8.728
25970NA      NA79324   1.002   6.382  10.548
25971NA      NA79325   1.225   5.911   9.759
25972NA      NA79326   0.202   7.733  10.808
25973NA      NA79327   2.802   1.698   0.904
25974NA      NA79328   3.213   0.590   8.881
25975NA      NA79329   2.093   3.575   0.483
25976NA      NA79330   2.272   2.675   6.837
25977NA      NA79331   2.321   4.876  11.913
25978NA      NA79332   3.686   7.640   8.675
25979NA      NA79333   2.401   7.512  11.684
25980NA      NA79334   4.293   1.275   1.165
25981NA      NA79335   5.190   3.279   0.953
25982NA      NA79336   4.639   1.951   6.988
25983NA      NA79337   4.659   2.098   7.928
25984NA      NA79338   4.951   7.136   3.368
25985NA      NA79339   4.704   6.702   5.443
25986NA      NA79340   3.796   7.614   4.042
25987NA      NA79341   5.027   8.286  11.214
25988NA      NA79342   4.884   7.655  12.649
25989NA      NA79343   6.937   0.590   3.295
25990NA      NA79344   7.126   0.274   1.987
25991NA      NA79345   6.721   0.703   8.165
25992NA      NA79346   5.807   1.314  11.154
25993NA      NA79347   5.669   1.258  12.194
25994NA      NA79348   7.052   3.279   4.677
25995NA      NA79349   5.661   2.207   3.757
25996NA      NA79350   5.816   5.158   0.538
25997NA      NA79351   7.179   3.945  12.054
25998NA      NA79352   6.291   6.636   0.368
25999NA      NA79353   5.613   7.182   1.979
26000NA      NA79354   7.669   1.314   3.706
26001NA      NA79355   7.637   0.520   9.170
26002NA      NA79356   7.799   3.663   6.439
26003NA      NA79357   7.850   4.475   3.460
26004NA      NA79358   8.062   7.570   5.703
   8.00000   8.00000  12.50000
