Protein in water
79358
    1DC     O5'    1   4.534   3.410   6.136 -0.1269  0.4388 -0.1589
    1DC     H5T    2   4.565   3.448   6.219  2.5759  0.3524 -1.0638
    1DC     C5'    3   4.435   3.310   6.147 -0.1891  0.4828 -0.3144
    1DC    H5'1    4   4.476   3.212   6.122  1.1473  0.9366  0.0334
    1DC    H5'2    5   4.360   3.334   6.072  0.2808 -1.3803 -1.4611
    1DC     C4'    6   4.360   3.313   6.280  0.1568  0.1684 -0.1103
    1DC     H4'    7   4.331   3.414   6.305  0.3468  0.0106  0.7747
    1DC     O4'    8   4.245   3.231   6.273  0.4617 -0.2476 -0.2983
    1DC     C1'    9   4.231   3.193   6.408  0.8059  0.2356 -0.1242
    1DC     H1'   10   4.205   3.286   6.460  0.2981  0.2607 -0.4203
    1DC      N1   11   4.121   3.095   6.414  0.5227  0.5724  0.2795
    1DC      C6   12   4.151   2.967   6.452 -0.0569  0.3201 -0.1002
    1DC      H6   13   4.254   2.941   6.469  0.1226  1.3610  0.4686
    1DC      C5   14   4.053   2.876   6.471  0.1243  0.2069  0.2881
    1DC      H5   15   4.075   2.775   6.504 -1.5738 -0.8260 -1.5762
    1DC      C4   16   3.919   2.922   6.455 -0.0442 -0.3151  0.1851
    1DC      N4   17   3.820   2.833   6.465  0.6207 -1.0860  0.0143
    1DC     H41   18   3.839   2.743   6.508  1.9597  0.0464  1.9167
    1DC     H42   19   3.729   2.876   6.473  1.1837 -0.0457  1.1408
    1DC      N3   20   3.885   3.044   6.410  0.5908 -0.2136 -0.0312
    1DC      C2   21   3.989   3.128   6.389  0.4669 -0.1630 -0.4561
    1DC      O2   22   3.950   3.241   6.361  0.0741 -0.1904 -0.0395
    1DC     C3'   23   4.452   3.275   6.396  0.1251  0.1522 -0.0902
    1DC     H3'   24   4.549   3.248   6.356  0.7286  1.9986  0.0197
    1DC     C2'   25   4.374   3.153   6.444  0.6752 -0.2049 -0.0980
    1DC    H2'1   26   4.399   3.067   6.382 -0.6130 -1.0514  0.5080
    1DC    H2'2   27   4.388   3.120   6.547  0.9559 -1.1235 -0.4174
    1DC     O3'   28   4.458   3.351   6.515  0.1004 -0.3779  0.2523
    2DG       P   29   4.524   3.498   6.517 -0.1439 -0.2648  0.0818
    2DG     O1P   30   4.575   3.533   6.383 -0.4404  0.4124  0.1449
    2DG     O2P   31   4.614   3.505   6.634  0.1627  0.0331 -0.1686
    2DG     O5'   32   4.408   3.600   6.560  0.1710  0.1705 -0.0862
    2DG     C5'   33   4.367   3.705   6.476  0.7481  0.4929  0.0358
    2DG    H5'1   34   4.332   3.671   6.379  1.1462  0.3949 -0.0748
    2DG    H5'2   35   4.457   3.765   6.459  1.1033 -0.3728 -1.3313
    2DG     C4'   36   4.252   3.787   6.535  0.2635 -0.1328 -0.0325
    2DG     H4'   37   4.243   3.868   6.462  1.4325 -0.7805 -0.9420
    2DG     O4'   38   4.136   3.708   6.544 -0.1327  0.4966  0.3970
    2DG     C1'   39   4.104   3.683   6.678 -0.3668  0.0100  0.2510
    2DG     H1'   40   4.014   3.740   6.700  0.0686  0.2853  1.3956
    2DG      N9   41   4.075   3.538   6.681 -0.1218 -0.0475 -0.2447
    2DG      C8   42   4.161   3.433   6.702 -0.5647 -0.3838 -0.1106
    2DG      H8   43   4.267   3.452   6.712 -1.2081  2.9226  1.3863
    2DG      N7   44   4.103   3.316   6.708 -0.5147 -0.3764  0.4974
    2DG      C5   45   3.970   3.347   6.681 -0.2959  0.0461 -0.1039
    2DG      C6   46   3.859   3.260   6.672 -0.3393 -0.0269  1.0069
    2DG      O6   47   3.849   3.137   6.674 -0.2888 -0.0605 -0.2555
    2DG      N1   48   3.741   3.331   6.654 -0.3122 -0.2574 -0.1271
    2DG      H1   49   3.661   3.271   6.643 -0.0772 -0.4684 -0.7490
    2DG      C2   50   3.733   3.469   6.652  0.2172 -0.2240  0.0392
    2DG      N2   51   3.608   3.517   6.653  0.3625  0.1669 -0.2752
    2DG     H21   52   3.530   3.456   6.634  0.8983 -0.5995 -0.0408
    2DG     H22   53   3.603   3.618   6.651  2.6875  0.3291 -1.1527
    2DG      N3   54   3.835   3.554   6.671 -0.0726  0.1868 -0.2294
    2DG      C4   55   3.950   3.483   6.682 -0.1679  0.0638 -0.0489
    2DG     C3'   56   4.278   3.842   6.675  0.4508 -0.1368 -0.0657
    2DG     H3'   57   4.384   3.855   6.696 -0.0560  0.2848  2.5892
    2DG     C2'   58   4.222   3.731   6.762  0.3823 -0.4626 -0.5198
    2DG    H2'1   59   4.300   3.655   6.771  0.6323 -0.2816 -1.1495
    2DG    H2'2   60   4.191   3.768   6.860  1.3023 -0.0766 -0.3619
    2DG     O3'   61   4.222   3.970   6.693  0.0779 -0.2493 -0.4145
    3DA       P   62   4.246   4.045   6.833  0.3192 -0.4077 -0.3695
    3DA     O1P   63   4.260   4.189   6.802 -0.7591 -0.1031  0.4705
    3DA     O2P   64   4.350   3.979   6.914 -0.0767 -0.1016  0.4083
    3DA     O5'   65   4.107   4.038   6.914  0.3029  0.6670 -0.2817
    3DA     C5'   66   3.993   4.110   6.873 -0.3994 -0.2399  0.0308
    3DA    H5'1   67   3.983   4.116   6.765 -0.3671 -0.3285  0.0232
    3DA    H5'2   68   3.998   4.213   6.909  1.6343 -0.6405  1.0191
    3DA     C4'   69   3.857   4.062   6.923 -0.5878  0.0670 -0.1857
    3DA     H4'   70   3.774   4.115   6.876 -0.9142 -0.7118 -0.5089
    3DA     O4'   71   3.844   3.924   6.900 -0.2186 -0.0192  0.1224
    3DA     C1'   72   3.805   3.863   7.021  0.2024 -0.4256  0.0574
    3DA     H1'   73   3.696   3.858   7.016  0.0469  1.4481  0.8065
    3DA      N9   74   3.870   3.731   7.014  0.5741 -0.2412 -0.0043
    3DA      C8   75   4.000   3.693   7.034  0.4547 -0.4130  0.4736
    3DA      H8   76   4.077   3.768   7.046 -0.2221 -0.0139  2.7553
    3DA      N7   77   4.022   3.566   7.019  0.0067 -0.3970 -0.4176
    3DA      C5   78   3.896   3.511   7.003 -0.2403  0.0717 -0.1030
    3DA      C6   79   3.841   3.382   6.991 -0.2223  0.0917 -0.4132
    3DA      N6   80   3.897   3.261   6.998  0.2947  0.3690  0.2881
    3DA     H61   81   3.997   3.263   7.016  0.8983 -1.3717 -2.3238
    3DA     H62   82   3.844   3.176   7.007 -0.2415  0.8100  1.5278
    3DA      N1   83   3.708   3.366   6.993 -0.1854 -0.1822 -0.0745
    3DA      C2   84   3.630   3.473   7.003 -0.3395 -0.2777 -0.2515
    3DA      H2   85   3.525   3.448   7.015 -0.3887  0.0505 -0.0167
    3DA      N3   86   3.667   3.599   7.012 -0.0595 -0.3712 -0.0884
    3DA      C4   87   3.802   3.611   7.006 -0.1303  0.1947 -0.6933
    3DA     C3'   88   3.832   4.090   7.071 -0.0197 -0.0853 -0.0601
    3DA     H3'   89   3.908   4.155   7.113  0.9522 -0.3873 -1.3050
    3DA     C2'   90   3.856   3.952   7.133  0.2837 -0.1099 -0.2297
    3DA    H2'1   91   3.964   3.942   7.140  0.1982 -0.9569 -0.0673
    3DA    H2'2   92   3.803   3.929   7.225  0.5398 -2.1165 -0.5490
    3DA     O3'   93   3.706   4.148   7.095  0.0200 -0.0984  0.1787
    4DC       P   94   3.658   4.192   7.242 -0.1574 -0.1180  0.1263
    4DC     O1P   95   3.538   4.276   7.219  0.3518  0.7749  0.6198
    4DC     O2P   96   3.770   4.245   7.323  0.1297 -0.2505 -0.1854
    4DC     O5'   97   3.608   4.059   7.318  0.0184 -0.0736  0.3223
    4DC     C5'   98   3.496   3.981   7.281 -0.0949  0.3339 -0.2086
    4DC    H5'1   99   3.511   3.948   7.178 -1.5399  1.5098 -0.8238
    4DC    H5'2  100   3.408   4.044   7.291 -0.7034 -0.6893  1.0875
    4DC     C4'  101   3.475   3.863   7.374  0.6277  0.2305 -0.1710
    4DC     H4'  102   3.371   3.831   7.381  1.0594 -1.5781 -1.2808
    4DC     O4'  103   3.547   3.751   7.325  0.1113 -0.2892  0.2425
    4DC     C1'  104   3.594   3.679   7.436  0.3571  0.1068  0.3994
    4DC     H1'  105   3.512   3.620   7.478  0.1423  0.2511  0.1818
    4DC      N1  106   3.699   3.587   7.387  0.0232 -0.0364 -0.0540
    4DC      C6  107   3.821   3.633   7.347  0.1256 -0.3664 -0.1194
    4DC      H6  108   3.824   3.741   7.337  1.2317 -0.3389  0.4863
    4DC      C5  109   3.927   3.553   7.328  0.1255 -0.3847 -0.0379
    4DC      H5  110   4.017   3.610   7.307 -1.6128  2.4470 -0.3262
    4DC      C4  111   3.900   3.413   7.344  0.0615 -0.3152  0.4611
    4DC      N4  112   3.991   3.317   7.327  0.3269 -0.0170  0.1812
    4DC     H41  113   4.083   3.345   7.295  0.2707 -1.9948 -2.0082
    4DC     H42  114   3.961   3.223   7.351  0.9849 -1.0501 -2.6101
    4DC      N3  115   3.782   3.367   7.387  0.0167 -0.5013  0.1414
    4DC      C2  116   3.677   3.452   7.402  0.3413 -0.0772  0.0387
    4DC      O2  117   3.571   3.405   7.444  0.4160 -0.1959  0.0934
    4DC     C3'  118   3.518   3.885   7.519  0.4552 -0.0932 -0.0693
    4DC     H3'  119   3.561   3.984   7.534  2.3282 -0.7882 -0.4807
    4DC     C2'  120   3.635   3.788   7.534  0.5914  0.1237  0.2808
    4DC    H2'1  121   3.724   3.840   7.498 -0.5450  1.7605 -0.2498
    4DC    H2'2  122   3.640   3.751   7.637  0.1268 -0.7682 -0.0051
    4DC     O3'  123   3.404   3.852   7.596  0.4046 -0.0615 -0.1309
    5DT       P  124   3.397   3.856   7.756  0.1535 -0.1628 -0.1387
    5DT     O1P  125   3.258   3.880   7.800  0.3581  0.1936  0.3368
    5DT     O2P  126   3.506   3.945   7.804 -0.2241  0.1151  0.2071
    5DT     O5'  127   3.434   3.708   7.806 -0.5363 -0.2500  0.1227
    5DT     C5'  128   3.362   3.593   7.767 -0.1431 -0.3868 -0.2141
    5DT    H5'1  129   3.363   3.593   7.658  1.2641  3.2201 -0.3495
    5DT    H5'2  130   3.260   3.607   7.804 -0.5139 -0.1004 -1.2860
    5DT     C4'  131   3.408   3.456   7.816  0.1076 -0.1366  0.2556
    5DT     H4'  132   3.335   3.378   7.798  0.6366 -0.3923 -0.9367
    5DT     O4'  133   3.527   3.417   7.750  0.4053  0.9394  0.1265
    5DT     C1'  134   3.594   3.329   7.838 -0.1928  0.2178 -0.1230
    5DT     H1'  135   3.547   3.233   7.821 -0.5749  0.1010  1.5251
    5DT      N1  136   3.737   3.318   7.802 -0.2647  0.1385 -0.3866
    5DT      C6  137   3.811   3.426   7.765  0.0724  0.0603  0.0448
    5DT      H6  138   3.768   3.524   7.782  0.1161  0.0399  0.2671
    5DT      C5  139   3.933   3.413   7.707  0.0074 -0.3107 -0.0082
    5DT      C7  140   3.998   3.541   7.662 -0.2214 -0.2122 -0.0590
    5DT     H71  141   4.034   3.520   7.561  0.3081 -0.7163  0.2306
    5DT     H72  142   3.920   3.618   7.668 -1.0142 -1.1310  2.9823
    5DT     H73  143   4.086   3.568   7.720 -1.1908  0.2213  1.2668
    5DT      C4  144   3.989   3.281   7.699  0.1514 -0.2230 -0.4147
    5DT      O4  145   4.106   3.251   7.675  0.0493 -0.3602 -0.7598
    5DT      N3  146   3.906   3.171   7.719 -0.1213  0.0827  0.1432
    5DT      H3  147   3.939   3.077   7.734  0.0505  0.1149 -0.0281
    5DT      C2  148   3.784   3.190   7.783 -0.3295  0.0955 -0.2568
    5DT      O2  149   3.736   3.087   7.831  0.2355  0.1312  0.4080
    5DT     C3'  150   3.433   3.456   7.966  0.1405  0.4889  0.2557
    5DT     H3'  151   3.438   3.559   8.001  1.3061  0.2762  0.7537
    5DT     C2'  152   3.567   3.384   7.978 -0.0961 -0.0004 -0.0194
    5DT    H2'1  153   3.640   3.459   8.007  1.8867 -0.8923 -2.3746
    5DT    H2'2  154   3.562   3.300   8.048  1.8277  0.1938  0.3937
    5DT     O3'  155   3.326   3.389   8.029  0.1527  0.2173 -0.0095
    6DC       P  156   3.299   3.385   8.188 -0.0467  0.0347 -0.0459
    6DC     O1P  157   3.155   3.365   8.212 -0.0663  0.2613  0.0251
    6DC     O2P  158   3.374   3.498   8.248 -0.2537  0.0485  0.1867
    6DC     O5'  159   3.381   3.251   8.224  0.5913  0.2659 -0.6058
    6DC     C5'  160   3.336   3.127   8.173 -0.0332  0.4103 -0.4095
    6DC    H5'1  161   3.308   3.133   8.068 -2.1521 -1.9602 -0.0760
    6DC    H5'2  162   3.242   3.108   8.226  0.3761  2.5132  1.1820
    6DC     C4'  163   3.429   3.012   8.208 -0.5192  0.2140  0.2521
    6DC     H4'  164   3.382   2.916   8.186  0.3576 -0.1697  0.0260
    6DC     O4'  165   3.551   3.029   8.140 -0.4239 -0.1959  0.3179
    6DC     C1'  166   3.656   2.986   8.224 -0.0317  0.2488  0.0576
    6DC     H1'  167   3.652   2.877   8.222 -1.2543  0.2912 -1.2149
    6DC      N1  168   3.786   3.035   8.176  0.0012 -0.2413 -0.3598
    6DC      C6  169   3.805   3.167   8.145 -0.1040  0.0404  0.7357
    6DC      H6  170   3.723   3.236   8.158  0.0023  0.0388  1.4793
    6DC      C5  171   3.925   3.207   8.097 -0.2445  0.3211  0.6167
    6DC      H5  172   3.944   3.312   8.080  0.1335 -0.0153 -1.3676
    6DC      C4  173   4.022   3.106   8.067 -0.1803  0.5147  0.1511
    6DC      N4  174   4.135   3.128   7.999 -0.2379  0.2400 -0.0340
    6DC     H41  175   4.156   3.220   7.963 -0.6133  0.1548 -0.4708
    6DC     H42  176   4.203   3.054   7.989  0.4581  0.8551  0.0457
    6DC      N3  177   4.004   2.977   8.099  0.1206  0.3281 -0.4229
    6DC      C2  178   3.883   2.940   8.148  0.3653  0.0269 -0.0383
    6DC      O2  179   3.864   2.819   8.150  0.6459 -0.0088  0.4581
    6DC     C3'  180   3.462   3.007   8.357  0.1749  0.3015  0.1054
    6DC     H3'  181   3.399   3.077   8.412  0.0321 -0.3371  0.7824
    6DC     C2'  182   3.610   3.044   8.358  0.0675  0.7390 -0.1180
    6DC    H2'1  183   3.631   3.150   8.374 -1.1884  0.8490  0.9668
    6DC    H2'2  184   3.663   2.998   8.441  2.7088  1.2337 -1.4197
    6DC     O3'  185   3.437   2.877   8.406 -0.1676  0.2344 -0.2470
    7DT       P  186   3.432   2.833   8.561 -0.1158  0.3614 -0.2096
    7DT     O1P  187   3.336   2.721   8.560  0.4689 -0.1464  0.1595
    7DT     O2P  188   3.416   2.954   8.645 -0.0228  0.4690 -0.3457
    7DT     O5'  189   3.582   2.777   8.575 -0.2244  0.2164  0.3852
    7DT     C5'  190   3.611   2.641   8.556  0.0028  0.3444 -0.2217
    7DT    H5'1  191   3.590   2.608   8.454  0.0126  2.1115 -0.8151
    7DT    H5'2  192   3.553   2.579   8.625  2.6552 -1.8017  0.2506
    7DT     C4'  193   3.755   2.609   8.593 -0.1529 -0.2502 -0.1104
    7DT     H4'  194   3.765   2.501   8.581  0.8942 -0.5412  2.5533
    7DT     O4'  195   3.846   2.675   8.507 -0.1597  0.0570  0.1191
    7DT     C1'  196   3.938   2.744   8.589 -0.2204  0.5352 -0.2145
    7DT     H1'  197   4.013   2.678   8.632 -0.7561  1.3821  2.1939
    7DT      N1  198   4.013   2.845   8.511  0.3803 -0.0849 -0.4404
    7DT      C6  199   3.971   2.973   8.495  0.3554 -0.0233  0.0885
    7DT      H6  200   3.877   2.994   8.545 -0.3255 -1.3621 -0.5948
    7DT      C5  201   4.047   3.067   8.434  0.0541  0.0802 -0.1319
    7DT      C7  202   3.996   3.208   8.421  0.4783  0.1934 -0.6288
    7DT     H71  203   4.016   3.254   8.325  0.0664  0.5543 -0.5494
    7DT     H72  204   3.890   3.199   8.446  0.5072  0.2472 -0.4837
    7DT     H73  205   4.046   3.270   8.496  2.2076 -2.2197  0.3413
    7DT      C4  206   4.174   3.033   8.374  0.0266  0.2293 -0.2750
    7DT      O4  207   4.252   3.106   8.313  0.2810  0.4896  0.3499
    7DT      N3  208   4.202   2.897   8.378  0.0976  0.2482 -0.1250
    7DT      H3  209   4.278   2.863   8.321 -1.8132 -1.9446 -1.5193
    7DT      C2  210   4.128   2.802   8.448  0.2186 -0.2290 -0.6403
    7DT      O2  211   4.165   2.685   8.452 -0.1396 -0.3120  0.7290
    7DT     C3'  212   3.788   2.654   8.735 -0.7787 -0.2559  0.0376
    7DT     H3'  213   3.702   2.660   8.801 -1.5949  0.5656 -1.0696
    7DT     C2'  214   3.861   2.786   8.714 -0.0327 -0.6152  0.3011
    7DT    H2'1  215   3.782   2.860   8.697 -0.6897 -0.9989  1.5493
    7DT    H2'2  216   3.936   2.802   8.791  0.9810 -1.0388 -0.5834
    7DT     O3'  217   3.876   2.560   8.794 -0.4071  0.2817  0.3572
    8DA       P  218   3.847   2.499   8.940 -0.1954 -0.5087  0.0775
    8DA     O1P  219   3.726   2.414   8.943 -0.4207 -0.1821  0.3429
    8DA     O2P  220   3.854   2.615   9.033  0.3736 -0.6452  0.2119
    8DA     O5'  221   3.968   2.396   8.966  0.6287  0.3771 -0.1443
    8DA     C5'  222   3.978   2.281   8.884  0.5510  0.2982 -0.0443
    8DA    H5'1  223   3.909   2.282   8.799 -2.0555  0.4128  1.9644
    8DA    H5'2  224   3.939   2.195   8.937  0.5562  2.3915  3.6849
    8DA     C4'  225   4.120   2.264   8.829  0.3289 -0.1976 -0.4771
    8DA     H4'  226   4.112   2.176   8.766  0.5274 -0.8164  0.3395
    8DA     O4'  227   4.157   2.383   8.763  0.3442 -0.0728 -0.2472
    8DA     C1'  228   4.276   2.428   8.823  0.2727 -0.1642 -0.0362
    8DA     H1'  229   4.356   2.374   8.772 -0.2509  0.0414 -1.1031
    8DA      N9  230   4.281   2.575   8.807 -0.0665 -0.1497 -0.0153
    8DA      C8  231   4.198   2.678   8.842 -0.0362  0.1028 -0.6732
    8DA      H8  232   4.105   2.647   8.888 -0.9613  0.6265 -2.1223
    8DA      N7  233   4.240   2.797   8.812 -0.3953  0.1858 -0.8551
    8DA      C5  234   4.362   2.773   8.750  0.3130  0.0333  0.5637
    8DA      C6  235   4.458   2.852   8.685 -0.1950 -0.3237 -0.6382
    8DA      N6  236   4.446   2.983   8.664 -1.0655 -0.2627  0.1819
    8DA     H61  237   4.368   3.029   8.708  0.2507 -0.2866  2.7163
    8DA     H62  238   4.524   3.035   8.625 -0.7089 -1.9283 -1.4187
    8DA      N1  239   4.570   2.794   8.640  0.3924 -0.2863  0.7527
    8DA      C2  240   4.587   2.663   8.652 -0.1423 -0.4820 -0.4998
    8DA      H2  241   4.674   2.614   8.612  1.1620  1.0609  0.3157
    8DA      N3  242   4.497   2.576   8.698 -0.2436 -0.1763 -0.1079
    8DA      C4  243   4.388   2.638   8.748  0.0914 -0.0076  0.4185
    8DA     C3'  244   4.211   2.243   8.950  0.3305  0.7069 -0.3122
    8DA     H3'  245   4.157   2.228   9.044 -2.9630  3.3311 -1.5744
    8DA     C2'  246   4.279   2.378   8.967  0.6069  0.5067  0.1929
    8DA    H2'1  247   4.216   2.441   9.031 -1.0347 -1.4174  0.5601
    8DA    H2'2  248   4.383   2.372   8.999  0.2642  0.6307  1.3938
    8DA     O3'  249   4.293   2.132   8.925 -0.1669  0.1747  0.3786
    9DC       P  250   4.370   2.039   9.033  0.3011  0.1939  0.0645
    9DC     O1P  251   4.408   1.913   8.965 -0.0407  0.2999 -0.3327
    9DC     O2P  252   4.280   2.024   9.149  0.5466 -1.0621  0.1058
    9DC     O5'  253   4.497   2.119   9.091 -0.0566  0.6847  0.1836
    9DC     C5'  254   4.619   2.127   9.021  0.0537 -0.5383  0.2185
    9DC    H5'1  255   4.588   2.144   8.918 -1.4121 -0.5706  0.6392
    9DC    H5'2  256   4.669   2.030   9.025  0.4335 -0.4041 -0.7769
    9DC     C4'  257   4.701   2.252   9.049 -0.3960 -0.0316 -0.6972
    9DC     H4'  258   4.792   2.243   8.990  0.7296 -0.1837  1.0176
    9DC     O4'  259   4.643   2.377   9.016 -0.0414  0.4045  0.2755
    9DC     C1'  260   4.698   2.467   9.108  0.2042  0.1484  0.3803
    9DC     H1'  261   4.804   2.482   9.087  0.5056 -2.1840 -0.0214
    9DC      N1  262   4.627   2.596   9.106  0.1492  0.1160  0.2167
    9DC      C6  263   4.530   2.631   9.196  0.0763  0.3481  0.0483
    9DC      H6  264   4.503   2.573   9.283  0.5281 -0.3649 -0.2789
    9DC      C5  265   4.462   2.746   9.177  0.0714  0.3366 -0.0072
    9DC      H5  266   4.378   2.763   9.242  0.2281 -4.3591  1.7858
    9DC      C4  267   4.511   2.836   9.076 -0.0492  0.1804 -0.2077
    9DC      N4  268   4.455   2.956   9.056 -0.2772  0.2344  0.6974
    9DC     H41  269   4.360   2.972   9.086 -0.3338  1.1729  0.0774
    9DC     H42  270   4.482   3.011   8.976 -0.0907  0.3346  0.8277
    9DC      N3  271   4.610   2.806   8.992 -0.1311  0.1697 -0.3003
    9DC      C2  272   4.668   2.684   9.007 -0.7840 -0.1583 -0.4280
    9DC      O2  273   4.756   2.648   8.930  0.1432  0.1338  0.4705
    9DC     C3'  274   4.739   2.254   9.196  0.0955  0.7186 -0.8284
    9DC     H3'  275   4.685   2.181   9.256 -1.8512  3.5595  1.1468
    9DC     C2'  276   4.684   2.390   9.239 -0.7690  0.0551  0.2266
    9DC    H2'1  277   4.579   2.378   9.265 -0.9105  2.5174  1.0463
    9DC    H2'2  278   4.744   2.444   9.312 -0.4536 -0.1593  0.1327
    9DC     O3'  279   4.878   2.264   9.217 -0.0381  0.3023  0.3862
   10DG       P  280   4.950   2.234   9.358  0.3446  0.4128  0.2175
   10DG     O1P  281   5.014   2.101   9.355  0.2352  0.3634  0.0628
   10DG     O2P  282   4.856   2.277   9.464  0.3704 -0.0832  0.4460
   10DG     O5'  283   5.067   2.344   9.350 -0.1895  0.9957  0.3754
   10DG     C5'  284   5.173   2.323   9.259 -0.1287  0.4731  0.5674
   10DG    H5'1  285   5.139   2.290   9.161 -0.4400  0.1893  0.7676
   10DG    H5'2  286   5.241   2.248   9.300  2.2608  1.2066 -1.8125
   10DG     C4'  287   5.269   2.440   9.242  0.3309  0.0505  0.2332
   10DG     H4'  288   5.354   2.403   9.185  1.5100 -0.0013  1.9347
   10DG     O4'  289   5.208   2.554   9.186 -0.3953 -0.2412  0.4249
   10DG     C1'  290   5.194   2.654   9.285 -0.0493  0.1240  0.1062
   10DG     H1'  291   5.266   2.734   9.268 -1.1539  0.6415 -2.9774
   10DG      N9  292   5.061   2.717   9.280  0.0514  0.3307  0.0567
   10DG      C8  293   4.943   2.656   9.316  0.2953 -0.0760  0.1688
   10DG      H8  294   4.937   2.552   9.344  1.1239  0.1452  1.2367
   10DG      N7  295   4.837   2.731   9.310  0.4094  0.0529 -0.2566
   10DG      C5  296   4.883   2.859   9.283 -0.0607  0.5051  1.0299
   10DG      C6  297   4.829   2.988   9.258  0.1737  0.3601 -0.2610
   10DG      O6  298   4.712   3.025   9.257 -0.1323 -0.5477  0.4150
   10DG      N1  299   4.922   3.087   9.232  0.0716  0.4140 -0.4262
   10DG      H1  300   4.893   3.183   9.241 -1.1512  0.0596 -0.5240
   10DG      C2  301   5.056   3.064   9.206  0.2207  0.0452  0.5933
   10DG      N2  302   5.144   3.165   9.198  0.2886 -0.0258  0.4340
   10DG     H21  303   5.120   3.261   9.219  1.8420  0.0113  2.3588
   10DG     H22  304   5.243   3.144   9.207  0.6656  1.0613 -0.8641
   10DG      N3  305   5.106   2.942   9.226  0.1360  0.0195  0.6434
   10DG      C4  306   5.017   2.845   9.256 -0.2722  0.2270  0.0993
   10DG     C3'  307   5.325   2.484   9.377 -0.0015 -0.3074  0.4883
   10DG     H3'  308   5.337   2.394   9.438  2.5046  0.5042  1.3228
   10DG     C2'  309   5.220   2.587   9.419 -0.1162 -0.2061 -0.0446
   10DG    H2'1  310   5.128   2.539   9.453 -0.2443  0.0071 -0.0885
   10DG    H2'2  311   5.249   2.660   9.494 -0.1566 -0.3482  0.1118
   10DG     O3'  312   5.455   2.534   9.356 -0.0531 -0.2965  0.2059
   11DG       P  313   5.562   2.569   9.471 -0.1051  0.0563  0.1460
   11DG     O1P  314   5.695   2.586   9.409 -0.1172  0.5289  0.2479
   11DG     O2P  315   5.546   2.469   9.579  0.0734 -0.2259 -0.0871
   11DG     O5'  316   5.507   2.710   9.526  0.4319  0.1243  0.5056
   11DG     C5'  317   5.525   2.830   9.454  0.2403 -0.1473  0.0052
   11DG    H5'1  318   5.504   2.816   9.348 -2.3343 -2.4279  0.6748
   11DG    H5'2  319   5.626   2.864   9.474 -0.2772  1.1325  0.5849
   11DG     C4'  320   5.441   2.944   9.512  0.3636 -0.1293  0.1461
   11DG     H4'  321   5.492   3.031   9.469 -0.2645 -1.0289 -2.6535
   11DG     O4'  322   5.306   2.938   9.473  0.5657 -0.0960 -0.5837
   11DG     C1'  323   5.247   3.020   9.572 -0.1693 -0.5742 -0.6220
   11DG     H1'  324   5.280   3.121   9.551  0.7849 -0.2628  1.9687
   11DG      N9  325   5.099   3.012   9.572 -0.2157 -0.1011  0.8838
   11DG      C8  326   5.019   2.902   9.589  0.0280 -0.3137  0.6760
   11DG      H8  327   5.061   2.804   9.604 -1.2221 -0.6656  2.0463
   11DG      N7  328   4.892   2.928   9.595  0.1125  0.2158  0.2129
   11DG      C5  329   4.892   3.065   9.570 -0.3052  0.1339 -0.2449
   11DG      C6  330   4.779   3.150   9.554 -0.1420  0.5119  0.5880
   11DG      O6  331   4.660   3.124   9.570  0.0914 -0.7213  0.3847
   11DG      N1  332   4.813   3.284   9.536  0.2157  0.3908  0.3610
   11DG      H1  333   4.737   3.350   9.534 -0.2356 -0.1234 -0.2003
   11DG      C2  334   4.942   3.333   9.538  0.2765  0.2343  0.3397
   11DG      N2  335   4.956   3.466   9.543 -0.3544  0.3321 -0.2692
   11DG     H21  336   4.868   3.516   9.549 -2.0965 -2.6588  2.8711
   11DG     H22  337   5.050   3.503   9.545 -0.3113  0.2081  0.1293
   11DG      N3  338   5.048   3.253   9.555 -0.0280 -0.1662  0.3538
   11DG      C4  339   5.016   3.121   9.559 -0.1584 -0.1515 -0.0413
   11DG     C3'  340   5.455   2.961   9.663  0.0180  0.5274  0.1085
   11DG     H3'  341   5.503   2.873   9.705 -2.7747 -1.7376 -1.1314
   11DG     C2'  342   5.308   2.968   9.702 -0.2730 -0.8198 -0.6696
   11DG    H2'1  343   5.272   2.869   9.728 -1.0552 -0.1043  1.2142
   11DG    H2'2  344   5.284   3.034   9.786  0.7975 -1.7435  0.3947
   11DG     O3'  345   5.524   3.083   9.682  0.5324  0.3412 -0.5433
   12DA       P  346   5.564   3.129   9.831  0.0009 -0.0891 -0.2631
   12DA     O1P  347   5.690   3.206   9.818 -0.1549  0.3231  0.6370
   12DA     O2P  348   5.560   3.011   9.920 -0.1271  0.0300 -0.1123
   12DA     O5'  349   5.446   3.233   9.862  0.3785  0.1847  0.2606
   12DA     C5'  350   5.440   3.359   9.799  0.1793 -0.2093 -0.5190
   12DA    H5'1  351   5.432   3.339   9.692 -0.5814 -0.8787 -0.3480
   12DA    H5'2  352   5.523   3.426   9.823 -1.2640  0.7351  2.2558
   12DA     C4'  353   5.313   3.430   9.845  0.1756 -0.2369 -0.4854
   12DA     H4'  354   5.310   3.527   9.797 -0.8441  0.4221  0.8524
   12DA     O4'  355   5.197   3.355   9.816 -0.1008  0.1420 -0.3654
   12DA     C1'  356   5.095   3.435   9.871 -0.0029  0.1152 -0.1425
   12DA     H1'  357   5.068   3.525   9.815 -1.4616 -0.1267  0.1296
   12DA      N9  358   4.982   3.345   9.901  0.4272 -0.0675  0.9909
   12DA      C8  359   4.973   3.210   9.925  0.5483 -0.2260  0.1816
   12DA      H8  360   5.065   3.156   9.939 -0.7074 -3.3327 -2.4552
   12DA      N7  361   4.853   3.166   9.949  0.3045  0.0796 -0.4403
   12DA      C5  362   4.772   3.275   9.918 -0.1583  0.0297  0.5511
   12DA      C6  363   4.634   3.303   9.911 -0.2741 -0.7106 -0.4272
   12DA      N6  364   4.539   3.210   9.926 -0.5836 -0.4247 -0.5999
   12DA     H61  365   4.547   3.113   9.952  1.1380 -0.1411  0.0510
   12DA     H62  366   4.442   3.236   9.915 -1.3693 -2.0792  1.6494
   12DA      N1  367   4.593   3.427   9.880  0.4862 -0.3781 -0.1585
   12DA      C2  368   4.685   3.521   9.870  0.0192  0.1538  0.4756
   12DA      H2  369   4.638   3.617   9.853 -2.4411 -1.1437 -0.5763
   12DA      N3  370   4.817   3.515   9.883  0.0494 -0.4715 -0.0804
   12DA      C4  371   4.851   3.385   9.900  0.2975 -0.4698 -0.5480
   12DA     C3'  372   5.301   3.454   9.996 -0.9739  0.0812 -0.6241
   12DA     H3'  373   5.327   3.366  10.054 -0.4671  0.7082  0.1124
   12DA     C2'  374   5.151   3.481  10.006 -0.9507 -0.1126  0.3358
   12DA    H2'1  375   5.112   3.437  10.097  1.2835 -0.7489  1.0414
   12DA    H2'2  376   5.125   3.587  10.014 -1.6287 -0.2580  0.1722
   12DA     O3'  377   5.371   3.563  10.051  0.0563 -0.8890  0.0010
   13DA       P  378   5.382   3.601  10.207 -0.0453 -0.0405 -0.1984
   13DA     O1P  379   5.486   3.706  10.223  0.1427 -0.2832  0.1744
   13DA     O2P  380   5.392   3.471  10.277 -0.1862 -0.1337 -0.3522
   13DA     O5'  381   5.241   3.664  10.253 -0.1471 -0.0948 -0.4396
   13DA     C5'  382   5.200   3.792  10.210  0.5046 -0.0076 -0.8196
   13DA    H5'1  383   5.231   3.807  10.107  0.8704  0.0843 -0.6961
   13DA    H5'2  384   5.258   3.859  10.273 -0.7944 -0.7972  1.3489
   13DA     C4'  385   5.050   3.817  10.225  0.6003  0.0964  0.0160
   13DA     H4'  386   5.020   3.913  10.182  3.2188  0.2001 -1.8022
   13DA     O4'  387   4.972   3.713  10.170 -0.1575  0.6171  0.0846
   13DA     C1'  388   4.861   3.698  10.256 -0.1593  0.0840 -0.0037
   13DA     H1'  389   4.796   3.783  10.235  2.7111  2.0145 -1.9762
   13DA      N9  390   4.788   3.571  10.238 -0.2274  0.1773 -0.4143
   13DA      C8  391   4.840   3.445  10.254  0.2869  0.3657 -0.5814
   13DA      H8  392   4.947   3.438  10.272  0.2641  2.0055  0.3980
   13DA      N7  393   4.755   3.347  10.250  0.2593  0.3598  0.0869
   13DA      C5  394   4.634   3.413  10.230  0.0245  0.0946  0.5936
   13DA      C6  395   4.499   3.377  10.226  0.0606  0.0233 -0.2729
   13DA      N6  396   4.449   3.252  10.231 -0.3667  0.2122  0.3550
   13DA     H61  397   4.512   3.173  10.235  0.7552  1.1056  0.9875
   13DA     H62  398   4.351   3.229  10.233  0.1651 -2.2772  1.4638
   13DA      N1  399   4.405   3.471  10.213 -0.0104 -0.0760 -0.4867
   13DA      C2  400   4.441   3.598  10.208  0.0424 -0.0791 -0.2035
   13DA      H2  401   4.356   3.665  10.206 -1.0762 -1.3870  1.4541
   13DA      N3  402   4.563   3.649  10.222 -0.1599  0.2551  0.3847
   13DA      C4  403   4.654   3.549  10.224 -0.2924  0.1294  0.2561
   13DA     C3'  404   5.022   3.826  10.375  0.2358 -0.1914 -0.0324
   13DA     H3'  405   5.112   3.802  10.432 -0.8562 -1.2246  1.3232
   13DA     C2'  406   4.916   3.719  10.397  0.6290 -0.6206 -0.1961
   13DA    H2'1  407   4.960   3.629  10.440 -0.9243 -1.2496  0.1594
   13DA    H2'2  408   4.839   3.750  10.467  1.5782  1.2304  0.0743
   13DA     O3'  409   4.977   3.955  10.409  0.0233 -0.2415 -0.1256
   14DG       P  410   5.013   4.022  10.551 -0.1267  0.0698 -0.2339
   14DG     O1P  411   5.054   4.161  10.525  0.1306  0.1348  0.5214
   14DG     O2P  412   5.101   3.929  10.624 -0.5622  0.3684  0.6902
   14DG     O5'  413   4.876   4.020  10.635  0.2429 -0.4990  0.3596
   14DG     C5'  414   4.760   4.089  10.596  0.0718 -0.4680  0.9066
   14DG    H5'1  415   4.764   4.080  10.487  0.1648 -2.2297  1.0312
   14DG    H5'2  416   4.757   4.195  10.624  0.3908 -0.2114  0.0055
   14DG     C4'  417   4.626   4.022  10.624 -0.4271 -0.0567 -0.3893
   14DG     H4'  418   4.553   4.096  10.593 -0.4166  0.3691  0.5549
   14DG     O4'  419   4.600   3.905  10.550  0.2568  0.1019 -0.8940
   14DG     C1'  420   4.490   3.842  10.613  0.3890  0.2994 -0.4593
   14DG     H1'  421   4.402   3.894  10.577  0.4557 -0.2136 -1.3976
   14DG      N9  422   4.494   3.698  10.579 -0.1423  0.2430 -0.2880
   14DG      C8  423   4.597   3.608  10.583  0.1192  0.5618  0.3320
   14DG      H8  424   4.699   3.639  10.599 -0.1847  2.4941 -1.1601
   14DG      N7  425   4.563   3.487  10.548  0.1328  0.7329 -0.2935
   14DG      C5  426   4.425   3.494  10.537  0.0577 -0.0889  0.0235
   14DG      C6  427   4.326   3.393  10.523 -0.3240  0.3157 -0.2156
   14DG      O6  428   4.348   3.273  10.513  0.1706  0.3624  0.2863
   14DG      N1  429   4.195   3.438  10.514 -0.3864  0.1209 -0.2765
   14DG      H1  430   4.122   3.368  10.505 -1.6320  1.2497  0.6749
   14DG      C2  431   4.168   3.573  10.515 -0.2907  0.1403 -0.3196
   14DG      N2  432   4.037   3.599  10.501 -0.4223 -0.1355  0.3681
   14DG     H21  433   3.970   3.523  10.503  0.4134 -0.8911  0.5275
   14DG     H22  434   4.019   3.698  10.494 -0.6527 -0.1940  0.1095
   14DG      N3  435   4.257   3.671  10.534  0.0132 -0.1617 -0.1746
   14DG      C4  436   4.382   3.623  10.552  0.0209 -0.0936 -0.0453
   14DG     C3'  437   4.594   3.988  10.770 -0.1691  0.1394 -0.2851
   14DG     H3'  438   4.689   3.976  10.821 -0.1998  1.0589  0.0065
   14DG     C2'  439   4.516   3.857  10.762 -0.1349  0.1227 -0.3481
   14DG    H2'1  440   4.568   3.767  10.797 -0.2893  0.0268 -0.3655
   14DG    H2'2  441   4.420   3.856  10.813 -1.2948  2.0846 -2.3268
   14DG     O3'  442   4.525   4.090  10.838  0.6046  0.4267  0.0788
   15DG       P  443   4.479   4.072  10.991  0.2298  0.0886 -0.0688
   15DG     O1P  444   4.437   4.206  11.040  0.0558  0.1778 -0.4623
   15DG     O2P  445   4.575   3.984  11.061 -0.3729 -0.5023  0.0201
   15DG     O5'  446   4.336   4.000  10.985  0.1179  0.3365 -0.4011
   15DG     C5'  447   4.229   4.039  10.902 -0.3983  0.0661  0.1267
   15DG    H5'1  448   4.262   4.029  10.798  0.3001  2.4963  0.0741
   15DG    H5'2  449   4.209   4.144  10.920 -1.4626 -0.2000  0.5996
   15DG     C4'  450   4.097   3.963  10.919 -0.2040 -0.2677  0.1665
   15DG     H4'  451   4.019   4.024  10.872  0.1842  0.5351  0.5354
   15DG     O4'  452   4.103   3.844  10.844 -0.2415 -0.0954 -0.1124
   15DG     C1'  453   4.067   3.739  10.931  0.1548  0.1709  0.3756
   15DG     H1'  454   3.959   3.729  10.927  0.1460 -0.2419  1.4453
   15DG      N9  455   4.144   3.616  10.905  0.1740  0.1981  0.3043
   15DG      C8  456   4.279   3.606  10.881  0.1187 -0.0484  0.0941
   15DG      H8  457   4.355   3.683  10.884 -0.1910  0.2659 -0.0164
   15DG      N7  458   4.315   3.483  10.859  0.0444  0.0804 -0.7831
   15DG      C5  459   4.200   3.405  10.863 -0.0866  0.2877 -0.5136
   15DG      C6  460   4.168   3.267  10.851 -0.0496  0.1945  0.3533
   15DG      O6  461   4.246   3.175  10.829 -0.1538  0.2226 -0.1480
   15DG      N1  462   4.033   3.234  10.858 -0.0290  0.1139  0.3626
   15DG      H1  463   4.005   3.139  10.837 -1.1439  0.9125 -2.2667
   15DG      C2  464   3.934   3.329  10.866 -0.2061 -0.1055  0.7674
   15DG      N2  465   3.809   3.283  10.883 -0.2494 -0.0333  0.6486
   15DG     H21  466   3.794   3.184  10.899 -4.0333  0.3299  0.3059
   15DG     H22  467   3.738   3.351  10.905 -0.1253  0.1568  0.4606
   15DG      N3  468   3.963   3.460  10.876  0.1040 -0.1322  0.2183
   15DG      C4  469   4.094   3.490  10.883  0.0206  0.3312 -0.1271
   15DG     C3'  470   4.058   3.933  11.063 -0.0710 -0.0265  0.2537
   15DG     H3'  471   4.119   4.002  11.122  1.0341  1.1376 -2.1259
   15DG     C2'  472   4.101   3.787  11.072  0.5976  0.1684  0.2705
   15DG    H2'1  473   4.203   3.773  11.108 -0.3659 -1.0012  2.7345
   15DG    H2'2  474   4.039   3.733  11.143 -1.6039  2.1672 -0.0006
   15DG     O3'  475   3.920   3.960  11.078 -0.1101 -0.0098 -0.1292
   16DG       P  476   3.850   4.020  11.210  0.0424  0.3540 -0.2115
   16DG     O1P  477   3.735   4.103  11.168 -0.6882 -0.5508 -0.0413
   16DG     O2P  478   3.953   4.076  11.299 -0.1888  0.0304  0.2647
   16DG     O5'  479   3.801   3.877  11.265 -0.4966  0.6666  0.1283
   16DG     C5'  480   3.699   3.804  11.200  0.0903  0.0171 -0.0766
   16DG    H5'1  481   3.717   3.820  11.093  0.6658 -0.1348 -0.0066
   16DG    H5'2  482   3.601   3.844  11.226 -0.3876 -1.6423  0.8214
   16DG     C4'  483   3.700   3.653  11.222  0.0009  0.0031 -0.1657
   16DG     H4'  484   3.606   3.620  11.178 -1.4528  1.8260  1.3903
   16DG     O4'  485   3.814   3.600  11.158 -0.1882 -0.5994 -0.0021
   16DG     C1'  486   3.815   3.471  11.216 -0.3022 -0.4056  0.4384
   16DG     H1'  487   3.741   3.409  11.164  0.6310  0.3110 -1.8840
   16DG      N9  488   3.945   3.403  11.209 -0.1412 -0.0554  0.0129
   16DG      C8  489   4.072   3.454  11.221 -0.0003 -0.2715 -0.5145
   16DG      H8  490   4.108   3.555  11.230  3.3229 -1.4157  0.9992
   16DG      N7  491   4.163   3.362  11.204  0.1353 -0.1908 -0.2345
   16DG      C5  492   4.090   3.243  11.196 -0.3919  0.1266 -0.1532
   16DG      C6  493   4.137   3.110  11.181 -0.0801  0.1743  0.3960
   16DG      O6  494   4.254   3.074  11.173 -0.1781  0.0750 -0.7107
   16DG      N1  495   4.029   3.023  11.182 -0.0952  0.1950  0.4974
   16DG      H1  496   4.059   2.927  11.169  0.4691  0.6461 -2.1496
   16DG      C2  497   3.896   3.057  11.188  0.0231  0.6986  0.3041
   16DG      N2  498   3.805   2.958  11.194  0.5214  0.2278  0.1659
   16DG     H21  499   3.835   2.862  11.194  1.1253  0.3823 -1.2863
   16DG     H22  500   3.709   2.982  11.213 -0.6188  0.8198 -4.9407
   16DG      N3  501   3.849   3.182  11.193 -0.8224  0.4041  0.0847
   16DG      C4  502   3.955   3.266  11.205 -0.4215 -0.0731 -0.1025
   16DG     C3'  503   3.698   3.621  11.371  0.1400  0.2865 -0.1012
   16DG     H3'  504   3.751   3.698  11.427  0.0438  0.2856 -0.0077
   16DG     C2'  505   3.779   3.492  11.363 -0.3685 -0.0680  0.3756
   16DG    H2'1  506   3.870   3.514  11.418  0.4526 -2.1855 -0.0685
   16DG    H2'2  507   3.715   3.414  11.405  0.7001 -0.7920  0.6786
   16DG     O3'  508   3.567   3.599  11.418  0.2658  0.0406  0.1391
   17DC       P  509   3.529   3.567  11.571  0.3592 -0.2345  0.1053
   17DC     O1P  510   3.387   3.596  11.599  0.4381  0.2065  0.0535
   17DC     O2P  511   3.627   3.643  11.652 -0.1333  0.0144  0.4696
   17DC     O5'  512   3.550   3.410  11.601 -0.0055 -0.3171 -0.0684
   17DC     C5'  513   3.475   3.324  11.518  0.3468  0.1200 -0.8510
   17DC    H5'1  514   3.474   3.349  11.412  1.8338 -0.8964 -1.1416
   17DC    H5'2  515   3.369   3.321  11.540 -0.1194 -2.7313 -2.8770
   17DC     C4'  516   3.531   3.182  11.526 -0.1925 -0.0449  0.2615
   17DC     H4'  517   3.465   3.114  11.471  1.0465 -1.1732  0.1250
   17DC     O4'  518   3.659   3.169  11.467 -0.2314 -0.0459  0.1767
   17DC     C1'  519   3.723   3.059  11.527  0.0305 -0.0476 -0.1092
   17DC     H1'  520   3.679   2.967  11.490  0.8995 -0.8885  0.8679
   17DC      N1  521   3.871   3.063  11.518  0.0562  0.0404  0.3421
   17DC      C6  522   3.937   3.182  11.518  0.0069  0.0684  0.4733
   17DC      H6  523   3.880   3.274  11.518  2.4799  1.6873  0.2731
   17DC      C5  524   4.072   3.182  11.519  0.0098  0.1485  0.1801
   17DC      H5  525   4.134   3.270  11.527  2.1138 -1.3446  1.2954
   17DC      C4  526   4.138   3.055  11.509 -0.1271  0.0786  0.1501
   17DC      N4  527   4.272   3.051  11.500 -0.1162  0.4432  0.1183
   17DC     H41  528   4.336   3.129  11.505  3.3472 -2.2438  2.7554
   17DC     H42  529   4.309   2.957  11.500 -1.0087  0.0766 -0.7795
   17DC      N3  530   4.073   2.938  11.508  0.2233 -0.1159 -0.5330
   17DC      C2  531   3.938   2.942  11.517  0.2158  0.1229 -0.7197
   17DC      O2  532   3.877   2.836  11.525  0.4757 -0.0090 -0.4586
   17DC     C3'  533   3.542   3.135  11.670  0.4969 -0.0433  0.2103
   17DC     H3'  534   3.539   3.221  11.737  0.2743 -0.3805  0.6416
   17DC     C2'  535   3.685   3.082  11.673  0.5588  0.1138  0.0037
   17DC    H2'1  536   3.738   3.171  11.706 -0.3188  1.4267 -1.9252
   17DC    H2'2  537   3.697   2.988  11.727  0.7971  0.9363  1.4201
   17DC     O3'  538   3.432   3.049  11.687  0.1656  0.2875 -0.2485
   18DA       P  539   3.387   2.989  11.829  0.2750  0.4196 -0.1574
   18DA     O1P  540   3.251   2.936  11.804  0.5442  0.0035 -0.7583
   18DA     O2P  541   3.413   3.095  11.929 -0.0474  0.1470  0.2208
   18DA     O5'  542   3.487   2.865  11.855 -0.1102  0.0881 -0.2568
   18DA     C5'  543   3.450   2.732  11.823 -0.2034  0.2338 -0.7608
   18DA    H5'1  544   3.413   2.731  11.720  0.9879  1.2497 -1.2205
   18DA    H5'2  545   3.369   2.700  11.889 -0.3063  1.1225 -0.4447
   18DA     C4'  546   3.572   2.642  11.834 -0.2246  0.2758 -0.1848
   18DA     H4'  547   3.543   2.547  11.789 -1.8586 -0.2005  1.7481
   18DA     O4'  548   3.690   2.685  11.770 -0.2073 -0.0857 -0.3983
   18DA     C1'  549   3.797   2.610  11.823 -0.2057  0.0758 -0.1700
   18DA     H1'  550   3.807   2.516  11.769 -2.2253 -1.6668  2.2433
   18DA      N9  551   3.920   2.689  11.836 -0.0316 -0.3056  0.5540
   18DA      C8  552   3.936   2.826  11.839  0.0795 -0.3154  0.3978
   18DA      H8  553   3.851   2.892  11.844  0.1577 -0.3158  2.0081
   18DA      N7  554   4.060   2.867  11.836  0.0496 -0.2596 -0.3066
   18DA      C5  555   4.136   2.751  11.834  0.1665 -0.1906 -0.0273
   18DA      C6  556   4.272   2.719  11.823  0.1578 -0.1618 -0.2355
   18DA      N6  557   4.373   2.807  11.825  0.1643 -0.1744  0.3467
   18DA     H61  558   4.359   2.907  11.817  1.3624 -0.0979 -1.4505
   18DA     H62  559   4.463   2.764  11.839 -0.3637 -0.5856  2.9133
   18DA      N1  560   4.313   2.592  11.820  0.9568  0.0970 -0.7536
   18DA      C2  561   4.217   2.500  11.821  0.4959  0.5329  1.4020
   18DA      H2  562   4.254   2.398  11.816 -0.2229  0.3272 -1.4176
   18DA      N3  563   4.086   2.514  11.830  0.3035  0.0078 -0.2569
   18DA      C4  564   4.050   2.644  11.842  0.0639 -0.0955  0.1416
   18DA     C3'  565   3.606   2.616  11.981  0.1207 -0.3995 -0.3766
   18DA     H3'  566   3.608   2.707  12.041 -1.5074 -1.1191  0.8555
   18DA     C2'  567   3.747   2.564  11.960  0.3259 -0.0063 -0.0040
   18DA    H2'1  568   3.816   2.599  12.037  0.5129 -0.7237  0.1625
   18DA    H2'2  569   3.751   2.455  11.960  0.7071 -0.0199  2.0514
   18DA     O3'  570   3.526   2.513  12.034 -0.3717  0.1254 -0.0883
   19DT       P  571   3.505   2.490  12.192 -0.0576 -0.1606 -0.0894
   19DT     O1P  572   3.399   2.390  12.220 -0.5385  0.2696 -0.3766
   19DT     O2P  573   3.481   2.622  12.253  0.1876 -0.1181 -0.0828
   19DT     O5'  574   3.649   2.436  12.240 -0.0450  0.2000  0.2877
   19DT     C5'  575   3.685   2.301  12.223  0.2241  0.2982  0.0520
   19DT    H5'1  576   3.670   2.277  12.117 -0.3714  1.3075 -0.1056
   19DT    H5'2  577   3.620   2.244  12.290 -0.5222 -0.7464 -1.4873
   19DT     C4'  578   3.833   2.279  12.249  0.2423  0.3033 -0.0475
   19DT     H4'  579   3.867   2.176  12.237 -1.1898 -0.3720  1.3872
   19DT     O4'  580   3.914   2.368  12.175  0.3326  0.0864 -0.2075
   19DT     C1'  581   4.017   2.420  12.255  0.0037  0.4536 -0.0185
   19DT     H1'  582   4.085   2.336  12.269  0.8413  0.9547 -0.9171
   19DT      N1  583   4.092   2.536  12.202  0.1805  0.7208  0.7962
   19DT      C6  584   4.035   2.659  12.201  0.0858  0.6811 -0.0111
   19DT      H6  585   3.929   2.674  12.217  0.1241 -1.2564  2.8650
   19DT      C5  586   4.112   2.768  12.180  0.2928  0.5386  0.0005
   19DT      C7  587   4.055   2.907  12.186 -0.1360  0.3747 -0.2609
   19DT     H71  588   4.093   2.969  12.266 -0.8098  0.3363  0.0999
   19DT     H72  589   4.069   2.958  12.091 -0.2284  0.2154 -0.3610
   19DT     H73  590   3.948   2.909  12.208  0.1006  3.1704  1.0092
   19DT      C4  591   4.254   2.759  12.154  0.0731  0.2359 -1.1562
   19DT      O4  592   4.327   2.851  12.116  0.0951  0.6656 -0.0998
   19DT      N3  593   4.303   2.629  12.156 -0.4794  0.0252  0.7564
   19DT      H3  594   4.402   2.612  12.149 -0.2347  1.5076  0.1047
   19DT      C2  595   4.227   2.515  12.177 -0.0823 -0.3527  0.1908
   19DT      O2  596   4.276   2.402  12.182  0.5129 -0.1208 -0.2644
   19DT     C3'  597   3.863   2.313  12.395  0.2785 -0.1553  0.0522
   19DT     H3'  598   3.765   2.323  12.443 -0.2933 -0.9161 -0.9016
   19DT     C2'  599   3.939   2.444  12.384 -0.4303  0.2371 -0.2378
   19DT    H2'1  600   3.860   2.519  12.372 -0.5065  0.3267  0.7889
   19DT    H2'2  601   4.009   2.464  12.465 -0.6511  0.3179 -0.0655
   19DT     O3'  602   3.947   2.219  12.459  0.3257 -0.2785 -0.1926
   20DC       P  603   3.913   2.160  12.605  0.0116  0.1802 -0.0771
   20DC     O1P  604   3.838   2.033  12.591 -0.7771  0.6309  0.0450
   20DC     O2P  605   3.854   2.270  12.684  0.6827  0.4189  0.0964
   20DC     O5'  606   4.066   2.134  12.649 -0.0922  0.5016  0.4746
   20DC     C5'  607   4.127   2.016  12.604 -0.2399  0.7363 -0.3658
   20DC    H5'1  608   4.081   1.979  12.513 -2.0826  2.5265 -0.2221
   20DC    H5'2  609   4.125   1.946  12.688  0.5215  1.9002  0.6608
   20DC     C4'  610   4.276   2.027  12.573 -0.0670  0.2776  0.2709
   20DC     H4'  611   4.305   1.936  12.520 -0.5926  0.2081  0.1024
   20DC     O4'  612   4.304   2.130  12.481  0.5346 -0.2522 -0.1551
   20DC     C1'  613   4.415   2.208  12.518  0.3987 -0.1984  0.1409
   20DC     H1'  614   4.506   2.169  12.472 -1.1191 -3.3855 -0.4400
   20DC      N1  615   4.394   2.351  12.490 -0.2071 -0.2729  0.2072
   20DC      C6  616   4.279   2.413  12.530  0.2314  0.4778  0.3215
   20DC      H6  617   4.199   2.354  12.572  0.7488  0.4926  1.3517
   20DC      C5  618   4.268   2.548  12.531 -0.4083  0.4345  0.0032
   20DC      H5  619   4.183   2.608  12.558  1.2094  2.9672 -0.2341
   20DC      C4  620   4.382   2.621  12.483 -0.3439 -0.1299 -0.7086
   20DC      N4  621   4.373   2.754  12.470  0.0334 -0.1102 -0.7688
   20DC     H41  622   4.294   2.805  12.508 -0.9143 -1.0556 -1.3929
   20DC     H42  623   4.446   2.795  12.413  0.0851 -1.3342 -1.6182
   20DC      N3  624   4.488   2.561  12.427 -0.1795  0.1170 -0.6585
   20DC      C2  625   4.495   2.426  12.434 -0.9808  0.0638 -0.7549
   20DC      O2  626   4.601   2.376  12.397 -0.2598  0.4624  0.7031
   20DC     C3'  627   4.372   2.051  12.689  0.1202  0.4457  0.0834
   20DC     H3'  628   4.311   2.045  12.779  0.2289  0.5303  0.1626
   20DC     C2'  629   4.416   2.196  12.670  0.0277  0.4890  0.2007
   20DC    H2'1  630   4.342   2.256  12.723  0.3981  0.2004  1.0811
   20DC    H2'2  631   4.516   2.213  12.711 -0.0993  1.1104  0.2579
   20DC     O3'  632   4.477   1.957  12.684 -0.0847  0.2132  0.0906
   21DT       P  633   4.564   1.910  12.811 -0.0312  0.0424 -0.0089
   21DT     O1P  634   4.650   1.802  12.757 -0.0804  0.0647 -0.1308
   21DT     O2P  635   4.472   1.883  12.924 -0.2120  0.2025 -0.1188
   21DT     O5'  636   4.665   2.026  12.862 -0.1330  0.1636 -0.0841
   21DT     C5'  637   4.784   2.053  12.793 -0.1644  0.2042 -0.1227
   21DT    H5'1  638   4.764   2.053  12.686  0.5270 -0.5217 -0.2654
   21DT    H5'2  639   4.858   1.976  12.814  1.6741  1.8733 -0.1948
   21DT     C4'  640   4.841   2.190  12.830  0.1540  0.0025  0.1297
   21DT     H4'  641   4.939   2.187  12.782  0.4450 -1.4242  0.7382
   21DT     O4'  642   4.765   2.297  12.780  0.1020 -0.1182 -0.0507
   21DT     C1'  643   4.762   2.398  12.878 -0.4927 -0.2370  0.0583
   21DT     H1'  644   4.861   2.443  12.870 -0.6150 -0.3054 -2.3674
   21DT      N1  645   4.652   2.491  12.846 -0.3689 -0.1175 -0.0157
   21DT      C6  646   4.522   2.467  12.878 -0.3244 -0.3127  0.0187
   21DT      H6  647   4.487   2.369  12.906  0.2332  0.2029  2.7088
   21DT      C5  648   4.426   2.559  12.856  0.0956  0.0861 -0.1556
   21DT      C7  649   4.283   2.527  12.891  0.0987 -0.0446 -0.2680
   21DT     H71  650   4.269   2.421  12.916 -1.0237 -0.0365 -0.8188
   21DT     H72  651   4.273   2.589  12.980  3.2341 -0.4372  0.4472
   21DT     H73  652   4.214   2.549  12.809 -0.5256  1.9531  0.7306
   21DT      C4  653   4.460   2.684  12.792  0.1627  0.1105 -0.0690
   21DT      O4  654   4.388   2.783  12.779  0.1138  0.1071  0.1698
   21DT      N3  655   4.592   2.701  12.752  0.0385  0.4132 -0.3511
   21DT      H3  656   4.620   2.791  12.717 -1.4923  0.8490 -0.5101
   21DT      C2  657   4.691   2.610  12.787 -0.4924  0.0810  0.3073
   21DT      O2  658   4.806   2.632  12.749 -0.3353 -0.9938  0.1270
   21DT     C3'  659   4.848   2.208  12.982  0.0005  0.4070  0.0896
   21DT     H3'  660   4.817   2.119  13.037 -0.5914 -0.6646 -1.8686
   21DT     C2'  661   4.748   2.320  13.008 -0.3073  0.0877  0.2767
   21DT    H2'1  662   4.649   2.273  13.008 -0.0656 -0.4485 -0.4679
   21DT    H2'2  663   4.775   2.374  13.098  1.1445 -0.0720 -0.0427
   21DT     O3'  664   4.977   2.251  13.019  0.0055  0.3147  0.1773
   22DG       P  665   5.048   2.198  13.154  0.1037  0.3014  0.1204
   22DG     O1P  666   5.134   2.083  13.121 -0.1265  0.1137  0.1743
   22DG     O2P  667   4.947   2.185  13.261 -0.4125  0.3158 -0.3591
   22DG     O5'  668   5.131   2.334  13.184  0.4536  0.0529  0.2949
   22DG     C5'  669   5.261   2.348  13.133  0.4585  0.4356  0.4105
   22DG    H5'1  670   5.253   2.324  13.027  0.6479  1.5201  0.1417
   22DG    H5'2  671   5.333   2.289  13.190  0.6064 -2.3626 -2.4124
   22DG     C4'  672   5.294   2.497  13.135 -0.0210  0.5447  0.1913
   22DG     H4'  673   5.390   2.520  13.090  1.0561  1.2896  2.6841
   22DG     O4'  674   5.202   2.571  13.058  0.6043  0.5094 -0.6054
   22DG     C1'  675   5.158   2.675  13.143  0.2404 -0.2578  0.1619
   22DG     H1'  676   5.216   2.761  13.108 -0.2881 -0.1857 -0.5586
   22DG      N9  677   5.014   2.693  13.116  0.3120  0.0734 -0.0141
   22DG      C8  678   4.906   2.612  13.140 -0.0341  0.6772  0.4903
   22DG      H8  679   4.909   2.508  13.170  0.5471  0.3045 -0.8131
   22DG      N7  680   4.793   2.661  13.097 -0.1083  0.2550  0.2042
   22DG      C5  681   4.825   2.792  13.064  0.1057  0.1114 -0.1672
   22DG      C6  682   4.747   2.902  13.019  0.2255  0.1600 -0.2543
   22DG      O6  683   4.627   2.905  12.993  0.2365  0.3601 -0.2822
   22DG      N1  684   4.807   3.027  13.014  0.2070  0.1654 -0.3353
   22DG      H1  685   4.751   3.108  12.990 -1.6448  0.0543  3.0001
   22DG      C2  686   4.945   3.032  13.025  0.1392  0.4613  0.4585
   22DG      N2  687   4.998   3.154  13.007  0.3343  0.3054 -0.0295
   22DG     H21  688   4.944   3.239  13.009  2.7929  1.9646 -0.1554
   22DG     H22  689   5.099   3.162  13.000  0.2770 -0.3170 -3.5042
   22DG      N3  690   5.024   2.931  13.062 -0.1204  0.1537  0.1847
   22DG      C4  691   4.959   2.813  13.081  0.1783 -0.1161 -0.4562
   22DG     C3'  692   5.298   2.548  13.279  0.1256  0.0652  0.3600
   22DG     H3'  693   5.290   2.464  13.348 -0.8955 -0.9668 -0.9334
   22DG     C2'  694   5.174   2.637  13.290 -0.1362 -0.2736  0.2009
   22DG    H2'1  695   5.092   2.577  13.327 -0.5993 -0.4811 -1.1221
   22DG    H2'2  696   5.185   2.721  13.358  1.0954  0.1207 -0.4502
   22DG     O3'  697   5.419   2.618  13.297  0.0263  0.3519 -0.0686
   23DC       P  698   5.464   2.671  13.442  0.2422 -0.0307  0.0051
   23DC     O1P  699   5.612   2.670  13.435  0.2142 -0.1032 -0.6109
   23DC     O2P  700   5.396   2.588  13.544 -0.2931 -0.0292 -0.3438
   23DC     O5'  701   5.406   2.821  13.441  0.5277  0.0803 -0.0023
   23DC     C5'  702   5.452   2.923  13.356  0.4801 -0.1438 -0.2998
   23DC    H5'1  703   5.445   2.884  13.255 -2.9263 -0.8861  0.0853
   23DC    H5'2  704   5.554   2.953  13.379  0.2109  1.7140 -1.2664
   23DC     C4'  705   5.369   3.050  13.375  0.3725 -0.2465 -0.0796
   23DC     H4'  706   5.409   3.127  13.308  1.0494 -1.5143 -1.1781
   23DC     O4'  707   5.242   3.016  13.326  0.3846 -0.0807 -0.2291
   23DC     C1'  708   5.161   3.120  13.376  0.4498  0.1181 -0.5372
   23DC     H1'  709   5.179   3.209  13.315  0.3504 -0.4029 -1.3421
   23DC      N1  710   5.017   3.086  13.372  0.4412  0.1197 -0.2645
   23DC      C6  711   4.986   2.959  13.412  0.0582  0.2819 -0.0483
   23DC      H6  712   5.061   2.893  13.453 -0.4958  1.0739  2.3856
   23DC      C5  713   4.861   2.913  13.391  0.1625  0.1273 -0.3352
   23DC      H5  714   4.838   2.811  13.417 -0.6838  0.5730  0.7493
   23DC      C4  715   4.762   3.004  13.343 -0.0594  0.4384  0.6734
   23DC      N4  716   4.635   2.965  13.326  0.1114  0.1170  0.0991
   23DC     H41  717   4.606   2.881  13.374  1.0819  0.4801  1.3886
   23DC     H42  718   4.569   3.034  13.292 -2.8303 -1.6839  1.6753
   23DC      N3  719   4.793   3.128  13.302 -0.3518  0.2119 -0.2618
   23DC      C2  720   4.918   3.173  13.331 -0.3484 -0.3521  0.6235
   23DC      O2  721   4.946   3.291  13.313 -0.1883 -0.5466 -0.4269
   23DC     C3'  722   5.358   3.093  13.521 -0.3002  0.2377 -0.2677
   23DC     H3'  723   5.375   3.003  13.581 -2.5717 -2.3513 -3.1597
   23DC     C2'  724   5.211   3.132  13.520 -0.2809  0.3094 -0.2943
   23DC    H2'1  725   5.172   3.063  13.595  2.0782  0.4463  1.1345
   23DC    H2'2  726   5.202   3.234  13.558  0.8962  0.0623  0.6827
   23DC     O3'  727   5.445   3.198  13.556 -0.3060  0.1439  0.0314
   24DG       P  728   5.473   3.244  13.708  0.1165  0.2136 -0.0655
   24DG     O1P  729   5.600   3.319  13.712  0.1645  0.1363 -0.1262
   24DG     O2P  730   5.453   3.132  13.803 -0.1134 -0.0945 -0.4739
   24DG     O5'  731   5.349   3.343  13.733  0.0673  0.1888 -0.2126
   24DG     C5'  732   5.353   3.477  13.687  0.1886  0.2224 -0.1029
   24DG    H5'1  733   5.360   3.486  13.578 -0.3348 -0.6121 -0.2146
   24DG    H5'2  734   5.446   3.514  13.730 -0.4384 -1.1723  2.6587
   24DG     C4'  735   5.242   3.567  13.739  0.0640  0.1442 -0.2326
   24DG     H4'  736   5.268   3.671  13.719 -0.3740  0.1404 -0.8300
   24DG     O4'  737   5.123   3.532  13.673  0.0660 -0.1670 -0.0722
   24DG     C1'  738   5.022   3.498  13.765  0.1854  0.1592  0.1807
   24DG     H1'  739   4.959   3.583  13.790  0.4841  0.8670 -1.4074
   24DG      N9  740   4.942   3.382  13.720  0.1128  0.2627  0.0450
   24DG      C8  741   4.955   3.246  13.727 -0.0059  0.2559  0.1444
   24DG      H8  742   5.037   3.198  13.777 -0.0326  0.3032  0.2334
   24DG      N7  743   4.852   3.180  13.680 -0.0734  0.5464 -0.1238
   24DG      C5  744   4.760   3.277  13.640 -0.2283  0.3875 -0.1535
   24DG      C6  745   4.625   3.262  13.600 -0.2584 -0.0131  0.0870
   24DG      O6  746   4.558   3.163  13.573 -0.6544  0.3413 -0.2589
   24DG      N1  747   4.561   3.385  13.591 -0.2402  0.0175  0.3737
   24DG      H1  748   4.461   3.385  13.574 -0.0984 -3.4751 -1.3767
   24DG      C2  749   4.624   3.504  13.621 -0.5380  0.0780  0.7709
   24DG      N2  750   4.555   3.617  13.601  0.2226  0.4281  0.0449
   24DG     H21  751   4.455   3.605  13.613  0.4501 -0.4823  1.2037
   24DG     H22  752   4.588   3.710  13.625  0.0132  0.7849 -0.9987
   24DG      N3  753   4.753   3.518  13.656 -0.2683 -0.0551 -0.1278
   24DG      C4  754   4.815   3.399  13.668  0.3299  0.2192 -0.5012
   24DG     C3'  755   5.220   3.558  13.890  0.5141 -0.0249 -0.1750
   24DG     H3'  756   5.296   3.504  13.946  0.3678 -2.1162 -1.8618
   24DG     C2'  757   5.096   3.470  13.895  0.4930  0.0140 -0.0236
   24DG    H2'1  758   5.122   3.364  13.900  1.5835  0.2362 -0.7641
   24DG    H2'2  759   5.031   3.499  13.977  0.8594  1.3020 -0.1723
   24DG     O3'  760   5.200   3.692  13.929 -0.7354 -0.1433 -0.3563
   25DC       P  761   5.150   3.731  14.077  0.0398  0.1805 -0.1733
   25DC     O1P  762   5.205   3.866  14.105  0.5626  0.0895 -0.7378
   25DC     O2P  763   5.173   3.621  14.173 -0.6937 -0.3164 -0.5641
   25DC     O5'  764   4.991   3.745  14.057  0.0158 -0.2543 -0.2959
   25DC     C5'  765   4.933   3.844  13.974 -0.6880 -0.5603 -0.1762
   25DC    H5'1  766   4.965   3.827  13.871 -1.1148 -1.9578 -0.1028
   25DC    H5'2  767   4.962   3.943  14.010 -0.7647 -0.0159 -1.5588
   25DC     C4'  768   4.781   3.837  13.965 -0.6787 -0.8216 -0.1373
   25DC     H4'  769   4.755   3.919  13.898  2.4092  0.3537 -0.0635
   25DC     O4'  770   4.739   3.713  13.913 -0.4500 -0.9546 -0.0051
   25DC     C1'  771   4.622   3.679  13.983 -0.3690 -0.2079  0.5041
   25DC     H1'  772   4.538   3.740  13.948  0.5112 -0.1011 -1.5325
   25DC      N1  773   4.598   3.535  13.966 -0.1988 -0.1486 -0.2847
   25DC      C6  774   4.696   3.442  13.990 -0.3141 -0.1746  0.0859
   25DC      H6  775   4.787   3.490  14.022 -0.3480 -1.7974  3.0045
   25DC      C5  776   4.673   3.309  13.989 -0.0083 -0.2325  0.4864
   25DC      H5  777   4.755   3.243  14.013  1.0797  0.6338 -0.6678
   25DC      C4  778   4.537   3.277  13.960 -0.0133  0.0511  0.1839
   25DC      N4  779   4.499   3.148  13.957  0.4765 -0.0964  0.2609
   25DC     H41  780   4.580   3.088  13.961  1.1771  0.4445 -3.2768
   25DC     H42  781   4.419   3.129  13.899  0.1485  0.5905  0.4784
   25DC      N3  782   4.443   3.365  13.924 -0.1459 -0.3028 -0.3586
   25DC      C2  783   4.469   3.498  13.931 -0.3841 -0.2915  0.5163
   25DC      O2  784   4.380   3.575  13.896  0.3356  0.3990  0.1456
   25DC     C3'  785   4.730   3.846  14.109  0.4923  0.0106  0.2447
   25DC     H3'  786   4.808   3.854  14.185 -1.7983 -0.9342  2.8616
   25DC     C2'  787   4.636   3.727  14.127  0.0555  0.3588  0.2788
   25DC    H2'1  788   4.683   3.650  14.188 -1.1835 -2.0143 -1.6137
   25DC    H2'2  789   4.537   3.752  14.166 -0.9089 -0.3085 -1.6011
   25DC     O3'  790   4.643   3.956  14.125  0.2242 -0.2180  0.3643
   25DC     H3T  791   4.573   3.951  14.059 -1.1996  0.1864  1.7724
   26G      O5'  792   3.748   2.983   0.972  0.1207  0.3005  0.0703
   26G      H5T  793   3.768   2.891   0.989 -0.6055 -0.0315 -0.7978
   26G      C5'  794   3.608   2.983   0.989  0.0886 -0.3314 -0.1565
   26G     H5'1  795   3.575   2.888   1.029  2.0447 -0.4379  1.3642
   26G     H5'2  796   3.558   3.004   0.894  0.0696 -0.9432 -0.2820
   26G      C4'  797   3.571   3.087   1.095  0.7857 -0.4415  0.1996
   26G      H4'  798   3.464   3.089   1.110  0.9631  1.1841  1.4451
   26G      O4'  799   3.598   3.054   1.229 -0.2029 -0.0144  0.5079
   26G      C1'  800   3.671   3.159   1.289  0.1361 -0.0260  0.1173
   26G      H1'  801   3.647   3.172   1.395  0.7212  0.1777  0.2283
   26G       N9  802   3.813   3.119   1.287  0.1132 -0.1511  0.8012
   26G       C8  803   3.867   2.995   1.266 -0.1645 -0.0949 -0.2583
   26G       H8  804   3.807   2.905   1.265  1.4195 -1.2353  1.6240
   26G       N7  805   3.997   2.988   1.277 -0.1244  0.0073 -0.6269
   26G       C5  806   4.037   3.115   1.315  0.0892 -0.3138  0.2589
   26G       C6  807   4.167   3.164   1.343 -0.0030 -0.0596  0.2443
   26G       O6  808   4.270   3.099   1.336 -0.0955 -0.1557 -0.2150
   26G       N1  809   4.164   3.297   1.383  0.0215 -0.0055  0.0694
   26G       H1  810   4.252   3.339   1.409 -0.7131  0.3207  2.2540
   26G       C2  811   4.045   3.368   1.387  0.0449  0.0155  0.4363
   26G       N2  812   4.053   3.496   1.428 -0.2286  0.3260 -0.4676
   26G      H21  813   4.141   3.527   1.466 -0.0375 -0.9680  0.2018
   26G      H22  814   3.970   3.553   1.437 -0.1970  0.1677  0.9451
   26G       N3  815   3.922   3.322   1.362  0.1537  0.0861 -0.2484
   26G       C4  816   3.924   3.193   1.324  0.3214  0.0956 -0.2740
   26G      C3'  817   3.618   3.228   1.062 -0.1276 -0.1598  0.1013
   26G      H3'  818   3.711   3.226   1.006  0.9252 -0.6442  1.7936
   26G      C2'  819   3.639   3.281   1.203  0.0220 -0.0987  0.0560
   26G     H2'1  820   3.726   3.347   1.206 -1.5589  2.0841  1.9344
   26G      O2'  821   3.521   3.342   1.250 -0.0614 -0.2293  0.0149
   26G     HO'2  822   3.469   3.355   1.170 -1.1822  0.0484  0.7660
   26G      O3'  823   3.511   3.298   1.001 -0.0228  0.0507  0.1588
   27C        P  824   3.547   3.400   0.882  0.0650  0.0519  0.1861
   27C      O1P  825   3.432   3.489   0.856  0.0645  0.1066  0.3786
   27C      O2P  826   3.610   3.320   0.774 -0.4588 -0.1437  0.0231
   27C      O5'  827   3.663   3.494   0.942  0.2016 -0.3110  0.4966
   27C      C5'  828   3.630   3.604   1.023  0.0596  0.3163 -0.3930
   27C     H5'1  829   3.582   3.562   1.112  1.6716  0.0429  0.3963
   27C     H5'2  830   3.566   3.677   0.974  1.1024  1.0708 -0.6773
   27C      C4'  831   3.756   3.676   1.071 -0.1594  0.1638  0.4263
   27C      H4'  832   3.713   3.761   1.125 -1.2038  1.0134 -1.6589
   27C      O4'  833   3.841   3.616   1.166  0.1299 -0.4148 -0.1910
   27C      C1'  834   3.978   3.631   1.136  0.1358 -0.5415 -0.2258
   27C      H1'  835   4.022   3.665   1.230 -1.8281  0.5554  0.3495
   27C       N1  836   4.048   3.507   1.097  0.6552 -0.1350 -0.5772
   27C       C6  837   3.986   3.399   1.042 -0.1930  0.0511  0.0051
   27C       H6  838   3.880   3.411   1.024  0.0917  1.7993 -0.6971
   27C       C5  839   4.051   3.288   1.003 -0.2724 -0.0740  0.2326
   27C       H5  840   3.998   3.210   0.949  0.4282 -0.3754 -0.0256
   27C       C4  841   4.193   3.291   1.024 -0.2736 -0.3118  0.2785
   27C       N4  842   4.259   3.176   1.008 -0.2703 -0.2321 -0.3068
   27C      H41  843   4.198   3.095   1.004 -3.0897  1.5112  2.3538
   27C      H42  844   4.347   3.171   1.058  1.6140  4.6483 -2.5182
   27C       N3  845   4.257   3.389   1.089  0.2664 -0.5698  0.1379
   27C       C2  846   4.186   3.502   1.112  0.5994 -0.3040 -0.1271
   27C       O2  847   4.243   3.604   1.150  0.0911 -0.3013  0.6453
   27C      C3'  848   3.846   3.735   0.962 -0.3532  0.2008  0.2862
   27C      H3'  849   3.863   3.660   0.886  1.5751 -0.0932  0.9651
   27C      C2'  850   3.982   3.742   1.032 -0.1081 -0.4375 -0.1251
   27C     H2'1  851   4.059   3.725   0.956  0.6280 -0.2929  0.5860
   27C      O2'  852   4.006   3.868   1.089 -0.2868 -0.4924  0.0731
   27C     HO'2  853   3.959   3.931   1.034  0.1741  0.5924  0.8846
   27C      O3'  854   3.804   3.859   0.911  0.0216  0.2278  0.0504
   28G        P  855   3.786   3.875   0.751 -0.2613 -0.0063  0.0598
   28G      O1P  856   3.734   4.008   0.712  0.6644  0.2844 -0.1937
   28G      O2P  857   3.722   3.749   0.708 -0.3272 -0.1473  0.5597
   28G      O5'  858   3.937   3.864   0.696  0.0182 -0.2330  0.8478
   28G      C5'  859   4.028   3.967   0.726  0.1459  0.0995 -0.5848
   28G     H5'1  860   4.010   4.005   0.826  0.6180  1.2999 -0.9434
   28G     H5'2  861   4.022   4.053   0.660 -0.1983  1.5677  1.2964
   28G      C4'  862   4.175   3.929   0.710  0.1426 -0.0612 -0.2483
   28G      H4'  863   4.237   4.016   0.734 -0.0768  0.0085  0.0684
   28G      O4'  864   4.204   3.832   0.808  0.2432  0.1315 -0.0855
   28G      C1'  865   4.326   3.771   0.773  0.1835  0.0294 -0.1171
   28G      H1'  866   4.411   3.790   0.839 -0.6911 -1.7308  1.6039
   28G       N9  867   4.313   3.625   0.757  0.1690  0.0151  0.0289
   28G       C8  868   4.202   3.548   0.731  0.4509 -0.0411 -1.0634
   28G       H8  869   4.102   3.589   0.736  0.6774  0.4275  2.5360
   28G       N7  870   4.229   3.421   0.727 -0.0241 -0.2037  0.2863
   28G       C5  871   4.367   3.409   0.746 -0.0504 -0.2260  0.4572
   28G       C6  872   4.455   3.299   0.759  0.1596 -0.1677 -0.4474
   28G       O6  873   4.428   3.179   0.755 -0.0721 -0.1261 -0.1248
   28G       N1  874   4.587   3.336   0.782  0.0265  0.1247 -0.1512
   28G       H1  875   4.643   3.254   0.801 -2.0974 -1.5267 -0.5877
   28G       C2  876   4.627   3.467   0.798 -0.0778  0.0840  0.4545
   28G       N2  877   4.758   3.493   0.807 -0.1993  0.7179  0.3854
   28G      H21  878   4.817   3.412   0.803 -3.5420 -1.9104  0.1318
   28G      H22  879   4.787   3.589   0.795  1.2981 -0.0112 -3.1033
   28G       N3  880   4.544   3.571   0.793 -0.0257  0.0947 -0.1978
   28G       C4  881   4.416   3.535   0.767  0.0567 -0.1476 -0.2656
   28G      C3'  882   4.217   3.868   0.577  0.0186 -0.0791 -0.2782
   28G      H3'  883   4.140   3.794   0.555 -0.8241  0.6633  0.1199
   28G      C2'  884   4.352   3.823   0.632 -0.0286 -0.1548 -0.2232
   28G     H2'1  885   4.393   3.740   0.574 -1.4140 -0.9045 -0.1658
   28G      O2'  886   4.445   3.929   0.634 -0.3895  0.1664 -0.3131
   28G     HO'2  887   4.466   3.935   0.540 -2.3059 -1.8516 -0.9786
   28G      O3'  888   4.206   3.961   0.471  0.1167  0.1426 -0.0935
   29C        P  889   4.267   3.913   0.330  0.3301 -0.0878  0.0755
   29C      O1P  890   4.226   4.007   0.223 -0.2528  0.6051  0.8888
   29C      O2P  891   4.233   3.771   0.311 -0.5873  0.1656 -0.2204
   29C      O5'  892   4.423   3.939   0.363  0.2807  0.3174 -0.0023
   29C      C5'  893   4.522   3.890   0.276  0.0339 -0.3527  0.0924
   29C     H5'1  894   4.547   3.960   0.196 -1.0553  2.0080  1.7064
   29C     H5'2  895   4.484   3.798   0.231 -0.5093 -1.1519  2.0722
   29C      C4'  896   4.646   3.840   0.349  0.2134 -0.1065 -0.0423
   29C      H4'  897   4.697   3.927   0.390  1.4647 -1.2920  1.0241
   29C      O4'  898   4.616   3.752   0.455  0.0767  0.4968  0.4223
   29C      C1'  899   4.709   3.646   0.459 -0.0897  0.3368  0.1039
   29C      H1'  900   4.763   3.652   0.554 -1.7866  1.4879  1.0503
   29C       N1  901   4.654   3.510   0.449  0.1757  0.2377 -0.0170
   29C       C6  902   4.525   3.494   0.408  0.2394 -0.2553 -0.0332
   29C       H6  903   4.459   3.578   0.390 -0.6279 -0.7838  0.5822
   29C       C5  904   4.471   3.371   0.395 -0.1006 -0.0953 -0.1657
   29C       H5  905   4.371   3.355   0.358  0.4854 -0.6226 -1.6102
   29C       C4  906   4.553   3.260   0.432 -0.1513 -0.0193  0.1753
   29C       N4  907   4.512   3.133   0.416  0.1729 -0.1543  0.3827
   29C      H41  908   4.424   3.115   0.370 -0.1012  1.9696 -0.0329
   29C      H42  909   4.562   3.061   0.465  0.9818 -0.6008 -1.0259
   29C       N3  910   4.680   3.272   0.473 -0.0216  0.0323 -0.2359
   29C       C2  911   4.730   3.398   0.478 -0.1176  0.0596  0.0681
   29C       O2  912   4.844   3.428   0.512 -0.0569  0.0039 -0.0854
   29C      C3'  913   4.735   3.771   0.245  0.1818  0.2249 -0.2930
   29C      H3'  914   4.670   3.724   0.172 -1.0362  1.5505 -0.1059
   29C      C2'  915   4.806   3.681   0.346 -0.0315  0.6647  0.2537
   29C     H2'1  916   4.854   3.590   0.310  2.1252  0.8056  2.4949
   29C      O2'  917   4.913   3.756   0.400  0.3058  0.6375 -0.3660
   29C     HO'2  918   4.929   3.825   0.335 -1.5759  1.3503 -0.1566
   29C      O3'  919   4.830   3.854   0.183 -0.0394  0.4062 -0.3909
   30A        P  920   4.889   3.814   0.039 -0.1892 -0.2122 -0.2824
   30A      O1P  921   4.987   3.916  -0.006 -0.8421  0.3608 -0.4155
   30A      O2P  922   4.772   3.783  -0.045 -0.1486 -0.4063 -0.2673
   30A      O5'  923   4.968   3.677   0.071 -0.0893 -0.0006  0.3935
   30A      C5'  924   5.099   3.673   0.122 -0.1767  0.7094  0.6890
   30A     H5'1  925   5.103   3.727   0.217 -0.7121  0.3244  0.9380
   30A     H5'2  926   5.166   3.714   0.047  0.6241 -0.7725  0.5418
   30A      C4'  927   5.144   3.529   0.148 -0.5598  0.3872 -0.3736
   30A      H4'  928   5.243   3.522   0.193 -0.5536 -1.4253 -0.6120
   30A      O4'  929   5.050   3.469   0.235 -0.2305 -0.0409 -0.3116
   30A      C1'  930   5.034   3.332   0.203 -0.2078 -0.0708 -0.1942
   30A      H1'  931   5.063   3.265   0.284 -2.0092  1.4045  1.7748
   30A       N9  932   4.894   3.296   0.171 -0.3516  0.1191  0.2208
   30A       C8  933   4.791   3.368   0.117 -0.3755 -0.5958 -0.7003
   30A       H8  934   4.809   3.475   0.108 -0.9315 -0.6038 -2.1647
   30A       N7  935   4.683   3.304   0.082 -0.3962 -0.6513 -0.5347
   30A       C5  936   4.722   3.175   0.117 -0.0897 -0.2703  0.5853
   30A       C6  937   4.654   3.052   0.131 -0.1572 -0.2218  0.6771
   30A       N6  938   4.524   3.028   0.110  0.0364  0.0031 -0.8529
   30A      H61  939   4.461   3.106   0.095 -0.9472 -0.4899  0.4984
   30A      H62  940   4.488   2.934   0.118  0.1028  0.0826  0.6792
   30A       N1  941   4.711   2.940   0.177  0.3662 -0.1812  0.1392
   30A       C2  942   4.841   2.945   0.203  0.3788 -0.1715  0.0715
   30A       H2  943   4.893   2.855   0.233 -2.7171 -1.7175  1.2978
   30A       N3  944   4.914   3.055   0.205  0.2854 -0.0967 -0.3924
   30A       C4  945   4.850   3.167   0.165  0.2108 -0.0577 -0.1700
   30A      C3'  946   5.146   3.446   0.020 -0.1395  0.2686 -0.2920
   30A      H3'  947   5.066   3.468  -0.051  1.1778  1.5192 -1.4556
   30A      C2'  948   5.132   3.311   0.088 -0.1471  0.3075 -0.2159
   30A     H2'1  949   5.096   3.241   0.012 -0.7840  2.6926 -2.2322
   30A      O2'  950   5.258   3.274   0.139 -0.3367 -0.0119  0.0280
   30A     HO'2  951   5.329   3.311   0.085 -0.0542  2.5466  1.9402
   30A      O3'  952   5.264   3.464  -0.055 -0.2186  0.4198 -0.3825
   31G        P  953   5.287   3.396  -0.199  0.0737 -0.1015 -0.0938
   31G      O1P  954   5.417   3.449  -0.246  0.1828 -0.0489  0.2624
   31G      O2P  955   5.171   3.419  -0.288  0.3111  0.3459 -0.2905
   31G      O5'  956   5.296   3.237  -0.172 -0.5512 -0.0543  0.4013
   31G      C5'  957   5.415   3.172  -0.136 -0.2425  0.4125  0.2401
   31G     H5'1  958   5.459   3.197  -0.040  0.9253 -1.0074  0.1171
   31G     H5'2  959   5.484   3.183  -0.220 -0.6631 -1.9215 -0.5032
   31G      C4'  960   5.380   3.024  -0.125  0.0615  0.3188 -0.0142
   31G      H4'  961   5.461   2.959  -0.091  1.3691  2.0982  0.3662
   31G      O4'  962   5.277   3.004  -0.029  0.1139 -0.1309 -0.0502
   31G      C1'  963   5.193   2.899  -0.074 -0.0409  0.0922 -0.2851
   31G      H1'  964   5.186   2.823   0.004  1.1695  0.8837  0.6491
   31G       N9  965   5.054   2.933  -0.109 -0.3303 -0.1706  0.5855
   31G       C8  966   4.996   3.050  -0.151  0.2571 -0.3651 -0.8064
   31G       H8  967   5.057   3.136  -0.172 -1.1597  1.0142  0.4338
   31G       N7  968   4.866   3.045  -0.158  0.2007 -0.0887 -0.0241
   31G       C5  969   4.839   2.910  -0.135 -0.1543  0.0101  0.1502
   31G       C6  970   4.716   2.839  -0.133  0.0565 -0.3626  0.0504
   31G       O6  971   4.602   2.879  -0.156  0.4456  0.3939 -0.6287
   31G       N1  972   4.729   2.704  -0.107  0.2006 -0.3208  0.2031
   31G       H1  973   4.650   2.642  -0.119 -0.2592  0.3061 -0.0048
   31G       C2  974   4.848   2.649  -0.064  0.2711 -0.4695 -0.1724
   31G       N2  975   4.840   2.524  -0.016 -0.0532 -0.4471 -0.1659
   31G      H21  976   4.750   2.478  -0.016 -1.1191  1.4938 -1.3907
   31G      H22  977   4.914   2.493   0.045  1.0263  0.6840 -0.8543
   31G       N3  978   4.966   2.712  -0.061  0.1883 -0.3082 -0.3589
   31G       C4  979   4.953   2.840  -0.104 -0.2373 -0.3307 -0.2976
   31G      C3'  980   5.338   2.952  -0.253 -0.2723  0.1742  0.1740
   31G      H3'  981   5.265   3.014  -0.305  0.4598  0.5596 -0.4059
   31G      C2'  982   5.262   2.834  -0.193 -0.1541 -0.1110 -0.2372
   31G     H2'1  983   5.188   2.798  -0.265  1.4362 -2.4346 -0.8203
   31G      O2'  984   5.345   2.728  -0.151 -0.3739 -0.1939 -0.0107
   31G     HO'2  985   5.433   2.742  -0.185 -0.3499  0.1357  0.1885
   31G      O3'  986   5.442   2.906  -0.335 -0.3642 -0.2817  0.3104
   32A        P  987   5.413   2.859  -0.486 -0.0146 -0.0363  0.1660
   32A      O1P  988   5.542   2.834  -0.554 -0.3137 -0.1489 -0.3668
   32A      O2P  989   5.328   2.960  -0.553 -0.1609 -0.4130 -0.2261
   32A      O5'  990   5.330   2.724  -0.460 -0.0209 -0.0426  0.1158
   32A      C5'  991   5.392   2.597  -0.461 -0.2286 -0.1444 -0.1465
   32A     H5'1  992   5.459   2.587  -0.376 -0.6811 -2.3763 -0.0019
   32A     H5'2  993   5.448   2.583  -0.553 -1.8737  1.1321 -1.4139
   32A      C4'  994   5.290   2.485  -0.444 -0.4847  0.0835 -0.1641
   32A      H4'  995   5.342   2.399  -0.403 -2.4012 -1.0444 -0.0102
   32A      O4'  996   5.198   2.513  -0.342  0.0578  0.1578  0.3102
   32A      C1'  997   5.077   2.459  -0.391  0.3107 -0.3196  0.2082
   32A      H1'  998   5.024   2.407  -0.311 -0.9929  5.0553  3.3816
   32A       N9  999   4.982   2.569  -0.414  0.5183 -0.1039  0.3745
   32A       C8 1000   5.001   2.698  -0.458 -0.6481  0.0474  0.2635
   32A       H8 1001   5.101   2.735  -0.474  0.2905 -2.7900 -1.1121
   32A       N7 1002   4.898   2.778  -0.468 -0.6116  0.0293 -0.3000
   32A       C5 1003   4.798   2.686  -0.440 -0.2590 -0.4037 -0.4438
   32A       C6 1004   4.659   2.697  -0.419 -0.1648  0.3678 -0.2098
   32A       N6 1005   4.596   2.815  -0.426 -0.3103  0.2982 -0.0724
   32A      H61 1006   4.647   2.902  -0.434  1.0366 -0.2546  1.8355
   32A      H62 1007   4.499   2.825  -0.401 -0.3532  0.9442 -0.4698
   32A       N1 1008   4.583   2.594  -0.380  0.3609 -0.0421 -0.2572
   32A       C2 1009   4.644   2.478  -0.360  0.4391  0.0299 -0.0801
   32A       H2 1010   4.580   2.394  -0.341 -2.1555  1.5375 -1.6588
   32A       N3 1011   4.774   2.452  -0.371  0.4636  0.0872  0.0665
   32A       C4 1012   4.845   2.560  -0.413  0.5065 -0.1046 -0.3567
   32A      C3' 1013   5.217   2.452  -0.574 -0.5497 -0.4770  0.0149
   32A      H3' 1014   5.177   2.538  -0.627  0.5315  0.2010  0.2796
   32A      C2' 1015   5.099   2.374  -0.515 -0.7156 -0.2591 -0.0289
   32A     H2'1 1016   5.016   2.390  -0.584 -0.3829 -1.0543 -0.6327
   32A      O2' 1017   5.123   2.238  -0.486  0.0622 -0.1391 -0.0643
   32A     HO'2 1018   5.048   2.197  -0.442  1.3117 -1.9319  0.5140
   32A      O3' 1019   5.299   2.362  -0.646 -0.4405 -0.3982  0.0410
   33U        P 1020   5.270   2.334  -0.802  0.0639 -0.0673 -0.1149
   33U      O1P 1021   5.379   2.245  -0.848  0.4181  0.3094 -0.0137
   33U      O2P 1022   5.258   2.465  -0.870 -0.1653 -0.0480 -0.0377
   33U      O5' 1023   5.128   2.259  -0.818 -0.2034  0.4017  0.0454
   33U      C5' 1024   5.116   2.121  -0.791 -0.6035  0.1672 -1.2855
   33U     H5'1 1025   5.183   2.091  -0.711  0.1438  0.7410 -1.6804
   33U     H5'2 1026   5.149   2.074  -0.884 -1.2895 -0.5953 -1.1520
   33U      C4' 1027   4.976   2.077  -0.749 -0.0916  0.0477  0.3308
   33U      H4' 1028   4.991   1.976  -0.711 -1.8254 -0.8551 -1.2617
   33U      O4' 1029   4.912   2.148  -0.644 -0.4190 -0.6493  0.6051
   33U      C1' 1030   4.774   2.153  -0.673 -0.3120 -0.0825  0.1665
   33U      H1' 1031   4.705   2.113  -0.598  0.6288 -0.5590  0.7984
   33U       N1 1032   4.734   2.293  -0.694 -0.0321  0.0533  0.5165
   33U       C6 1033   4.818   2.380  -0.756 -0.2904 -0.5180 -0.6674
   33U       H6 1034   4.913   2.350  -0.800 -0.3780  0.0806 -1.2818
   33U       C5 1035   4.788   2.511  -0.771  0.5900 -0.1939  0.3253
   33U       H5 1036   4.848   2.577  -0.832  0.2829  0.2809  0.5352
   33U       C4 1037   4.664   2.568  -0.725  0.3088 -0.2491 -0.3643
   33U       O4 1038   4.628   2.685  -0.713  0.0670 -0.3935  0.3654
   33U       N3 1039   4.576   2.473  -0.675  0.0419  0.1140 -0.1382
   33U       H3 1040   4.495   2.513  -0.629  0.0824  0.4593 -0.3688
   33U       C2 1041   4.610   2.340  -0.653 -0.8220 -0.3208 -1.3314
   33U       O2 1042   4.545   2.267  -0.580  0.2474  0.2411  0.2331
   33U      C3' 1043   4.891   2.076  -0.875  0.0841 -0.2893  0.2138
   33U      H3' 1044   4.918   2.161  -0.937  3.6393 -2.3375 -1.3455
   33U      C2' 1045   4.755   2.079  -0.805  0.0186 -0.0058  0.0769
   33U     H2'1 1046   4.676   2.120  -0.867 -0.7006 -1.1808  0.1883
   33U      O2' 1047   4.717   1.949  -0.764  0.1902 -0.1726 -0.2907
   33U     HO'2 1048   4.705   1.892  -0.840 -0.0706  0.4123 -0.7001
   33U      O3' 1049   4.887   1.956  -0.949 -0.0257 -0.4050  0.4078
   34G        P 1050   4.833   1.946  -1.100  0.1634 -0.4188  0.3410
   34G      O1P 1051   4.827   1.805  -1.145  0.1976 -0.1661 -0.4776
   34G      O2P 1052   4.916   2.039  -1.180 -0.2218 -0.4910 -0.1447
   34G      O5' 1053   4.687   2.013  -1.094  0.4945  0.3385  0.0631
   34G      C5' 1054   4.571   1.934  -1.091  0.4713  0.3397 -0.6867
   34G     H5'1 1055   4.587   1.865  -1.008  1.5258 -0.2205 -1.3386
   34G     H5'2 1056   4.563   1.882  -1.187 -0.6467 -0.5189 -0.1497
   34G      C4' 1057   4.438   2.004  -1.065  0.6063  0.2580  0.2450
   34G      H4' 1058   4.365   1.930  -1.033 -0.7725  0.1206 -2.8799
   34G      O4' 1059   4.458   2.104  -0.967 -0.4300 -0.0931  0.8384
   34G      C1' 1060   4.360   2.201  -0.993  0.2293  0.2563 -0.4556
   34G      H1' 1061   4.281   2.205  -0.918 -0.7555  1.1949 -1.4962
   34G       N9 1062   4.411   2.339  -1.001  0.0289  0.3293 -0.4876
   34G       C8 1063   4.538   2.381  -1.032  0.2419 -0.0399 -0.1375
   34G       H8 1064   4.624   2.318  -1.045  0.3675  0.3540 -1.3679
   34G       N7 1065   4.544   2.511  -1.032  0.3294 -0.0412 -0.4822
   34G       C5 1066   4.414   2.559  -1.016  0.3863  0.0535 -0.2977
   34G       C6 1067   4.352   2.686  -1.011 -0.0669 -0.1693 -0.2272
   34G       O6 1068   4.405   2.796  -1.022  0.5427 -0.4187  0.2095
   34G       N1 1069   4.213   2.686  -0.998 -0.0542 -0.1746 -0.0996
   34G       H1 1070   4.173   2.777  -0.979  3.6268  0.9017  4.9220
   34G       C2 1071   4.140   2.570  -0.985 -0.1182 -0.1500 -0.2449
   34G       N2 1072   4.007   2.579  -0.981 -0.0862  0.1280  0.2567
   34G      H21 1073   3.963   2.670  -0.989  1.7481  0.9310 -1.5476
   34G      H22 1074   3.945   2.501  -0.965 -1.6467  1.1017 -0.7108
   34G       N3 1075   4.200   2.452  -0.965  0.2513  0.0421 -0.2041
   34G       C4 1076   4.334   2.452  -0.984  0.4730  0.4158  1.2178
   34G      C3' 1077   4.403   2.077  -1.194  0.2597 -0.1792  0.0865
   34G      H3' 1078   4.495   2.125  -1.229  0.0591 -0.9511 -1.5804
   34G      C2' 1079   4.306   2.178  -1.134 -0.0262 -0.2355 -0.2782
   34G     H2'1 1080   4.309   2.265  -1.199  0.3603 -0.5821 -0.7299
   34G      O2' 1081   4.177   2.123  -1.118 -0.0002 -0.2223 -0.0197
   34G     HO'2 1082   4.140   2.112  -1.206 -1.5036 -0.7936  0.6402
   34G      O3' 1083   4.342   2.000  -1.295 -0.7846  0.7743 -0.0255
   35C        P 1084   4.324   2.064  -1.442  0.5458  0.1928 -0.4528
   35C      O1P 1085   4.303   1.955  -1.539 -0.0198  0.4746 -0.6454
   35C      O2P 1086   4.439   2.156  -1.460  0.6268  0.1216 -0.3046
   35C      O5' 1087   4.192   2.154  -1.428  0.3027 -0.3087  0.5270
   35C      C5' 1088   4.067   2.089  -1.413  0.1168 -0.1989 -0.4589
   35C     H5'1 1089   4.069   2.012  -1.335 -0.6447  0.7234  0.5019
   35C     H5'2 1090   4.043   2.043  -1.508  0.7197  3.2681 -2.4707
   35C      C4' 1091   3.961   2.191  -1.374  0.1172 -0.2554 -0.3075
   35C      H4' 1092   3.874   2.135  -1.341 -1.0208  1.6320  0.1046
   35C      O4' 1093   3.999   2.285  -1.276  0.0030 -0.1529 -0.3616
   35C      C1' 1094   3.937   2.409  -1.305 -0.2030 -0.1571  0.0566
   35C      H1' 1095   3.870   2.429  -1.221  0.9384  0.3163  0.8766
   35C       N1 1096   4.043   2.511  -1.319  0.0158 -0.3626  0.2067
   35C       C6 1097   4.174   2.484  -1.342  0.0928 -0.4164  0.6888
   35C       H6 1098   4.209   2.383  -1.358 -0.4523 -0.4057 -0.7301
   35C       C5 1099   4.261   2.583  -1.374 -0.5625 -0.0223  0.1008
   35C       H5 1100   4.366   2.561  -1.389 -0.7155  0.0392 -1.1947
   35C       C4 1101   4.211   2.717  -1.373 -0.0151  0.1827  0.4485
   35C       N4 1102   4.297   2.817  -1.398 -0.0475  0.1273  0.1063
   35C      H41 1103   4.394   2.793  -1.409  0.6757  2.1106  1.5407
   35C      H42 1104   4.270   2.915  -1.396  2.5698  0.9316  0.0148
   35C       N3 1105   4.092   2.747  -1.320 -0.0509 -0.0631  0.5051
   35C       C2 1106   4.007   2.643  -1.298  0.1460 -0.3100  0.0927
   35C       O2 1107   3.894   2.672  -1.260  0.2839 -0.0227  0.2904
   35C      C3' 1108   3.919   2.265  -1.501  0.2634 -0.3057 -0.3841
   35C      H3' 1109   4.007   2.292  -1.560  0.4435 -1.6156 -0.7412
   35C      C2' 1110   3.854   2.384  -1.430  0.1838 -0.4976 -0.1333
   35C     H2'1 1111   3.855   2.473  -1.493 -1.1700 -0.0553  0.4308
   35C      O2' 1112   3.722   2.367  -1.383  0.1912  0.1298  0.1203
   35C     HO'2 1113   3.673   2.449  -1.381 -0.3425 -0.0474 -2.4988
   35C      O3' 1114   3.827   2.200  -1.585 -0.3434  0.0139  0.0236
   36C        P 1115   3.803   2.257  -1.733 -0.1916  0.1007  0.0329
   36C      O1P 1116   3.718   2.157  -1.802  0.5753 -0.1641 -0.5365
   36C      O2P 1117   3.935   2.289  -1.791 -0.0639  0.0307  0.2882
   36C      O5' 1118   3.724   2.398  -1.728  0.1151  0.2640  0.2567
   36C      C5' 1119   3.592   2.408  -1.679  0.0021 -0.3838  0.0953
   36C     H5'1 1120   3.582   2.358  -1.582 -0.6047 -1.2408 -0.3993
   36C     H5'2 1121   3.520   2.362  -1.746  1.0359 -1.9079 -0.0150
   36C      C4' 1122   3.548   2.552  -1.653  0.2933 -0.2480 -0.1573
   36C      H4' 1123   3.454   2.536  -1.601  1.6724 -0.5992  2.4203
   36C      O4' 1124   3.630   2.626  -1.565 -0.5603 -0.1149  0.5394
   36C      C1' 1125   3.642   2.762  -1.599  0.1572 -0.2754  0.1314
   36C      H1' 1126   3.601   2.823  -1.518 -1.0651  3.0739 -2.7399
   36C       N1 1127   3.780   2.797  -1.640  0.1332 -0.1349  0.1697
   36C       C6 1128   3.865   2.709  -1.699 -0.1827 -0.4078  0.1162
   36C       H6 1129   3.830   2.613  -1.734  0.8694 -0.9123  0.3962
   36C       C5 1130   3.995   2.745  -1.707 -0.3615  0.3306  0.4933
   36C       H5 1131   4.068   2.677  -1.747 -0.6300  0.0127  0.5386
   36C       C4 1132   4.035   2.874  -1.659 -0.0398  0.4358 -0.0533
   36C       N4 1133   4.156   2.919  -1.696 -0.3077  0.6222 -0.7236
   36C      H41 1134   4.227   2.851  -1.721 -0.8719 -0.1683 -0.2256
   36C      H42 1135   4.172   3.018  -1.682 -0.1546  0.5599 -0.4426
   36C       N3 1136   3.948   2.967  -1.618  0.0901  0.3728  0.3645
   36C       C2 1137   3.819   2.925  -1.607  0.1892 -0.0723 -0.1392
   36C       O2 1138   3.737   3.011  -1.576  0.1962  0.0123 -0.3543
   36C      C3' 1139   3.534   2.635  -1.779 -0.5588 -0.4653 -0.2104
   36C      H3' 1140   3.626   2.626  -1.838 -0.5537  1.7538 -0.6448
   36C      C2' 1141   3.555   2.776  -1.723  0.3349 -0.6594 -0.0373
   36C     H2'1 1142   3.604   2.849  -1.787  1.1909  0.0683  1.4014
   36C      O2' 1143   3.427   2.818  -1.680  0.4912 -0.1524 -0.0650
   36C     HO'2 1144   3.369   2.815  -1.757 -1.1567  0.3383  1.1027
   36C      O3' 1145   3.415   2.622  -1.854 -0.7582 -0.0669  0.0319
   37C        P 1146   3.404   2.675  -2.006  0.0411  0.1212  0.0354
   37C      O1P 1147   3.260   2.660  -2.037  0.0551  0.3416 -0.1363
   37C      O2P 1148   3.509   2.606  -2.085  0.2909  0.0632  0.4121
   37C      O5' 1149   3.448   2.829  -2.000 -0.2459  0.2196 -0.3627
   37C      C5' 1150   3.360   2.937  -1.980 -0.2886  0.1680 -0.2721
   37C     H5'1 1151   3.320   2.937  -1.878  1.0108  1.3468  0.2765
   37C     H5'2 1152   3.287   2.943  -2.060 -0.3640 -2.2206 -0.4329
   37C      C4' 1153   3.425   3.075  -1.985  0.0391  0.0285  0.1081
   37C      H4' 1154   3.357   3.153  -1.951 -1.5484  0.2816 -3.2930
   37C      O4' 1155   3.541   3.075  -1.904  0.0412  0.0907  0.1051
   37C      C1' 1156   3.624   3.180  -1.945  0.1953 -0.0984 -0.0691
   37C      H1' 1157   3.604   3.262  -1.875 -0.6028  0.7228 -1.2248
   37C       N1 1158   3.769   3.152  -1.951  0.2271  0.0112  0.1878
   37C       C6 1159   3.807   3.021  -1.960 -0.6472 -0.2149 -0.3254
   37C       H6 1160   3.740   2.938  -1.947 -1.3589  0.7481  2.7713
   37C       C5 1161   3.939   2.994  -1.973 -0.3574  1.0293 -0.1145
   37C       H5 1162   3.969   2.891  -1.983  1.3325  1.0416  3.4817
   37C       C4 1163   4.036   3.100  -1.969  0.4850  0.2455  0.5129
   37C       N4 1164   4.166   3.068  -1.974  0.4590  0.0809  0.8783
   37C      H41 1165   4.195   2.972  -1.988 -1.1250 -0.2832 -0.1136
   37C      H42 1166   4.231   3.145  -1.974  1.8560 -1.0427  1.7979
   37C       N3 1167   3.993   3.226  -1.971 -0.0095  0.0728 -0.8091
   37C       C2 1168   3.861   3.255  -1.958  0.0395  0.1351 -0.4421
   37C       O2 1169   3.821   3.371  -1.953 -0.1212  0.0606  0.0054
   37C      C3' 1170   3.477   3.116  -2.122 -0.1225  0.0167  0.0422
   37C      H3' 1171   3.532   3.030  -2.161 -0.9489 -0.3621 -0.2958
   37C      C2' 1172   3.573   3.228  -2.081 -0.0885 -0.0209  0.0652
   37C     H2'1 1173   3.665   3.240  -2.139  0.7350  2.2956  1.7327
   37C      O2' 1174   3.509   3.353  -2.073 -0.2680 -0.1123  0.0536
   37C     HO'2 1175   3.528   3.387  -2.160  2.5120 -1.0173  0.2120
   37C      O3' 1176   3.378   3.164  -2.210 -0.1708 -0.2413 -0.0451
   38U        P 1177   3.409   3.193  -2.365 -0.2185  0.1450  0.0156
   38U      O1P 1178   3.277   3.228  -2.421 -0.1854  0.0060 -0.1491
   38U      O2P 1179   3.482   3.072  -2.412 -0.2618  0.1210  0.0102
   38U      O5' 1180   3.510   3.318  -2.374  0.2060 -0.2056 -0.1466
   38U      C5' 1181   3.466   3.451  -2.367  0.9504  0.0247  0.3578
   38U     H5'1 1182   3.386   3.473  -2.295  0.4454 -1.8740  0.4214
   38U     H5'2 1183   3.413   3.463  -2.462 -0.2401  2.1962  1.2212
   38U      C4' 1184   3.581   3.551  -2.367  0.8423  0.1514 -0.1063
   38U      H4' 1185   3.551   3.656  -2.365  1.9297  0.4924 -0.8941
   38U      O4' 1186   3.669   3.539  -2.258  0.1345 -0.1327  0.4364
   38U      C1' 1187   3.797   3.585  -2.293 -0.0347 -0.2787 -0.3879
   38U      H1' 1188   3.839   3.662  -2.228  2.0136 -2.0352  0.5248
   38U       N1 1189   3.894   3.473  -2.285 -0.0216 -0.2578 -0.2667
   38U       C6 1190   3.854   3.345  -2.308 -0.4558 -0.1940  0.1139
   38U       H6 1191   3.751   3.319  -2.330 -0.2261 -2.2230  1.1670
   38U       C5 1192   3.943   3.243  -2.302  0.0949  0.2910  0.2630
   38U       H5 1193   3.913   3.141  -2.322 -1.1086  0.8115 -0.7568
   38U       C4 1194   4.085   3.264  -2.299  0.1250  0.0347  0.6086
   38U       O4 1195   4.166   3.172  -2.291  0.2712  0.1013 -0.0571
   38U       N3 1196   4.120   3.399  -2.296  0.4077 -0.0320  0.3675
   38U       H3 1197   4.216   3.418  -2.319  0.0219  0.9038 -0.5516
   38U       C2 1198   4.029   3.503  -2.289 -0.0148 -0.3264 -0.5392
   38U       O2 1199   4.077   3.616  -2.284 -0.1896 -0.2770  0.1492
   38U      C3' 1200   3.663   3.558  -2.496  0.2937 -0.2378 -0.4809
   38U      H3' 1201   3.684   3.455  -2.524  2.2567 -0.2403  0.7994
   38U      C2' 1202   3.786   3.628  -2.439  0.2845 -0.2781 -0.4123
   38U     H2'1 1203   3.877   3.607  -2.495  1.3258  0.6197  0.8610
   38U      O2' 1204   3.779   3.769  -2.437  0.3292 -0.2775 -0.2237
   38U     HO'2 1205   3.857   3.791  -2.489 -1.1308 -1.7013 -3.3470
   38U      O3' 1206   3.597   3.635  -2.594 -0.1169 -0.0834 -0.0896
   39U        P 1207   3.633   3.630  -2.751  0.0550  0.2087 -0.0593
   39U      O1P 1208   3.527   3.689  -2.835 -0.2224 -0.2986 -0.0746
   39U      O2P 1209   3.673   3.492  -2.788 -0.2912  0.0428  0.1796
   39U      O5' 1210   3.766   3.721  -2.746  0.0143  0.2557  0.1750
   39U      C5' 1211   3.768   3.862  -2.746 -0.0421  0.2564 -0.0395
   39U     H5'1 1212   3.709   3.891  -2.659  1.4144 -0.7031  1.3165
   39U     H5'2 1213   3.737   3.912  -2.838 -0.3817 -1.4706 -0.9119
   39U      C4' 1214   3.914   3.900  -2.725 -0.0363  0.1844  0.0466
   39U      H4' 1215   3.930   4.003  -2.694 -0.4917  0.6678 -1.2943
   39U      O4' 1216   3.982   3.825  -2.627  0.1652  0.8376  0.4142
   39U      C1' 1217   4.117   3.794  -2.658 -0.0745  0.1741  0.0122
   39U      H1' 1218   4.178   3.843  -2.582 -0.4300  0.0277  0.4030
   39U       N1 1219   4.152   3.651  -2.645  0.3596  0.2802  0.0189
   39U       C6 1220   4.066   3.555  -2.691  0.4513 -0.0626  0.5530
   39U       H6 1221   3.976   3.594  -2.735  1.8757  1.5836 -1.0768
   39U       C5 1222   4.092   3.423  -2.677  0.0358 -0.2572 -0.4238
   39U       H5 1223   4.032   3.342  -2.716  0.7336 -1.1428  0.2932
   39U       C4 1224   4.217   3.377  -2.622 -0.3602 -0.4181  0.3574
   39U       O4 1225   4.247   3.261  -2.593  0.5209 -0.0541  0.9437
   39U       N3 1226   4.302   3.481  -2.588 -0.4026 -0.3779  0.3380
   39U       H3 1227   4.385   3.463  -2.533  0.8135  1.5608 -0.7434
   39U       C2 1228   4.269   3.616  -2.581 -0.0289 -0.2901  0.4316
   39U       O2 1229   4.354   3.692  -2.536  0.4049 -0.3627 -0.2426
   39U      C3' 1230   4.005   3.874  -2.844  0.3912 -0.3412  0.4857
   39U      H3' 1231   3.966   3.783  -2.890  1.0544 -1.1174  1.3990
   39U      C2' 1232   4.148   3.848  -2.797  0.5673 -0.3495 -0.0494
   39U     H2'1 1233   4.202   3.774  -2.856 -0.2630  0.2865 -1.6416
   39U      O2' 1234   4.228   3.963  -2.778 -0.1610  0.1689 -0.1026
   39U     HO'2 1235   4.293   3.967  -2.848  0.2378 -2.9165 -0.0553
   39U      O3' 1236   3.996   3.984  -2.931  0.3780 -0.5005  0.2842
   40C        P 1237   4.023   3.978  -3.089 -0.5483 -0.1358  0.1022
   40C      O1P 1238   3.989   4.113  -3.140 -0.5169 -0.1446  0.0579
   40C      O2P 1239   3.950   3.860  -3.140  0.4362 -0.7231  0.0129
   40C      O5' 1240   4.181   3.952  -3.104 -0.4162  0.4473  0.4481
   40C      C5' 1241   4.279   4.049  -3.072  0.3781 -0.1147 -0.2099
   40C     H5'1 1242   4.254   4.100  -2.979  0.9017  0.5721 -0.4418
   40C     H5'2 1243   4.279   4.123  -3.151 -1.4552  0.2171  0.0407
   40C      C4' 1244   4.424   4.011  -3.044  0.2893 -0.2717  0.0481
   40C      H4' 1245   4.488   4.088  -3.001  1.1923  0.4040 -2.3391
   40C      O4' 1246   4.422   3.908  -2.948 -0.2782 -0.3783 -0.0749
   40C      C1' 1247   4.537   3.828  -2.963  0.3401  0.5118 -0.1743
   40C      H1' 1248   4.604   3.839  -2.878 -2.2354  3.6661  1.6890
   40C       N1 1249   4.505   3.684  -2.973 -0.0338  0.5726  0.1123
   40C       C6 1250   4.380   3.637  -2.999 -0.0444  0.6026  0.1089
   40C       H6 1251   4.301   3.704  -3.031 -0.7032 -0.6563 -1.0245
   40C       C5 1252   4.358   3.507  -2.970  0.3143  0.5011 -0.0714
   40C       H5 1253   4.259   3.465  -2.974  0.5560 -0.0468 -0.3309
   40C       C4 1254   4.464   3.420  -2.931 -0.3657 -0.0635  0.5517
   40C       N4 1255   4.445   3.294  -2.890 -0.2432 -0.0870  0.5382
   40C      H41 1256   4.367   3.236  -2.919 -0.0724 -0.0464 -0.0246
   40C      H42 1257   4.523   3.251  -2.843 -0.9448 -1.1309  0.7901
   40C       N3 1258   4.590   3.465  -2.918 -0.3427  0.0836 -0.1363
   40C       C2 1259   4.609   3.596  -2.950 -0.3703 -0.0816 -0.8351
   40C       O2 1260   4.726   3.635  -2.951 -0.4105  0.0611  0.0643
   40C      C3' 1261   4.499   3.947  -3.161 -0.2557 -0.2022 -0.3462
   40C      H3' 1262   4.435   3.873  -3.210 -1.2920 -0.8164  1.8298
   40C      C2' 1263   4.612   3.875  -3.087  0.1522  0.4803 -0.3000
   40C     H2'1 1264   4.644   3.787  -3.142  1.5002  0.8986 -0.2220
   40C      O2' 1265   4.728   3.941  -3.041 -0.1055  0.3673  0.5265
   40C     HO'2 1266   4.795   3.874  -3.026 -2.0045 -1.8368 -0.2536
   40C      O3' 1267   4.539   4.045  -3.254 -0.4450 -0.0861 -0.3056
   41C        P 1268   4.585   4.004  -3.403 -0.0816 -0.1910 -0.1653
   41C      O1P 1269   4.595   4.125  -3.487 -0.5246 -0.0658 -0.0402
   41C      O2P 1270   4.493   3.901  -3.458 -0.1954 -0.0971 -0.1524
   41C      O5' 1271   4.730   3.936  -3.394  0.0834  0.2124  0.2729
   41C      C5' 1272   4.849   4.008  -3.368  0.0737  0.3438 -0.0447
   41C     H5'1 1273   4.846   4.076  -3.283  1.6283  0.5239 -0.1110
   41C     H5'2 1274   4.876   4.070  -3.453  1.6853  0.3154  0.4308
   41C      C4' 1275   4.967   3.913  -3.352 -0.1127  0.0419 -0.4413
   41C      H4' 1276   5.058   3.971  -3.334 -1.2133  1.7249 -0.1054
   41C      O4' 1277   4.951   3.821  -3.246  0.3617  0.2474 -0.1865
   41C      C1' 1278   5.001   3.692  -3.271 -0.1204  0.0990 -0.3920
   41C      H1' 1279   5.073   3.666  -3.193 -3.0571 -1.1254  2.1092
   41C       N1 1280   4.893   3.591  -3.282 -0.0544 -0.0408  0.2148
   41C       C6 1281   4.760   3.616  -3.297 -0.0601  0.0245  0.3659
   41C       H6 1282   4.732   3.715  -3.330 -0.4388  0.3741  1.6764
   41C       C5 1283   4.662   3.523  -3.290 -0.0449 -0.0545 -0.4065
   41C       H5 1284   4.558   3.539  -3.314 -0.4574  1.5630  2.1628
   41C       C4 1285   4.701   3.388  -3.264  0.0714 -0.0610 -0.6077
   41C       N4 1286   4.616   3.284  -3.267  0.0110 -0.0224 -0.2531
   41C      H41 1287   4.519   3.306  -3.284 -0.0295  1.3709  1.4558
   41C      H42 1288   4.662   3.195  -3.254  1.1128  0.6121  0.4063
   41C       N3 1289   4.831   3.358  -3.250  0.0128 -0.0372  0.0199
   41C       C2 1290   4.922   3.458  -3.260  0.0184 -0.0175  0.2635
   41C       O2 1291   5.040   3.427  -3.245  0.1415  0.0401 -0.5396
   41C      C3' 1292   5.001   3.820  -3.468  0.0652 -0.0823 -0.2912
   41C      H3' 1293   4.910   3.789  -3.520  1.5069 -1.2721 -2.2398
   41C      C2' 1294   5.080   3.709  -3.401  0.3296  0.2186 -0.1034
   41C     H2'1 1295   5.075   3.619  -3.462 -0.5582  1.3746 -1.7965
   41C      O2' 1296   5.215   3.736  -3.369  0.3341  0.1214 -0.0368
   41C     HO'2 1297   5.253   3.777  -3.447  0.5244  0.2986  0.1484
   41C      O3' 1298   5.082   3.889  -3.560  0.5355 -0.1968  0.0371
   42G        P 1299   5.086   3.844  -3.715 -0.0996  0.1334 -0.0795
   42G      O1P 1300   5.180   3.934  -3.786 -0.2331 -0.1643 -0.6372
   42G      O2P 1301   4.945   3.837  -3.759  0.1397 -0.8396 -0.7334
   42G      O5' 1302   5.132   3.690  -3.712 -0.6298 -0.0219  0.2271
   42G      C5' 1303   5.271   3.665  -3.700 -0.6090 -0.2468 -0.4567
   42G     H5'1 1304   5.319   3.720  -3.619  0.8000  1.8140 -2.5867
   42G     H5'2 1305   5.315   3.693  -3.795 -2.4622 -0.7067 -1.5016
   42G      C4' 1306   5.291   3.514  -3.686 -0.0671 -0.1628 -0.2987
   42G      H4' 1307   5.390   3.484  -3.654 -0.9045 -1.9762  0.7588
   42G      O4' 1308   5.205   3.465  -3.586 -0.4521 -0.2991 -0.6939
   42G      C1' 1309   5.161   3.333  -3.610  0.0527 -0.6020  0.0339
   42G      H1' 1310   5.205   3.264  -3.537 -0.0422 -1.2022 -0.4673
   42G       N9 1311   5.014   3.326  -3.607 -0.0192  0.3881 -0.6177
   42G       C8 1312   4.920   3.425  -3.609 -0.6083 -0.1592 -0.3084
   42G       H8 1313   4.959   3.525  -3.595  2.8812 -1.6657  1.9473
   42G       N7 1314   4.794   3.392  -3.617 -0.5441 -0.5072  0.0490
   42G       C5 1315   4.807   3.254  -3.612 -0.1038 -0.4749 -0.1802
   42G       C6 1316   4.704   3.156  -3.606 -0.5589 -0.0452 -0.7782
   42G       O6 1317   4.583   3.178  -3.603 -0.5789 -0.1867 -0.3579
   42G       N1 1318   4.756   3.028  -3.598 -0.2014  0.1546  0.3531
   42G       H1 1319   4.692   2.952  -3.577 -0.6006  0.3394 -0.1792
   42G       C2 1320   4.890   2.999  -3.581 -0.1069  0.0021 -0.6087
   42G       N2 1321   4.921   2.869  -3.571 -0.1829  0.0084 -0.2777
   42G      H21 1322   4.847   2.803  -3.590 -2.8184  2.0180  2.1020
   42G      H22 1323   5.017   2.837  -3.573 -0.8443 -2.9020  3.6366
   42G       N3 1324   4.990   3.088  -3.589 -0.1990  0.1722  0.0403
   42G       C4 1325   4.937   3.212  -3.601  0.0993  0.3609  0.6764
   42G      C3' 1326   5.256   3.429  -3.808 -0.2370  0.0033 -0.3667
   42G      H3' 1327   5.165   3.471  -3.852 -1.0953 -0.5468  0.8193
   42G      C2' 1328   5.221   3.294  -3.745  0.1996  0.0192 -0.0813
   42G     H2'1 1329   5.141   3.243  -3.800 -1.3947  2.2870  0.0093
   42G      O2' 1330   5.333   3.210  -3.731 -0.2330 -0.5502  0.0273
   42G     HO'2 1331   5.388   3.206  -3.809  0.2923 -0.8113  0.3990
   42G      O3' 1332   5.362   3.436  -3.900  0.1751 -0.3980  0.0747
   43U        P 1333   5.350   3.388  -4.053  0.1700 -0.0350 -0.0384
   43U      O1P 1334   5.486   3.401  -4.110  0.4295 -0.0408  0.5748
   43U      O2P 1335   5.239   3.461  -4.119 -0.5311 -0.8233  0.2475
   43U      O5' 1336   5.321   3.232  -4.077  0.1727 -0.0719  0.1981
   43U      C5' 1337   5.417   3.130  -4.061  0.0532 -0.1326  0.5324
   43U     H5'1 1338   5.486   3.152  -3.980  2.1659  2.1504 -1.7154
   43U     H5'2 1339   5.483   3.114  -4.146 -0.5372 -1.8873  0.3501
   43U      C4' 1340   5.349   2.995  -4.036  0.1401 -0.2625  0.0857
   43U      H4' 1341   5.436   2.934  -4.015  0.8689  0.9340  0.6827
   43U      O4' 1342   5.269   2.979  -3.921  0.2798 -0.6337  0.1326
   43U      C1' 1343   5.164   2.893  -3.958 -0.0372 -0.2578  0.1426
   43U      H1' 1344   5.151   2.808  -3.890 -4.1186  0.4736  0.5298
   43U       N1 1345   5.034   2.962  -3.968 -0.1919 -0.6516 -0.6107
   43U       C6 1346   5.022   3.096  -3.990 -0.2599 -0.4672  0.4787
   43U       H6 1347   5.105   3.161  -4.011  1.3635 -2.3390  0.7837
   43U       C5 1348   4.901   3.156  -3.979 -0.2275 -0.3659  0.2923
   43U       H5 1349   4.887   3.261  -3.995  0.4913 -0.5902 -2.2806
   43U       C4 1350   4.779   3.083  -3.952 -0.5622 -0.2519 -0.8773
   43U       O4 1351   4.666   3.129  -3.944 -0.3657  0.0816  0.0633
   43U       N3 1352   4.802   2.948  -3.931 -0.0691  0.0204  0.4453
   43U       H3 1353   4.724   2.887  -3.908  0.3368 -0.7479 -0.1430
   43U       C2 1354   4.925   2.884  -3.934 -0.1865 -0.2077  0.4480
   43U       O2 1355   4.932   2.764  -3.907  0.2517 -0.0334  1.1433
   43U      C3' 1356   5.281   2.932  -4.157  0.3494 -0.5452  0.1165
   43U      H3' 1357   5.210   3.002  -4.201 -1.0909 -1.4529  0.8954
   43U      C2' 1358   5.205   2.820  -4.086 -0.1735 -0.2201  0.0762
   43U     H2'1 1359   5.115   2.787  -4.136 -1.7555  1.5097  1.6459
   43U      O2' 1360   5.285   2.708  -4.056  0.4664  0.0218 -0.7109
   43U     HO'2 1361   5.234   2.628  -4.049  0.4958  0.1601  1.9567
   43U      O3' 1362   5.373   2.890  -4.255  0.2747  0.5435 -0.4447
   44A        P 1363   5.320   2.860  -4.404  0.1914  0.0041 -0.3077
   44A      O1P 1364   5.433   2.817  -4.490 -0.1776 -0.4816 -0.5581
   44A      O2P 1365   5.251   2.984  -4.445  0.3487  0.2337  0.1123
   44A      O5' 1366   5.209   2.744  -4.394  0.1730  0.0881  0.5401
   44A      C5' 1367   5.243   2.609  -4.368 -0.1854 -0.0921  0.0972
   44A     H5'1 1368   5.313   2.610  -4.285 -1.7640 -0.3432  1.4929
   44A     H5'2 1369   5.306   2.567  -4.446  1.5521 -1.0625  1.9219
   44A      C4' 1370   5.126   2.517  -4.336 -0.1201 -0.1402  0.2005
   44A      H4' 1371   5.175   2.420  -4.324 -1.3137 -1.5154 -4.0858
   44A      O4' 1372   5.058   2.552  -4.218  0.2145  0.3104  0.2607
   44A      C1' 1373   4.918   2.545  -4.232  0.2412 -0.1221  0.1805
   44A      H1' 1374   4.874   2.493  -4.147  0.1733  0.1981  0.3470
   44A       N9 1375   4.842   2.671  -4.241 -0.3754 -0.4896  0.2310
   44A       C8 1376   4.878   2.789  -4.301 -0.0383 -0.6945  0.0309
   44A       H8 1377   4.979   2.805  -4.334  0.2686  0.9108  1.5632
   44A       N7 1378   4.793   2.887  -4.287  0.4004 -0.2900 -0.1017
   44A       C5 1379   4.681   2.828  -4.228  0.1121  0.1778 -0.1757
   44A       C6 1380   4.552   2.869  -4.193  0.2118 -0.0664  0.4907
   44A       N6 1381   4.491   2.987  -4.212 -0.2396 -0.2990  0.4989
   44A      H61 1382   4.545   3.055  -4.262  0.2048 -0.9824  0.0404
   44A      H62 1383   4.392   2.999  -4.194  0.0870  0.7090  1.7959
   44A       N1 1384   4.466   2.777  -4.148 -0.2768  0.1284 -0.0265
   44A       C2 1385   4.509   2.654  -4.121  0.2240  0.3375  0.1387
   44A       H2 1386   4.434   2.582  -4.093  0.2705 -0.8328 -2.4854
   44A       N3 1387   4.627   2.604  -4.153 -0.1298 -0.2325 -0.2858
   44A       C4 1388   4.712   2.697  -4.204 -0.3243  0.1102  0.0100
   44A      C3' 1389   5.019   2.524  -4.445 -0.0036 -0.1245  0.0877
   44A      H3' 1390   5.017   2.629  -4.474  1.7752 -0.4583 -1.4703
   44A      C2' 1391   4.895   2.480  -4.368 -0.0556  0.0883  0.1280
   44A     H2'1 1392   4.805   2.516  -4.417 -1.2865  0.2322  2.3807
   44A      O2' 1393   4.900   2.341  -4.343 -0.8351  0.1217  0.4989
   44A     HO'2 1394   4.819   2.303  -4.378 -1.4132  0.2757  1.6416
   44A      O3' 1395   5.048   2.435  -4.550  0.3028  0.3399 -0.2292
   45G        P 1396   4.977   2.453  -4.694  0.2421  0.1313 -0.2264
   45G      O1P 1397   5.046   2.366  -4.791  0.1783 -0.3059  0.1147
   45G      O2P 1398   4.979   2.600  -4.715 -0.4945  0.0953 -0.5780
   45G      O5' 1399   4.827   2.398  -4.674  0.1575  0.6097  0.5105
   45G      C5' 1400   4.798   2.263  -4.648  0.1694  0.5808  0.3762
   45G     H5'1 1401   4.882   2.221  -4.592 -0.6631 -2.7856 -0.6587
   45G     H5'2 1402   4.801   2.199  -4.736 -0.5644  1.8983 -0.6500
   45G      C4' 1403   4.668   2.243  -4.571  0.0602  0.2089  0.0999
   45G      H4' 1404   4.663   2.139  -4.540 -0.0751  0.8019  2.2350
   45G      O4' 1405   4.660   2.341  -4.470  0.5394  0.5327 -0.1723
   45G      C1' 1406   4.526   2.383  -4.457  0.2793 -0.4211  0.2565
   45G      H1' 1407   4.483   2.376  -4.357 -2.2445 -0.4515 -0.7648
   45G       N9 1408   4.517   2.525  -4.493 -0.0339 -0.4579  0.1881
   45G       C8 1409   4.599   2.604  -4.570  0.1240 -0.3198  0.4955
   45G       H8 1410   4.693   2.572  -4.612  0.3862 -0.8337  1.4445
   45G       N7 1411   4.570   2.731  -4.576  0.0044 -0.3801 -0.3902
   45G       C5 1412   4.444   2.734  -4.517  0.1314 -0.0094 -0.1382
   45G       C6 1413   4.348   2.837  -4.500 -0.4695 -0.4078 -1.0736
   45G       O6 1414   4.353   2.955  -4.536  0.3109 -0.2279 -0.3939
   45G       N1 1415   4.237   2.798  -4.426  0.1728  0.3119  0.3007
   45G       H1 1416   4.173   2.869  -4.395  1.2625  1.1728  0.6508
   45G       C2 1417   4.208   2.667  -4.392 -0.3687  0.3560  0.0187
   45G       N2 1418   4.086   2.648  -4.341 -0.1577  0.0371  0.4143
   45G      H21 1419   4.019   2.723  -4.336  0.7360  0.9685 -0.9188
   45G      H22 1420   4.077   2.558  -4.297 -0.8488  0.1413  0.4909
   45G       N3 1421   4.294   2.567  -4.418  0.0556  0.7546 -0.1415
   45G       C4 1422   4.412   2.610  -4.467  0.6312  0.2057  0.7391
   45G      C3' 1423   4.552   2.280  -4.663  0.2622 -0.1016 -0.2835
   45G      H3' 1424   4.573   2.378  -4.706 -2.6150  1.1815  0.9591
   45G      C2' 1425   4.448   2.293  -4.552  0.6314 -0.5916  0.1262
   45G     H2'1 1426   4.358   2.345  -4.586  2.1269  1.3728 -1.0352
   45G      O2' 1427   4.420   2.167  -4.496 -0.0253 -0.4345  0.1607
   45G     HO'2 1428   4.398   2.165  -4.402  0.6466  0.4851  0.3515
   45G      O3' 1429   4.539   2.183  -4.764 -0.6141 -0.0376 -0.2390
   46A        P 1430   4.458   2.204  -4.901 -0.3523  0.2070 -0.3573
   46A      O1P 1431   4.460   2.079  -4.981  0.3263  0.1837 -0.3052
   46A      O2P 1432   4.511   2.320  -4.976  0.7580 -0.1112 -0.0879
   46A      O5' 1433   4.310   2.244  -4.851 -0.4249 -0.1629 -0.2680
   46A      C5' 1434   4.230   2.143  -4.795  0.2376 -0.4958  0.0787
   46A     H5'1 1435   4.288   2.089  -4.720 -0.4169  0.1839  1.0994
   46A     H5'2 1436   4.206   2.074  -4.876  0.1565  0.2359 -0.5296
   46A      C4' 1437   4.104   2.203  -4.733  0.2844 -0.0324 -0.2703
   46A      H4' 1438   4.049   2.122  -4.685 -0.3446  0.1882 -0.6091
   46A      O4' 1439   4.133   2.298  -4.634 -0.1291 -0.0049 -0.1740
   46A      C1' 1440   4.038   2.402  -4.644 -0.5543 -0.3980 -0.2520
   46A      H1' 1441   3.988   2.432  -4.552 -1.8857  1.7651 -1.6174
   46A       N9 1442   4.106   2.521  -4.697 -0.6774  0.0913  0.6641
   46A       C8 1443   4.229   2.532  -4.757 -0.8473  0.1502  0.3253
   46A       H8 1444   4.298   2.449  -4.762  1.0215  1.6026  1.0966
   46A       N7 1445   4.261   2.653  -4.792 -0.0273 -0.2172 -0.2245
   46A       C5 1446   4.150   2.729  -4.758  0.2581 -0.1287  0.5453
   46A       C6 1447   4.115   2.865  -4.768  0.1233 -0.2124 -0.1886
   46A       N6 1448   4.195   2.965  -4.810  0.2339 -0.0052  0.5002
   46A      H61 1449   4.292   2.954  -4.835 -0.0628 -1.1151 -0.2656
   46A      H62 1450   4.154   3.057  -4.803 -0.1269 -0.1065 -0.1753
   46A       N1 1451   3.999   2.909  -4.719  0.1558 -0.1027 -0.2104
   46A       C2 1452   3.916   2.821  -4.664  0.0061 -0.0004 -0.2720
   46A       H2 1453   3.823   2.851  -4.620  0.5887  1.3336  0.0867
   46A       N3 1454   3.936   2.690  -4.653 -0.2051  0.0326  0.5559
   46A       C4 1455   4.053   2.647  -4.707 -0.1499  0.3005  0.4614
   46A      C3' 1456   4.010   2.268  -4.834  0.1835  0.4058  0.1040
   46A      H3' 1457   4.057   2.334  -4.907 -0.5555 -1.9058 -2.6368
   46A      C2' 1458   3.930   2.360  -4.742 -0.6334  0.2548 -0.4454
   46A     H2'1 1459   3.883   2.446  -4.790 -1.6738  0.4212  0.8263
   46A      O2' 1460   3.836   2.287  -4.667 -0.0535  0.4822  0.5158
   46A     HO'2 1461   3.765   2.262  -4.727 -0.2714  0.4928  0.7629
   46A      O3' 1462   3.935   2.180  -4.916  0.2891  0.3477  0.0699
   47G        P 1463   3.861   2.222  -5.052  0.2331  0.3850  0.1118
   47G      O1P 1464   3.795   2.102  -5.109  0.0071  0.5608  0.0012
   47G      O2P 1465   3.962   2.301  -5.127 -0.0074 -0.0345 -0.6705
   47G      O5' 1466   3.745   2.321  -5.002 -0.0270 -0.0970  0.4681
   47G      C5' 1467   3.631   2.268  -4.939 -0.0752 -0.3051  0.2070
   47G     H5'1 1468   3.646   2.214  -4.845  3.6724  1.7013  0.9332
   47G     H5'2 1469   3.571   2.204  -5.004 -0.9073 -0.5101  1.1353
   47G      C4' 1470   3.539   2.382  -4.897  0.1685 -0.0423  0.0266
   47G      H4' 1471   3.455   2.346  -4.838  0.1188 -0.0075 -0.0212
   47G      O4' 1472   3.602   2.480  -4.819 -0.1579 -0.1324  0.4056
   47G      C1' 1473   3.566   2.614  -4.845  0.2579 -0.1486 -0.2705
   47G      H1' 1474   3.543   2.671  -4.755  3.3381  1.4337 -0.3734
   47G       N9 1475   3.666   2.682  -4.928  0.3056 -0.0135 -0.1016
   47G       C8 1476   3.791   2.640  -4.968  0.3780  0.3571 -0.2711
   47G       H8 1477   3.820   2.536  -4.972  1.1388  0.5384 -4.5250
   47G       N7 1478   3.873   2.737  -4.995  0.0223  0.6842 -0.1906
   47G       C5 1479   3.795   2.852  -4.988 -0.2258  0.5252 -0.3536
   47G       C6 1480   3.830   2.985  -5.023 -0.5120  0.7333  0.1466
   47G       O6 1481   3.926   3.045  -5.071  0.3218 -0.3566  0.4258
   47G       N1 1482   3.723   3.073  -5.014 -0.3096  1.0659 -0.5901
   47G       H1 1483   3.733   3.173  -5.028 -2.2368  1.4070  0.1841
   47G       C2 1484   3.603   3.035  -4.957  0.2570 -0.3177 -0.2901
   47G       N2 1485   3.513   3.130  -4.931  0.0813 -0.4491 -0.4186
   47G      H21 1486   3.542   3.224  -4.954  3.4273 -1.1229  0.5551
   47G      H22 1487   3.436   3.107  -4.870  2.5371 -0.2800  2.9728
   47G       N3 1488   3.568   2.908  -4.934 -0.0949 -0.1445  0.1497
   47G       C4 1489   3.669   2.818  -4.946 -0.0081 -0.0093 -0.1272
   47G      C3' 1490   3.469   2.464  -5.006 -0.1279 -0.2749  0.0405
   47G      H3' 1491   3.551   2.479  -5.075  1.6028  1.5061  2.2987
   47G      C2' 1492   3.442   2.596  -4.933  0.0401 -0.2472  0.0529
   47G     H2'1 1493   3.428   2.682  -4.999 -1.1418 -0.1475  0.4245
   47G      O2' 1494   3.331   2.580  -4.848  0.0911 -0.7089  0.0342
   47G     HO'2 1495   3.300   2.489  -4.855  2.6131 -1.6959  0.3359
   47G      O3' 1496   3.354   2.402  -5.060  0.0976 -0.5831 -0.0899
   48U        P 1497   3.306   2.437  -5.209 -0.3225 -0.1507  0.1421
   48U      O1P 1498   3.176   2.370  -5.235 -0.4686  0.0340  0.3966
   48U      O2P 1499   3.423   2.412  -5.297  0.0834 -0.4972  0.7765
   48U      O5' 1500   3.274   2.594  -5.209  0.0118 -0.0830  0.2828
   48U      C5' 1501   3.161   2.647  -5.143  0.0430 -0.1013  0.3511
   48U     H5'1 1502   3.169   2.615  -5.039  3.0848 -1.5765 -0.2348
   48U     H5'2 1503   3.073   2.587  -5.168 -0.3125  0.2891  0.6515
   48U      C4' 1504   3.145   2.798  -5.151  0.3292 -0.0967 -0.1822
   48U      H4' 1505   3.062   2.819  -5.083  0.6756  1.3973 -0.1946
   48U      O4' 1506   3.254   2.878  -5.113  0.2079 -0.0341  0.0376
   48U      C1' 1507   3.280   2.994  -5.189  0.1505  0.3035  0.5302
   48U      H1' 1508   3.265   3.084  -5.128 -3.1180 -0.2651  0.7552
   48U       N1 1509   3.414   2.996  -5.250 -0.0597 -0.3116  0.0483
   48U       C6 1510   3.483   2.878  -5.256 -0.2323 -0.4026 -0.2224
   48U       H6 1511   3.440   2.787  -5.217 -0.5589  0.1592  0.7854
   48U       C5 1512   3.606   2.874  -5.310 -0.2264 -0.0306 -0.2371
   48U       H5 1513   3.660   2.781  -5.314 -2.1605 -1.2001 -0.0383
   48U       C4 1514   3.676   2.993  -5.356  0.0340 -0.1341 -0.1133
   48U       O4 1515   3.793   2.995  -5.391  0.1118 -0.2808  0.1373
   48U       N3 1516   3.599   3.108  -5.346 -0.3900 -0.3919 -0.3705
   48U       H3 1517   3.628   3.186  -5.402  1.0791 -0.3124  0.4555
   48U       C2 1518   3.469   3.114  -5.297 -0.3240 -0.2865 -0.2064
   48U       O2 1519   3.401   3.215  -5.308 -0.1317 -0.1430 -0.0754
   48U      C3' 1520   3.120   2.842  -5.295  0.1721 -0.6682 -0.3324
   48U      H3' 1521   3.180   2.789  -5.369  0.3435  0.6263 -1.1638
   48U      C2' 1522   3.178   2.983  -5.302 -0.1343 -0.4710  0.8589
   48U     H2'1 1523   3.228   2.997  -5.398  0.4841 -2.2168  0.8881
   48U      O2' 1524   3.079   3.083  -5.295  0.2334 -0.0033 -0.4058
   48U     HO'2 1525   3.053   3.099  -5.386  1.0349 -2.0029 -1.0416
   48U      O3' 1526   2.982   2.828  -5.321  0.0566  0.0607 -0.1405
   49C        P 1527   2.928   2.802  -5.470 -0.0698 -0.2128 -0.0493
   49C      O1P 1528   2.781   2.786  -5.461 -0.0189 -0.4467  0.3434
   49C      O2P 1529   3.007   2.689  -5.522  0.5280  0.0598  0.2606
   49C      O5' 1530   2.963   2.935  -5.554 -0.0398 -0.5700 -0.6079
   49C      C5' 1531   2.889   3.055  -5.548  0.6384 -0.1855  0.1599
   49C     H5'1 1532   2.875   3.093  -5.447 -0.9505  0.5705 -0.3169
   49C     H5'2 1533   2.785   3.060  -5.579  1.1209  2.6815 -1.3894
   49C      C4' 1534   2.955   3.170  -5.623 -0.0696  0.2587  0.2094
   49C      H4' 1535   2.905   3.265  -5.601  0.1978  0.4326  0.0789
   49C      O4' 1536   3.088   3.174  -5.575 -0.0660  0.8752  0.1649
   49C      C1' 1537   3.165   3.232  -5.678  0.0725 -0.4137 -0.4919
   49C      H1' 1538   3.187   3.335  -5.647  0.3231 -0.7021  0.3396
   49C       N1 1539   3.286   3.155  -5.709  0.6115  0.2720 -0.1360
   49C       C6 1540   3.290   3.021  -5.682 -0.3963  0.2833  0.0808
   49C       H6 1541   3.196   2.979  -5.647 -0.3130  0.8434  0.9963
   49C       C5 1542   3.404   2.949  -5.690 -0.5699 -0.0103  0.2185
   49C       H5 1543   3.409   2.847  -5.655  1.0054  0.1690  0.5808
   49C       C4 1544   3.521   3.023  -5.726 -0.1666 -0.6964  0.0935
   49C       N4 1545   3.639   2.961  -5.727  0.2845  0.1535  0.1018
   49C      H41 1546   3.656   2.867  -5.696  2.0195  0.8974  1.6537
   49C      H42 1547   3.712   3.017  -5.770  1.3446 -1.0886  0.2426
   49C       N3 1548   3.515   3.150  -5.769  0.0786 -0.8138 -0.2933
   49C       C2 1549   3.397   3.216  -5.766  0.6598  0.2508 -0.0687
   49C       O2 1550   3.394   3.332  -5.804  0.0364  0.2795  0.0522
   49C      C3' 1551   2.957   3.144  -5.774 -0.3149 -0.1624  0.2805
   49C      H3' 1552   2.978   3.038  -5.793 -2.2805 -0.4433 -0.5914
   49C      C2' 1553   3.076   3.235  -5.801 -0.5588  0.0630 -0.0323
   49C     H2'1 1554   3.125   3.188  -5.886 -1.6949  2.9367 -2.4748
   49C      O2' 1555   3.037   3.368  -5.829  0.3590  0.2653 -0.3683
   49C     HO'2 1556   3.026   3.372  -5.925  0.1890  3.0155 -0.3215
   49C      O3' 1557   2.827   3.171  -5.822 -0.3104 -0.4365  0.1089
   50G        P 1558   2.803   3.146  -5.979 -0.0215  0.0974 -0.0253
   50G      O1P 1559   2.662   3.179  -6.009 -0.0470 -0.2327 -0.2722
   50G      O2P 1560   2.846   3.008  -6.015 -0.0251  0.1060 -0.0630
   50G      O5' 1561   2.896   3.262  -6.042 -0.0758 -0.1098 -0.4993
   50G      C5' 1562   2.847   3.387  -6.084 -0.3539 -0.1060 -0.1804
   50G     H5'1 1563   2.831   3.453  -5.999 -1.6155  0.1564 -0.6050
   50G     H5'2 1564   2.759   3.389  -6.148 -0.8204  1.5844  0.4438
   50G      C4' 1565   2.960   3.448  -6.168  0.4116 -1.1107  0.1016
   50G      H4' 1566   2.936   3.553  -6.185  0.5595 -1.3549 -1.9034
   50G      O4' 1567   3.082   3.435  -6.099  0.7140  0.4740 -0.0940
   50G      C1' 1568   3.184   3.396  -6.190  0.3961 -0.1013 -0.2122
   50G      H1' 1569   3.261   3.472  -6.197  0.3024 -0.1345 -1.9819
   50G       N9 1570   3.244   3.266  -6.157  0.0703 -0.2328 -0.1307
   50G       C8 1571   3.187   3.145  -6.128  0.4129 -0.3313  0.1311
   50G       H8 1572   3.080   3.129  -6.130  0.0848  1.7735 -1.6004
   50G       N7 1573   3.271   3.048  -6.103  0.2435 -0.4782  0.1388
   50G       C5 1574   3.393   3.115  -6.113 -0.1889  0.2526 -0.3041
   50G       C6 1575   3.524   3.072  -6.081 -0.2223 -0.0172 -0.5247
   50G       O6 1576   3.559   2.958  -6.053 -0.3629  0.0197 -0.1988
   50G       N1 1577   3.619   3.174  -6.076 -0.3828  0.0983  0.2068
   50G       H1 1578   3.715   3.148  -6.061  0.4057  2.1527 -0.8900
   50G       C2 1579   3.596   3.297  -6.134  0.2042  0.1430  0.0588
   50G       N2 1580   3.699   3.377  -6.163  0.0541  0.1096 -0.5884
   50G      H21 1581   3.792   3.342  -6.150  0.0834  0.5630  0.5135
   50G      H22 1582   3.679   3.472  -6.193 -2.1622  0.0075  0.3089
   50G       N3 1583   3.476   3.338  -6.177  0.1796  0.4778  0.4460
   50G       C4 1584   3.380   3.246  -6.152  0.1550  0.3045 -0.2475
   50G      C3' 1585   2.970   3.378  -6.303  0.0705 -0.0758 -0.4678
   50G      H3' 1586   2.937   3.275  -6.287 -0.6979  0.3146  0.5571
   50G      C2' 1587   3.120   3.386  -6.328  0.0934  0.5946 -0.1263
   50G     H2'1 1588   3.157   3.307  -6.393  0.4499  0.1584  0.6007
   50G      O2' 1589   3.141   3.502  -6.406 -0.1747  0.0892 -0.9574
   50G     HO'2 1590   3.093   3.574  -6.366 -0.5831  0.1517 -1.5403
   50G      O3' 1591   2.883   3.430  -6.402 -0.0226  0.1589 -0.2633
   50G      H3T 1592   2.940   3.458  -6.474 -0.2931 -1.6323 -1.2407
   51SOL     OW 1593   0.111   5.862  12.171 -0.1186 -0.5401  0.6931
   51SOL    HW1 1594   0.164   5.889  12.096 -1.4807  0.3468  0.0087
   51SOL    HW2 1595   0.174   5.850  12.242  1.0828 -0.3969 -0.3186
   52SOL     OW 1596   1.704   2.298  12.458 -0.0643 -0.0861 -0.5504
   52SOL    HW1 1597   1.646   2.333  12.525 -2.0823  0.2917 -2.4007
   52SOL    HW2 1598   1.781   2.267  12.507 -2.1249 -1.3797  2.1171
   53SOL     OW 1599   1.117   5.649   1.152 -0.2432  0.4814 -0.5718
   53SOL    HW1 1600   1.027   5.665   1.121 -1.2388 -2.5194  0.4436
   53SOL    HW2 1601   1.168   5.636   1.072 -0.7924  1.6939 -1.1474
   54SOL     OW 1602   3.347   3.571   5.656 -0.5610  0.1168  0.3165
   54SOL    HW1 1603   3.331   3.646   5.599  2.4260 -0.8589 -2.0382
   54SOL    HW2 1604   3.438   3.546   5.639 -1.3667 -4.0131  1.0166
   55SOL     OW 1605   3.386   6.486  11.270  0.5280 -0.5283  0.0759
   55SOL    HW1 1606   3.389   6.391  11.286  1.4713 -0.5079  0.0492
   55SOL    HW2 1607   3.468   6.519  11.308  0.3571  0.2320 -0.2114
   56SOL     OW 1608   5.642   3.834   7.524  0.2638 -0.1220  0.3815
   56SOL    HW1 1609   5.636   3.848   7.429  0.8414 -1.8671  0.0442
   56SOL    HW2 1610   5.734   3.851   7.544  0.3181 -0.5199  0.4771
   57SOL     OW 1611   7.453   3.435   1.441  0.3678 -0.1065 -0.0066
   57SOL    HW1 1612   7.405   3.496   1.496 -0.5237 -1.4820  0.7920
   57SOL    HW2 1613   7.545   3.460   1.452  0.0290  1.1011  0.2394
   58SOL     OW 1614   6.244   0.713   9.812  0.2128 -0.1829 -0.0344
   58SOL    HW1 1615   6.318   0.773   9.802  0.5232 -0.3515  1.1454
   58SOL    HW2 1616   6.167   0.770   9.818  0.1732 -0.0147 -1.5714
   59SOL     OW 1617   7.370   4.730   0.463  0.7639  0.2524 -0.4450
   59SOL    HW1 1618   7.296   4.726   0.523  0.2522  1.7729 -0.9301
   59SOL    HW2 1619   7.369   4.645   0.418 -0.7036  0.2445 -0.4584
   60SOL     OW 1620   6.901   2.048   1.187 -0.1665  0.4158  0.5236
   60SOL    HW1 1621   6.833   2.095   1.236 -0.3078  0.0680  0.6597
   60SOL    HW2 1622   6.906   2.095   1.104 -0.7453  0.2943  0.4158
   61SOL     OW 1623   7.910   5.880   0.235  0.0270  0.3382  0.5552
   61SOL    HW1 1624   7.997   5.845   0.216  0.1995  1.6775 -1.4335
   61SOL    HW2 1625   7.896   5.861   0.328  2.0045 -0.7895  0.6761
   62SOL     OW 1626   1.467   5.744   8.895 -0.4201  0.0347  0.8774
   62SOL    HW1 1627   1.487   5.660   8.853  1.6589  0.5461  0.7483
   62SOL    HW2 1628   1.421   5.794   8.827  0.9166  0.0326 -0.0569
   63SOL     OW 1629   3.125   1.100   3.621 -0.4569  0.1444  0.2310
   63SOL    HW1 1630   3.198   1.038   3.619 -0.2754  0.3859 -1.3905
   63SOL    HW2 1631   3.151   1.171   3.562 -1.0423  1.3541  1.3700
   64SOL     OW 1632   0.316   4.285  11.719  0.6864 -0.3961  0.5689
   64SOL    HW1 1633   0.282   4.257  11.804  0.2747 -1.0915  0.1782
   64SOL    HW2 1634   0.338   4.204  11.673  0.1494 -0.0680 -0.3042
   65SOL     OW 1635   5.356   7.534   9.690  0.2105 -0.3187 -0.3642
   65SOL    HW1 1636   5.359   7.615   9.639  1.2537  0.0743  0.2969
   65SOL    HW2 1637   5.283   7.485   9.652  1.4417 -0.4189 -2.8441
   66SOL     OW 1638   0.594   0.925   3.995 -0.4544  0.3150  0.5445
   66SOL    HW1 1639   0.548   0.871   4.060 -1.6569  1.2558  0.5156
   66SOL    HW2 1640   0.634   0.995   4.047  0.3530 -0.0910  0.4842
   67SOL     OW 1641   0.203   3.828   6.792 -0.0930  0.5311 -0.7037
   67SOL    HW1 1642   0.109   3.830   6.807  0.1075  0.0623  0.7489
   67SOL    HW2 1643   0.216   3.759   6.727 -0.4630 -2.1614  1.8760
   68SOL     OW 1644   7.122   1.966   8.463 -0.4708  0.2985  0.2679
   68SOL    HW1 1645   7.065   1.915   8.405  0.5484 -0.4208 -0.1465
   68SOL    HW2 1646   7.080   2.052   8.468 -1.1055  0.0761 -0.7570
   69SOL     OW 1647   1.558   1.197   5.381  0.6993  0.0140 -0.4522
   69SOL    HW1 1648   1.531   1.242   5.462  0.5200  4.0128 -2.4627
   69SOL    HW2 1649   1.651   1.221   5.372  0.6631 -0.2201 -1.4881
   70SOL     OW 1650   7.677   0.949   9.203 -0.4767 -0.1413 -0.4615
   70SOL    HW1 1651   7.773   0.948   9.199 -0.3084 -1.2389  2.0132
   70SOL    HW2 1652   7.651   0.859   9.184 -0.8914 -0.2310  0.4894
   71SOL     OW 1653   2.290   1.858   6.240 -0.6713  0.5172 -0.3373
   71SOL    HW1 1654   2.267   1.778   6.194  0.0342 -0.7417  1.3844
   71SOL    HW2 1655   2.231   1.925   6.205 -1.4115 -0.7960 -1.6631
   72SOL     OW 1656   4.631   6.112   9.068 -0.0047 -0.0337  0.3297
   72SOL    HW1 1657   4.653   6.088   9.158  1.4387  1.0372  0.2831
   72SOL    HW2 1658   4.688   6.058   9.013  0.3511  0.5601  0.1094
   73SOL     OW 1659   3.233   1.574   5.150  0.2553  0.2446 -0.0459
   73SOL    HW1 1660   3.306   1.528   5.191 -0.3165 -0.0805  0.6407
   73SOL    HW2 1661   3.157   1.547   5.201 -0.4832 -0.1522 -1.3226
   74SOL     OW 1662   3.858   7.796   3.254  0.4306 -0.1483  0.4910
   74SOL    HW1 1663   3.912   7.814   3.332 -1.4232 -0.8096  2.0200
   74SOL    HW2 1664   3.858   7.701   3.248  1.6468 -0.0817 -1.1977
   75SOL     OW 1665   1.572   3.262  10.829 -0.1359  0.1971  0.4081
   75SOL    HW1 1666   1.525   3.206  10.891  0.0648  1.2163  1.5203
   75SOL    HW2 1667   1.509   3.329  10.805  0.3033  0.7839  0.8489
   76SOL     OW 1668   4.214   2.193   1.784 -0.4944  0.1666 -0.1454
   76SOL    HW1 1669   4.276   2.243   1.837 -0.6462 -1.2455  1.4348
   76SOL    HW2 1670   4.270   2.141   1.726 -0.2383  0.0607  0.1901
   77SOL     OW 1671   4.239   0.606   0.560  0.3042  0.6410  0.4624
   77SOL    HW1 1672   4.147   0.631   0.558  0.1922  0.2383  0.5334
   77SOL    HW2 1673   4.257   0.575   0.471 -0.0672 -0.8161  0.8620
   78SOL     OW 1674   3.307   6.494   9.158 -0.4759  0.5977  0.0794
   78SOL    HW1 1675   3.370   6.539   9.101  2.5561  0.1825  2.8387
   78SOL    HW2 1676   3.304   6.404   9.124  0.7916  0.5149  0.1238
   79SOL     OW 1677   1.509   2.153   1.736 -0.3458 -0.0918  0.1201
   79SOL    HW1 1678   1.538   2.244   1.741  0.2071 -0.2838  0.5895
   79SOL    HW2 1679   1.431   2.149   1.790 -0.0429 -0.0136  0.5722
   80SOL     OW 1680   3.132   4.292   1.405  0.4789  0.2954 -0.2429
   80SOL    HW1 1681   3.194   4.288   1.332  1.1720 -1.3963  0.3996
   80SOL    HW2 1682   3.166   4.231   1.470 -2.0202 -0.9520  0.0068
   81SOL     OW 1683   2.769   2.630   3.572 -0.2636  0.2860  0.0683
   81SOL    HW1 1684   2.715   2.659   3.646  1.7315  0.2391  1.6058
   81SOL    HW2 1685   2.721   2.555   3.537 -0.4240 -0.8069  2.4276
   82SOL     OW 1686   2.782   0.833   7.559 -0.2692  0.0131 -0.0499
   82SOL    HW1 1687   2.815   0.852   7.471 -1.2413 -0.6604 -0.5723
   82SOL    HW2 1688   2.829   0.753   7.586  0.3325  0.4508  0.2239
   83SOL     OW 1689   0.412   3.668   3.842 -0.1337 -0.3676  0.1805
   83SOL    HW1 1690   0.400   3.752   3.797  0.6893 -0.5227 -0.3468
   83SOL    HW2 1691   0.332   3.657   3.893 -0.4872  0.4792 -0.1655
   84SOL     OW 1692   0.004   1.815   9.190 -0.2536 -0.5293 -0.5704
   84SOL    HW1 1693   0.015   1.881   9.121  1.0676 -1.4454 -1.2709
   84SOL    HW2 1694   0.090   1.811   9.232 -1.2135  0.5372  1.6737
   85SOL     OW 1695   5.675   4.621   6.889  0.7046 -0.0995  0.1858
   85SOL    HW1 1696   5.661   4.658   6.802  3.0865  0.3460 -0.0723
   85SOL    HW2 1697   5.655   4.527   6.879 -0.6121  0.2218 -0.3913
   86SOL     OW 1698   3.964   2.810   3.651  0.7488 -0.3960  0.3214
   86SOL    HW1 1699   3.880   2.787   3.690  0.6792 -0.6249  0.0467
   86SOL    HW2 1700   3.940   2.845   3.565  1.0056 -1.7226 -0.3124
   87SOL     OW 1701   7.203   7.351  10.306 -0.1325 -0.0768 -0.0081
   87SOL    HW1 1702   7.169   7.265  10.283  1.9195 -0.7366 -0.8362
   87SOL    HW2 1703   7.186   7.405  10.228  1.2765 -0.6163 -0.7349
   88SOL     OW 1704   4.714   1.451   2.528  0.0310  0.3126 -0.1688
   88SOL    HW1 1705   4.728   1.451   2.622 -1.6663 -1.5066  0.1372
   88SOL    HW2 1706   4.622   1.430   2.517 -0.2870  2.3118 -2.2321
   89SOL     OW 1707   4.442   0.312   2.204 -0.3309  0.2342 -0.0097
   89SOL    HW1 1708   4.486   0.234   2.236  1.1972 -0.3844 -3.1722
   89SOL    HW2 1709   4.507   0.382   2.211 -0.1840  0.2230 -0.9940
   90SOL     OW 1710   5.878   7.914  10.833  0.4363  0.0437 -0.3339
   90SOL    HW1 1711   5.917   7.999  10.814  0.7079 -0.3204 -1.4746
   90SOL    HW2 1712   5.952   7.858  10.857  0.1326  0.4164  1.6413
   91SOL     OW 1713   6.213   7.188   8.578  0.0880 -0.3220  0.0315
   91SOL    HW1 1714   6.150   7.213   8.511 -0.6047 -0.9009  0.4424
   91SOL    HW2 1715   6.184   7.234   8.657 -0.2228 -1.0870  0.3821
   92SOL     OW 1716   0.187   7.275   4.888  0.8406  0.3532 -0.4211
   92SOL    HW1 1717   0.127   7.243   4.956  0.3537 -1.2439 -1.5559
   92SOL    HW2 1718   0.134   7.278   4.809  1.8230  0.6297 -1.0877
   93SOL     OW 1719   6.675   6.405   7.111 -0.2607  0.3759  0.2908
   93SOL    HW1 1720   6.765   6.397   7.143 -0.2438 -3.4050 -0.2806
   93SOL    HW2 1721   6.623   6.414   7.191  0.4475 -0.0032  0.8100
   94SOL     OW 1722   1.503   1.864  10.922 -0.2233  1.0948 -0.1288
   94SOL    HW1 1723   1.457   1.784  10.897  2.2245  0.2318 -2.3211
   94SOL    HW2 1724   1.451   1.935  10.885 -0.4475  0.2337 -1.5342
   95SOL     OW 1725   2.641   0.420   4.736  0.3434 -0.1209  0.2230
   95SOL    HW1 1726   2.690   0.500   4.719 -1.1754  0.7780 -0.1356
   95SOL    HW2 1727   2.617   0.426   4.828 -1.0594  0.6165 -0.1662
   96SOL     OW 1728   1.344   2.910   1.369 -0.1829 -0.1890  0.2321
   96SOL    HW1 1729   1.339   2.943   1.458  1.8499 -0.6053  0.5413
   96SOL    HW2 1730   1.410   2.964   1.326 -0.8033 -0.2832 -0.9053
   97SOL     OW 1731   3.368   5.315   1.369  0.2220  0.0109  0.3793
   97SOL    HW1 1732   3.295   5.258   1.394 -0.8328  1.7747  1.5375
   97SOL    HW2 1733   3.386   5.290   1.278 -1.3288 -0.9854  0.2931
   98SOL     OW 1734   5.977   2.781  11.793  0.4529 -0.3201  0.1218
   98SOL    HW1 1735   6.020   2.736  11.720 -1.2869 -0.1814 -1.0437
   98SOL    HW2 1736   5.890   2.742  11.797  0.3224  0.0880  1.7781
   99SOL     OW 1737   2.073   2.291   2.161 -0.4707 -0.2748  0.1614
   99SOL    HW1 1738   2.078   2.320   2.252 -2.8512  0.6578  0.0755
   99SOL    HW2 1739   2.049   2.370   2.112 -0.0410 -0.9364 -1.1693
  100SOL     OW 1740   6.205   0.976   4.128  0.4466  0.5272  0.3780
  100SOL    HW1 1741   6.154   0.999   4.051 -0.0449 -0.6884  0.3074
  100SOL    HW2 1742   6.175   1.035   4.197  0.4226  1.1826 -0.1967
  101SOL     OW 1743   3.774   0.790   2.151  0.6363 -0.3914 -0.3135
  101SOL    HW1 1744   3.771   0.800   2.056  1.2184 -1.3280 -0.4527
  101SOL    HW2 1745   3.705   0.727   2.171  0.9781 -0.7414 -0.2114
  102SOL     OW 1746   3.957   2.100   6.600  0.2818 -0.0488 -0.0862
  102SOL    HW1 1747   3.906   2.037   6.652 -0.2365  1.9402  1.9738
  102SOL    HW2 1748   4.048   2.083   6.625  0.0701  0.6203  1.2609
  103SOL     OW 1749   5.712   0.645   5.006 -0.7552  0.0623  0.8486
  103SOL    HW1 1750   5.665   0.708   4.951 -1.4470 -0.9127  0.3165
  103SOL    HW2 1751   5.653   0.627   5.079 -1.1305 -0.9803  0.3036
  104SOL     OW 1752   1.748   1.208   5.100 -0.0129 -0.0064  0.4677
  104SOL    HW1 1753   1.836   1.195   5.137  0.5684  2.9463  0.4021
  104SOL    HW2 1754   1.754   1.293   5.055 -2.9436  0.3380  0.5542
  105SOL     OW 1755   1.737   5.253   3.241 -0.6608 -0.6649  0.2201
  105SOL    HW1 1756   1.666   5.200   3.206 -1.8235 -0.0859  1.6292
  105SOL    HW2 1757   1.804   5.189   3.267 -0.2345 -1.1630 -1.9118
  106SOL     OW 1758   3.650   4.759   1.425  0.3011 -0.0038  0.5569
  106SOL    HW1 1759   3.592   4.827   1.389  2.1815  0.6561 -1.4214
  106SOL    HW2 1760   3.611   4.677   1.396  0.3397  0.4360 -0.8609
  107SOL     OW 1761   1.713   6.726   3.471 -0.0775  0.2035 -0.3851
  107SOL    HW1 1762   1.707   6.820   3.491  0.4770  0.2123 -0.2655
  107SOL    HW2 1763   1.806   6.708   3.466 -0.1805 -0.0868 -1.6401
  108SOL     OW 1764   6.172   6.004   9.133  0.3070  0.7082  0.0022
  108SOL    HW1 1765   6.219   5.939   9.186 -1.7783  0.1045  1.2498
  108SOL    HW2 1766   6.082   5.971   9.128  0.0348  1.6123 -2.5837
  109SOL     OW 1767   0.745   6.031   4.264 -0.3429  0.2796 -0.0984
  109SOL    HW1 1768   0.780   6.002   4.180  0.5649  0.6704  0.1378
  109SOL    HW2 1769   0.654   6.054   4.245 -0.2031  0.1842 -0.9314
  110SOL     OW 1770   7.290   2.790   5.726 -0.0305  0.1087 -0.0297
  110SOL    HW1 1771   7.316   2.806   5.816 -2.1976  1.0160  0.4898
  110SOL    HW2 1772   7.308   2.872   5.680  0.0034  0.0383 -0.1431
  111SOL     OW 1773   0.114   1.901   3.268 -0.1846 -0.2782  0.0940
  111SOL    HW1 1774   0.057   1.832   3.303 -2.6291  1.0869 -0.9305
  111SOL    HW2 1775   0.156   1.861   3.192  0.3865 -1.3763  0.9625
  112SOL     OW 1776   6.908   2.087   3.200  0.5613  0.1646 -0.0350
  112SOL    HW1 1777   6.919   2.177   3.229 -0.7204  0.8222 -1.4025
  112SOL    HW2 1778   6.950   2.085   3.114  0.6042 -0.5501 -0.0014
  113SOL     OW 1779   3.243   6.929  12.163 -0.5647  0.4668  0.0374
  113SOL    HW1 1780   3.191   6.991  12.113  0.6710  2.9920  1.7029
  113SOL    HW2 1781   3.243   6.964  12.252  2.1137 -0.6450  0.5693
  114SOL     OW 1782   5.919   4.677   6.551 -0.4946 -0.4864 -0.2082
  114SOL    HW1 1783   5.948   4.596   6.509 -0.5480 -0.2207 -0.7597
  114SOL    HW2 1784   5.910   4.740   6.479  0.6850  0.3524  0.3385
  115SOL     OW 1785   4.738   2.780  11.457 -0.4666  0.1189 -0.5976
  115SOL    HW1 1786   4.652   2.741  11.473 -0.4908  0.1030 -0.7644
  115SOL    HW2 1787   4.800   2.707  11.463 -0.3229  0.3350  0.7642
  116SOL     OW 1788   2.106   3.998   6.878  0.6369 -0.1198 -0.2699
  116SOL    HW1 1789   2.059   4.078   6.902  0.1124 -0.2335 -0.8799
  116SOL    HW2 1790   2.154   4.021   6.799  1.0134 -0.2244 -0.0726
  117SOL     OW 1791   6.783   3.430  11.010  0.6137 -1.0660 -0.0199
  117SOL    HW1 1792   6.736   3.356  10.973 -0.1332 -0.2264 -0.8149
  117SOL    HW2 1793   6.805   3.402  11.099 -1.7823 -1.3818  0.5649
  118SOL     OW 1794   1.519   2.997   2.912  0.2272  0.0686  0.2636
  118SOL    HW1 1795   1.441   2.942   2.897 -0.7894  1.5864 -0.3036
  118SOL    HW2 1796   1.588   2.935   2.935 -0.8774 -1.4377 -0.2942
  119SOL     OW 1797   1.389   7.962  11.482  0.1780  0.4722 -0.2379
  119SOL    HW1 1798   1.427   8.000  11.403 -1.7541 -0.6771 -1.8278
  119SOL    HW2 1799   1.301   7.934  11.455 -0.5637  0.0476  2.3425
  120SOL     OW 1800   4.554   0.709  10.758 -0.2620  0.3695 -0.8709
  120SOL    HW1 1801   4.604   0.730  10.837 -0.8550 -2.1178  0.2729
  120SOL    HW2 1802   4.486   0.776  10.754 -1.0229 -0.1617  1.5190
  121SOL     OW 1803   3.347   2.531  11.576 -0.3449 -0.2692 -0.1869
  121SOL    HW1 1804   3.418   2.579  11.534 -0.8793  0.9411  0.2282
  121SOL    HW2 1805   3.332   2.455  11.519  2.9720 -2.0394  1.0749
  122SOL     OW 1806   5.488   6.911   7.072 -0.0534  0.1321  0.4694
  122SOL    HW1 1807   5.500   7.006   7.071  1.3062 -0.0281  0.1131
  122SOL    HW2 1808   5.419   6.895   7.008 -0.4341  0.8898  0.6761
  123SOL     OW 1809   4.701   4.634   8.115 -0.2100 -0.6409 -0.0042
  123SOL    HW1 1810   4.648   4.613   8.192  1.1619 -0.2101  1.1042
  123SOL    HW2 1811   4.744   4.717   8.137 -0.1713 -0.2461 -1.4559
  124SOL     OW 1812   0.031   1.695   5.196  0.2304 -0.1916 -0.0233
  124SOL    HW1 1813   0.109   1.644   5.172  2.3248  2.0544  1.4239
  124SOL    HW2 1814  -0.008   1.720   5.112  0.0003 -2.7772 -0.7668
  125SOL     OW 1815   5.802   3.619   4.991  0.3348  0.0156 -0.1499
  125SOL    HW1 1816   5.787   3.701   5.037  2.4445 -0.3495  1.3230
  125SOL    HW2 1817   5.798   3.552   5.059  2.7459 -0.6374 -0.5721
  126SOL     OW 1818   7.116   3.853   1.080 -0.4674  0.2232  0.1244
  126SOL    HW1 1819   7.053   3.925   1.078  0.1831  0.8172 -2.6791
  126SOL    HW2 1820   7.068   3.779   1.041  0.0157  0.1695 -0.3696
  127SOL     OW 1821   1.771   3.565   3.183 -0.1566 -0.4911  0.0736
  127SOL    HW1 1822   1.853   3.590   3.140 -0.2870 -0.0465  0.0726
  127SOL    HW2 1823   1.786   3.584   3.275  0.3512 -2.0532  0.3338
  128SOL     OW 1824   1.373   0.206  10.412  0.3418 -0.5085  0.3354
  128SOL    HW1 1825   1.407   0.165  10.332 -0.1174 -0.7089  0.2401
  128SOL    HW2 1826   1.287   0.238  10.388 -0.6932 -2.3881  1.2695
  129SOL     OW 1827   6.482   1.514  10.170  0.2205  0.5113  0.3947
  129SOL    HW1 1828   6.434   1.447  10.218  0.8619  0.6044  1.2031
  129SOL    HW2 1829   6.426   1.592  10.175 -0.0599  0.3127  0.3459
  130SOL     OW 1830   1.995   3.593   7.268 -0.3199  0.7656  0.1083
  130SOL    HW1 1831   2.037   3.558   7.346  0.0915  0.7124 -0.1355
  130SOL    HW2 1832   1.918   3.538   7.255 -1.1239  1.5823  1.2212
  131SOL     OW 1833   5.429   1.389   6.809 -0.3696 -0.6987  0.2788
  131SOL    HW1 1834   5.385   1.429   6.734 -1.5328 -1.3002  0.6239
  131SOL    HW2 1835   5.501   1.450   6.830 -1.1843  0.4402 -0.1429
  132SOL     OW 1836   3.270   6.070   7.662  0.5350 -0.2034 -0.0963
  132SOL    HW1 1837   3.175   6.078   7.655  0.5134 -0.7080 -0.5313
  132SOL    HW2 1838   3.299   6.051   7.572  1.0848  0.3138 -0.0347
  133SOL     OW 1839   4.420   5.412   4.688 -0.0202 -0.1003 -0.0389
  133SOL    HW1 1840   4.431   5.425   4.782  2.8115 -0.1191 -0.2573
  133SOL    HW2 1841   4.400   5.499   4.654 -0.3023  0.0494  0.5034
  134SOL     OW 1842   7.832   5.613   4.820  0.2906 -0.2114 -0.1945
  134SOL    HW1 1843   7.762   5.598   4.884 -0.3047 -0.2464 -0.8416
  134SOL    HW2 1844   7.904   5.557   4.848  0.0595 -0.1786  0.4764
  135SOL     OW 1845   7.088   6.783   3.616 -0.4906 -0.0036  0.3150
  135SOL    HW1 1846   6.995   6.806   3.626 -0.3635 -0.1409  2.0988
  135SOL    HW2 1847   7.110   6.735   3.696  1.1576  0.1540 -0.0052
  136SOL     OW 1848   7.219   1.269   8.319  0.3493  0.4328  0.1126
  136SOL    HW1 1849   7.273   1.245   8.395  2.4151  0.5413 -1.2539
  136SOL    HW2 1850   7.197   1.361   8.335  0.2067  0.2793  0.8775
  137SOL     OW 1851   1.079   3.315   0.541  0.3772  0.2914 -0.3484
  137SOL    HW1 1852   1.127   3.378   0.487 -1.3483  1.2462 -0.8657
  137SOL    HW2 1853   1.070   3.238   0.484  1.7848 -0.1444 -0.0154
  138SOL     OW 1854   3.349   3.593   4.020 -0.5418 -0.2260 -0.7659
  138SOL    HW1 1855   3.314   3.643   4.093  2.7987  0.7446  0.3670
  138SOL    HW2 1856   3.406   3.527   4.060  2.2914  1.0463 -2.3284
  139SOL     OW 1857   2.012   2.854  12.081 -0.2423  0.6227 -0.0271
  139SOL    HW1 1858   1.979   2.824  11.996  0.4696  0.6672 -0.3186
  139SOL    HW2 1859   1.971   2.940  12.093 -2.6389 -0.5437  1.0107
  140SOL     OW 1860   3.282   0.077   1.611  0.1169 -0.2918 -0.0152
  140SOL    HW1 1861   3.296   0.151   1.552  0.4220 -1.3475 -1.3275
  140SOL    HW2 1862   3.219   0.109   1.676 -1.8318  0.2993 -2.1029
  141SOL     OW 1863   4.279   7.743   3.902  0.5680  0.0922  0.3019
  141SOL    HW1 1864   4.227   7.797   3.843  0.1704 -1.0917 -0.4387
  141SOL    HW2 1865   4.294   7.800   3.978 -0.3296  1.0460 -0.2075
  142SOL     OW 1866   5.248   4.198   8.755  0.0386 -0.1293 -0.6610
  142SOL    HW1 1867   5.208   4.126   8.705 -0.2334  0.4931 -1.3748
  142SOL    HW2 1868   5.304   4.242   8.691 -1.9007  1.9521 -1.0897
  143SOL     OW 1869   5.570   7.327   2.877  0.4458 -0.6998 -0.0084
  143SOL    HW1 1870   5.517   7.379   2.938  1.6476 -0.6676  1.0450
  143SOL    HW2 1871   5.527   7.241   2.877  0.7873 -0.9064  1.4253
  144SOL     OW 1872   2.308   5.773   8.299  0.1082  0.3645 -0.3384
  144SOL    HW1 1873   2.367   5.723   8.243 -0.7568 -0.4546 -0.5346
  144SOL    HW2 1874   2.223   5.768   8.256 -0.5382 -0.1462  0.9502
  145SOL     OW 1875   7.681   7.013   0.373 -0.0427 -0.4879 -0.5405
  145SOL    HW1 1876   7.765   7.044   0.406  0.4731 -0.7372 -1.5578
  145SOL    HW2 1877   7.616   7.058   0.426  0.7351 -0.7159  0.6445
  146SOL     OW 1878   0.474   5.365   5.951  0.4553  0.1597  1.1220
  146SOL    HW1 1879   0.545   5.367   5.887  1.2364  1.5072  1.9814
  146SOL    HW2 1880   0.394   5.359   5.899  1.1404 -0.1551  0.0851
  147SOL     OW 1881   2.035   6.960   6.357 -0.1779  0.1447  0.2326
  147SOL    HW1 1882   1.956   6.906   6.364  0.3926 -0.6542  0.5650
  147SOL    HW2 1883   2.087   6.917   6.289 -0.7713  1.6500 -1.2726
  148SOL     OW 1884   5.661   2.912   8.218  0.2995 -0.3704  0.3567
  148SOL    HW1 1885   5.669   2.833   8.165 -0.2505 -0.6958  0.7574
  148SOL    HW2 1886   5.569   2.937   8.210  1.0206  1.9452 -2.2192
  149SOL     OW 1887   6.738   1.473   4.453  0.1632  0.0322  0.2011
  149SOL    HW1 1888   6.686   1.517   4.520 -2.5175 -1.3176 -0.8491
  149SOL    HW2 1889   6.697   1.387   4.443  1.3043 -0.3103 -2.2452
  150SOL     OW 1890   6.354   2.807   2.578  0.2767  0.0547  0.3307
  150SOL    HW1 1891   6.323   2.779   2.492 -0.9441 -0.0774  0.7808
  150SOL    HW2 1892   6.286   2.868   2.609  0.7916  0.2485  1.1182
  151SOL     OW 1893   1.921   1.752   6.144 -0.0682  0.5443 -0.2475
  151SOL    HW1 1894   1.867   1.702   6.082  0.0421  0.2095 -0.0763
  151SOL    HW2 1895   1.963   1.819   6.090  1.5759 -0.9577 -0.9286
  152SOL     OW 1896   7.236   6.375   6.582  0.1718 -0.4010  0.3613
  152SOL    HW1 1897   7.304   6.386   6.649 -0.0124 -2.2302  0.9051
  152SOL    HW2 1898   7.285   6.359   6.501  0.3846  1.1358  0.1474
  153SOL     OW 1899   6.694   7.101   0.755 -0.0239  0.5131 -0.7753
  153SOL    HW1 1900   6.615   7.125   0.802 -0.1345 -0.2588 -0.5633
  153SOL    HW2 1901   6.687   7.007   0.741  0.5908  0.5287 -1.2521
  154SOL     OW 1902   6.845   2.617  11.509 -0.2232  0.5069  0.0659
  154SOL    HW1 1903   6.836   2.541  11.452  3.6377  0.2258 -0.4649
  154SOL    HW2 1904   6.863   2.580  11.595 -2.3507  0.9374  0.7590
  155SOL     OW 1905   5.607   2.143  11.307 -0.2740 -0.6510 -0.1100
  155SOL    HW1 1906   5.632   2.058  11.344  0.1776 -1.0421 -1.2680
  155SOL    HW2 1907   5.670   2.157  11.237 -0.2315  0.7447  0.1864
  156SOL     OW 1908   2.765   6.414   7.409  0.4391  0.2073  0.1297
  156SOL    HW1 1909   2.705   6.344   7.383 -0.8040  0.9717  0.9037
  156SOL    HW2 1910   2.750   6.484   7.345  0.9711  0.1735 -0.0446
  157SOL     OW 1911   4.398   1.834   3.889  0.2024  0.5429 -0.2307
  157SOL    HW1 1912   4.335   1.891   3.843  0.5851  1.5780  0.4873
  157SOL    HW2 1913   4.392   1.862   3.981  1.5110  0.4721 -0.1133
  158SOL     OW 1914   2.452   5.383   8.354  0.2964 -0.8759 -0.0267
  158SOL    HW1 1915   2.438   5.319   8.285 -0.3724 -0.2095 -0.5393
  158SOL    HW2 1916   2.378   5.370   8.414  0.7686 -1.3222  0.4657
  159SOL     OW 1917   1.428   3.156   5.776 -0.2097 -0.1818 -0.2030
  159SOL    HW1 1918   1.415   3.089   5.709 -0.2819  0.4960 -0.8900
  159SOL    HW2 1919   1.404   3.113   5.858 -1.8066 -0.5298 -0.8080
  160SOL     OW 1920   4.382   7.828   5.069  0.6666  0.1068  0.0672
  160SOL    HW1 1921   4.380   7.896   5.001  0.3978  0.7557  0.7048
  160SOL    HW2 1922   4.425   7.870   5.143 -0.0984 -0.1909  0.7007
  161SOL     OW 1923   5.168   6.920   7.984  0.0599  0.5024 -0.6444
  161SOL    HW1 1924   5.248   6.885   7.945  0.3228 -0.9906  1.1250
  161SOL    HW2 1925   5.153   6.867   8.062 -1.3370  2.3066  0.4067
  162SOL     OW 1926   5.002   5.145   6.570  0.5291  0.1394  0.2145
  162SOL    HW1 1927   4.972   5.142   6.661 -0.3631 -0.0053 -0.0724
  162SOL    HW2 1928   5.007   5.054   6.544  2.0788  0.1168  0.5114
  163SOL     OW 1929   3.028   5.998   0.039 -0.6396  0.4541 -0.0997
  163SOL    HW1 1930   2.963   5.928   0.046 -0.4072  0.1040 -1.2077
  163SOL    HW2 1931   2.992   6.057  -0.027  0.6762 -0.3796 -1.6661
  164SOL     OW 1932   6.294   3.970   4.809  0.3391  0.2439 -0.0153
  164SOL    HW1 1933   6.241   3.897   4.842  0.8052  0.0895  0.3909
  164SOL    HW2 1934   6.377   3.963   4.856 -0.2002  2.0420  1.2979
  165SOL     OW 1935   4.974   4.075   0.505  0.2462  0.3446 -0.2553
  165SOL    HW1 1936   4.952   4.084   0.412 -0.0755  0.9504 -0.1267
  165SOL    HW2 1937   5.030   4.151   0.524 -0.0510  0.4651  0.1476
  166SOL     OW 1938   1.842   0.482   6.369  0.6486 -0.0038 -0.4653
  166SOL    HW1 1939   1.875   0.417   6.431 -2.9884 -2.2961 -0.6510
  166SOL    HW2 1940   1.792   0.543   6.423 -0.3236 -0.4536 -0.8484
  167SOL     OW 1941   3.641   7.501   8.230 -1.0730  0.0821 -0.0646
  167SOL    HW1 1942   3.641   7.553   8.149  0.9831 -0.0058 -0.1657
  167SOL    HW2 1943   3.699   7.550   8.289 -1.5310 -0.5330  0.9141
  168SOL     OW 1944   5.722   2.514   2.772  0.5561  0.1848  0.4514
  168SOL    HW1 1945   5.770   2.517   2.855  2.3425 -0.1490 -0.4986
  168SOL    HW2 1946   5.684   2.426   2.770  1.5663 -0.2774  0.4044
  169SOL     OW 1947   3.572   1.049   9.290  0.0619 -0.2965 -0.3952
  169SOL    HW1 1948   3.655   1.067   9.334 -0.1118  0.3546 -0.3239
  169SOL    HW2 1949   3.597   1.016   9.204  0.4245 -2.5703  0.5073
  170SOL     OW 1950   3.508   1.586   5.648 -0.1406  0.1783 -0.2345
  170SOL    HW1 1951   3.595   1.571   5.686 -0.5620 -2.3518 -0.1139
  170SOL    HW2 1952   3.466   1.647   5.709  0.8233 -0.1839  0.8275
  171SOL     OW 1953   4.909   5.081   9.067 -0.5444 -0.1358 -0.0527
  171SOL    HW1 1954   4.867   5.027   9.134  2.1294 -0.2117  1.7079
  171SOL    HW2 1955   4.870   5.167   9.077 -0.9962 -0.4328  0.8717
  172SOL     OW 1956   0.210   5.148   1.772  0.3048  0.4511  0.1724
  172SOL    HW1 1957   0.170   5.070   1.809  1.0875 -0.8966 -1.6607
  172SOL    HW2 1958   0.265   5.183   1.842  1.1567 -1.5508  0.5647
  173SOL     OW 1959   7.434   4.577   4.505 -0.2656  0.3109 -0.0115
  173SOL    HW1 1960   7.492   4.624   4.566 -0.4878 -1.2126  1.4362
  173SOL    HW2 1961   7.491   4.512   4.464 -0.0752  1.4470 -1.6432
  174SOL     OW 1962   7.648   3.077   0.004 -0.0387  0.3798  0.4087
  174SOL    HW1 1963   7.739   3.049   0.009  0.5164  1.8408 -0.6177
  174SOL    HW2 1964   7.652   3.172   0.018 -1.1897  0.7203 -1.2944
  175SOL     OW 1965   1.342   4.333   1.654 -0.5782  0.4271  0.0027
  175SOL    HW1 1966   1.404   4.392   1.611 -0.1816 -0.1314 -0.2087
  175SOL    HW2 1967   1.337   4.366   1.744 -0.5512  0.9287 -0.1751
  176SOL     OW 1968   0.481   0.790   5.156  0.5436  0.3065 -0.3001
  176SOL    HW1 1969   0.501   0.858   5.221  0.5458  0.4635 -0.4626
  176SOL    HW2 1970   0.558   0.734   5.156  0.6522  0.4535 -0.3500
  177SOL     OW 1971   7.499   1.463   2.513 -0.3513  0.1514  0.3821
  177SOL    HW1 1972   7.447   1.480   2.434 -0.1369 -1.4614 -0.1516
  177SOL    HW2 1973   7.499   1.368   2.521  1.2649  0.1907  1.2182
  178SOL     OW 1974   4.485   3.612   5.927  0.4568 -0.0665 -0.2248
  178SOL    HW1 1975   4.449   3.560   5.999  2.0376 -0.1779  0.5341
  178SOL    HW2 1976   4.448   3.573   5.848 -0.3599 -0.7255  0.4676
  179SOL     OW 1977   7.979   3.597   4.358  0.0649  0.0316 -0.4951
  179SOL    HW1 1978   8.017   3.640   4.435 -0.5049 -0.2085 -0.0684
  179SOL    HW2 1979   8.037   3.620   4.286  0.9708 -0.2709  0.1248
  180SOL     OW 1980   0.644   1.110   8.373  0.0519 -0.1693  0.0348
  180SOL    HW1 1981   0.608   1.027   8.340 -1.1563  0.3209  0.0921
  180SOL    HW2 1982   0.675   1.090   8.461 -0.0525 -0.6109 -0.0272
  181SOL     OW 1983   5.858   2.948  10.504 -0.4944  0.4643 -0.4084
  181SOL    HW1 1984   5.926   2.962  10.571  0.5903  0.7133 -1.5116
  181SOL    HW2 1985   5.785   2.909  10.551 -0.3279  1.9607  1.2074
  182SOL     OW 1986   3.702   7.339   6.273  0.1886  0.1837 -0.1701
  182SOL    HW1 1987   3.693   7.263   6.330  1.3602  0.4138  0.3434
  182SOL    HW2 1988   3.754   7.308   6.199 -0.1495  0.2437 -0.4367
  183SOL     OW 1989   0.870   1.730  11.517  0.4658 -0.0544  0.4762
  183SOL    HW1 1990   0.852   1.726  11.611  0.0939 -0.8707  0.3750
  183SOL    HW2 1991   0.796   1.779  11.480 -0.0034 -0.7638  0.4607
  184SOL     OW 1992   3.838   2.524   2.265  0.2471 -0.2457 -0.4496
  184SOL    HW1 1993   3.841   2.528   2.169 -0.0885 -1.0841 -0.5088
  184SOL    HW2 1994   3.929   2.523   2.292  0.3452  0.3246 -0.7367
  185SOL     OW 1995   6.876   6.144   9.935 -0.7121 -0.3981  0.8497
  185SOL    HW1 1996   6.866   6.122   9.843  0.3065  0.2305  0.5654
  185SOL    HW2 1997   6.912   6.064   9.975  0.1605 -0.2341  0.4177
  186SOL     OW 1998   1.749   7.059  10.930  0.3583 -0.1986  0.0557
  186SOL    HW1 1999   1.780   7.145  10.958  1.3147 -1.1367  2.1156
  186SOL    HW2 2000   1.746   7.008  11.011  2.2363 -2.8258 -1.4158
  187SOL     OW 2001   5.047   3.116   8.103 -0.0763  0.3124 -0.3421
  187SOL    HW1 2002   5.085   3.200   8.126  0.2907  0.8759 -2.6935
  187SOL    HW2 2003   5.123   3.060   8.085 -0.3190 -0.4758  1.0124
  188SOL     OW 2004   1.431   2.674   3.163 -1.0920 -1.0373 -0.8685
  188SOL    HW1 2005   1.472   2.750   3.204 -2.9867 -1.9030  3.1476
  188SOL    HW2 2006   1.393   2.708   3.082  2.1729  1.0610 -1.7049
  189SOL     OW 2007   4.702   1.758   4.549 -0.3649 -0.2490 -0.1787
  189SOL    HW1 2008   4.733   1.763   4.639 -0.9358  1.7683 -0.0532
  189SOL    HW2 2009   4.767   1.808   4.498 -1.3731  0.8168 -0.4639
  190SOL     OW 2010   3.911   7.911   7.891  0.0384 -0.3806 -0.3383
  190SOL    HW1 2011   3.868   7.931   7.808 -0.2121 -0.6138 -0.2644
  190SOL    HW2 2012   3.865   7.834   7.925 -0.4279  0.2110  0.4277
  191SOL     OW 2013   4.648   0.464  11.911  0.7542 -0.6870 -0.6423
  191SOL    HW1 2014   4.686   0.513  11.983 -1.0236  0.9653 -0.7471
  191SOL    HW2 2015   4.690   0.499  11.833 -0.1526  0.3743 -0.6764
  192SOL     OW 2016   5.696   6.577  11.800 -0.1933  0.2867  0.6405
  192SOL    HW1 2017   5.759   6.648  11.787 -0.6037  0.2163 -2.5479
  192SOL    HW2 2018   5.707   6.552  11.892  3.8000  0.8367  0.4891
  193SOL     OW 2019   7.857   4.378   8.974  0.0836 -0.1167  0.4345
  193SOL    HW1 2020   7.832   4.445   8.911  0.3694 -0.1303  0.3079
  193SOL    HW2 2021   7.820   4.409   9.057  0.2074  0.1936  0.3763
  194SOL     OW 2022   4.633   5.704   6.643  0.1792  0.3529 -0.0257
  194SOL    HW1 2023   4.574   5.700   6.567 -1.4026 -0.3460  1.1687
  194SOL    HW2 2024   4.691   5.628   6.632 -0.3347 -0.0055 -0.3081
  195SOL     OW 2025   4.139   1.237   1.873  0.0387 -0.0746  0.2763
  195SOL    HW1 2026   4.200   1.215   1.944  2.0676  1.9120 -0.7236
  195SOL    HW2 2027   4.073   1.292   1.915  0.6828  0.2889  0.8484
  196SOL     OW 2028   1.625   3.193  10.500  0.3094  0.0530  1.0548
  196SOL    HW1 2029   1.602   3.276  10.540  3.5793  1.8235 -0.3290
  196SOL    HW2 2030   1.620   3.210  10.405  1.4849 -1.1583  0.7432
  197SOL     OW 2031   5.671   7.166   2.237 -0.2204 -0.8575 -0.3102
  197SOL    HW1 2032   5.689   7.231   2.169 -0.5174  0.1659  0.5771
  197SOL    HW2 2033   5.737   7.098   2.223  1.2336  0.4874 -0.1363
  198SOL     OW 2034   4.535   0.060   2.628 -0.1976  0.4505  0.6312
  198SOL    HW1 2035   4.577  -0.018   2.662 -0.1388  0.4797  0.6251
  198SOL    HW2 2036   4.520   0.115   2.705  2.7134  1.8750  0.2958
  199SOL     OW 2037   0.796   7.136  12.131  0.0200 -0.2289  0.5391
  199SOL    HW1 2038   0.808   7.081  12.209 -2.2348 -1.6397 -0.0133
  199SOL    HW2 2039   0.706   7.169  12.138 -0.0816 -0.0282 -1.2170
  200SOL     OW 2040   3.680   3.427   4.716  0.8634 -0.2196 -0.4789
  200SOL    HW1 2041   3.752   3.364   4.718 -0.0277 -1.2814  0.2900
  200SOL    HW2 2042   3.604   3.376   4.747 -0.0140  1.0905 -0.4023
  201SOL     OW 2043   3.731   6.098  12.009  0.4894  0.2999  0.5396
  201SOL    HW1 2044   3.765   6.061  11.927  2.7953  0.4970  1.3293
  201SOL    HW2 2045   3.698   6.184  11.985 -0.6477 -0.3785 -0.4836
  202SOL     OW 2046   5.580   2.932   2.426 -0.2939 -0.2043 -0.0910
  202SOL    HW1 2047   5.554   3.003   2.485 -2.7451  1.1903 -2.5738
  202SOL    HW2 2048   5.522   2.860   2.448 -1.5367  0.4775 -1.0272
  203SOL     OW 2049   6.791   5.982   1.622 -0.2273 -0.0899  0.0307
  203SOL    HW1 2050   6.726   5.975   1.552  0.0756  0.3159 -0.2937
  203SOL    HW2 2051   6.836   5.897   1.621 -0.9802 -0.5015  0.4871
  204SOL     OW 2052   2.152   5.073   4.993  0.1181  0.0606 -0.2268
  204SOL    HW1 2053   2.222   5.101   5.052  0.1597 -0.3560 -0.0754
  204SOL    HW2 2054   2.081   5.046   5.051  0.4278 -1.0505 -0.3410
  205SOL     OW 2055   5.084   1.157   2.209  0.1415 -0.1410 -0.2424
  205SOL    HW1 2056   5.054   1.122   2.293  1.0180 -1.2235 -0.3503
  205SOL    HW2 2057   5.180   1.147   2.212  0.4368  2.0903 -0.3814
  206SOL     OW 2058   5.873   1.891   9.873 -0.1978  0.1738 -0.0938
  206SOL    HW1 2059   5.819   1.876   9.950 -1.4349 -0.1412 -0.9969
  206SOL    HW2 2060   5.913   1.977   9.888 -1.3000  0.6163  0.3900
  207SOL     OW 2061   6.670   2.114  11.082  0.3437 -0.0043  0.5377
  207SOL    HW1 2062   6.600   2.068  11.036  0.2762  0.6881 -0.0612
  207SOL    HW2 2063   6.710   2.170  11.015 -0.0760  1.3918  1.4116
  208SOL     OW 2064   0.616   2.425   4.931  0.0765 -0.3627  0.3884
  208SOL    HW1 2065   0.686   2.388   4.984  0.8154 -1.3074 -1.1851
  208SOL    HW2 2066   0.545   2.442   4.993  1.5116  0.2202  1.9530
  209SOL     OW 2067   5.374   1.211  10.856  0.7799  0.4209 -1.1567
  209SOL    HW1 2068   5.391   1.293  10.810 -0.0881  0.5293 -1.3046
  209SOL    HW2 2069   5.290   1.181  10.821  1.4810 -0.9670 -1.7173
  210SOL     OW 2070   4.812   0.191   9.721  0.1307 -0.2676  0.3698
  210SOL    HW1 2071   4.881   0.252   9.747 -0.4000  1.1528 -1.3942
  210SOL    HW2 2072   4.765   0.235   9.650 -1.0118 -2.2594 -0.2038
  211SOL     OW 2073   4.628   5.757   1.690 -0.4898  0.2508 -0.0413
  211SOL    HW1 2074   4.618   5.796   1.603  0.5769  1.6117  0.4101
  211SOL    HW2 2075   4.706   5.702   1.683 -0.3894  0.3797  0.0600
  212SOL     OW 2076   2.886   1.839   2.884 -0.4551  0.4174  0.4564
  212SOL    HW1 2077   2.976   1.866   2.868 -0.3157 -0.5676 -0.5430
  212SOL    HW2 2078   2.893   1.751   2.921 -1.0115  0.0229 -0.3380
  213SOL     OW 2079   5.307   0.239   6.399  0.3425  0.1230 -0.5549
  213SOL    HW1 2080   5.330   0.332   6.406  1.1016 -0.1619  2.1183
  213SOL    HW2 2081   5.227   0.230   6.451  0.6583 -0.8180 -0.2048
  214SOL     OW 2082   7.632   5.379   0.144 -0.0782 -0.6305  0.0214
  214SOL    HW1 2083   7.562   5.444   0.140 -0.2824 -0.8972 -0.8362
  214SOL    HW2 2084   7.660   5.368   0.053  1.7959  0.2460  0.4434
  215SOL     OW 2085   1.297   4.847  10.410 -0.4029 -0.3826 -0.0898
  215SOL    HW1 2086   1.339   4.776  10.459  0.0826 -1.4732 -1.9815
  215SOL    HW2 2087   1.228   4.804  10.360  1.3888 -0.0427 -3.0891
  216SOL     OW 2088   5.730   5.381  11.005  0.4773 -0.7523  0.0703
  216SOL    HW1 2089   5.697   5.453  11.060  2.0489 -0.1884  0.3384
  216SOL    HW2 2090   5.654   5.327  10.988 -0.6900  0.8026  0.1519
  217SOL     OW 2091   0.500   5.550   3.230  0.1429  0.1038  0.4316
  217SOL    HW1 2092   0.595   5.535   3.226  0.0632 -0.5025  0.6550
  217SOL    HW2 2093   0.490   5.636   3.271  0.6011  0.2865  0.1679
  218SOL     OW 2094   1.632   6.240   6.247  0.1746  0.0742 -0.0915
  218SOL    HW1 2095   1.606   6.148   6.253 -0.3041  0.2489  0.6146
  218SOL    HW2 2096   1.551   6.287   6.227  0.3824  0.3679 -0.2475
  219SOL     OW 2097   4.751   7.218   5.400 -0.3322 -0.1919  0.2140
  219SOL    HW1 2098   4.709   7.258   5.323 -4.2533 -0.0962  2.1388
  219SOL    HW2 2099   4.730   7.125   5.392 -0.2714 -0.2630  0.8514
  220SOL     OW 2100   5.967   4.400   7.263 -0.7768 -0.1946 -0.3804
  220SOL    HW1 2101   5.993   4.392   7.355  0.4220  0.6189 -0.6143
  220SOL    HW2 2102   6.043   4.367   7.214 -1.5294 -0.9336 -1.0901
  221SOL     OW 2103   7.396   6.608   0.923  0.2958 -0.4355  0.0577
  221SOL    HW1 2104   7.346   6.672   0.973 -1.6448 -0.4809 -1.6672
  221SOL    HW2 2105   7.477   6.653   0.900 -0.2088  0.7162  0.4782
  222SOL     OW 2106   2.755   6.568   3.186 -0.1362  0.0336  0.7838
  222SOL    HW1 2107   2.804   6.577   3.104  0.2424 -2.8384  0.5963
  222SOL    HW2 2108   2.818   6.591   3.255  1.5234 -3.1022  0.5158
  223SOL     OW 2109   0.786   4.339   4.656  0.4108  0.1622  0.1415
  223SOL    HW1 2110   0.815   4.252   4.631 -1.4996 -0.6576  0.5633
  223SOL    HW2 2111   0.831   4.398   4.595  4.9056 -0.5878  2.3300
  224SOL     OW 2112   7.450   1.061  11.643 -0.5183 -0.6556  0.1961
  224SOL    HW1 2113   7.536   1.035  11.612 -1.3367 -1.8247 -1.2280
  224SOL    HW2 2114   7.467   1.121  11.715  1.4726 -0.1161 -0.6741
  225SOL     OW 2115   4.925   5.134  12.102  0.4333 -0.5663  0.4186
  225SOL    HW1 2116   4.927   5.207  12.164 -0.7189 -0.0784 -0.0968
  225SOL    HW2 2117   4.861   5.160  12.035  1.4701 -1.1755 -0.8635
  226SOL     OW 2118   5.841   5.017   7.692  0.1570 -0.6952 -0.2997
  226SOL    HW1 2119   5.933   4.994   7.703  0.3741 -0.6218 -1.8068
  226SOL    HW2 2120   5.817   4.980   7.607 -0.5331  1.3279 -1.0424
  227SOL     OW 2121   6.105   4.144   4.800  0.0139  0.2408  0.7437
  227SOL    HW1 2122   6.136   4.220   4.850  0.4815 -0.6072  1.7761
  227SOL    HW2 2123   6.182   4.087   4.793 -0.1812  0.0931 -0.5081
  228SOL     OW 2124   2.671   2.171   1.019 -0.2979  0.3844  0.2865
  228SOL    HW1 2125   2.750   2.146   0.971 -0.4378  0.5222 -0.0142
  228SOL    HW2 2126   2.649   2.258   0.986  0.6572  1.3010  1.9155
  229SOL     OW 2127   5.020   6.191   2.019  0.3120 -0.5025  0.4432
  229SOL    HW1 2128   5.021   6.252   1.945  1.2078  0.3138  1.1090
  229SOL    HW2 2129   5.037   6.106   1.979  0.2445 -0.1537 -0.3586
  230SOL     OW 2130   5.663   5.359   0.782  0.1181 -0.6250 -0.2193
  230SOL    HW1 2131   5.633   5.305   0.855 -0.0186  0.3101  0.4396
  230SOL    HW2 2132   5.604   5.338   0.710  0.3173 -1.6352 -0.1098
  231SOL     OW 2133   5.750   3.782  10.862  0.2722 -0.2347 -0.2643
  231SOL    HW1 2134   5.814   3.834  10.910  1.7376 -0.8776 -1.4488
  231SOL    HW2 2135   5.802   3.715  10.818 -1.2895 -1.1115 -0.8322
  232SOL     OW 2136   0.029   2.252   5.085  0.2244 -0.5399  0.3192
  232SOL    HW1 2137   0.097   2.186   5.101  3.4327  2.2053 -0.9009
  232SOL    HW2 2138  -0.001   2.234   4.996  0.2919 -0.9658  0.3800
  233SOL     OW 2139   3.761   2.122   8.294  0.0048  0.1805  0.6776
  233SOL    HW1 2140   3.831   2.057   8.297 -0.9974 -0.9881 -0.2879
  233SOL    HW2 2141   3.787   2.182   8.223 -0.1956 -0.5447 -0.0260
  234SOL     OW 2142   3.176   1.654   0.645 -0.2979  0.3651  0.5365
  234SOL    HW1 2143   3.165   1.676   0.552 -1.8536 -0.0387  0.5899
  234SOL    HW2 2144   3.251   1.707   0.674  1.0953 -0.5347 -1.2663
  235SOL     OW 2145   1.954   6.554   4.661  0.5346 -0.0672  0.1315
  235SOL    HW1 2146   1.863   6.545   4.688  0.2883  1.5685 -0.0382
  235SOL    HW2 2147   2.002   6.495   4.720 -0.4498  0.2938  1.3434
  236SOL     OW 2148   5.483   6.878  11.313 -0.0410  0.5108  0.2627
  236SOL    HW1 2149   5.542   6.895  11.239  0.6262 -1.9678  0.1336
  236SOL    HW2 2150   5.526   6.919  11.388  1.4024 -0.4297 -0.0126
  237SOL     OW 2151   3.985   2.699   9.477  0.3295  0.7284  0.1807
  237SOL    HW1 2152   3.967   2.735   9.390  0.8430 -0.3376 -0.3692
  237SOL    HW2 2153   4.036   2.768   9.521 -0.7319  1.6681 -0.0085
  238SOL     OW 2154   0.012   6.006   2.459  0.0391  0.0014 -0.3166
  238SOL    HW1 2155   0.035   6.094   2.431  2.9347 -0.2202  1.0797
  238SOL    HW2 2156   0.033   5.950   2.384 -0.4926  0.3018 -0.7015
  239SOL     OW 2157   0.785   5.508  11.287  0.1163  0.0992  0.0185
  239SOL    HW1 2158   0.803   5.515  11.380 -0.5216 -0.0386  0.1533
  239SOL    HW2 2159   0.864   5.469  11.250  0.2818 -0.0492  0.5307
  240SOL     OW 2160   0.759   7.133   8.184  0.2304  0.1065  0.4102
  240SOL    HW1 2161   0.773   7.191   8.110  1.1985 -0.6393 -0.0011
  240SOL    HW2 2162   0.667   7.106   8.176  0.2492  0.2475 -0.3516
  241SOL     OW 2163   4.719   4.317   2.611 -0.2190 -0.4470  0.5536
  241SOL    HW1 2164   4.685   4.405   2.595 -1.6457 -1.2860 -1.5639
  241SOL    HW2 2165   4.648   4.259   2.584  1.9985 -2.3012 -1.8860
  242SOL     OW 2166   5.303   0.891   0.895 -0.0906 -0.6797  0.4494
  242SOL    HW1 2167   5.389   0.871   0.859  0.1101  0.4287  0.2586
  242SOL    HW2 2168   5.321   0.935   0.979 -0.5206 -1.9972  1.2612
  243SOL     OW 2169   2.221   6.432   6.184  0.4572  0.1391 -0.0367
  243SOL    HW1 2170   2.148   6.466   6.133 -1.4895 -1.2358  1.6779
  243SOL    HW2 2171   2.284   6.400   6.119 -0.7346  0.7960 -1.5516
  244SOL     OW 2172   0.884   0.603  12.272  0.1996  0.0089 -0.4369
  244SOL    HW1 2173   0.818   0.672  12.267 -0.3914 -0.6435 -2.1318
  244SOL    HW2 2174   0.967   0.649  12.265 -0.1413  0.6446 -0.4162
  245SOL     OW 2175   3.969   0.502   7.303 -0.2306 -0.6338  0.1892
  245SOL    HW1 2176   3.921   0.419   7.313 -0.1922 -0.7518 -0.5599
  245SOL    HW2 2177   4.055   0.476   7.271  0.2632 -0.3986  1.2558
  246SOL     OW 2178   1.880   4.213  10.434 -0.0825 -0.2621  0.1072
  246SOL    HW1 2179   1.849   4.130  10.397  2.6401 -1.2369 -0.2541
  246SOL    HW2 2180   1.847   4.212  10.524 -2.2033 -0.4706 -0.6058
  247SOL     OW 2181   2.439   1.624   3.801  0.0369  0.5295  0.5610
  247SOL    HW1 2182   2.469   1.555   3.742  0.2429  0.4109  0.8063
  247SOL    HW2 2183   2.454   1.705   3.752 -0.3475  0.3987  0.2111
  248SOL     OW 2184   7.074   3.837   7.232  0.6079  0.2701 -0.1507
  248SOL    HW1 2185   7.093   3.930   7.220  1.3343  0.3648  1.4710
  248SOL    HW2 2186   7.136   3.792   7.175  1.7321  0.7564  0.6395
  249SOL     OW 2187   3.109   0.936  10.642  0.2488  0.0385  0.9495
  249SOL    HW1 2188   3.203   0.945  10.650  0.3008 -0.9818  1.7796
  249SOL    HW2 2189   3.076   0.940  10.732 -0.3297 -1.0967  0.8110
  250SOL     OW 2190   5.685   4.209   2.980 -0.2332 -0.2054  0.0096
  250SOL    HW1 2191   5.622   4.221   3.051 -1.5835 -0.9084 -1.0206
  250SOL    HW2 2192   5.689   4.115   2.967  1.5866 -0.2250  0.4965
  251SOL     OW 2193   3.507   7.878   0.233 -0.8733 -0.6986  0.0281
  251SOL    HW1 2194   3.523   7.824   0.155  0.3636  0.3940 -0.5190
  251SOL    HW2 2195   3.472   7.960   0.199 -0.7290 -0.3676  0.6677
  252SOL     OW 2196   4.831   6.251  12.139 -0.2144 -0.1058 -0.2051
  252SOL    HW1 2197   4.865   6.262  12.228 -1.9173 -1.1147  0.6190
  252SOL    HW2 2198   4.859   6.330  12.093  1.7143 -0.0979  0.8569
  253SOL     OW 2199   7.546   2.107   6.742 -0.5693 -0.7317 -0.1053
  253SOL    HW1 2200   7.526   2.027   6.693  0.3997 -1.2662  0.3372
  253SOL    HW2 2201   7.518   2.178   6.685  1.0198 -1.3124 -1.7086
  254SOL     OW 2202   0.211   1.031   9.304 -0.4103  0.1199  0.5078
  254SOL    HW1 2203   0.119   1.035   9.329 -0.4652 -1.6099  0.6805
  254SOL    HW2 2204   0.218   0.953   9.249  0.7916  0.7069 -0.2134
  255SOL     OW 2205   4.956   7.450   5.780  0.3518  0.3258  0.5387
  255SOL    HW1 2206   5.002   7.432   5.698  2.2815 -0.2637  1.6998
  255SOL    HW2 2207   4.965   7.545   5.792 -2.3995  0.9425 -1.2651
  256SOL     OW 2208   2.752   7.173   2.414  0.0701 -0.0451 -0.3189
  256SOL    HW1 2209   2.805   7.113   2.467  1.5496  0.9383 -0.6147
  256SOL    HW2 2210   2.718   7.119   2.343  1.1592 -0.6017 -0.4403
  257SOL     OW 2211   3.281   2.141   2.450  0.1646 -0.3920 -0.2136
  257SOL    HW1 2212   3.333   2.213   2.486  0.4477 -0.2997 -0.7947
  257SOL    HW2 2213   3.345   2.085   2.406 -0.1368 -0.6595 -0.3121
  258SOL     OW 2214   3.351   2.265   3.014  0.1695  0.0725  0.6301
  258SOL    HW1 2215   3.444   2.240   3.015  0.4061  0.8238 -0.7187
  258SOL    HW2 2216   3.351   2.352   2.975 -1.1716 -0.1348  0.1555
  259SOL     OW 2217   6.037   4.367   1.667 -0.0969 -0.1439 -0.3165
  259SOL    HW1 2218   6.110   4.373   1.729 -0.8609 -0.2183  0.6209
  259SOL    HW2 2219   5.984   4.294   1.700 -1.3348  0.7948 -0.1428
  260SOL     OW 2220   2.651   7.562   9.490  0.0761  0.3783 -0.1451
  260SOL    HW1 2221   2.715   7.591   9.425 -0.7089  0.2921 -0.9735
  260SOL    HW2 2222   2.569   7.554   9.441 -0.7038  1.0354  1.0152
  261SOL     OW 2223   7.164   4.366   0.171 -0.0443  0.4056  0.3055
  261SOL    HW1 2224   7.134   4.327   0.089  0.3372  1.9696 -0.6196
  261SOL    HW2 2225   7.096   4.430   0.194  0.6006  1.0989  0.3437
  262SOL     OW 2226   1.576   4.619  11.797 -0.3499  0.3140  0.4841
  262SOL    HW1 2227   1.570   4.575  11.883 -2.1949 -1.1151 -0.2990
  262SOL    HW2 2228   1.518   4.694  11.805 -2.3404 -1.0752 -0.1405
  263SOL     OW 2229   2.575   4.043   6.946 -0.2098 -0.0707  0.1498
  263SOL    HW1 2230   2.622   4.117   6.905 -0.9539  0.0745 -0.4491
  263SOL    HW2 2231   2.572   3.976   6.878 -0.3847 -0.2968  0.3809
  264SOL     OW 2232   2.084   5.093  10.173 -0.6926  0.3613 -0.3677
  264SOL    HW1 2233   2.141   5.154  10.126 -0.8370  0.9474  0.2048
  264SOL    HW2 2234   2.046   5.039  10.104 -0.0672  0.4966 -0.8251
  265SOL     OW 2235   5.893   3.903   5.977 -0.1042 -0.0034 -0.0008
  265SOL    HW1 2236   5.911   3.941   6.062 -2.1926  0.3101  0.3660
  265SOL    HW2 2237   5.965   3.842   5.961  1.5685  1.6405  0.8901
  266SOL     OW 2238   3.644   3.298   2.730 -0.3072  0.3799  0.1618
  266SOL    HW1 2239   3.688   3.380   2.751 -1.1489  1.1724 -1.0218
  266SOL    HW2 2240   3.602   3.272   2.811 -0.6667  1.5511  0.3729
  267SOL     OW 2241   1.143   4.250   1.203  0.5188  0.5970  0.4431
  267SOL    HW1 2242   1.177   4.209   1.123  0.0047  2.6122 -0.8799
  267SOL    HW2 2243   1.051   4.266   1.185 -0.0120 -0.3566  2.1040
  268SOL     OW 2244   4.306   1.137   5.933 -0.3992 -0.4838  0.4019
  268SOL    HW1 2245   4.243   1.094   5.991 -1.7175 -0.5716 -1.0387
  268SOL    HW2 2246   4.266   1.222   5.913  0.8069  0.2245  0.8816
  269SOL     OW 2247   0.723   6.511   6.729  0.4890 -0.0969 -0.0630
  269SOL    HW1 2248   0.724   6.502   6.634  2.9156 -1.2672  0.0222
  269SOL    HW2 2249   0.691   6.427   6.761  2.2407 -0.6818  0.1998
  270SOL     OW 2250   3.351   2.821   5.234  0.5593 -0.3327  0.3990
  270SOL    HW1 2251   3.271   2.859   5.269 -0.8761 -1.1592 -1.7965
  270SOL    HW2 2252   3.368   2.746   5.290  1.4348  1.3753  2.5792
  271SOL     OW 2253   6.953   4.934   2.923 -0.1199 -0.0858  0.6971
  271SOL    HW1 2254   6.926   4.847   2.892  1.0164 -0.6480  1.2370
  271SOL    HW2 2255   7.048   4.928   2.933 -0.0021  1.2746  0.6125
  272SOL     OW 2256   4.913   7.504   4.554 -0.1448 -0.5455  0.8263
  272SOL    HW1 2257   4.985   7.556   4.518  0.2605 -1.3767  0.4243
  272SOL    HW2 2258   4.955   7.447   4.619 -0.1366 -2.2013 -0.5643
  273SOL     OW 2259   0.800   2.500   1.854 -0.0736  0.0589  0.5187
  273SOL    HW1 2260   0.809   2.464   1.942 -0.1083  1.4490  1.1145
  273SOL    HW2 2261   0.706   2.513   1.842 -0.1667 -1.0366 -0.1300
  274SOL     OW 2262   6.740   2.722  11.875  0.2356 -0.5423 -0.2296
  274SOL    HW1 2263   6.824   2.738  11.831  0.4830 -1.5178 -0.1416
  274SOL    HW2 2264   6.684   2.684  11.808  0.5058 -1.7188  0.1849
  275SOL     OW 2265   6.104   5.838   1.019 -0.3318 -0.1889  0.5777
  275SOL    HW1 2266   6.152   5.767   1.061 -0.8521 -1.1735 -0.4196
  275SOL    HW2 2267   6.124   5.916   1.071  1.2284 -0.8303  0.9870
  276SOL     OW 2268   1.789   3.229   0.543 -0.1701 -0.3844 -0.0775
  276SOL    HW1 2269   1.710   3.228   0.596 -0.5644  0.9473 -0.5939
  276SOL    HW2 2270   1.769   3.171   0.469 -0.2569 -0.8879  0.3366
  277SOL     OW 2271   7.948   0.064   9.632 -0.1218  0.0479 -0.2501
  277SOL    HW1 2272   7.979   0.104   9.550 -0.9643  1.8964  0.2814
  277SOL    HW2 2273   7.958  -0.030   9.618  1.2842  0.3900 -1.8493
  278SOL     OW 2274   0.524   2.165   6.624 -0.1828  0.0023 -0.1741
  278SOL    HW1 2275   0.598   2.198   6.573 -1.4950  0.5006 -1.8204
  278SOL    HW2 2276   0.487   2.242   6.666 -0.2903 -0.1293 -0.0251
  279SOL     OW 2277   7.160   0.053   1.193 -0.0755 -0.8002  0.4956
  279SOL    HW1 2278   7.183   0.066   1.101  1.5373 -0.9683  0.8514
  279SOL    HW2 2279   7.212  -0.022   1.220  2.2496  1.3965  2.4882
  280SOL     OW 2280   7.163   6.910   5.593 -0.0267 -0.0824 -0.2005
  280SOL    HW1 2281   7.114   6.839   5.635  0.8615 -0.8492 -0.4564
  280SOL    HW2 2282   7.157   6.982   5.656 -0.7988 -0.4190  0.1310
  281SOL     OW 2283   6.676   5.240  11.542 -0.0778  0.0387  0.5304
  281SOL    HW1 2284   6.596   5.226  11.492  0.1792 -0.4378  0.2466
  281SOL    HW2 2285   6.737   5.278  11.478  0.0474  0.0409  0.6510
  282SOL     OW 2286   6.456   2.327   3.906  0.2139  0.1450 -1.0294
  282SOL    HW1 2287   6.452   2.294   3.816  0.7843 -0.5172 -0.8236
  282SOL    HW2 2288   6.513   2.264   3.952 -0.0668  0.4782 -0.2091
  283SOL     OW 2289   7.412   5.447  12.316  0.1013 -0.4145 -0.1084
  283SOL    HW1 2290   7.451   5.502  12.383 -1.3571  0.9028 -0.2880
  283SOL    HW2 2291   7.364   5.380  12.365 -2.1554  1.3785  0.2816
  284SOL     OW 2292   5.698   7.381  11.264  0.1632  0.0561  0.0175
  284SOL    HW1 2293   5.720   7.419  11.179  0.7704 -0.0101  0.1393
  284SOL    HW2 2294   5.649   7.302  11.243 -0.1947  0.3490 -0.2581
  285SOL     OW 2295   6.435   4.775   5.309 -0.1888 -0.1173  0.7518
  285SOL    HW1 2296   6.430   4.798   5.402 -2.1499  1.8227  0.2431
  285SOL    HW2 2297   6.356   4.725   5.292 -0.6804  0.9170 -0.1639
  286SOL     OW 2298   0.577   5.282  10.438  0.2573 -0.4252 -0.3439
  286SOL    HW1 2299   0.548   5.228  10.511  1.2922 -1.0515 -0.3719
  286SOL    HW2 2300   0.560   5.372  10.466 -1.2441 -0.7209 -0.1836
  287SOL     OW 2301   2.852   1.156  11.727 -0.0441 -0.1885 -0.1950
  287SOL    HW1 2302   2.786   1.214  11.689 -0.1969 -0.5108 -0.4191
  287SOL    HW2 2303   2.930   1.211  11.735 -0.7441  0.6297  1.4506
  288SOL     OW 2304   7.976   1.087   6.519 -0.5617 -0.5988 -0.0902
  288SOL    HW1 2305   8.041   1.068   6.451 -0.6091 -0.6435 -0.1226
  288SOL    HW2 2306   7.893   1.055   6.483 -0.9126  1.0017 -0.7796
  289SOL     OW 2307   0.673   3.323  11.032 -0.1912 -0.6239  0.3738
  289SOL    HW1 2308   0.619   3.297  10.957 -0.7766 -0.9304  0.8885
  289SOL    HW2 2309   0.695   3.240  11.075 -1.5130 -0.3767  1.6499
  290SOL     OW 2310   3.758   4.092   5.899  0.6433  0.1381 -0.5416
  290SOL    HW1 2311   3.814   4.139   5.961 -0.5285  0.0174  0.6417
  290SOL    HW2 2312   3.702   4.159   5.861 -1.6988 -0.3243  1.8603
  291SOL     OW 2313   2.785   7.476   8.355 -0.0644 -0.0151 -0.2969
  291SOL    HW1 2314   2.742   7.546   8.403 -0.9959 -1.5494  1.2293
  291SOL    HW2 2315   2.779   7.502   8.263 -1.1411  1.4599  0.1638
  292SOL     OW 2316   2.664   4.576   2.091 -0.5206 -0.1993 -0.2433
  292SOL    HW1 2317   2.596   4.581   2.023  0.2619 -1.8625 -1.2220
  292SOL    HW2 2318   2.746   4.570   2.042  0.2821  0.8586  0.9151
  293SOL     OW 2319   0.877   7.895   3.977  0.3346  0.6939 -0.1206
  293SOL    HW1 2320   0.961   7.850   3.991  0.6189  1.0268 -0.7055
  293SOL    HW2 2321   0.815   7.825   3.959  0.6032  0.4776 -0.2261
  294SOL     OW 2322   7.027   0.269   4.102  0.4709  0.0906  0.0092
  294SOL    HW1 2323   6.990   0.188   4.135  0.8326 -0.5534 -1.1078
  294SOL    HW2 2324   7.121   0.262   4.119  0.2036  1.5424  2.4714
  295SOL     OW 2325   5.910   4.529   8.904 -0.7080  0.1811  0.2424
  295SOL    HW1 2326   5.858   4.510   8.825  1.7034  0.7684 -1.6351
  295SOL    HW2 2327   5.945   4.444   8.930  0.4466  0.2908 -0.8592
  296SOL     OW 2328   1.113   6.414   7.015  0.7647  0.2127 -0.5375
  296SOL    HW1 2329   1.135   6.391   6.925 -0.1255 -0.5326 -0.5823
  296SOL    HW2 2330   1.022   6.385   7.025  1.2141 -0.7926  0.9579
  297SOL     OW 2331   1.469   0.470   3.636  0.1087  0.2406  0.2627
  297SOL    HW1 2332   1.554   0.448   3.675 -0.2427 -0.3620  0.7097
  297SOL    HW2 2333   1.437   0.543   3.689  0.2181  0.2805  0.2744
  298SOL     OW 2334   0.341   6.943   2.373 -0.1803  0.2673  0.0267
  298SOL    HW1 2335   0.405   7.001   2.332 -0.3769 -0.0706 -0.7684
  298SOL    HW2 2336   0.364   6.945   2.467  0.3362  0.9608 -0.1053
  299SOL     OW 2337   5.795   2.342   0.158  0.2135  0.0085 -0.3753
  299SOL    HW1 2338   5.794   2.436   0.179 -3.2465  0.2968 -1.1952
  299SOL    HW2 2339   5.818   2.339   0.066  3.4056 -0.3100  0.3219
  300SOL     OW 2340   6.464   3.832   2.066  0.4939 -0.0276  0.6458
  300SOL    HW1 2341   6.446   3.754   2.119  0.2504 -0.6063 -0.2775
  300SOL    HW2 2342   6.496   3.896   2.130  0.8476 -0.9202  1.3985
  301SOL     OW 2343   3.506   2.740  11.454  0.1254  0.6419 -0.6953
  301SOL    HW1 2344   3.478   2.808  11.393 -2.0478  1.9199  1.5627
  301SOL    HW2 2345   3.577   2.780  11.504  2.5144 -0.6997 -2.7498
  302SOL     OW 2346   3.813   7.314  11.535  0.0383 -0.4128 -0.0429
  302SOL    HW1 2347   3.830   7.230  11.577 -0.7472  0.1566  1.4942
  302SOL    HW2 2348   3.889   7.368  11.556  0.0927 -0.4264 -0.1997
  303SOL     OW 2349   6.260   5.694   7.342 -0.1615 -0.3029 -0.1068
  303SOL    HW1 2350   6.281   5.733   7.258 -1.1933  0.5717  0.0163
  303SOL    HW2 2351   6.174   5.730   7.365 -0.1585 -0.9579  1.0545
  304SOL     OW 2352   5.009   0.930   4.827  0.1273  0.4081  0.1728
  304SOL    HW1 2353   4.963   1.010   4.854 -1.3845 -0.3492 -0.0394
  304SOL    HW2 2354   5.101   0.956   4.820 -0.3324  2.1288  0.0890
  305SOL     OW 2355   7.279   4.708   1.710  0.0528 -0.2097  0.1970
  305SOL    HW1 2356   7.336   4.747   1.644 -0.5822  1.0205  0.3515
  305SOL    HW2 2357   7.195   4.695   1.665 -0.7088  1.5919  0.9791
  306SOL     OW 2358   6.487   0.020   0.334  0.2612  0.2785  0.2244
  306SOL    HW1 2359   6.477  -0.032   0.413  1.0717 -1.9017 -1.0276
  306SOL    HW2 2360   6.582   0.029   0.323  0.1630  2.2854  0.5073
  307SOL     OW 2361   6.316   2.104   1.219 -0.5093 -0.2623  0.5690
  307SOL    HW1 2362   6.362   2.184   1.244  2.2207 -1.9975  1.4880
  307SOL    HW2 2363   6.333   2.094   1.125 -0.3081 -0.1008  0.5896
  308SOL     OW 2364   2.987   7.446   3.352 -0.3948 -0.3281  0.3884
  308SOL    HW1 2365   3.071   7.486   3.331 -0.1146 -0.7232  0.7517
  308SOL    HW2 2366   2.971   7.384   3.280 -1.0474  0.7477 -0.4182
  309SOL     OW 2367   1.803   2.907   7.604  0.7735  0.2264  0.7324
  309SOL    HW1 2368   1.721   2.918   7.556  1.5461 -0.1160 -0.7322
  309SOL    HW2 2369   1.866   2.879   7.537  1.0677 -4.2343  2.4918
  310SOL     OW 2370   1.942   0.076   5.148  0.8919 -0.2898  0.1151
  310SOL    HW1 2371   1.920  -0.017   5.149  0.0265 -0.1379 -1.3652
  310SOL    HW2 2372   1.929   0.103   5.057 -0.5308  1.6491  0.8149
  311SOL     OW 2373   1.417   4.879  11.135 -0.1409  0.4451  0.4130
  311SOL    HW1 2374   1.511   4.900  11.134  0.2159 -0.6922  2.8747
  311SOL    HW2 2375   1.414   4.785  11.150 -1.7184  0.1463 -1.4712
  312SOL     OW 2376   3.174   2.426   2.273 -0.0306 -0.5460 -0.1090
  312SOL    HW1 2377   3.261   2.456   2.299 -0.8885  0.9322  1.2280
  312SOL    HW2 2378   3.132   2.401   2.355 -1.1141 -0.5837 -0.6565
  313SOL     OW 2379   3.185   7.427   0.965  0.2362 -0.2589 -0.2027
  313SOL    HW1 2380   3.198   7.400   1.056  3.1313  2.2557  0.3032
  313SOL    HW2 2381   3.162   7.347   0.919 -0.0947 -1.8450  2.4871
  314SOL     OW 2382   3.346   2.490   8.894 -0.7236 -0.1586  0.6296
  314SOL    HW1 2383   3.336   2.495   8.799 -2.1423  0.5967  0.7993
  314SOL    HW2 2384   3.257   2.478   8.927 -0.3237  0.2143  1.8955
  315SOL     OW 2385   6.321   6.510   2.713  0.4996 -0.6855  0.1757
  315SOL    HW1 2386   6.321   6.432   2.767  0.2604  0.2257  1.5485
  315SOL    HW2 2387   6.232   6.545   2.719 -0.0957 -1.5258 -2.3375
  316SOL     OW 2388   3.652   4.314   7.932 -0.1779  0.5784  0.0261
  316SOL    HW1 2389   3.744   4.293   7.918 -0.8296 -2.5553 -0.2241
  316SOL    HW2 2390   3.609   4.290   7.850 -1.4580  0.1874  0.7855
  317SOL     OW 2391   5.671   5.035   9.637 -0.1195 -0.4038 -0.1114
  317SOL    HW1 2392   5.708   4.954   9.672  1.7200 -0.2195 -1.4608
  317SOL    HW2 2393   5.625   5.008   9.558  0.8429 -0.1261 -0.7889
  318SOL     OW 2394   7.736   4.783   3.540 -0.6728 -1.0582 -0.7757
  318SOL    HW1 2395   7.793   4.831   3.600 -1.1724  0.5925 -1.5825
  318SOL    HW2 2396   7.714   4.703   3.588  0.5539 -0.7211  0.4158
  319SOL     OW 2397   0.623   3.428   9.638  0.3883 -0.0560  0.0345
  319SOL    HW1 2398   0.679   3.441   9.714 -1.1282 -1.2603  1.4361
  319SOL    HW2 2399   0.550   3.489   9.651  0.7091  0.6083 -1.1168
  320SOL     OW 2400   1.864   3.450  11.070 -0.0243 -0.4441  0.1931
  320SOL    HW1 2401   1.908   3.403  10.999  0.4286  1.0948 -0.5877
  320SOL    HW2 2402   1.823   3.525  11.027  0.4476  0.6517  1.5928
  321SOL     OW 2403   7.584   1.320   9.383 -0.7170  0.1236 -0.5638
  321SOL    HW1 2404   7.584   1.412   9.409 -1.6593 -0.2046  0.7407
  321SOL    HW2 2405   7.623   1.319   9.296  2.9305  1.2941  0.8780
  322SOL     OW 2406   0.260   2.865   1.650 -0.1161 -0.1162  0.0504
  322SOL    HW1 2407   0.249   2.910   1.734 -1.8620  1.5138 -0.9823
  322SOL    HW2 2408   0.344   2.898   1.617 -1.3436  2.5340 -0.6789
  323SOL     OW 2409   6.977   6.745   3.349 -0.1750  0.0240  0.2063
  323SOL    HW1 2410   6.964   6.829   3.305 -0.0937  0.1424  0.4044
  323SOL    HW2 2411   7.066   6.750   3.385  0.2663 -0.6134 -0.7762
  324SOL     OW 2412   1.438   6.554   5.598 -0.2182 -0.0101  0.4176
  324SOL    HW1 2413   1.405   6.527   5.513  1.5860  0.7252 -0.5775
  324SOL    HW2 2414   1.486   6.478   5.631  1.8412  0.6954 -0.7638
  325SOL     OW 2415   0.648   2.082  11.329  0.0343  0.5623  0.5224
  325SOL    HW1 2416   0.666   2.155  11.388 -2.0568  2.7405 -1.3185
  325SOL    HW2 2417   0.661   2.118  11.242 -1.0778 -1.2581 -0.4624
  326SOL     OW 2418   5.990   5.185   9.377  0.6237  0.8483  0.3429
  326SOL    HW1 2419   5.982   5.149   9.465 -0.0544  1.2119  0.4377
  326SOL    HW2 2420   5.961   5.115   9.319  0.9489  0.6539  0.4099
  327SOL     OW 2421   0.320   4.184  11.970  0.4997  0.0631  0.0415
  327SOL    HW1 2422   0.382   4.219  12.034  0.1409  0.7293  0.0331
  327SOL    HW2 2423   0.294   4.100  12.007  3.7756 -1.7973 -1.4596
  328SOL     OW 2424   5.301   4.982   6.444  0.6186 -0.1844 -0.0360
  328SOL    HW1 2425   5.227   5.008   6.500 -0.6522 -0.2371 -1.5978
  328SOL    HW2 2426   5.377   5.024   6.482 -0.5149  1.2942  0.6651
  329SOL     OW 2427   2.642   2.388   3.494  0.2294  0.1284 -0.2942
  329SOL    HW1 2428   2.566   2.385   3.436  0.7282 -1.2613 -0.9121
  329SOL    HW2 2429   2.609   2.353   3.577 -0.4470  1.9868  0.2647
  330SOL     OW 2430   1.622   1.426   5.765  0.3248 -0.0820  0.1682
  330SOL    HW1 2431   1.575   1.485   5.706  1.0024 -0.1790 -0.4873
  330SOL    HW2 2432   1.597   1.338   5.736  2.4859 -0.2099 -1.6078
  331SOL     OW 2433   0.170   3.029   9.405  0.3905  0.3743  0.2909
  331SOL    HW1 2434   0.139   3.005   9.318 -1.2009  2.1656  0.2970
  331SOL    HW2 2435   0.257   3.064   9.391  0.5621 -0.3188 -0.4165
  332SOL     OW 2436   6.237   5.297   2.608 -0.4731  0.3655  0.2926
  332SOL    HW1 2437   6.180   5.346   2.548 -0.8227 -0.4593 -0.0705
  332SOL    HW2 2438   6.178   5.234   2.650  0.5403 -2.1975 -1.8839
  333SOL     OW 2439   2.040   6.112   4.947  0.2481 -0.5812  0.2807
  333SOL    HW1 2440   2.103   6.045   4.920  1.5622  0.6266  0.2338
  333SOL    HW2 2441   1.963   6.062   4.974  0.7554 -2.0531 -0.8324
  334SOL     OW 2442   0.168   6.455   8.959 -0.2264  0.2048 -0.5900
  334SOL    HW1 2443   0.252   6.480   8.922  0.2355  1.3378  1.1207
  334SOL    HW2 2444   0.134   6.389   8.898  2.1355 -0.7171 -1.0155
  335SOL     OW 2445   4.405   6.542   6.684  0.1048  0.4526 -0.4710
  335SOL    HW1 2446   4.433   6.576   6.769 -2.3419  0.8689  0.2526
  335SOL    HW2 2447   4.388   6.449   6.700  0.9904  0.2153 -0.8831
  336SOL     OW 2448   3.429   4.956   7.329  0.1776 -0.2018 -0.5378
  336SOL    HW1 2449   3.472   4.957   7.244 -2.1645  0.8471 -1.8229
  336SOL    HW2 2450   3.442   5.045   7.363  0.5175 -0.4127 -0.1064
  337SOL     OW 2451   5.057   6.161   4.978 -0.2287  0.2000 -0.0275
  337SOL    HW1 2452   5.105   6.154   4.895  1.6705 -0.3085  1.0697
  337SOL    HW2 2453   5.008   6.079   4.985 -1.1396  0.6213 -1.0320
  338SOL     OW 2454   6.265   1.304   5.429  0.1088 -0.5353 -0.0603
  338SOL    HW1 2455   6.173   1.328   5.416 -0.4562 -2.4414  0.0983
  338SOL    HW2 2456   6.291   1.350   5.508 -1.1972 -1.1507  0.7627
  339SOL     OW 2457   6.951   1.132   6.683  0.6444  0.0647 -0.2176
  339SOL    HW1 2458   6.949   1.065   6.615  1.7074  0.3903 -0.5956
  339SOL    HW2 2459   7.029   1.111   6.735  0.9614  0.9456 -0.3069
  340SOL     OW 2460   7.565   0.786  12.354  0.6162 -0.1526  0.1045
  340SOL    HW1 2461   7.636   0.846  12.375  0.5110 -0.3581  1.0719
  340SOL    HW2 2462   7.496   0.807  12.417 -0.5306  0.6207 -1.3471
  341SOL     OW 2463   5.714   1.228   5.816 -0.8859 -0.1197 -0.1870
  341SOL    HW1 2464   5.726   1.319   5.843  0.6953 -0.0956 -0.8679
  341SOL    HW2 2465   5.619   1.216   5.815 -1.1786  1.8201 -1.0177
  342SOL     OW 2466   0.050   6.990   0.862  0.0400  0.4866  0.8854
  342SOL    HW1 2467   0.072   7.065   0.918  2.1079  0.1810  0.5855
  342SOL    HW2 2468  -0.006   6.935   0.917 -1.4915  2.1928  1.1207
  343SOL     OW 2469   0.221   4.252   3.720  0.0569 -0.3679 -0.1074
  343SOL    HW1 2470   0.235   4.270   3.628  2.8804 -0.4544  0.2311
  343SOL    HW2 2471   0.150   4.187   3.721  1.7306 -2.4189 -2.4259
  344SOL     OW 2472   4.496   6.106   6.897 -0.3275 -0.0813 -0.2136
  344SOL    HW1 2473   4.496   6.187   6.947  0.2483  0.4817 -1.0998
  344SOL    HW2 2474   4.577   6.109   6.846 -0.6153 -0.9040 -0.7416
  345SOL     OW 2475   4.965   3.831   9.564  0.1831 -0.0937  0.6014
  345SOL    HW1 2476   4.914   3.806   9.641  0.7640 -1.8007  0.4949
  345SOL    HW2 2477   5.045   3.780   9.571 -0.2361 -1.2533 -1.6958
  346SOL     OW 2478   0.051   2.927   5.496 -0.6466  0.2240  0.2780
  346SOL    HW1 2479   0.092   2.979   5.564  0.3453  1.1033 -0.9568
  346SOL    HW2 2480   0.107   2.850   5.488 -1.1965 -0.2669  0.9570
  347SOL     OW 2481   0.852   3.145   1.400 -0.0367  0.0337  0.4908
  347SOL    HW1 2482   0.784   3.176   1.459  0.2358 -0.3483  1.0192
  347SOL    HW2 2483   0.843   3.050   1.401 -0.2792  0.0461 -0.3945
  348SOL     OW 2484   1.178   5.974   3.284 -0.1588  0.1189 -0.4771
  348SOL    HW1 2485   1.098   6.006   3.241  0.4673  2.5467  0.0067
  348SOL    HW2 2486   1.177   6.016   3.370  1.4644 -0.0893 -0.3270
  349SOL     OW 2487   0.792   7.828   2.167  0.1077  0.4346  0.0620
  349SOL    HW1 2488   0.753   7.860   2.248  1.1025 -0.7070  1.0115
  349SOL    HW2 2489   0.784   7.733   2.172  1.4799  0.2741 -0.5115
  350SOL     OW 2490   0.565   6.212  10.421 -0.0148  0.0773 -0.6462
  350SOL    HW1 2491   0.589   6.305  10.425 -1.9705  0.6964 -1.6708
  350SOL    HW2 2492   0.514   6.205  10.340 -1.2838 -1.5343  0.2408
  351SOL     OW 2493   7.155   0.455  11.595 -0.1914 -0.3027  0.4192
  351SOL    HW1 2494   7.088   0.509  11.638 -2.1178 -2.7394  0.7049
  351SOL    HW2 2495   7.204   0.416  11.667 -1.2306 -1.7647  0.3699
  352SOL     OW 2496   6.952   4.092  11.691 -0.7020  0.1246  0.0372
  352SOL    HW1 2497   6.957   4.174  11.740  2.1826 -0.8617  1.6297
  352SOL    HW2 2498   6.900   4.114  11.613  0.1064  3.4964  0.2976
  353SOL     OW 2499   5.073   3.548   0.583 -0.2354  0.0975  0.1351
  353SOL    HW1 2500   5.001   3.494   0.550 -0.6478  1.4222 -1.2027
  353SOL    HW2 2501   5.095   3.509   0.668  0.1117 -2.7345 -1.1447
  354SOL     OW 2502   1.930   0.794   9.290 -0.3689  0.5145 -0.0360
  354SOL    HW1 2503   1.906   0.714   9.336  0.4893  1.2773  1.8516
  354SOL    HW2 2504   1.906   0.778   9.198  1.5698 -2.6304 -0.1357
  355SOL     OW 2505   4.501   6.814   4.597  0.3662 -0.3605 -0.8141
  355SOL    HW1 2506   4.463   6.733   4.563 -0.5750 -0.2076 -0.1616
  355SOL    HW2 2507   4.544   6.788   4.678 -0.3572 -0.1353 -0.3488
  356SOL     OW 2508   3.332   4.603   9.460 -0.0421 -0.2834  0.6068
  356SOL    HW1 2509   3.296   4.604   9.549 -0.5967 -0.8691  0.3887
  356SOL    HW2 2510   3.322   4.513   9.431 -1.8769  0.3413 -0.8683
  357SOL     OW 2511   6.921   5.490   5.618  0.2466 -0.3060  0.2348
  357SOL    HW1 2512   6.959   5.536   5.693  0.5187 -2.1081  1.2711
  357SOL    HW2 2513   6.828   5.482   5.640  0.3085 -0.7457  0.3487
  358SOL     OW 2514   0.507   6.959   1.418 -0.2214 -0.2047  0.0482
  358SOL    HW1 2515   0.581   7.007   1.455 -0.9428  0.9540  0.0248
  358SOL    HW2 2516   0.449   6.944   1.493 -1.0405  0.9388 -0.3366
  359SOL     OW 2517   7.602   3.517   1.754 -0.1875  0.4044  0.3791
  359SOL    HW1 2518   7.592   3.421   1.752  0.9620  0.2827 -0.4316
  359SOL    HW2 2519   7.647   3.538   1.673 -0.9915  1.7274  0.2575
  360SOL     OW 2520   7.423   7.832   0.078 -0.7764  0.1839  0.1601
  360SOL    HW1 2521   7.355   7.900   0.069  0.1010  0.8833 -1.7612
  360SOL    HW2 2522   7.441   7.805  -0.012  0.2837 -1.2229  0.7690
  361SOL     OW 2523   3.144   5.187   3.645 -0.3555  0.4851 -0.2583
  361SOL    HW1 2524   3.105   5.242   3.577 -0.1205  0.3992 -0.4668
  361SOL    HW2 2525   3.071   5.161   3.701 -0.5585  0.5173 -0.5095
  362SOL     OW 2526   0.266   1.525   2.916  0.0578  0.1150  0.7603
  362SOL    HW1 2527   0.240   1.476   2.838  0.0482 -0.5692  1.1783
  362SOL    HW2 2528   0.338   1.581   2.887  0.3439 -0.4516  0.3581
  363SOL     OW 2529   5.761   3.292   0.972 -0.3401 -0.2851  0.0003
  363SOL    HW1 2530   5.769   3.385   0.947 -1.0306 -0.1541  0.2464
  363SOL    HW2 2531   5.693   3.291   1.040  0.9981 -0.7256  1.3881
  364SOL     OW 2532   2.369   1.356   2.669  0.9561  0.0696 -0.4574
  364SOL    HW1 2533   2.363   1.325   2.579  0.2525 -0.3795 -0.2593
  364SOL    HW2 2534   2.362   1.277   2.722 -0.1540  0.4905  0.0353
  365SOL     OW 2535   0.560   7.837   5.348  0.5142  0.3370  0.3253
  365SOL    HW1 2536   0.550   7.771   5.279  1.6579 -0.4335  0.8667
  365SOL    HW2 2537   0.630   7.894   5.317 -1.0534  1.8913 -0.5495
  366SOL     OW 2538   5.713   2.524   6.359  0.0833 -0.2035 -0.5670
  366SOL    HW1 2539   5.759   2.599   6.320  1.7250 -1.9377 -2.2200
  366SOL    HW2 2540   5.730   2.452   6.298 -1.0673 -2.0242  1.1552
  367SOL     OW 2541   1.953   5.139  10.439 -0.2306 -0.1816  0.2050
  367SOL    HW1 2542   1.940   5.045  10.443  2.3532 -0.5898  1.8508
  367SOL    HW2 2543   1.989   5.155  10.352 -0.0322 -0.8413  0.1598
  368SOL     OW 2544   2.089   5.053  10.663 -0.0546  0.4133 -0.5142
  368SOL    HW1 2545   2.145   5.124  10.694  0.4399  0.3756 -1.3021
  368SOL    HW2 2546   2.048   5.087  10.584 -0.3829  0.0840 -0.4900
  369SOL     OW 2547   5.567   7.336   3.621 -1.1464  0.0705  0.5483
  369SOL    HW1 2548   5.559   7.241   3.619 -0.0243 -0.0208  0.1751
  369SOL    HW2 2549   5.481   7.367   3.591 -0.8010 -0.8491 -1.5570
  370SOL     OW 2550   5.562   0.844   9.854 -0.1905  0.2886  0.2970
  370SOL    HW1 2551   5.489   0.906   9.859 -0.8922 -0.3671 -1.2546
  370SOL    HW2 2552   5.631   0.891   9.809 -0.6481  0.0344 -0.6894
  371SOL     OW 2553   7.125   0.823  11.366  0.8504  1.0567 -0.5867
  371SOL    HW1 2554   7.157   0.895  11.420  4.5266  0.4828 -1.6888
  371SOL    HW2 2555   7.126   0.857  11.277  0.7855  0.2118 -0.9184
  372SOL     OW 2556   3.689   4.263   0.730 -0.4300  0.0199 -0.0490
  372SOL    HW1 2557   3.602   4.241   0.764 -0.4405  1.9652  1.3428
  372SOL    HW2 2558   3.733   4.178   0.721 -1.5574 -0.8279  1.8208
  373SOL     OW 2559   0.126   4.092  10.554 -0.1288  0.2892 -0.0208
  373SOL    HW1 2560   0.133   3.997  10.562  1.9362  0.1453 -2.1913
  373SOL    HW2 2561   0.157   4.126  10.638  1.4549 -0.9761 -0.0488
  374SOL     OW 2562   1.709   1.361   9.683  0.1406 -0.4126 -0.3540
  374SOL    HW1 2563   1.644   1.346   9.751 -0.2324  2.1295 -0.0511
  374SOL    HW2 2564   1.670   1.324   9.604 -1.4893  0.6619 -0.0855
  375SOL     OW 2565   6.853   2.473   7.363 -0.1473  0.1663 -0.0103
  375SOL    HW1 2566   6.778   2.531   7.376 -1.5926 -1.6577  0.1504
  375SOL    HW2 2567   6.848   2.410   7.435  0.0539 -1.4977 -1.3903
  376SOL     OW 2568   0.775   6.803   4.655 -0.0047 -0.2926  0.1806
  376SOL    HW1 2569   0.816   6.733   4.605  1.4472 -0.0694  1.0028
  376SOL    HW2 2570   0.745   6.761   4.735  0.4698 -0.0721  0.4790
  377SOL     OW 2571   6.141   2.083  10.694  0.5323 -0.1614 -0.2255
  377SOL    HW1 2572   6.226   2.123  10.709  0.4051 -0.5779  1.9580
  377SOL    HW2 2573   6.088   2.152  10.654  0.4220  1.8357  3.0643
  378SOL     OW 2574   2.875   3.837   2.326 -0.3519 -0.6607  0.7390
  378SOL    HW1 2575   2.950   3.792   2.365  0.7058  1.0756  0.8246
  378SOL    HW2 2576   2.914   3.900   2.265 -1.8379 -0.9808 -0.6110
  379SOL     OW 2577   3.986   3.540   2.163 -0.4384  0.1517  0.8314
  379SOL    HW1 2578   3.899   3.573   2.139 -0.5413 -0.2012  0.7245
  379SOL    HW2 2579   3.975   3.445   2.169  0.2508 -0.0243 -0.4807
  380SOL     OW 2580   2.572   4.035   4.772 -0.1871  0.4349  0.1106
  380SOL    HW1 2581   2.513   4.105   4.744 -1.1151 -0.8922 -1.4163
  380SOL    HW2 2582   2.607   3.999   4.691  0.4633 -0.7025  0.8713
  381SOL     OW 2583   7.093   7.556   4.264 -0.2515 -0.5944  0.6222
  381SOL    HW1 2584   7.128   7.644   4.273  1.8748 -1.4374  1.2190
  381SOL    HW2 2585   7.133   7.507   4.336  0.0600 -2.4807 -0.7562
  382SOL     OW 2586   5.268   6.699   5.572  0.1511 -0.4554  0.0797
  382SOL    HW1 2587   5.299   6.779   5.531  0.0438 -0.3286  0.2451
  382SOL    HW2 2588   5.345   6.664   5.618  0.0557 -0.1489  0.4784
  383SOL     OW 2589   2.548   6.140   2.638  0.2292 -0.1775  0.0067
  383SOL    HW1 2590   2.621   6.122   2.579  0.0244 -0.6599 -0.1068
  383SOL    HW2 2591   2.530   6.233   2.626 -0.9655 -0.5949 -2.0503
  384SOL     OW 2592   1.469   3.670   1.469  0.2679 -0.1327 -0.5378
  384SOL    HW1 2593   1.443   3.580   1.490  0.3390  0.3800  2.1163
  384SOL    HW2 2594   1.414   3.694   1.394  0.5259 -2.4754 -1.5818
  385SOL     OW 2595   5.197   3.601   2.446  0.5029  0.0705  0.2556
  385SOL    HW1 2596   5.242   3.527   2.405  1.6158  0.9384 -0.1432
  385SOL    HW2 2597   5.147   3.641   2.375  1.7181  1.0382 -0.0868
  386SOL     OW 2598   4.355   5.793   0.556  0.2950  0.7994 -0.3235
  386SOL    HW1 2599   4.446   5.766   0.546  0.4239  0.2950  1.7261
  386SOL    HW2 2600   4.332   5.767   0.645 -1.4658  2.0634 -0.3512
  387SOL     OW 2601   3.609   0.720   0.109  0.1462 -0.1076  0.6826
  387SOL    HW1 2602   3.646   0.637   0.079 -0.5902 -0.4515  0.7090
  387SOL    HW2 2603   3.684   0.779   0.114  0.3399 -0.0637 -1.7000
  388SOL     OW 2604   5.754   3.288   8.769  0.1611 -0.2954  0.1862
  388SOL    HW1 2605   5.794   3.210   8.730  0.0280 -0.3027  0.0633
  388SOL    HW2 2606   5.717   3.335   8.695  0.9140  0.2788  0.1678
  389SOL     OW 2607   1.421   0.293   1.729 -0.1007 -0.2414 -0.0263
  389SOL    HW1 2608   1.401   0.276   1.820  1.4045  0.9464  0.5785
  389SOL    HW2 2609   1.510   0.329   1.730  0.0022 -0.2993 -1.9694
  390SOL     OW 2610   2.736   4.032   2.754 -0.1539 -0.2303  0.5364
  390SOL    HW1 2611   2.809   4.060   2.699 -0.6380 -1.0999 -0.5984
  390SOL    HW2 2612   2.669   4.099   2.742  0.0013 -0.0608  0.6183
  391SOL     OW 2613   0.133   2.438   1.229  0.3641 -0.4645  0.2257
  391SOL    HW1 2614   0.145   2.527   1.262  0.7843 -1.3716  2.8081
  391SOL    HW2 2615   0.214   2.420   1.180  1.1419 -0.0390  1.3036
  392SOL     OW 2616   4.164   4.391   6.647  0.5489  0.2149 -0.6084
  392SOL    HW1 2617   4.150   4.359   6.558 -0.4758 -0.5349 -0.1836
  392SOL    HW2 2618   4.207   4.319   6.692  1.2182  0.6538 -0.5135
  393SOL     OW 2619   6.269   0.040   8.958  0.2912 -0.0622  0.2934
  393SOL    HW1 2620   6.324   0.098   8.905  0.5392 -0.7760 -0.2512
  393SOL    HW2 2621   6.304   0.049   9.047 -0.2937  1.3432  0.4041
  394SOL     OW 2622   0.507   1.869   5.419  0.7153 -0.3167  0.3129
  394SOL    HW1 2623   0.534   1.960   5.433 -1.4449  0.3458  0.5787
  394SOL    HW2 2624   0.469   1.842   5.502 -1.3418 -0.4053 -0.5821
  395SOL     OW 2625   6.186   3.658   5.034 -0.2359  0.1449 -0.1404
  395SOL    HW1 2626   6.212   3.703   5.114  0.2791 -1.1026  0.3976
  395SOL    HW2 2627   6.136   3.583   5.063  1.5131 -1.3745 -0.8720
  396SOL     OW 2628   7.668   5.892   3.787  0.4874 -0.0973  0.4868
  396SOL    HW1 2629   7.617   5.815   3.812  2.2955 -2.0859 -1.5787
  396SOL    HW2 2630   7.718   5.914   3.865 -1.8433  0.6263  1.8944
  397SOL     OW 2631   6.902   1.685  10.919  0.3178  0.1075  0.2916
  397SOL    HW1 2632   6.946   1.606  10.886  0.2433 -0.5505  1.6525
  397SOL    HW2 2633   6.876   1.661  11.008 -0.2235  1.4905  0.5258
  398SOL     OW 2634   4.059   0.219   4.718  0.4796  0.2683  0.0674
  398SOL    HW1 2635   4.002   0.282   4.762  1.7453  0.8062  1.0042
  398SOL    HW2 2636   4.018   0.134   4.735  0.2115  0.5933  1.1628
  399SOL     OW 2637   2.038   2.466   0.030 -0.2430  0.0661 -0.9684
  399SOL    HW1 2638   2.082   2.461   0.115 -1.0393 -1.9602 -0.6014
  399SOL    HW2 2639   1.965   2.526   0.044  1.1683  1.8940 -1.0402
  400SOL     OW 2640   5.579   5.483   3.052 -0.6518  0.1224  0.3107
  400SOL    HW1 2641   5.523   5.553   3.087 -1.4143  0.2164 -1.0071
  400SOL    HW2 2642   5.552   5.404   3.099 -1.7008  0.2276 -0.0836
  401SOL     OW 2643   0.425   2.643  11.394  0.4283  0.3153  0.0340
  401SOL    HW1 2644   0.350   2.666  11.339  2.6745  0.9288 -3.0546
  401SOL    HW2 2645   0.388   2.627  11.480 -3.6350 -2.0327 -1.8493
  402SOL     OW 2646   1.382   6.266   7.879  0.2219 -0.0072 -0.0460
  402SOL    HW1 2647   1.407   6.359   7.887  1.7849 -0.2655 -1.3100
  402SOL    HW2 2648   1.436   6.234   7.807 -0.6239 -1.8080  0.0855
  403SOL     OW 2649   5.618   2.579   6.986  0.8807  0.1297 -0.4789
  403SOL    HW1 2650   5.568   2.499   6.970  1.0331  0.1051 -0.8322
  403SOL    HW2 2651   5.625   2.585   7.082 -2.0796  1.5128 -0.2362
  404SOL     OW 2652   5.622   6.446  11.570  0.1855  0.0585 -0.0911
  404SOL    HW1 2653   5.631   6.493  11.653  2.4732 -0.6591  0.1619
  404SOL    HW2 2654   5.571   6.368  11.592 -0.2132  0.4461  0.3801
  405SOL     OW 2655   6.630   1.515   2.594  0.0726 -0.0315  1.1667
  405SOL    HW1 2656   6.600   1.443   2.648 -0.3479 -0.7739 -0.0132
  405SOL    HW2 2657   6.714   1.485   2.557  0.0206  0.1766  0.8668
  406SOL     OW 2658   3.869   3.832   0.008  0.3258  0.0201 -0.8347
  406SOL    HW1 2659   3.965   3.830   0.002  0.4956 -0.8335  1.2299
  406SOL    HW2 2660   3.850   3.914   0.053  0.3434 -0.9982  1.1601
  407SOL     OW 2661   3.184   4.289   7.173  0.1284  0.0470 -0.0980
  407SOL    HW1 2662   3.113   4.243   7.218 -0.5791  1.0087 -0.1912
  407SOL    HW2 2663   3.242   4.318   7.243 -0.8499  1.3456  0.2207
  408SOL     OW 2664   3.629   5.906   0.638  0.5870 -0.2497  0.1322
  408SOL    HW1 2665   3.664   5.946   0.558 -0.2468 -1.6659 -0.9789
  408SOL    HW2 2666   3.539   5.939   0.643  0.6208 -0.2089  0.4670
  409SOL     OW 2667   1.943   7.303   4.127  0.0557  0.6719  0.2136
  409SOL    HW1 2668   2.005   7.280   4.195 -0.2267 -2.4029 -0.4376
  409SOL    HW2 2669   1.998   7.329   4.052  0.4604  0.6063  0.4866
  410SOL     OW 2670   0.788   7.786   1.686 -0.3242  0.7558 -0.1147
  410SOL    HW1 2671   0.860   7.737   1.647 -0.1809  0.6359  0.3036
  410SOL    HW2 2672   0.718   7.782   1.620  0.0061  0.7709 -0.4669
  411SOL     OW 2673   6.418   2.009   2.328  0.8744 -0.1767  0.2267
  411SOL    HW1 2674   6.445   1.953   2.401  1.0626  2.0432  1.9862
  411SOL    HW2 2675   6.327   2.032   2.348  1.5159  2.0173  0.9137
  412SOL     OW 2676   7.672   4.404   3.363  0.2393 -0.5435 -0.2644
  412SOL    HW1 2677   7.664   4.308   3.367  1.5516 -0.8131 -2.2379
  412SOL    HW2 2678   7.764   4.421   3.384  0.1710  0.2059 -0.5457
  413SOL     OW 2679   0.278   3.668   8.520  0.3012  0.1677  0.3186
  413SOL    HW1 2680   0.346   3.692   8.584  1.0587  1.1726 -0.8234
  413SOL    HW2 2681   0.326   3.631   8.447 -0.5210 -0.5105  0.1162
  414SOL     OW 2682   5.078   4.484   9.287 -0.0606  0.0767  0.1506
  414SOL    HW1 2683   5.172   4.464   9.286 -0.3659 -1.4714  0.1223
  414SOL    HW2 2684   5.056   4.500   9.195 -0.0243 -0.6035  0.0182
  415SOL     OW 2685   3.165   5.772   8.999 -0.3177 -0.2245  0.0139
  415SOL    HW1 2686   3.121   5.716   9.062  0.2008  0.3787  0.9367
  415SOL    HW2 2687   3.107   5.773   8.922 -1.1243 -0.6892  0.6051
  416SOL     OW 2688   4.883   1.549  11.260 -1.2866 -0.0520  0.2606
  416SOL    HW1 2689   4.833   1.539  11.179 -0.4885  0.1321 -0.2756
  416SOL    HW2 2690   4.876   1.642  11.282  2.1650  1.0159 -2.1568
  417SOL     OW 2691   4.970   1.917   5.890 -0.0909 -0.3397 -0.1742
  417SOL    HW1 2692   4.960   1.851   5.959 -2.4597 -0.1223 -0.2246
  417SOL    HW2 2693   5.050   1.964   5.913  0.7771 -2.1650  0.7509
  418SOL     OW 2694   6.678   2.354   1.102  0.4755 -0.0334  0.1873
  418SOL    HW1 2695   6.636   2.439   1.114 -0.1293 -0.2676 -0.2188
  418SOL    HW2 2696   6.697   2.324   1.191  0.2443  0.3030  0.3518
  419SOL     OW 2697   6.466   7.828   3.876  0.2336 -0.3296  0.2155
  419SOL    HW1 2698   6.467   7.734   3.863 -1.0832 -0.2722 -0.4664
  419SOL    HW2 2699   6.379   7.847   3.913  0.2670  0.6660 -0.1712
  420SOL     OW 2700   2.629   1.766   4.385 -0.3035  0.3715 -0.4738
  420SOL    HW1 2701   2.621   1.703   4.457 -3.2471  0.0417 -0.9428
  420SOL    HW2 2702   2.671   1.717   4.315  1.6657  0.3907  0.6316
  421SOL     OW 2703   6.025   4.521  10.538 -0.9478 -0.2381  0.2627
  421SOL    HW1 2704   5.973   4.563  10.469  1.5264 -0.6689 -2.0361
  421SOL    HW2 2705   6.115   4.526  10.506  0.5458  0.6462  4.1106
  422SOL     OW 2706   7.655   6.372   3.133 -0.3511  0.2556  0.1427
  422SOL    HW1 2707   7.703   6.359   3.215  0.4894 -0.9764 -0.5086
  422SOL    HW2 2708   7.695   6.450   3.094 -1.1604  1.2103  1.1585
  423SOL     OW 2709   7.499   1.486   8.935  0.7214 -0.1117  0.0453
  423SOL    HW1 2710   7.426   1.512   8.991  0.9743  0.2194  0.2240
  423SOL    HW2 2711   7.481   1.394   8.913  0.6115 -0.2409  0.6601
  424SOL     OW 2712   7.760   6.581  10.736 -0.4349 -0.6321  0.0791
  424SOL    HW1 2713   7.828   6.620  10.790  0.4575 -0.4880 -1.1221
  424SOL    HW2 2714   7.776   6.487  10.741 -0.5210 -0.6354  0.2863
  425SOL     OW 2715   3.349   1.184   2.154  0.6213 -0.7314 -0.0195
  425SOL    HW1 2716   3.293   1.250   2.114  0.9805  1.3164  2.5589
  425SOL    HW2 2717   3.305   1.162   2.237  2.0180 -1.5042  0.5562
  426SOL     OW 2718   0.086   4.846   1.259  0.1903 -0.5903 -0.4226
  426SOL    HW1 2719   0.046   4.885   1.337 -1.8403  1.9801 -2.5453
  426SOL    HW2 2720   0.044   4.761   1.251  0.8341 -1.1550  1.4872
  427SOL     OW 2721   6.373   0.426  11.164  0.0425 -0.0162 -0.1140
  427SOL    HW1 2722   6.418   0.505  11.196  0.5376 -0.2500 -0.2249
  427SOL    HW2 2723   6.349   0.379  11.244 -0.4774  0.3645 -0.0395
  428SOL     OW 2724   7.405   4.522   0.230  0.0710 -0.5772  0.1767
  428SOL    HW1 2725   7.340   4.465   0.188 -1.7881  0.8695  0.9537
  428SOL    HW2 2726   7.415   4.595   0.170 -0.5689  0.1829  0.9711
  429SOL     OW 2727   0.681   3.605   0.696 -0.7809 -0.0888 -0.5171
  429SOL    HW1 2728   0.744   3.635   0.631 -1.9165  0.7724 -1.2567
  429SOL    HW2 2729   0.608   3.570   0.646 -0.4164 -2.2166  0.3358
  430SOL     OW 2730   7.182   0.553   0.785 -0.2479  0.1765 -0.2107
  430SOL    HW1 2731   7.146   0.637   0.755  0.6654  0.4793 -0.4834
  430SOL    HW2 2732   7.219   0.573   0.870 -0.5416 -0.0929 -0.0177
  431SOL     OW 2733   3.778   6.948   4.161  0.0782 -0.0635 -0.0815
  431SOL    HW1 2734   3.864   6.976   4.131 -0.1821  1.5301  0.5763
  431SOL    HW2 2735   3.720   7.021   4.141 -1.1227 -1.0730 -0.4232
  432SOL     OW 2736   3.111   2.311   3.467 -0.0389 -0.2486 -0.0929
  432SOL    HW1 2737   3.118   2.400   3.503  0.9189 -0.7480  1.0092
  432SOL    HW2 2738   3.047   2.319   3.396  1.4088  1.7173 -1.2634
  433SOL     OW 2739   4.679   4.540   3.725  0.3884  0.2225 -0.6632
  433SOL    HW1 2740   4.764   4.541   3.769  0.3740 -1.7624 -0.5368
  433SOL    HW2 2741   4.661   4.448   3.710  0.1911  0.7279 -4.4562
  434SOL     OW 2742   2.914   7.162   7.260  0.0210  0.3087  0.0284
  434SOL    HW1 2743   2.988   7.123   7.308 -0.7267 -1.3809 -0.1278
  434SOL    HW2 2744   2.859   7.087   7.237 -0.8654  1.3570 -1.3727
  435SOL     OW 2745   4.765   5.253   8.356 -0.6432 -0.0443  0.0461
  435SOL    HW1 2746   4.691   5.222   8.409 -0.3445  0.0931  0.5536
  435SOL    HW2 2747   4.837   5.195   8.379 -0.1935  0.7374  0.6906
  436SOL     OW 2748   6.091   2.651   7.203 -0.1321 -0.7928 -0.3201
  436SOL    HW1 2749   6.056   2.687   7.122  0.6534 -0.4548 -0.5151
  436SOL    HW2 2750   6.077   2.720   7.268 -0.1140 -0.7813 -0.3279
  437SOL     OW 2751   4.097   5.425   3.125  0.6824  0.2151  0.3462
  437SOL    HW1 2752   4.168   5.477   3.086 -0.2480  0.6918 -0.7633
  437SOL    HW2 2753   4.102   5.341   3.080  1.8444 -0.5183  1.7608
  438SOL     OW 2754   1.882   2.311  10.371  0.4534  0.1229  0.3583
  438SOL    HW1 2755   1.948   2.374  10.340  1.4847 -0.3689  1.4336
  438SOL    HW2 2756   1.861   2.258  10.295 -0.5756  1.8570 -0.6249
  439SOL     OW 2757   4.831   3.984  11.595  0.2816  0.4039  0.3753
  439SOL    HW1 2758   4.782   3.914  11.553 -0.9475  1.6987 -0.4347
  439SOL    HW2 2759   4.810   3.976  11.688 -1.6003  0.9863  0.0356
  440SOL     OW 2760   6.307   7.430   8.969  0.4120 -0.2703 -0.3221
  440SOL    HW1 2761   6.330   7.521   8.989 -0.7799 -0.1537  0.5800
  440SOL    HW2 2762   6.389   7.382   8.983  0.8698  0.5517 -0.0724
  441SOL     OW 2763   5.309   1.241   1.693  0.1955 -0.4451 -0.1528
  441SOL    HW1 2764   5.276   1.277   1.611 -0.7630 -1.2845 -0.1629
  441SOL    HW2 2765   5.236   1.253   1.755 -2.1428 -6.1188 -1.1843
  442SOL     OW 2766   1.335   3.034   9.243 -0.0836 -0.1987 -0.6607
  442SOL    HW1 2767   1.347   3.102   9.310 -1.4223 -1.8515  1.3809
  442SOL    HW2 2768   1.247   3.048   9.210  0.1436 -0.1245 -1.2440
  443SOL     OW 2769   4.852   0.574   9.715 -0.9677 -0.0465 -0.0930
  443SOL    HW1 2770   4.837   0.666   9.693 -1.4482  0.1245  0.8944
  443SOL    HW2 2771   4.770   0.545   9.756 -1.2343 -1.2381 -1.3875
  444SOL     OW 2772   5.624   7.148   3.183  0.3700  0.4640  0.0733
  444SOL    HW1 2773   5.601   7.117   3.096  0.7195 -0.8006  0.4044
  444SOL    HW2 2774   5.544   7.187   3.217 -0.6746 -1.7205  0.2950
  445SOL     OW 2775   0.865   5.914   8.390 -0.3512  0.9607 -0.1179
  445SOL    HW1 2776   0.774   5.931   8.413 -0.1928 -0.4074  1.7430
  445SOL    HW2 2777   0.861   5.847   8.322 -0.7302  1.4683 -0.6039
  446SOL     OW 2778   6.267   5.323   9.530 -0.2559  0.1329 -0.5024
  446SOL    HW1 2779   6.319   5.246   9.509 -1.6747 -0.6486 -1.3606
  446SOL    HW2 2780   6.263   5.324   9.625 -1.1116 -1.5263 -0.4872
  447SOL     OW 2781   2.510   6.518   9.863 -0.1007 -0.6384  0.0806
  447SOL    HW1 2782   2.415   6.514   9.859 -0.1326 -0.7683  0.8895
  447SOL    HW2 2783   2.539   6.428   9.850 -0.1137 -0.6811  0.3354
  448SOL     OW 2784   2.663   2.886  11.816 -0.2655  0.3405  0.3830
  448SOL    HW1 2785   2.690   2.882  11.724 -1.0003  0.3121  0.1648
  448SOL    HW2 2786   2.625   2.800  11.833 -1.3386  0.7898  0.3265
  449SOL     OW 2787   0.200   2.049   8.655  0.4949 -0.3853  0.5217
  449SOL    HW1 2788   0.148   2.116   8.698  0.2054 -1.4233  1.8746
  449SOL    HW2 2789   0.283   2.048   8.704  1.4021  0.5079 -0.9241
  450SOL     OW 2790   1.382   3.385  11.075  0.6056  0.8842 -0.3222
  450SOL    HW1 2791   1.460   3.377  11.129  0.1435  1.8987  0.5440
  450SOL    HW2 2792   1.379   3.305  11.023  1.3844  0.1481  0.7375
  451SOL     OW 2793   1.807   2.148   5.747  0.3811  0.2525  0.4185
  451SOL    HW1 2794   1.835   2.209   5.679  1.7461 -0.0136  0.7251
  451SOL    HW2 2795   1.721   2.181   5.774 -0.7200 -0.2528 -2.1557
  452SOL     OW 2796   7.849   1.776   6.936  0.3032  0.2358 -0.4947
  452SOL    HW1 2797   7.923   1.748   6.989  0.0465 -0.7590 -0.6379
  452SOL    HW2 2798   7.823   1.698   6.888  0.1978  0.9887 -1.6965
  453SOL     OW 2799   7.753   5.169   5.183  0.2037  0.0816 -0.4022
  453SOL    HW1 2800   7.663   5.138   5.184  0.2163 -0.0151  1.4062
  453SOL    HW2 2801   7.805   5.089   5.190  0.3482  0.2733  0.8195
  454SOL     OW 2802   4.633   0.337   8.427  0.1324 -0.0936  0.3044
  454SOL    HW1 2803   4.557   0.392   8.448 -0.7444 -1.7005  1.5365
  454SOL    HW2 2804   4.596   0.260   8.384  1.4859  0.9009 -3.0035
  455SOL     OW 2805   1.279   1.287   6.525 -0.1236  0.0152  0.2062
  455SOL    HW1 2806   1.363   1.265   6.485  1.0510  1.2782  1.8334
  455SOL    HW2 2807   1.276   1.383   6.525 -1.2358  0.0068  0.8321
  456SOL     OW 2808   3.541   1.204   7.271 -0.0872 -0.3612  0.1652
  456SOL    HW1 2809   3.526   1.298   7.278 -0.3977 -0.2461 -1.6095
  456SOL    HW2 2810   3.482   1.165   7.335 -1.5538  0.5509 -0.5775
  457SOL     OW 2811   4.112   4.889   2.749  0.2301  0.2613  0.2766
  457SOL    HW1 2812   4.181   4.849   2.802  0.0086  2.2026  2.1539
  457SOL    HW2 2813   4.158   4.937   2.681  0.5346 -1.6468 -0.9643
  458SOL     OW 2814   2.583   7.322   3.962  0.2034  0.2682 -0.2396
  458SOL    HW1 2815   2.638   7.302   3.886  1.2462  0.6165  0.4013
  458SOL    HW2 2816   2.636   7.295   4.037 -0.8944 -0.2558  0.3696
  459SOL     OW 2817   4.196   1.192   5.539 -0.4630 -0.3138  0.6951
  459SOL    HW1 2818   4.158   1.128   5.478 -1.0640  0.0528  0.6764
  459SOL    HW2 2819   4.155   1.275   5.514  1.0643  0.2842  0.0399
  460SOL     OW 2820   7.007   7.234   1.214 -0.0478  0.0550  0.1010
  460SOL    HW1 2821   6.987   7.179   1.289 -1.8572  2.2704  1.3926
  460SOL    HW2 2822   6.997   7.176   1.138 -3.2619 -1.1375  1.2693
  461SOL     OW 2823   7.308   0.222   6.267 -0.2292  0.1472  0.2085
  461SOL    HW1 2824   7.397   0.228   6.232 -1.0232 -1.7993 -2.5083
  461SOL    HW2 2825   7.267   0.306   6.247  0.5755  0.5358  0.1862
  462SOL     OW 2826   2.266   5.660   7.994  0.1473 -0.2358  0.2959
  462SOL    HW1 2827   2.352   5.663   8.036  0.3488  0.8479 -0.1489
  462SOL    HW2 2828   2.213   5.605   8.050  1.4081 -1.7548  0.0575
  463SOL     OW 2829   3.157   5.920  11.455  0.3590  0.3664 -1.0708
  463SOL    HW1 2830   3.120   5.848  11.505 -1.4011  1.3984 -0.7964
  463SOL    HW2 2831   3.245   5.932  11.490 -0.0892 -0.2741  0.3249
  464SOL     OW 2832   1.834   7.591  10.351 -0.4043  0.0376 -0.1277
  464SOL    HW1 2833   1.919   7.552  10.374 -0.9638 -0.6726  0.8137
  464SOL    HW2 2834   1.825   7.574  10.257  1.4223  1.9950 -0.7497
  465SOL     OW 2835   3.394   6.675  11.537  0.1415 -0.3155 -0.0213
  465SOL    HW1 2836   3.431   6.675  11.449 -0.7315 -0.4457 -0.4005
  465SOL    HW2 2837   3.456   6.726  11.589 -0.1904  1.2427 -1.0764
  466SOL     OW 2838   3.255   0.973   6.494 -0.2335 -0.1332 -0.0765
  466SOL    HW1 2839   3.175   0.925   6.472  0.2305 -0.5773 -0.8391
  466SOL    HW2 2840   3.301   0.914   6.555  1.2628 -1.6245 -2.4942
  467SOL     OW 2841   7.613   6.106   0.551 -0.2639 -0.3159 -0.1619
  467SOL    HW1 2842   7.562   6.032   0.519  1.2823 -1.6465  0.3241
  467SOL    HW2 2843   7.704   6.076   0.547  0.3308  1.1989  0.9772
  468SOL     OW 2844   7.094   3.943  11.072  0.0275  0.1416  0.0712
  468SOL    HW1 2845   7.150   3.936  11.149  0.3018 -1.9239 -0.2386
  468SOL    HW2 2846   7.146   3.991  11.008  0.7545 -0.2179  0.3800
  469SOL     OW 2847   6.076   5.255   8.151  0.3042  0.3303  0.1120
  469SOL    HW1 2848   6.011   5.206   8.101  1.8398 -1.3404 -0.3810
  469SOL    HW2 2849   6.046   5.346   8.147 -0.5578  0.0240 -2.3958
  470SOL     OW 2850   0.063   0.672   6.887  0.2366  0.1639  0.1348
  470SOL    HW1 2851   0.151   0.704   6.866  0.2977  0.0355  0.1883
  470SOL    HW2 2852   0.029   0.638   6.804 -0.0534  0.8889 -0.0443
  471SOL     OW 2853   0.346   7.006   9.117 -0.1147  0.0695 -0.2844
  471SOL    HW1 2854   0.409   6.951   9.070 -0.0935  1.0658 -1.4471
  471SOL    HW2 2855   0.397   7.082   9.145 -0.4689  0.1775  0.0738
  472SOL     OW 2856   4.629   7.618  11.301 -0.2918  0.1520  0.2578
  472SOL    HW1 2857   4.658   7.588  11.215 -0.4064 -2.0562  0.9063
  472SOL    HW2 2858   4.642   7.712  11.300  1.4875 -0.0474 -1.5055
  473SOL     OW 2859   5.019   2.551  10.746 -0.3002  0.4442  0.1435
  473SOL    HW1 2860   4.993   2.625  10.801 -0.6762  0.1222  0.4056
  473SOL    HW2 2861   5.043   2.482  10.809  1.0526  0.6812 -0.0855
  474SOL     OW 2862   5.525   5.012   3.449 -0.0446  0.1487  0.0408
  474SOL    HW1 2863   5.564   5.099   3.439 -0.1329  0.1343 -0.4704
  474SOL    HW2 2864   5.600   4.953   3.453  0.0019  0.0725 -1.4166
  475SOL     OW 2865   0.660   6.140   6.177  0.2297 -0.0378  0.0057
  475SOL    HW1 2866   0.658   6.127   6.082  0.2506  0.0496 -0.0069
  475SOL    HW2 2867   0.675   6.234   6.188  0.0639 -0.0201  0.0954
  476SOL     OW 2868   2.366   7.542   9.444  0.1514  0.1475 -0.3956
  476SOL    HW1 2869   2.375   7.564   9.351  0.6469 -1.6088 -0.7967
  476SOL    HW2 2870   2.347   7.626   9.486 -1.1800  0.8304 -2.2102
  477SOL     OW 2871   1.760   0.994   6.973  0.1430  0.1879  0.0372
  477SOL    HW1 2872   1.665   0.998   6.961  0.5280  2.8635 -4.0440
  477SOL    HW2 2873   1.786   1.084   6.993  1.9964  0.3056 -2.3486
  478SOL     OW 2874   4.261   5.358   0.216 -0.7606  0.6503  0.0617
  478SOL    HW1 2875   4.292   5.291   0.154 -0.3331  0.4030  0.5279
  478SOL    HW2 2876   4.186   5.398   0.174 -0.2400  0.7518 -0.7857
  479SOL     OW 2877   1.564   4.282   0.823 -0.1897 -0.3821  0.1455
  479SOL    HW1 2878   1.548   4.327   0.741 -1.0430 -1.4677 -0.3117
  479SOL    HW2 2879   1.622   4.209   0.800 -1.1280 -1.2071  0.3184
  480SOL     OW 2880   2.961   5.483   5.041 -0.1804 -0.2915 -0.3283
  480SOL    HW1 2881   2.968   5.461   5.134 -1.1797 -0.2860 -0.2360
  480SOL    HW2 2882   2.947   5.399   4.998 -0.2638 -0.2346 -0.4119
  481SOL     OW 2883   4.884   6.840   5.160 -0.1324  0.0342 -0.3527
  481SOL    HW1 2884   4.970   6.814   5.128 -0.2551 -1.5034  0.4630
  481SOL    HW2 2885   4.902   6.889   5.240  0.0222  0.8064 -0.8519
  482SOL     OW 2886   6.327   7.913   5.884 -0.4289  0.0816 -0.1947
  482SOL    HW1 2887   6.294   7.993   5.843 -0.2710  0.1997 -0.0856
  482SOL    HW2 2888   6.346   7.855   5.809 -1.5593 -0.2568 -0.2466
  483SOL     OW 2889   4.166   7.118   3.143 -0.7967  0.0600  0.0183
  483SOL    HW1 2890   4.210   7.153   3.066 -0.5997  0.9381  0.5184
  483SOL    HW2 2891   4.088   7.074   3.109  1.5357 -3.6832 -1.2224
  484SOL     OW 2892   4.707   2.292   8.376 -0.4109 -0.3304  0.0749
  484SOL    HW1 2893   4.643   2.229   8.342 -0.0248 -0.1475 -1.0319
  484SOL    HW2 2894   4.669   2.378   8.356  0.4063 -0.2139 -1.1013
  485SOL     OW 2895   5.590   7.164   6.951  0.1383  0.0742  0.6371
  485SOL    HW1 2896   5.569   7.180   6.859 -0.1609 -2.3317  0.2366
  485SOL    HW2 2897   5.679   7.129   6.949 -0.2223 -0.8920  1.1495
  486SOL     OW 2898   3.486   3.840   8.600 -0.1043  0.5504 -0.1919
  486SOL    HW1 2899   3.461   3.763   8.548 -0.6926 -1.3556  2.7099
  486SOL    HW2 2900   3.406   3.893   8.603 -0.3826  0.1497 -0.3408
  487SOL     OW 2901   7.262   3.984   3.860 -0.2994  0.5262 -0.3665
  487SOL    HW1 2902   7.259   4.060   3.801  0.8237  0.2680 -0.7709
  487SOL    HW2 2903   7.346   3.992   3.905  0.2960 -0.9949 -1.1438
  488SOL     OW 2904   6.172   3.541   1.761  0.8625 -0.1610 -0.2012
  488SOL    HW1 2905   6.172   3.501   1.847  0.8284  0.6634  0.1907
  488SOL    HW2 2906   6.260   3.577   1.750  0.8862 -0.3123 -0.5365
  489SOL     OW 2907   4.370   2.765   3.784 -0.1033 -0.1356 -0.3225
  489SOL    HW1 2908   4.328   2.754   3.699 -1.3519  0.2442  0.2244
  489SOL    HW2 2909   4.300   2.795   3.842  1.2334  2.0437  0.2905
  490SOL     OW 2910   4.175   1.391   4.055  0.5434 -0.2767 -0.2895
  490SOL    HW1 2911   4.155   1.298   4.065  1.2318 -0.6786 -2.3000
  490SOL    HW2 2912   4.264   1.400   4.089  0.5379 -0.3682 -0.2487
  491SOL     OW 2913   4.474   1.952   6.191  0.6239 -0.6750 -0.0179
  491SOL    HW1 2914   4.399   1.948   6.132  0.5697  1.2838 -0.1346
  491SOL    HW2 2915   4.439   1.992   6.271  1.2384 -1.1240  0.4905
  492SOL     OW 2916   7.468   5.841  11.292  0.4176  0.4279 -0.2106
  492SOL    HW1 2917   7.498   5.873  11.377 -0.2900 -0.1542  0.2714
  492SOL    HW2 2918   7.548   5.834  11.239  1.1508 -0.9962  1.0022
  493SOL     OW 2919   1.072   0.203   7.036 -0.4941 -0.3569  0.0646
  493SOL    HW1 2920   0.993   0.160   7.003 -0.0811 -0.3495 -0.9895
  493SOL    HW2 2921   1.101   0.258   6.963  1.2151 -1.3660 -0.0686
  494SOL     OW 2922   3.416   0.496   9.072  0.0570  0.2229 -0.0422
  494SOL    HW1 2923   3.479   0.560   9.105 -1.3781  1.1436  1.0086
  494SOL    HW2 2924   3.363   0.544   9.009 -0.3397 -0.2357 -0.0635
  495SOL     OW 2925   7.923   6.149   1.276 -0.4852  0.1791 -0.3576
  495SOL    HW1 2926   8.013   6.179   1.262 -0.2508 -0.4987 -0.3521
  495SOL    HW2 2927   7.897   6.111   1.192 -0.8030  0.4506 -0.3857
  496SOL     OW 2928   7.194   6.667  11.140  0.4393  0.1414  0.0177
  496SOL    HW1 2929   7.183   6.578  11.106  0.2339  0.1201  0.1361
  496SOL    HW2 2930   7.287   6.685  11.130  0.2247  0.5487 -1.5977
  497SOL     OW 2931   0.610   0.711   1.090 -0.6548 -0.4220  0.0453
  497SOL    HW1 2932   0.696   0.694   1.129 -0.1320  0.7456 -0.5253
  497SOL    HW2 2933   0.549   0.702   1.163  0.0423 -0.5528  0.6276
  498SOL     OW 2934   5.217   2.371   6.051  0.0354  0.3193  0.2049
  498SOL    HW1 2935   5.259   2.370   5.965  1.9813  1.0820  1.0807
  498SOL    HW2 2936   5.286   2.342   6.111 -1.8832 -2.2651  1.3118
  499SOL     OW 2937   2.516   3.170   8.484  0.3765  0.1683 -0.6778
  499SOL    HW1 2938   2.439   3.210   8.524 -0.6946 -0.9136 -1.5732
  499SOL    HW2 2939   2.588   3.229   8.506 -0.6969  1.2011  0.1973
  500SOL     OW 2940   0.155   7.225   2.711  0.5753  0.4061  0.5019
  500SOL    HW1 2941   0.110   7.300   2.672  0.5694  0.7284  1.1133
  500SOL    HW2 2942   0.091   7.187   2.771  0.6530  0.0362  0.3544
  501SOL     OW 2943   5.053   0.967   0.842 -0.1301  0.1572 -0.6668
  501SOL    HW1 2944   5.146   0.949   0.849 -0.2624 -0.0142  1.3154
  501SOL    HW2 2945   5.047   1.063   0.844  0.0167  0.1715 -0.9487
  502SOL     OW 2946   6.935   2.358   0.365 -0.0175  0.1522 -0.1359
  502SOL    HW1 2947   6.996   2.375   0.294 -1.5803  1.3461 -1.2796
  502SOL    HW2 2948   6.948   2.266   0.388  1.9575  0.2997 -0.5251
  503SOL     OW 2949   1.423   5.720   2.340  0.4699 -0.5961  0.0629
  503SOL    HW1 2950   1.366   5.742   2.414  2.2937  1.8084  0.8653
  503SOL    HW2 2951   1.362   5.694   2.271 -1.5247  0.5026  1.3044
  504SOL     OW 2952   7.019   6.528   8.884  0.6805  0.7392 -0.1443
  504SOL    HW1 2953   7.057   6.528   8.972 -0.9728  0.8738  0.5983
  504SOL    HW2 2954   6.997   6.436   8.868  0.3372  0.8189 -0.1300
  505SOL     OW 2955   4.517   4.890  10.842 -0.5337  0.3187  0.7189
  505SOL    HW1 2956   4.488   4.800  10.825 -2.2313  0.6666  1.5560
  505SOL    HW2 2957   4.465   4.944  10.782 -2.8941  1.0893  3.2345
  506SOL     OW 2958   7.875   5.466   1.250  0.6262  0.1349  0.7833
  506SOL    HW1 2959   7.916   5.500   1.170 -0.2098 -2.3978 -0.8618
  506SOL    HW2 2960   7.904   5.375   1.255 -2.3650 -0.9249  1.1442
  507SOL     OW 2961   4.172   1.457  11.051  0.3475  0.0827 -0.7216
  507SOL    HW1 2962   4.199   1.549  11.056  0.8576 -0.1468  1.3959
  507SOL    HW2 2963   4.251   1.411  11.024  0.9323 -0.0442  1.0783
  508SOL     OW 2964   4.612   3.835   5.886 -0.3815  0.0556 -0.0578
  508SOL    HW1 2965   4.570   3.752   5.907  0.2418 -0.1570  0.3653
  508SOL    HW2 2966   4.563   3.900   5.936  0.4797 -0.3299  1.3120
  509SOL     OW 2967   1.466   4.069   1.578  0.3175 -0.2031 -0.1171
  509SOL    HW1 2968   1.411   3.992   1.589 -1.2966  0.5734 -2.1631
  509SOL    HW2 2969   1.419   4.139   1.623  0.9296 -0.0456  0.2907
  510SOL     OW 2970   4.599   6.794   1.517  0.4128 -0.3266 -0.5671
  510SOL    HW1 2971   4.612   6.755   1.603 -0.2500  1.8058  0.5627
  510SOL    HW2 2972   4.608   6.721   1.456 -0.4006 -2.1461  1.3809
  511SOL     OW 2973   3.654   4.541   7.321 -0.3192  0.0146  0.0089
  511SOL    HW1 2974   3.638   4.462   7.373  0.3783  1.0909  1.9574
  511SOL    HW2 2975   3.566   4.577   7.304 -0.5562 -0.1759  0.7756
  512SOL     OW 2976   1.126   5.619   1.800  0.3696 -0.0476 -0.1523
  512SOL    HW1 2977   1.051   5.671   1.832  0.9178 -0.0812  1.2871
  512SOL    HW2 2978   1.187   5.685   1.765  0.0289  0.0557 -0.5573
  513SOL     OW 2979   3.978   6.726   2.524 -1.1647  0.3893 -0.0604
  513SOL    HW1 2980   4.054   6.672   2.504 -1.7269 -0.2798 -0.4752
  513SOL    HW2 2981   3.987   6.803   2.467 -0.7752  0.3444 -0.0612
  514SOL     OW 2982   0.088   7.045   4.035 -0.3703 -0.3520 -0.0011
  514SOL    HW1 2983   0.054   7.058   4.124 -0.1291 -0.4023  0.1005
  514SOL    HW2 2984   0.152   7.115   4.024 -0.0374 -0.6427  0.0516
  515SOL     OW 2985   5.959   1.185   1.993 -0.3560  0.3170 -0.0384
  515SOL    HW1 2986   5.935   1.104   1.948 -1.3536  1.2737 -1.3028
  515SOL    HW2 2987   6.044   1.209   1.956 -0.6395  0.4910 -0.5894
  516SOL     OW 2988   5.949   6.430   2.964  0.8302  0.3135  0.1888
  516SOL    HW1 2989   5.965   6.398   2.875  0.3008  0.0850  0.1728
  516SOL    HW2 2990   6.037   6.445   3.000  1.0531  1.7180 -0.8423
  517SOL     OW 2991   1.446   5.690  12.206 -0.4658  0.3881  0.3017
  517SOL    HW1 2992   1.473   5.608  12.246  0.2090  0.7673  0.6394
  517SOL    HW2 2993   1.502   5.698  12.129 -1.6572 -0.2685 -0.6738
  518SOL     OW 2994   7.116   6.657   1.986 -0.4593  0.4643  0.3308
  518SOL    HW1 2995   7.132   6.697   2.071  0.4110  0.0873  0.3579
  518SOL    HW2 2996   7.074   6.574   2.006  0.6103 -0.0609  0.4605
  519SOL     OW 2997   4.674   7.762   5.791  0.5397 -0.2194  0.0323
  519SOL    HW1 2998   4.595   7.712   5.811  0.6722 -0.4648 -0.0553
  519SOL    HW2 2999   4.720   7.709   5.727  0.8390 -0.1379  0.1784
  520SOL     OW 3000   4.742   1.355  11.922 -0.1654 -0.1927  0.2473
  520SOL    HW1 3001   4.756   1.428  11.982 -1.0369 -0.0469  0.2875
  520SOL    HW2 3002   4.702   1.394  11.845 -2.7660 -0.8720  1.1373
  521SOL     OW 3003   6.043   5.660   9.351 -0.4695  0.2308 -0.0865
  521SOL    HW1 3004   6.085   5.600   9.290  0.1244  0.0476  0.4840
  521SOL    HW2 3005   6.012   5.605   9.423 -1.6742  0.3722 -0.4738
  522SOL     OW 3006   1.708   2.810  10.787 -0.2793  0.0711 -0.2156
  522SOL    HW1 3007   1.762   2.887  10.806 -2.5182  1.7653 -0.4281
  522SOL    HW2 3008   1.630   2.821  10.841 -1.4252 -1.1608 -1.5306
  523SOL     OW 3009   7.288   0.933   5.028 -0.4328 -0.6168  0.3563
  523SOL    HW1 3010   7.305   0.906   5.119  1.4953 -0.2396  0.1549
  523SOL    HW2 3011   7.310   0.857   4.975 -2.1494 -1.0472  0.1893
  524SOL     OW 3012   3.686   2.917   0.475  0.3300 -0.2858  0.2835
  524SOL    HW1 3013   3.681   2.871   0.559  1.4951  0.1449  0.5964
  524SOL    HW2 3014   3.612   2.881   0.425 -1.3226  0.5048  1.9999
  525SOL     OW 3015   3.159   0.577   0.941  0.2935  0.3784 -0.2229
  525SOL    HW1 3016   3.067   0.566   0.918  0.1183 -0.4510  0.7931
  525SOL    HW2 3017   3.174   0.514   1.012  1.5628  0.7162 -0.1625
  526SOL     OW 3018   0.131   6.673   2.572 -0.9297 -0.3357  0.1799
  526SOL    HW1 3019   0.143   6.672   2.667  1.9333  2.3719  0.0129
  526SOL    HW2 3020   0.047   6.718   2.559 -0.6407  0.6040  1.4301
  527SOL     OW 3021   7.216   7.660   6.228 -0.0637 -0.2768 -0.3782
  527SOL    HW1 3022   7.287   7.671   6.291  1.1807  0.2999 -1.8252
  527SOL    HW2 3023   7.218   7.740   6.175 -0.9159 -0.8442 -1.3027
  528SOL     OW 3024   1.966   7.326   9.850 -0.7117 -0.0081  0.4982
  528SOL    HW1 3025   1.925   7.272   9.917 -0.1228  0.5426  1.3286
  528SOL    HW2 3026   2.017   7.264   9.797 -1.5443 -0.5071  0.2629
  529SOL     OW 3027   3.362   6.457   6.416 -0.2166  0.0947 -0.1267
  529SOL    HW1 3028   3.450   6.494   6.424 -0.0832 -0.2620  0.0607
  529SOL    HW2 3029   3.338   6.430   6.504 -0.2308 -0.4495 -0.2924
  530SOL     OW 3030   7.222   7.628   0.434  0.1797 -0.1269 -0.5662
  530SOL    HW1 3031   7.230   7.722   0.418  0.1542 -0.0002  0.1071
  530SOL    HW2 3032   7.128   7.609   0.427 -0.0290  0.2259  0.9103
  531SOL     OW 3033   1.792   7.697  11.877 -0.0196  0.7395 -0.7196
  531SOL    HW1 3034   1.699   7.681  11.893  0.5075 -1.3991  0.5869
  531SOL    HW2 3035   1.819   7.754  11.949  0.2682 -1.0932  0.7018
  532SOL     OW 3036   1.449   7.444   7.169  0.8036 -0.1283 -0.5786
  532SOL    HW1 3037   1.537   7.481   7.162  0.7688  0.1698  0.5303
  532SOL    HW2 3038   1.391   7.513   7.137  0.8937  0.0544 -0.3486
  533SOL     OW 3039   3.797   5.157   0.586 -0.2389 -0.1460  0.1944
  533SOL    HW1 3040   3.827   5.229   0.641  1.6473 -1.3946  0.9152
  533SOL    HW2 3041   3.873   5.138   0.530 -0.5845 -1.7378  0.2383
  534SOL     OW 3042   2.017   5.838   3.467 -0.3488  0.0483 -0.1179
  534SOL    HW1 3043   2.061   5.860   3.385  2.7790  1.4015  1.7323
  534SOL    HW2 3044   2.087   5.806   3.524 -2.5243 -1.6137  1.8316
  535SOL     OW 3045   1.815   5.812   1.254 -0.1801  0.1866 -0.0812
  535SOL    HW1 3046   1.829   5.904   1.234 -0.2445  0.5629  1.4815
  535SOL    HW2 3047   1.740   5.811   1.315 -0.5995 -0.9535 -0.5792
  536SOL     OW 3048   0.926   3.599   2.963 -0.5283 -0.3176  0.7237
  536SOL    HW1 3049   0.993   3.535   2.940  0.1018  0.4262  0.4109
  536SOL    HW2 3050   0.849   3.573   2.913 -0.5745 -1.3433  1.2990
  537SOL     OW 3051   0.264   1.000   3.570 -0.4841  0.1078  0.4116
  537SOL    HW1 3052   0.256   0.915   3.613  1.6091 -0.2539  0.2019
  537SOL    HW2 3053   0.323   1.050   3.626 -2.1512  1.6690  0.8330
  538SOL     OW 3054   2.181   3.598   9.585 -0.3012  0.7667  0.3500
  538SOL    HW1 3055   2.261   3.572   9.629 -0.8032  0.1745  0.9455
  538SOL    HW2 3056   2.202   3.593   9.491  0.4144  0.8370  0.5072
  539SOL     OW 3057   5.823   3.685   3.978  0.0930  0.0531 -0.8182
  539SOL    HW1 3058   5.746   3.659   3.927  0.8137  0.2645 -2.0609
  539SOL    HW2 3059   5.797   3.766   4.021 -0.3185  0.2549 -1.4239
  540SOL     OW 3060   2.422   3.384   1.275 -0.3943 -0.0323  0.2196
  540SOL    HW1 3061   2.390   3.374   1.185  0.4679  0.3978 -0.1469
  540SOL    HW2 3062   2.512   3.352   1.272  0.7781  2.9578  0.1581
  541SOL     OW 3063   1.383   6.804   8.810  0.4390  0.0003  0.5624
  541SOL    HW1 3064   1.357   6.714   8.795  1.4364 -0.1823 -0.1722
  541SOL    HW2 3065   1.452   6.798   8.876  1.1267  0.1392 -0.1398
  542SOL     OW 3066   1.526   2.590  11.970  0.3045 -0.1924  0.4236
  542SOL    HW1 3067   1.474   2.514  11.944  0.1614  0.3607 -0.9745
  542SOL    HW2 3068   1.465   2.644  12.022 -0.6653  0.6083 -1.4679
  543SOL     OW 3069   6.912   6.974   4.188 -0.1172 -0.2791  0.2238
  543SOL    HW1 3070   6.927   6.974   4.094 -2.4441  1.5231 -0.2203
  543SOL    HW2 3071   6.840   6.911   4.201 -0.4580  0.1921  0.6605
  544SOL     OW 3072   2.736   6.240  11.478  0.0391  0.1321 -0.0719
  544SOL    HW1 3073   2.827   6.225  11.503 -0.0996 -0.9105 -0.1732
  544SOL    HW2 3074   2.703   6.301  11.544  1.2897  1.9390 -1.0246
  545SOL     OW 3075   4.395   7.267   2.626 -0.2455  0.1943 -0.7956
  545SOL    HW1 3076   4.334   7.257   2.552  1.3412 -1.1444 -2.0028
  545SOL    HW2 3077   4.481   7.257   2.587  0.7572  1.2581  0.9991
  546SOL     OW 3078   2.901   1.569   2.924  0.4219 -0.3527 -0.8579
  546SOL    HW1 3079   2.943   1.487   2.897 -1.2651 -1.1288 -1.2171
  546SOL    HW2 3080   2.852   1.546   3.003 -0.1686  0.2863 -1.0355
  547SOL     OW 3081   6.917   4.155   9.885 -0.4635 -0.5702  0.1404
  547SOL    HW1 3082   7.009   4.179   9.897 -0.4889  0.1146 -0.8813
  547SOL    HW2 3083   6.878   4.165   9.972  0.1497  0.4405  0.3195
  548SOL     OW 3084   0.363   6.396   7.823 -0.0746 -0.4066 -0.6973
  548SOL    HW1 3085   0.390   6.461   7.889 -1.4702 -0.0636 -0.4305
  548SOL    HW2 3086   0.444   6.355   7.795  0.6900  0.4396  0.2114
  549SOL     OW 3087   1.738   4.105   4.018  0.4216  0.6411  1.1057
  549SOL    HW1 3088   1.791   4.048   4.074  0.2782  0.8179  1.4259
  549SOL    HW2 3089   1.680   4.151   4.078 -0.1575  0.3904  0.7431
  550SOL     OW 3090   0.966   4.021  12.143 -0.0308  0.1280  0.6810
  550SOL    HW1 3091   1.024   3.946  12.136 -0.9381 -0.5183 -0.1989
  550SOL    HW2 3092   0.955   4.051  12.053 -0.8447  0.4001  0.8642
  551SOL     OW 3093   2.216   6.968  10.350 -0.0922  0.4142 -0.1102
  551SOL    HW1 3094   2.278   6.950  10.420 -0.6258  0.3439  0.3514
  551SOL    HW2 3095   2.133   6.985  10.395 -0.8813 -1.4167 -0.7863
  552SOL     OW 3096   0.260   1.944   9.011  0.1835  0.0470  0.2104
  552SOL    HW1 3097   0.323   1.885   8.969  0.0240  0.5751 -0.7959
  552SOL    HW2 3098   0.292   1.952   9.101  0.6209 -0.9900  0.1722
  553SOL     OW 3099   7.966   0.137   4.344  0.4878  0.3472 -0.5801
  553SOL    HW1 3100   7.985   0.231   4.347  0.8893  0.2699 -0.5189
  553SOL    HW2 3101   7.875   0.129   4.370  0.3934  0.7405 -0.7937
  554SOL     OW 3102   2.979   7.233  12.084  0.1036 -0.3001  0.0220
  554SOL    HW1 3103   3.023   7.164  12.036 -0.1630  0.4767 -1.3870
  554SOL    HW2 3104   3.045   7.301  12.095 -0.3619  0.3404 -0.9998
  555SOL     OW 3105   1.283   5.790  11.843  0.2949 -0.1634  0.5310
  555SOL    HW1 3106   1.249   5.811  11.930  1.1560 -0.4928  0.9567
  555SOL    HW2 3107   1.216   5.733  11.805 -0.3507  0.4346  0.7541
  556SOL     OW 3108   2.686   5.436   5.838 -0.1059 -0.4328 -0.4611
  556SOL    HW1 3109   2.691   5.479   5.923 -1.9931 -1.8419  0.4269
  556SOL    HW2 3110   2.673   5.508   5.776  0.2143  0.5262  0.5565
  557SOL     OW 3111   4.087   5.400  12.476 -0.2116  0.0253  0.3753
  557SOL    HW1 3112   4.152   5.416  12.408  0.0721 -0.3911  0.5450
  557SOL    HW2 3113   4.012   5.364  12.429  0.0653 -0.4684  0.3092
  558SOL     OW 3114   3.253   7.118   3.617 -0.3875 -0.3115  0.0041
  558SOL    HW1 3115   3.337   7.079   3.596 -1.0534 -1.8800  0.1302
  558SOL    HW2 3116   3.271   7.212   3.622  1.2114 -0.5538 -0.5746
  559SOL     OW 3117   7.125   3.679   6.928  0.4659  0.2594 -0.3988
  559SOL    HW1 3118   7.125   3.743   6.857 -0.5351  0.8487  0.1035
  559SOL    HW2 3119   7.034   3.653   6.937  1.1798 -4.4298 -3.3063
  560SOL     OW 3120   1.015   0.751   3.695  0.0884  0.4617  0.3833
  560SOL    HW1 3121   1.027   0.708   3.610  1.1320 -1.1871  1.3254
  560SOL    HW2 3122   0.967   0.831   3.674  0.7218  0.3272 -1.8184
  561SOL     OW 3123   7.067   1.812   2.634 -0.3767  0.2090  0.2095
  561SOL    HW1 3124   7.084   1.734   2.688 -1.2104 -0.6643 -0.7516
  561SOL    HW2 3125   6.989   1.790   2.583  0.7953  0.7125 -1.9103
  562SOL     OW 3126   4.057   5.566   4.402 -0.5929  0.2142  0.1101
  562SOL    HW1 3127   4.031   5.475   4.388 -1.4784  0.2267  1.5655
  562SOL    HW2 3128   4.044   5.581   4.495 -0.2345  1.7785 -0.0671
  563SOL     OW 3129   5.359   4.138  10.105  0.1941  0.1423 -0.0808
  563SOL    HW1 3130   5.408   4.082  10.165 -2.1399 -1.4939  0.4538
  563SOL    HW2 3131   5.397   4.121  10.019  0.6611 -0.9734  0.3260
  564SOL     OW 3132   3.499   6.449   5.182  0.5326  0.4754 -0.8444
  564SOL    HW1 3133   3.566   6.439   5.249  0.6667  3.7876 -0.3348
  564SOL    HW2 3134   3.545   6.488   5.108  0.1207 -1.9450 -2.5245
  565SOL     OW 3135   6.303   3.291   7.778 -0.1903  0.0385  0.2266
  565SOL    HW1 3136   6.272   3.261   7.693 -0.3051  1.0087 -0.0821
  565SOL    HW2 3137   6.242   3.360   7.803  0.3096  0.3055  0.7316
  566SOL     OW 3138   1.824   1.881   5.870  0.0257  0.3360  0.6565
  566SOL    HW1 3139   1.808   1.957   5.815  0.8496  0.5887  0.7546
  566SOL    HW2 3140   1.917   1.887   5.893  0.0860 -0.6640  0.7102
  567SOL     OW 3141   7.930   7.386  10.652 -0.6741  0.1102  0.1175
  567SOL    HW1 3142   7.891   7.394  10.739  0.6530 -1.6005  0.9307
  567SOL    HW2 3143   8.021   7.361  10.669 -0.3906 -0.2552 -1.7548
  568SOL     OW 3144   0.484   0.653  12.115 -0.3888 -0.2325 -0.0166
  568SOL    HW1 3145   0.538   0.581  12.083 -0.5319  0.2815 -1.5311
  568SOL    HW2 3146   0.472   0.710  12.038  0.4267  1.8645  1.3254
  569SOL     OW 3147   5.556   3.089   7.572  0.1162 -0.3245 -0.0959
  569SOL    HW1 3148   5.568   3.027   7.643  1.0985 -0.9568 -0.7916
  569SOL    HW2 3149   5.464   3.079   7.547 -0.5038  0.6132  1.6978
  570SOL     OW 3150   4.773   3.114   3.858 -0.5413 -0.1715 -0.4450
  570SOL    HW1 3151   4.822   3.131   3.938 -1.5681  0.0280  0.1567
  570SOL    HW2 3152   4.682   3.103   3.887 -0.7180 -1.6032 -1.3999
  571SOL     OW 3153   7.272   4.678  10.007 -0.7677 -0.0198 -0.5028
  571SOL    HW1 3154   7.303   4.760  10.045 -0.7204 -1.0187  1.8096
  571SOL    HW2 3155   7.225   4.704   9.928  2.1875  1.9299 -1.8272
  572SOL     OW 3156   4.906   0.623   7.109 -0.8601 -0.1979  0.5366
  572SOL    HW1 3157   4.816   0.635   7.079 -0.1789 -0.4107 -1.8109
  572SOL    HW2 3158   4.954   0.697   7.071  0.0011 -0.2296  1.5291
  573SOL     OW 3159   1.407   1.701   6.166  0.0534  0.3589 -0.8138
  573SOL    HW1 3160   1.373   1.789   6.155  0.0453  0.3846 -0.5831
  573SOL    HW2 3161   1.459   1.685   6.086 -2.0043 -0.3909 -2.0742
  574SOL     OW 3162   5.103   5.560   1.725 -0.4791 -0.1619 -0.8538
  574SOL    HW1 3163   5.123   5.514   1.806 -0.6989  1.3466  0.1072
  574SOL    HW2 3164   5.149   5.644   1.733 -1.0049  0.2596 -2.0190
  575SOL     OW 3165   2.075   3.612   2.428 -0.3142  0.1421 -0.6705
  575SOL    HW1 3166   2.044   3.538   2.376 -1.6143 -1.3174  1.9702
  575SOL    HW2 3167   2.132   3.572   2.495  0.2661  1.7552 -0.1573
  576SOL     OW 3168   0.632   0.193   3.069  0.5696 -0.0625  0.0525
  576SOL    HW1 3169   0.665   0.277   3.038 -2.1500  1.0496 -0.0475
  576SOL    HW2 3170   0.561   0.215   3.129  0.1186 -2.3002  0.4461
  577SOL     OW 3171   7.959   4.870   8.475  0.3329 -0.3493 -0.0229
  577SOL    HW1 3172   8.033   4.859   8.415  0.5005  1.0767 -0.1183
  577SOL    HW2 3173   7.919   4.953   8.448 -1.8167 -1.4921 -0.5067
  578SOL     OW 3174   6.060   6.132   7.131 -0.0270  0.9481 -0.9417
  578SOL    HW1 3175   6.111   6.198   7.083  1.1469  2.1824  1.7562
  578SOL    HW2 3176   6.120   6.058   7.140 -0.1163  0.8634 -1.0354
  579SOL     OW 3177   5.780   4.292   3.900 -0.2789 -0.3902  0.8549
  579SOL    HW1 3178   5.872   4.317   3.909 -0.0957 -0.7496  0.1028
  579SOL    HW2 3179   5.758   4.248   3.982 -0.8925  2.9846  2.6984
  580SOL     OW 3180   3.927   7.409   3.970 -0.0242 -0.1344  0.3797
  580SOL    HW1 3181   3.959   7.387   4.058  1.6502 -1.3078 -0.4693
  580SOL    HW2 3182   3.833   7.391   3.974  0.0630 -0.4377  1.8326
  581SOL     OW 3183   0.105   6.869  11.281  0.0582 -0.7728 -0.7153
  581SOL    HW1 3184   0.047   6.820  11.340  0.9357  0.3536  1.1637
  581SOL    HW2 3185   0.148   6.801  11.229 -0.9066 -1.8024 -0.2190
  582SOL     OW 3186   3.643   7.405  10.655 -0.2256  0.0417 -0.6924
  582SOL    HW1 3187   3.716   7.353  10.621 -0.6538  0.8279 -3.0169
  582SOL    HW2 3188   3.614   7.358  10.733  1.4198 -1.4231 -0.9036
  583SOL     OW 3189   5.462   3.138   5.630  0.0862  0.6777  0.5108
  583SOL    HW1 3190   5.554   3.159   5.615  0.2876 -0.6020 -0.1374
  583SOL    HW2 3191   5.436   3.196   5.702  1.0713  1.8511 -0.0432
  584SOL     OW 3192   2.675   1.313  11.619 -0.0961 -0.3653  0.2702
  584SOL    HW1 3193   2.653   1.312  11.526  1.8139 -0.9743 -0.2265
  584SOL    HW2 3194   2.669   1.405  11.644 -0.3189 -0.1485 -0.5357
  585SOL     OW 3195   7.051   0.807   0.772  0.1597 -0.2299  0.3110
  585SOL    HW1 3196   6.960   0.815   0.802  0.0331 -0.7284  0.0744
  585SOL    HW2 3197   7.094   0.887   0.803 -0.9294  1.1639 -1.6211
  586SOL     OW 3198   6.299   5.445  11.393 -0.2759  0.2704 -0.2663
  586SOL    HW1 3199   6.364   5.378  11.416 -0.4346  0.6928  1.6326
  586SOL    HW2 3200   6.235   5.399  11.340  0.8646 -0.4795 -1.0504
  587SOL     OW 3201   4.589   5.953   1.494  0.5260  0.3188 -0.2289
  587SOL    HW1 3202   4.498   5.928   1.478  0.0605  0.9520  1.2286
  587SOL    HW2 3203   4.628   5.960   1.407  0.2185 -3.4552 -0.8533
  588SOL     OW 3204   3.489   3.780   6.531  0.0054 -0.1674  0.0256
  588SOL    HW1 3205   3.473   3.851   6.593  3.1917 -0.0600  0.9110
  588SOL    HW2 3206   3.434   3.708   6.563 -3.3250  1.7312 -0.9244
  589SOL     OW 3207   2.438   5.257   6.654  0.0055  0.4126  0.7904
  589SOL    HW1 3208   2.526   5.225   6.635  0.1920  1.9011 -1.1397
  589SOL    HW2 3209   2.380   5.205   6.597 -0.0517  1.1672  0.1393
  590SOL     OW 3210   5.994   2.303  11.340 -0.5296 -0.3312 -0.3988
  590SOL    HW1 3211   6.063   2.248  11.302  0.9888  0.8450  0.4908
  590SOL    HW2 3212   5.918   2.290  11.284  0.8332 -0.6363 -2.2645
  591SOL     OW 3213   3.041   1.252   2.365 -1.0996  0.3390  0.8279
  591SOL    HW1 3214   3.065   1.233   2.275  0.4915 -0.3434  1.3552
  591SOL    HW2 3215   2.983   1.179   2.390  0.8875 -1.2013  1.2423
  592SOL     OW 3216   5.539   7.019   3.956  0.1726  0.1101  0.4890
  592SOL    HW1 3217   5.607   7.081   3.984  0.1888  0.8210 -1.0168
  592SOL    HW2 3218   5.477   7.072   3.906 -1.2499 -0.6259  1.4143
  593SOL     OW 3219   6.128   1.166   8.072  0.0825  0.7762 -0.0037
  593SOL    HW1 3220   6.077   1.214   8.006 -2.0565  0.3736  1.2453
  593SOL    HW2 3221   6.104   1.208   8.155  1.5426  0.3090  0.6781
  594SOL     OW 3222   5.618   4.471   7.656 -0.0401  0.2753  0.2402
  594SOL    HW1 3223   5.675   4.508   7.587 -0.3090  1.6197  0.7113
  594SOL    HW2 3224   5.679   4.442   7.724  0.2225 -0.9767 -0.4903
  595SOL     OW 3225   7.044   3.683   2.450 -0.0626 -0.1998 -0.1725
  595SOL    HW1 3226   7.028   3.675   2.544  0.4409  1.2131  0.0484
  595SOL    HW2 3227   6.961   3.655   2.410  0.1191 -2.0185  0.6100
  596SOL     OW 3228   3.718   6.028   2.081 -0.2268  0.9251 -0.1607
  596SOL    HW1 3229   3.681   6.061   1.999  0.2843 -1.6839 -1.5426
  596SOL    HW2 3230   3.810   6.009   2.060  0.2845  1.4794  1.4409
  597SOL     OW 3231   5.698   2.393   8.552  0.1405  0.8894  0.2162
  597SOL    HW1 3232   5.656   2.362   8.471 -0.7920 -0.8351  1.2978
  597SOL    HW2 3233   5.633   2.452   8.591  0.1915  0.9698  0.1803
  598SOL     OW 3234   6.217   2.333  11.090  0.5607  0.2212 -0.4696
  598SOL    HW1 3235   6.270   2.382  11.026  0.4352  2.1522  0.8187
  598SOL    HW2 3236   6.127   2.352  11.065  0.4977 -0.2813 -0.6262
  599SOL     OW 3237   4.517   0.223   0.567  0.2891 -0.1848  0.0516
  599SOL    HW1 3238   4.558   0.273   0.638 -1.1978  0.7296  0.3019
  599SOL    HW2 3239   4.423   0.239   0.577  0.0047 -0.5123 -1.7698
  600SOL     OW 3240   1.739   7.186   6.684  0.1042  0.0431 -0.2516
  600SOL    HW1 3241   1.798   7.121   6.721 -1.3185 -0.8373  0.5914
  600SOL    HW2 3242   1.791   7.234   6.620  1.8811 -0.2658  0.9140
  601SOL     OW 3243   5.522   5.634   3.886 -0.6661  0.4862 -0.4462
  601SOL    HW1 3244   5.435   5.632   3.845 -0.1225 -3.6160 -1.8392
  601SOL    HW2 3245   5.506   5.605   3.976 -0.7901  0.6185 -0.4231
  602SOL     OW 3246   7.374   3.905   0.083  0.2596 -0.0259  0.0211
  602SOL    HW1 3247   7.333   3.986   0.113  1.0141  0.3562  0.0449
  602SOL    HW2 3248   7.405   3.863   0.163 -0.9337 -0.8051  0.1024
  603SOL     OW 3249   1.829   2.802   1.070 -0.3992  0.0943 -0.3602
  603SOL    HW1 3250   1.889   2.773   1.001  2.0459  1.1144  1.2017
  603SOL    HW2 3251   1.761   2.735   1.073 -1.0047  0.3311 -4.1493
  604SOL     OW 3252   2.903   7.274   0.262 -0.4895  0.0263 -0.1668
  604SOL    HW1 3253   2.941   7.339   0.202  1.1859  0.3576  1.1637
  604SOL    HW2 3254   2.961   7.199   0.255  0.3410  0.4258  1.6997
  605SOL     OW 3255   5.814   4.034   9.837  0.5462 -0.5080  0.6127
  605SOL    HW1 3256   5.876   3.988   9.780  0.3627  0.4923 -0.4430
  605SOL    HW2 3257   5.761   3.965   9.875  0.7204 -1.2208 -0.3955
  606SOL     OW 3258   2.217   3.737  10.528  0.4390 -0.0674  0.0730
  606SOL    HW1 3259   2.245   3.824  10.498  1.7737 -0.1273  1.0465
  606SOL    HW2 3260   2.249   3.731  10.618 -0.9974 -0.9835  0.5634
  607SOL     OW 3261   6.095   4.810   6.714  0.5366 -0.2063  0.0589
  607SOL    HW1 3262   6.033   4.746   6.679  0.5325 -0.3466  0.3182
  607SOL    HW2 3263   6.134   4.850   6.637  1.1935 -1.1515 -0.1166
  608SOL     OW 3264   2.859   7.730   8.728  0.0076 -0.5165  0.5246
  608SOL    HW1 3265   2.803   7.739   8.651  0.5930  1.3194  0.2790
  608SOL    HW2 3266   2.928   7.670   8.700  1.0244  1.2086 -0.9278
  609SOL     OW 3267   6.991   2.273   9.363  0.1160 -0.3501  0.1730
  609SOL    HW1 3268   6.988   2.244   9.272 -2.9164  0.2343 -0.0104
  609SOL    HW2 3269   7.004   2.367   9.358 -1.8254 -0.0441  0.1988
  610SOL     OW 3270   6.956   0.120  12.285 -0.1815  0.6749  0.5657
  610SOL    HW1 3271   7.031   0.085  12.335  0.1963  0.4692 -0.1331
  610SOL    HW2 3272   6.956   0.214  12.306 -0.0731  0.5817  1.0095
  611SOL     OW 3273   4.287   6.275   9.994  0.2406  0.3022 -0.1611
  611SOL    HW1 3274   4.298   6.180  10.001  1.0084  0.3982 -0.0435
  611SOL    HW2 3275   4.232   6.287   9.916 -0.7264 -0.2878  0.4202
  612SOL     OW 3276   1.184   7.523   5.069  0.2434  0.1435  0.2617
  612SOL    HW1 3277   1.095   7.491   5.080  0.3326  0.2882  1.5863
  612SOL    HW2 3278   1.220   7.472   4.997 -1.1231  0.5704 -0.7625
  613SOL     OW 3279   2.458   0.928   3.828 -0.2385 -0.1528  0.6897
  613SOL    HW1 3280   2.432   0.983   3.901 -0.5486  0.6666 -0.0129
  613SOL    HW2 3281   2.420   0.842   3.846 -0.2809  0.0325  1.4904
  614SOL     OW 3282   1.667   2.929  10.480  0.4893  0.5853  0.4675
  614SOL    HW1 3283   1.650   3.022  10.496 -1.0996  0.6726 -1.3991
  614SOL    HW2 3284   1.695   2.925  10.389  1.4866 -0.7023  0.7945
  615SOL     OW 3285   2.295   1.634   9.914  0.2830  0.4695  0.1771
  615SOL    HW1 3286   2.287   1.600   9.825  1.1988  0.3058  0.1538
  615SOL    HW2 3287   2.220   1.596   9.960 -0.4342  0.8796 -0.6141
  616SOL     OW 3288   0.049   0.804  11.659  0.0869  0.0300 -0.1562
  616SOL    HW1 3289  -0.023   0.860  11.689  1.2057  3.1025 -2.5924
  616SOL    HW2 3290   0.118   0.817  11.724  0.6116  2.3019 -1.0747
  617SOL     OW 3291   1.570   4.931   6.645  0.3961 -0.0575 -0.1105
  617SOL    HW1 3292   1.542   5.005   6.591  0.0478  0.4413  0.7355
  617SOL    HW2 3293   1.528   4.946   6.730  1.4598 -0.4818  0.5035
  618SOL     OW 3294   1.528   4.150   8.506 -0.5562  0.2647 -0.0936
  618SOL    HW1 3295   1.443   4.155   8.550  0.1348 -0.2412  1.3600
  618SOL    HW2 3296   1.588   4.198   8.563  0.2162  0.3468 -0.9368
  619SOL     OW 3297   3.739   5.343  10.582  0.0428 -0.4355  0.1533
  619SOL    HW1 3298   3.696   5.279  10.525 -0.5608 -1.1738  1.3815
  619SOL    HW2 3299   3.720   5.427  10.542 -1.8785 -0.8004  0.1763
  620SOL     OW 3300   1.079   1.966   8.408  0.2075  0.1796 -0.0928
  620SOL    HW1 3301   1.088   2.061   8.407 -0.6041  0.2678 -0.0497
  620SOL    HW2 3302   1.158   1.933   8.366  0.8044  0.8452  0.4839
  621SOL     OW 3303   6.772   5.356   2.219  0.0869 -0.4523  0.4123
  621SOL    HW1 3304   6.695   5.324   2.265 -0.2365  0.7423  0.7386
  621SOL    HW2 3305   6.811   5.420   2.279  1.5408 -1.3028  0.4068
  622SOL     OW 3306   5.992   3.206   6.915  0.2125 -0.0180 -0.2827
  622SOL    HW1 3307   6.084   3.197   6.938  0.3609  0.3438 -0.6984
  622SOL    HW2 3308   5.967   3.291   6.950  0.6046  0.8121 -1.8931
  623SOL     OW 3309   7.872   7.152   1.980 -0.3979  0.6528 -0.1287
  623SOL    HW1 3310   7.941   7.174   1.917 -0.9181  1.2689 -0.5013
  623SOL    HW2 3311   7.910   7.083   2.034 -0.1270 -0.3178 -1.4775
  624SOL     OW 3312   2.746   4.116   1.221 -0.0017 -0.2081  0.1782
  624SOL    HW1 3313   2.735   4.102   1.315 -0.6971 -2.0711 -0.1291
  624SOL    HW2 3314   2.656   4.117   1.186  0.2670 -0.0506 -0.5291
  625SOL     OW 3315   6.637   0.202   9.034 -0.0276 -0.6974 -0.0360
  625SOL    HW1 3316   6.549   0.229   9.060 -0.6028 -2.0786 -0.4386
  625SOL    HW2 3317   6.674   0.278   8.988 -1.7039 -0.6768 -1.4598
  626SOL     OW 3318   1.884   2.539   7.874  0.0229 -0.5238 -0.0292
  626SOL    HW1 3319   1.914   2.567   7.960  0.8126  1.9845 -1.0281
  626SOL    HW2 3320   1.789   2.548   7.876  0.0297 -0.5841  0.5998
  627SOL     OW 3321   5.145   1.610   9.980  0.5303  0.0074 -0.9804
  627SOL    HW1 3322   5.183   1.672   9.918 -1.1180  0.8577 -1.2043
  627SOL    HW2 3323   5.071   1.572   9.933 -1.0657  1.0439  0.5775
  628SOL     OW 3324   2.467   3.490  11.999  0.1630  0.1565 -0.6851
  628SOL    HW1 3325   2.506   3.403  11.988 -0.1438 -0.3286  1.6205
  628SOL    HW2 3326   2.541   3.548  12.017  0.2855  0.2363 -1.4144
  629SOL     OW 3327   6.816   7.282  11.606 -0.1279 -0.4216 -0.3155
  629SOL    HW1 3328   6.743   7.306  11.663 -0.3651 -0.2380 -0.6921
  629SOL    HW2 3329   6.860   7.365  11.589  0.2286 -0.5476 -0.0075
  630SOL     OW 3330   6.760   1.572   5.488  0.1944  0.2571 -0.6463
  630SOL    HW1 3331   6.836   1.580   5.431 -1.0299  2.1648 -2.1624
  630SOL    HW2 3332   6.733   1.480   5.480  1.8254 -0.2354 -0.7344
  631SOL     OW 3333   5.555   1.083   7.067 -0.6410  0.0974  0.3236
  631SOL    HW1 3334   5.608   1.006   7.089  0.4403  1.0097  0.9779
  631SOL    HW2 3335   5.526   1.117   7.151 -1.1437  0.3988  0.0330
  632SOL     OW 3336   7.921   3.364   0.307 -0.6343  0.2937 -0.0235
  632SOL    HW1 3337   7.859   3.412   0.363 -0.5468  0.1006  0.2421
  632SOL    HW2 3338   8.003   3.365   0.356 -0.1526  1.3844 -0.8128
  633SOL     OW 3339   0.175   1.402  11.271  0.5071 -0.2335  0.1275
  633SOL    HW1 3340   0.270   1.395  11.262  0.4174 -0.1976 -0.8929
  633SOL    HW2 3341   0.159   1.495  11.287  0.5288  0.0515 -1.3614
  634SOL     OW 3342   0.170   4.144   9.709 -0.3701 -0.0973 -0.1667
  634SOL    HW1 3343   0.221   4.220   9.737  1.1702 -0.7379 -1.1321
  634SOL    HW2 3344   0.235   4.083   9.674 -1.6022 -1.7515  0.3130
  635SOL     OW 3345   6.414   7.031   7.577 -0.5255 -0.3929  0.3590
  635SOL    HW1 3346   6.355   7.076   7.637 -0.2625 -1.0041  1.1014
  635SOL    HW2 3347   6.394   6.938   7.590  2.0229 -0.8066  2.2460
  636SOL     OW 3348   6.443   1.093   5.400  0.0529 -0.1993 -0.2202
  636SOL    HW1 3349   6.370   1.154   5.412 -0.0618 -0.5815  1.1609
  636SOL    HW2 3350   6.421   1.046   5.319 -2.6259 -2.1332  1.4453
  637SOL     OW 3351   5.901   3.589   3.323 -0.1745 -0.7350  0.3953
  637SOL    HW1 3352   5.825   3.637   3.291  0.1235  0.1272  0.9303
  637SOL    HW2 3353   5.926   3.635   3.404  1.1238 -0.7696  0.0440
  638SOL     OW 3354   2.612   5.884  10.099 -0.1826 -0.1376 -0.0854
  638SOL    HW1 3355   2.602   5.927  10.184 -2.3108 -0.8996  0.1060
  638SOL    HW2 3356   2.571   5.944  10.036 -0.9178 -0.7343 -0.1850
  639SOL     OW 3357   1.137   4.826   9.925 -0.2290 -0.0951  0.3495
  639SOL    HW1 3358   1.169   4.916   9.920 -0.7188  0.1637  1.4594
  639SOL    HW2 3359   1.086   4.814   9.845 -0.4836  0.7579  0.3724
  640SOL     OW 3360   2.885   6.454   5.440  0.0455 -0.2772 -0.2067
  640SOL    HW1 3361   2.906   6.507   5.517 -1.2014  1.4606 -0.9762
  640SOL    HW2 3362   2.964   6.456   5.387  0.3720 -0.0717  0.2840
  641SOL     OW 3363   6.014   4.691  11.675  0.0216  0.1471  0.2217
  641SOL    HW1 3364   5.997   4.691  11.580  0.7859  1.7011  0.0567
  641SOL    HW2 3365   6.063   4.611  11.690 -0.3060 -0.2350 -0.6634
  642SOL     OW 3366   6.673   0.260   0.097 -0.1146  0.1741 -0.4417
  642SOL    HW1 3367   6.683   0.165   0.091  0.1387  0.1190  0.7061
  642SOL    HW2 3368   6.605   0.281   0.033  0.2009 -0.7125 -1.0814
  643SOL     OW 3369   5.135   6.460   6.721  0.2841  0.3568 -0.5109
  643SOL    HW1 3370   5.107   6.467   6.629  1.1888 -2.7513 -1.1603
  643SOL    HW2 3371   5.222   6.501   6.723 -0.8970  3.0295 -0.2850
  644SOL     OW 3372   6.401   7.389  11.814 -0.1497  0.3753 -0.1220
  644SOL    HW1 3373   6.379   7.467  11.764  0.3929  0.4587 -0.2339
  644SOL    HW2 3374   6.360   7.404  11.900  1.0152  1.3749  0.2859
  645SOL     OW 3375   5.021   7.163   0.670  0.2441 -0.3342  0.7484
  645SOL    HW1 3376   5.067   7.103   0.611 -0.1874  1.0592 -1.1126
  645SOL    HW2 3377   4.946   7.193   0.619  1.9420  3.9655  0.3939
  646SOL     OW 3378   7.739   2.903   3.263  0.0217  0.0740 -0.6094
  646SOL    HW1 3379   7.828   2.867   3.269 -0.0718 -0.1293 -0.4390
  646SOL    HW2 3380   7.728   2.924   3.170 -0.1210 -0.8394 -0.8086
  647SOL     OW 3381   6.097   1.918  10.092 -0.2101 -0.4316 -0.6910
  647SOL    HW1 3382   6.034   1.849  10.112  0.3348 -1.0086 -0.9248
  647SOL    HW2 3383   6.088   1.981  10.163 -1.1181 -0.4573 -0.7767
  648SOL     OW 3384   4.854   5.947  12.451 -0.6674  0.0066 -0.2432
  648SOL    HW1 3385   4.877   6.040  12.443  2.2104 -0.6181 -0.4265
  648SOL    HW2 3386   4.785   5.934  12.386 -1.8894  2.2073  0.5251
  649SOL     OW 3387   0.048   0.274   1.963  0.0228 -0.1317  0.0698
  649SOL    HW1 3388   0.081   0.363   1.975 -0.1618 -0.1602  0.9038
  649SOL    HW2 3389  -0.043   0.285   1.937  0.3681 -0.0659 -1.1357
  650SOL     OW 3390   0.442   2.510   8.875  0.1874  0.9263 -0.2260
  650SOL    HW1 3391   0.425   2.560   8.795  0.5634  2.0185  0.3477
  650SOL    HW2 3392   0.504   2.564   8.923  2.2144 -1.0187 -0.4630
  651SOL     OW 3393   2.675   7.471   5.774 -0.7429 -0.1005 -0.1523
  651SOL    HW1 3394   2.602   7.505   5.827 -0.2000  0.0474  0.5187
  651SOL    HW2 3395   2.750   7.472   5.834  0.0245  0.5992 -1.0852
  652SOL     OW 3396   4.040   4.402   5.514  0.3203 -0.0370  0.6342
  652SOL    HW1 3397   4.069   4.315   5.541 -2.4065 -1.3660 -0.2865
  652SOL    HW2 3398   4.073   4.412   5.425 -1.6698 -1.4806 -0.3609
  653SOL     OW 3399   3.752   7.760   5.217 -0.3663  0.1404  0.0431
  653SOL    HW1 3400   3.715   7.846   5.238 -1.8002 -0.4578  0.0623
  653SOL    HW2 3401   3.822   7.748   5.281  0.0043  1.3844 -0.1078
  654SOL     OW 3402   1.222   6.688  10.942  0.0559  0.1005  0.4758
  654SOL    HW1 3403   1.249   6.629  11.013 -1.1623  0.7599  1.5177
  654SOL    HW2 3404   1.129   6.703  10.956 -0.0300  0.9566 -0.7640
  655SOL     OW 3405   1.900   6.238  12.065  0.1836 -0.3470  0.0732
  655SOL    HW1 3406   1.936   6.150  12.074  0.2546 -0.2185  1.2092
  655SOL    HW2 3407   1.813   6.225  12.026 -0.3543 -1.0584  1.4308
  656SOL     OW 3408   1.697   6.297   1.977  0.4055  0.0187 -0.5428
  656SOL    HW1 3409   1.618   6.297   1.923 -0.4291  1.0315  0.6069
  656SOL    HW2 3410   1.671   6.247   2.055  1.1312 -0.2401 -0.4653
  657SOL     OW 3411   0.920   7.892  10.068  0.4678 -0.1430  0.5224
  657SOL    HW1 3412   0.884   7.891  10.157 -0.1629  0.8969  0.3005
  657SOL    HW2 3413   0.905   7.981  10.038 -0.1041 -0.7094 -0.9453
  658SOL     OW 3414   0.934   2.514   9.218  0.0662 -0.4827  0.1342
  658SOL    HW1 3415   0.856   2.553   9.259  0.7420 -0.2542  1.2610
  658SOL    HW2 3416   0.904   2.486   9.132 -0.7989  1.3123 -0.2122
  659SOL     OW 3417   1.426   5.796   3.188 -0.3608  0.0193  0.0305
  659SOL    HW1 3418   1.434   5.749   3.271 -5.0896  0.2506  0.8724
  659SOL    HW2 3419   1.416   5.888   3.212 -0.6680  0.2439 -0.8936
  660SOL     OW 3420   6.665   6.164  11.152  0.1327 -0.0780  0.1354
  660SOL    HW1 3421   6.655   6.257  11.174 -0.1007 -0.5615  2.3962
  660SOL    HW2 3422   6.579   6.137  11.120 -0.6499 -0.0806  2.0907
  661SOL     OW 3423   5.640   1.633   4.336 -0.6478 -0.3183 -0.5119
  661SOL    HW1 3424   5.626   1.588   4.419  1.1833 -1.0695 -0.5690
  661SOL    HW2 3425   5.559   1.683   4.322 -0.2786  1.4970  2.7328
  662SOL     OW 3426   6.925   0.664   6.478 -0.2614 -0.0887 -1.0909
  662SOL    HW1 3427   6.916   0.649   6.384  0.6742  0.0826 -1.2249
  662SOL    HW2 3428   7.005   0.617   6.502 -0.5102 -0.1634 -0.3701
  663SOL     OW 3429   3.342   0.850   2.883 -0.2151  0.5617 -0.2113
  663SOL    HW1 3430   3.399   0.786   2.840  0.1165  1.0514 -0.5101
  663SOL    HW2 3431   3.307   0.804   2.959  0.4109  0.1864 -0.1465
  664SOL     OW 3432   7.551   6.393  10.586 -0.7996  0.5933 -0.0424
  664SOL    HW1 3433   7.588   6.337  10.518 -1.4452 -0.9156  0.7907
  664SOL    HW2 3434   7.588   6.359  10.668 -2.2739  0.4455  0.6023
  665SOL     OW 3435   2.172   4.046   7.856 -0.2020 -0.2093  0.1805
  665SOL    HW1 3436   2.223   4.059   7.936 -0.9524  2.4849  0.3200
  665SOL    HW2 3437   2.185   3.953   7.834  0.9203 -0.7550  2.7724
  666SOL     OW 3438   6.521   4.451   6.198  0.6087  0.2862  0.0604
  666SOL    HW1 3439   6.468   4.506   6.140 -0.1463 -1.7855 -1.3282
  666SOL    HW2 3440   6.598   4.429   6.146  0.5155 -0.5900  0.2807
  667SOL     OW 3441   1.800   7.877   4.480  0.3798 -0.0308 -0.1279
  667SOL    HW1 3442   1.775   7.808   4.419  0.3569  1.3992 -1.8585
  667SOL    HW2 3443   1.861   7.932   4.429 -1.5362  2.6253  0.2248
  668SOL     OW 3444   7.979   0.944   8.556 -0.1757  0.3841 -0.4547
  668SOL    HW1 3445   8.033   1.018   8.527 -0.5769  0.7819 -0.1959
  668SOL    HW2 3446   7.893   0.982   8.572 -0.8835 -0.4522 -2.0018
  669SOL     OW 3447   1.851   4.995   4.834 -0.3254 -0.1938 -0.0752
  669SOL    HW1 3448   1.898   5.073   4.806 -0.6407  0.1555  0.3675
  669SOL    HW2 3449   1.797   4.971   4.758 -0.9133  0.5477  0.1017
  670SOL     OW 3450   2.172   4.854   9.585  0.7076  0.4372  0.2904
  670SOL    HW1 3451   2.087   4.821   9.557  1.1744  0.0372 -0.7133
  670SOL    HW2 3452   2.217   4.778   9.621  0.3945  0.7912  1.4470
  671SOL     OW 3453   1.770   6.511   8.369  0.1889 -0.2811 -0.1172
  671SOL    HW1 3454   1.823   6.588   8.392 -0.8428  0.3694  0.1113
  671SOL    HW2 3455   1.828   6.459   8.313  0.8890  0.6894 -0.3319
  672SOL     OW 3456   7.269   0.054   8.703  0.2929  0.1494 -0.0303
  672SOL    HW1 3457   7.203  -0.010   8.731  1.1783 -0.2994  1.1226
  672SOL    HW2 3458   7.340   0.001   8.668 -0.2434  0.6597 -2.0025
  673SOL     OW 3459   1.720   6.479  10.063 -0.0057 -0.0342 -0.4518
  673SOL    HW1 3460   1.807   6.443  10.043  0.4029  0.6062  0.1303
  673SOL    HW2 3461   1.728   6.572  10.042 -0.7877 -0.1061 -1.1155
  674SOL     OW 3462   1.114   4.058   5.653  0.3341  0.6823 -0.0162
  674SOL    HW1 3463   1.101   4.118   5.728 -0.3006 -0.3554  0.7239
  674SOL    HW2 3464   1.030   4.014   5.643  0.9162 -0.4014 -0.2639
  675SOL     OW 3465   2.748   6.716   0.955 -0.0581 -0.6873 -0.4545
  675SOL    HW1 3466   2.667   6.735   0.908 -0.9527 -0.2412  1.1805
  675SOL    HW2 3467   2.762   6.792   1.011  1.9625 -0.3870 -1.2843
  676SOL     OW 3468   1.633   4.524   8.324  0.0618  0.0881  0.9222
  676SOL    HW1 3469   1.596   4.452   8.273  1.4661  0.2414 -0.3915
  676SOL    HW2 3470   1.727   4.504   8.330  0.4312  1.6231  0.8041
  677SOL     OW 3471   2.786   4.941   8.427  0.0176 -0.3683 -0.1561
  677SOL    HW1 3472   2.769   4.988   8.346  0.9746 -1.3471 -0.9501
  677SOL    HW2 3473   2.870   4.975   8.458  0.4382 -1.1312 -0.4358
  678SOL     OW 3474   5.910   1.775   0.333 -0.2841 -0.2000  0.9916
  678SOL    HW1 3475   5.860   1.790   0.253  1.4994 -1.7613 -0.5219
  678SOL    HW2 3476   5.939   1.863   0.359 -0.3103  0.2786 -0.5046
  679SOL     OW 3477   1.246   4.666   7.339  0.1800  0.1245 -0.0261
  679SOL    HW1 3478   1.308   4.695   7.406 -0.7622  1.9998  0.0818
  679SOL    HW2 3479   1.170   4.722   7.351 -0.1694  0.2569 -2.4412
  680SOL     OW 3480   5.855   2.827   7.728 -0.4569  0.2257 -0.1850
  680SOL    HW1 3481   5.796   2.763   7.689 -0.4037  0.0856 -0.0357
  680SOL    HW2 3482   5.800   2.877   7.789 -0.3041 -0.2706  0.3710
  681SOL     OW 3483   4.855   3.819   7.986  0.0791  0.3729  0.3191
  681SOL    HW1 3484   4.861   3.837   8.080  1.8508  0.1507  0.2721
  681SOL    HW2 3485   4.786   3.878   7.955 -2.5304 -1.4544  2.1841
  682SOL     OW 3486   1.900   4.441   1.073 -0.3369  0.6792  0.5249
  682SOL    HW1 3487   1.898   4.518   1.016 -1.4067 -1.1503 -2.0565
  682SOL    HW2 3488   1.809   4.426   1.097 -0.3915 -0.7655 -0.4757
  683SOL     OW 3489   6.163   0.224   1.385 -0.4603 -0.3393 -0.0377
  683SOL    HW1 3490   6.122   0.138   1.375  0.2444 -0.9723  1.9790
  683SOL    HW2 3491   6.245   0.216   1.336  0.0236 -1.1669  0.8632
  684SOL     OW 3492   1.133   3.956  10.636 -0.0417 -0.3194 -0.2763
  684SOL    HW1 3493   1.039   3.957  10.615  0.1146 -0.3507 -1.0119
  684SOL    HW2 3494   1.152   4.045  10.665 -0.1504 -0.1034 -0.8518
  685SOL     OW 3495   4.630   6.282   4.026 -0.0146 -0.4794 -0.3993
  685SOL    HW1 3496   4.584   6.209   3.985  0.2810 -0.6246 -0.4744
  685SOL    HW2 3497   4.578   6.359   4.002 -0.1168 -0.6200 -0.6326
  686SOL     OW 3498   6.429   1.072   2.003  0.0711  1.0349  0.3868
  686SOL    HW1 3499   6.364   1.075   2.073  0.0606  0.7529  0.3886
  686SOL    HW2 3500   6.454   0.980   1.997  1.2174  1.2879  1.0668
  687SOL     OW 3501   5.913   0.123   2.288 -0.1497 -0.2343 -0.0129
  687SOL    HW1 3502   5.914   0.132   2.384  1.0903 -0.3969 -0.0056
  687SOL    HW2 3503   6.005   0.126   2.262 -0.4126 -1.1825 -1.1144
  688SOL     OW 3504   5.675   7.377   1.020 -0.1618 -0.0149 -0.2402
  688SOL    HW1 3505   5.586   7.386   0.987  0.2354 -0.9330 -1.6473
  688SOL    HW2 3506   5.679   7.288   1.056  0.9049 -1.0711 -2.7206
  689SOL     OW 3507   4.173   1.315   0.587 -0.0814  0.2555  0.6393
  689SOL    HW1 3508   4.229   1.392   0.589  0.7940 -0.3434  2.8663
  689SOL    HW2 3509   4.100   1.336   0.644 -0.7527  0.0453 -0.1189
  690SOL     OW 3510   5.295   6.866   4.813 -0.1070 -0.1381  0.1399
  690SOL    HW1 3511   5.275   6.924   4.740  0.7193 -0.0908 -0.0497
  690SOL    HW2 3512   5.209   6.836   4.844 -0.4689  0.0269 -0.6900
  691SOL     OW 3513   3.225   6.913   6.647  0.1645 -0.1460 -0.6534
  691SOL    HW1 3514   3.140   6.957   6.653 -0.1003 -0.7643  0.4066
  691SOL    HW2 3515   3.248   6.894   6.738  0.6134 -1.5328 -1.0398
  692SOL     OW 3516   4.498   5.276   1.917  0.1897  0.3830  0.0994
  692SOL    HW1 3517   4.456   5.192   1.934  0.3025  0.1014 -0.9619
  692SOL    HW2 3518   4.485   5.326   1.998 -1.5135  0.0281  0.0771
  693SOL     OW 3519   1.779   2.649   8.387 -0.1261 -0.4260 -0.1826
  693SOL    HW1 3520   1.857   2.703   8.397 -0.9624  1.3033 -2.1151
  693SOL    HW2 3521   1.796   2.571   8.440  2.5255  0.2613  0.1167
  694SOL     OW 3522   1.615   3.188   4.081 -0.2360  0.1012 -0.2333
  694SOL    HW1 3523   1.604   3.113   4.021 -4.1849 -0.9534  1.4961
  694SOL    HW2 3524   1.549   3.250   4.053 -0.0969  0.9173  1.2030
  695SOL     OW 3525   1.651   3.393   9.896 -0.2499  0.1139 -0.1034
  695SOL    HW1 3526   1.663   3.304   9.863  0.2659 -0.2191  0.9285
  695SOL    HW2 3527   1.594   3.435   9.832 -0.5116 -0.9650 -0.6013
  696SOL     OW 3528   0.805   1.573   1.733 -0.1604 -0.4334  0.4796
  696SOL    HW1 3529   0.821   1.663   1.760 -1.0014 -0.2019  0.2132
  696SOL    HW2 3530   0.856   1.563   1.652 -1.0729  0.2003 -0.1898
  697SOL     OW 3531   6.329   7.163  10.828  0.1430  0.1121 -0.1859
  697SOL    HW1 3532   6.405   7.119  10.865  0.3418 -0.3886 -1.1613
  697SOL    HW2 3533   6.344   7.163  10.734 -1.7453 -1.3462 -0.5488
  698SOL     OW 3534   3.333   4.723  10.431 -0.1787 -0.2430  0.3703
  698SOL    HW1 3535   3.274   4.648  10.433  0.9112 -1.1127  1.1708
  698SOL    HW2 3536   3.347   4.745  10.523  0.9580 -0.2547  0.2192
  699SOL     OW 3537   0.240   2.406   5.546 -0.0164 -0.0153  0.2387
  699SOL    HW1 3538   0.281   2.378   5.628 -0.9933  2.4969  1.6782
  699SOL    HW2 3539   0.294   2.478   5.516 -0.3387 -0.1725 -0.7352
  700SOL     OW 3540   6.662   2.133   6.976  0.2452  0.3696 -0.2104
  700SOL    HW1 3541   6.648   2.066   6.909 -0.3065  2.0656 -1.8961
  700SOL    HW2 3542   6.723   2.195   6.936 -0.9042  1.9800  0.4017
  701SOL     OW 3543   0.336   2.118  12.245  0.3194 -0.5384  0.8401
  701SOL    HW1 3544   0.322   2.211  12.225  0.4310 -0.3488  1.6263
  701SOL    HW2 3545   0.347   2.115  12.340 -1.4710 -1.5863  1.0508
  702SOL     OW 3546   7.881   7.530  10.899  0.0030 -0.1017  0.6222
  702SOL    HW1 3547   7.910   7.529  10.990 -0.6192  0.3632  0.8287
  702SOL    HW2 3548   7.796   7.574  10.901  0.6726  1.3308 -0.3689
  703SOL     OW 3549   5.655   7.090   5.010  0.5055  0.4566 -0.7341
  703SOL    HW1 3550   5.671   7.079   5.104 -0.4585  0.5532 -0.5417
  703SOL    HW2 3551   5.578   7.035   4.993  0.7461  0.3443 -1.4964
  704SOL     OW 3552   7.084   6.087   2.028 -0.1673  0.1738 -0.1261
  704SOL    HW1 3553   7.058   6.110   2.117  0.6108 -1.2810  0.5133
  704SOL    HW2 3554   7.136   6.007   2.038  0.6170  0.4274 -1.8089
  705SOL     OW 3555   6.595   3.377   9.374 -0.4506  0.1099 -0.5241
  705SOL    HW1 3556   6.502   3.385   9.395 -0.4462 -1.5114  0.2160
  705SOL    HW2 3557   6.598   3.316   9.300  0.1079 -1.1616  0.5177
  706SOL     OW 3558   3.647   6.555   6.835  0.1312 -0.0025  0.7491
  706SOL    HW1 3559   3.600   6.488   6.885 -1.4256  0.8589  0.4836
  706SOL    HW2 3560   3.608   6.551   6.748  1.0201  0.2894  0.3294
  707SOL     OW 3561   1.009   4.458   0.323 -0.7733 -0.6087 -0.1733
  707SOL    HW1 3562   1.030   4.437   0.232  0.1166  0.4800 -0.2330
  707SOL    HW2 3563   0.956   4.538   0.317  0.2507  0.1247  0.3090
  708SOL     OW 3564   0.110   3.954   6.047 -0.1027  0.3440 -0.1476
  708SOL    HW1 3565   0.186   3.896   6.042 -1.2163 -1.0562 -2.1614
  708SOL    HW2 3566   0.122   4.000   6.130  2.3077 -0.6813  0.1832
  709SOL     OW 3567   6.662   1.184   1.153 -0.5933  0.3732  0.1819
  709SOL    HW1 3568   6.678   1.124   1.079 -2.2342  1.3392 -1.0236
  709SOL    HW2 3569   6.736   1.244   1.151 -0.6384  0.4218 -0.7360
  710SOL     OW 3570   7.920   7.808   4.622 -0.5112 -0.0116  0.4524
  710SOL    HW1 3571   7.850   7.873   4.625 -2.0620 -1.5887 -0.0587
  710SOL    HW2 3572   7.952   7.812   4.531 -0.4638  0.1635  0.4762
  711SOL     OW 3573   5.747   4.286   0.441 -0.0180 -0.2395 -0.0782
  711SOL    HW1 3574   5.749   4.324   0.529 -2.0069  0.0449 -0.1084
  711SOL    HW2 3575   5.838   4.264   0.423  0.3437 -1.2304  2.4492
  712SOL     OW 3576   2.448   2.414   0.136 -0.5784 -0.0021  0.4779
  712SOL    HW1 3577   2.429   2.485   0.076  1.0581  0.0421 -0.0396
  712SOL    HW2 3578   2.367   2.402   0.186 -1.1090  1.7287  0.0864
  713SOL     OW 3579   7.078   7.770   6.622  0.7785 -0.3930 -0.5504
  713SOL    HW1 3580   7.029   7.852   6.624  0.1763 -0.7035  2.3690
  713SOL    HW2 3581   7.010   7.702   6.623  1.2783 -0.9598 -2.0616
  714SOL     OW 3582   6.401   1.684  11.402 -0.0077 -0.4219  0.2796
  714SOL    HW1 3583   6.428   1.726  11.321 -2.3242  0.7985  0.0512
  714SOL    HW2 3584   6.329   1.739  11.434 -0.3569 -1.9061  2.2057
  715SOL     OW 3585   5.588   6.203  10.650  0.2608 -0.0979 -0.4368
  715SOL    HW1 3586   5.503   6.160  10.658 -1.1722  2.5450 -0.2879
  715SOL    HW2 3587   5.622   6.172  10.566 -0.6088 -1.5672 -0.2870
  716SOL     OW 3588   2.673   5.754   3.701  0.4273  0.2813 -0.0922
  716SOL    HW1 3589   2.729   5.698   3.753  1.4889  1.0813 -0.3485
  716SOL    HW2 3590   2.709   5.749   3.612  0.0020  0.6813 -0.2930
  717SOL     OW 3591   3.620   0.759  10.536 -0.0975  0.0310  0.1765
  717SOL    HW1 3592   3.681   0.726  10.602  0.2244  1.1679  0.4733
  717SOL    HW2 3593   3.674   0.778  10.460 -0.2352  0.0743  0.0884
  718SOL     OW 3594   5.851   1.556   3.772  0.3894  0.6444  0.0353
  718SOL    HW1 3595   5.767   1.594   3.799  0.7551  1.2336  0.3497
  718SOL    HW2 3596   5.841   1.541   3.678 -0.1822  0.4103  0.1254
  719SOL     OW 3597   1.801   6.698   9.902 -0.1365 -0.5010  0.2902
  719SOL    HW1 3598   1.878   6.667   9.854 -0.2888 -0.3595 -0.0389
  719SOL    HW2 3599   1.837   6.759   9.967 -0.1098  0.6530 -0.7784
  720SOL     OW 3600   6.638   7.251  10.706 -0.1405  0.2917 -0.0546
  720SOL    HW1 3601   6.707   7.264  10.770  1.1605  1.0409 -1.5560
  720SOL    HW2 3602   6.669   7.179  10.652 -0.6610  0.4658 -0.5913
  721SOL     OW 3603   2.571   2.430   5.259  0.1507 -0.4714 -0.2688
  721SOL    HW1 3604   2.637   2.436   5.327 -2.0725  1.0905  1.9405
  721SOL    HW2 3605   2.529   2.345   5.272 -0.2801 -0.1694  0.3854
  722SOL     OW 3606   0.538   0.320   4.725 -0.4197 -0.1133 -0.2435
  722SOL    HW1 3607   0.452   0.354   4.698  0.3590  2.2361  0.0379
  722SOL    HW2 3608   0.557   0.251   4.661 -0.8429  1.9139 -2.7187
  723SOL     OW 3609   2.473   0.808   1.881 -0.1930 -0.5111  0.5102
  723SOL    HW1 3610   2.528   0.873   1.838 -1.9878  1.4850  1.0171
  723SOL    HW2 3611   2.424   0.767   1.810 -0.7829  0.4577  0.3340
  724SOL     OW 3612   5.676   1.973   8.876  0.6745 -0.3543 -0.5749
  724SOL    HW1 3613   5.639   1.885   8.882 -0.7470  0.2072 -0.6695
  724SOL    HW2 3614   5.749   1.972   8.938 -0.3153 -1.1288  0.6438
  725SOL     OW 3615   4.170   4.977  11.098 -0.2236 -0.0520 -0.6452
  725SOL    HW1 3616   4.199   4.928  11.021  0.8779  0.8662 -0.8455
  725SOL    HW2 3617   4.163   4.912  11.168  1.5342 -0.4642 -0.8078
  726SOL     OW 3618   1.230   5.955  10.860 -0.0890  0.2236  0.1631
  726SOL    HW1 3619   1.275   5.911  10.788 -0.9365 -0.7828  0.2254
  726SOL    HW2 3620   1.282   6.033  10.877  1.6020 -0.8638  0.2004
  727SOL     OW 3621   2.225   3.840   7.564  0.0974  0.2503 -1.0424
  727SOL    HW1 3622   2.147   3.789   7.588  0.7309 -0.9424 -1.4637
  727SOL    HW2 3623   2.240   3.818   7.472  2.2030 -1.3040 -0.3985
  728SOL     OW 3624   6.570   0.215  11.341  0.2389 -0.0512 -0.6949
  728SOL    HW1 3625   6.650   0.170  11.368 -1.1852 -1.3179  1.7889
  728SOL    HW2 3626   6.532   0.247  11.423 -1.8608  0.4137 -1.7791
  729SOL     OW 3627   5.001   7.652   0.349  0.5372  0.0009 -0.3721
  729SOL    HW1 3628   5.064   7.676   0.418  0.2633 -0.1690 -0.0620
  729SOL    HW2 3629   4.920   7.635   0.396  0.2140  0.3665 -0.7883
  730SOL     OW 3630   3.632   0.066  10.888 -0.2868 -0.0559 -0.0710
  730SOL    HW1 3631   3.614   0.134  10.953  1.2079  2.0744 -1.7488
  730SOL    HW2 3632   3.559   0.073  10.826  0.8881  1.5443 -1.3596
  731SOL     OW 3633   4.054   1.343   9.057  0.1903 -0.6098  0.0088
  731SOL    HW1 3634   4.023   1.260   9.023  2.4201 -1.3421 -0.4450
  731SOL    HW2 3635   4.064   1.399   8.979 -0.8793 -0.0446  0.2611
  732SOL     OW 3636   4.085   2.591   5.914  0.1228 -0.2273 -0.4948
  732SOL    HW1 3637   4.087   2.532   5.838  0.6294 -0.5220 -0.2616
  732SOL    HW2 3638   4.176   2.619   5.925  0.2514 -1.0155  0.6267
  733SOL     OW 3639   7.497   7.537   1.250 -0.5409  0.3631  0.5836
  733SOL    HW1 3640   7.516   7.626   1.279 -0.7761  0.2079  1.2261
  733SOL    HW2 3641   7.442   7.548   1.172 -1.3118  0.7842  1.1728
  734SOL     OW 3642   5.743   1.185   9.355  0.5269 -0.0491  0.0006
  734SOL    HW1 3643   5.816   1.204   9.297  0.9809 -0.7586  0.3226
  734SOL    HW2 3644   5.695   1.268   9.362  0.8283  0.2103 -0.8600
  735SOL     OW 3645   6.580   6.219   6.932 -0.4121  0.4004  0.6699
  735SOL    HW1 3646   6.622   6.263   7.006 -0.0554  1.9188 -0.3945
  735SOL    HW2 3647   6.596   6.276   6.858 -0.1967 -1.4014 -0.7367
  736SOL     OW 3648   5.543   5.270   7.204  0.1321 -0.0348  0.6697
  736SOL    HW1 3649   5.591   5.339   7.248  1.5386  0.1683 -1.0673
  736SOL    HW2 3650   5.451   5.293   7.216  0.5043  0.7401  2.2511
  737SOL     OW 3651   4.509   3.645   2.598 -0.1739 -0.2771 -0.5034
  737SOL    HW1 3652   4.580   3.699   2.633 -0.8335 -0.2325  0.8249
  737SOL    HW2 3653   4.475   3.695   2.524 -0.4725  0.9368  0.4216
  738SOL     OW 3654   6.247   7.402  11.008 -0.2636 -0.6390  0.7493
  738SOL    HW1 3655   6.237   7.358  10.924  4.1975 -0.9302  0.1119
  738SOL    HW2 3656   6.256   7.494  10.986 -0.6487 -0.5178  1.0893
  739SOL     OW 3657   6.563   2.338   2.876  0.4098  0.1197 -0.5327
  739SOL    HW1 3658   6.592   2.394   2.804  1.5008 -0.8958 -0.9089
  739SOL    HW2 3659   6.644   2.307   2.916 -0.1497  1.1165  1.5229
  740SOL     OW 3660   2.864   3.828  11.914  0.2055  0.3764  0.2314
  740SOL    HW1 3661   2.927   3.794  11.850 -1.4682  0.4070 -1.5263
  740SOL    HW2 3662   2.902   3.911  11.943  0.9747  0.4235 -0.8279
  741SOL     OW 3663   6.870   4.884   9.773 -0.1935  0.1510  0.4273
  741SOL    HW1 3664   6.809   4.956   9.758  0.9717  1.1959  0.5141
  741SOL    HW2 3665   6.818   4.818   9.820 -1.0056  1.4072  1.3797
  742SOL     OW 3666   0.728   2.704   8.272 -0.2718 -0.3448  0.3881
  742SOL    HW1 3667   0.642   2.722   8.309 -0.8245 -0.6496 -0.7010
  742SOL    HW2 3668   0.710   2.667   8.185  0.8574 -3.3090  1.2828
  743SOL     OW 3669   4.198   7.076   4.221  0.1078  0.4502  0.1652
  743SOL    HW1 3670   4.209   7.032   4.305 -2.7124 -0.2756  0.2569
  743SOL    HW2 3671   4.267   7.040   4.166 -0.1779 -1.7841  1.1461
  744SOL     OW 3672   6.131   0.012   1.650 -0.1293 -0.1421  0.7163
  744SOL    HW1 3673   6.101   0.094   1.611 -0.0828 -0.9964 -1.2354
  744SOL    HW2 3674   6.100  -0.056   1.590  1.4825 -1.4021  1.2311
  745SOL     OW 3675   2.670   1.885   7.936  0.1432  0.0760  0.1204
  745SOL    HW1 3676   2.722   1.948   7.886 -0.4623 -0.1009 -0.7339
  745SOL    HW2 3677   2.684   1.801   7.893 -0.5544 -0.0416  0.1119
  746SOL     OW 3678   3.020   4.195   8.917 -0.1117  0.6849 -0.3978
  746SOL    HW1 3679   2.989   4.126   8.976 -1.0312 -0.4917 -2.1773
  746SOL    HW2 3680   3.043   4.267   8.975 -1.1654 -0.3350  1.3857
  747SOL     OW 3681   3.182   5.299   4.399  0.2254  0.4100 -0.0143
  747SOL    HW1 3682   3.262   5.321   4.448 -1.4236  0.5484  2.8286
  747SOL    HW2 3683   3.118   5.364   4.428 -1.5299 -1.0717 -0.4302
  748SOL     OW 3684   0.687   5.856   5.900  0.2625 -0.5724 -0.1624
  748SOL    HW1 3685   0.735   5.822   5.976  1.8469  0.6951 -0.5404
  748SOL    HW2 3686   0.750   5.853   5.828  0.5227  2.8407 -0.2790
  749SOL     OW 3687   6.223   1.425   9.979 -0.3712  0.4614  0.1884
  749SOL    HW1 3688   6.214   1.332   9.959  0.4884  0.6550 -1.2542
  749SOL    HW2 3689   6.138   1.463   9.958 -1.4595 -0.2614  2.8015
  750SOL     OW 3690   1.371   4.315   9.681  0.5469 -0.3255 -0.7848
  750SOL    HW1 3691   1.279   4.340   9.676 -0.0021 -2.0806 -0.2359
  750SOL    HW2 3692   1.390   4.313   9.774  0.4009 -2.3186 -0.7566
  751SOL     OW 3693   1.257   1.741   3.980  0.1909  0.2505  0.1558
  751SOL    HW1 3694   1.252   1.789   3.897  1.4266  0.2231  0.0520
  751SOL    HW2 3695   1.257   1.810   4.047 -0.7365  0.2745  0.1500
  752SOL     OW 3696   3.794   3.590   4.489 -0.7007 -0.1302  0.4701
  752SOL    HW1 3697   3.796   3.549   4.403  1.2986 -0.8423  0.8088
  752SOL    HW2 3698   3.761   3.522   4.548  0.0198 -0.3590  0.6089
  753SOL     OW 3699   4.905   2.558  11.396 -0.2833  0.3648  0.0507
  753SOL    HW1 3700   4.988   2.565  11.442 -1.5899  1.0408  2.4665
  753SOL    HW2 3701   4.902   2.468  11.364  1.1033  0.1597  0.4344
  754SOL     OW 3702   6.824   6.225   8.449 -0.0486 -0.3997 -0.0911
  754SOL    HW1 3703   6.772   6.303   8.428 -0.2813 -0.6913 -0.6258
  754SOL    HW2 3704   6.786   6.192   8.530  0.2890  0.2479  0.3397
  755SOL     OW 3705   0.883   5.339   8.470 -0.1945 -0.2733  0.0171
  755SOL    HW1 3706   0.826   5.408   8.505 -1.6139 -1.5760  0.3973
  755SOL    HW2 3707   0.956   5.335   8.531 -0.2090  0.7225  0.1236
  756SOL     OW 3708   0.573   3.234   4.984  0.3655  0.1651  0.3458
  756SOL    HW1 3709   0.627   3.156   4.979  1.4679  0.8941  0.5270
  756SOL    HW2 3710   0.514   3.228   4.908  1.7654  0.1101 -0.7714
  757SOL     OW 3711   0.665   7.811   8.638 -0.3049  0.7572  0.4933
  757SOL    HW1 3712   0.725   7.846   8.704  0.9922 -0.9687  0.3162
  757SOL    HW2 3713   0.578   7.831   8.671  0.2353 -1.0854  3.4015
  758SOL     OW 3714   4.287   4.999   3.242  0.3070 -0.1082 -0.6594
  758SOL    HW1 3715   4.238   5.052   3.304  0.3888  1.0962 -1.5927
  758SOL    HW2 3716   4.372   5.041   3.235  0.8616 -1.1543 -0.4011
  759SOL     OW 3717   0.324   5.713   8.174  0.0074 -0.2245 -0.6180
  759SOL    HW1 3718   0.266   5.638   8.158 -0.5993  0.4609 -1.7577
  759SOL    HW2 3719   0.344   5.747   8.087  1.3759  0.1432 -0.1915
  760SOL     OW 3720   6.576   1.889   9.897  0.8020 -0.2433 -0.0798
  760SOL    HW1 3721   6.662   1.877   9.937  0.0273  0.5672  1.9580
  760SOL    HW2 3722   6.574   1.982   9.872  0.7470 -0.4044 -0.6685
  761SOL     OW 3723   2.537   0.985  12.183  0.2749 -1.0390 -0.3276
  761SOL    HW1 3724   2.516   1.052  12.248  1.7014  1.2898 -2.1590
  761SOL    HW2 3725   2.593   0.923  12.230  0.7174  0.2130  0.8449
  762SOL     OW 3726   0.943   4.286   0.817  0.0788  0.1900 -0.0998
  762SOL    HW1 3727   0.965   4.195   0.837 -1.5370 -0.3072 -0.4823
  762SOL    HW2 3728   0.860   4.281   0.770 -0.0936  1.8748 -0.0285
  763SOL     OW 3729   2.344   7.947   7.481 -0.2280 -0.0233  0.1712
  763SOL    HW1 3730   2.376   8.033   7.508  0.3288 -0.2607  0.2742
  763SOL    HW2 3731   2.400   7.885   7.527 -1.0740 -0.4533  0.6487
  764SOL     OW 3732   7.773   5.052   1.635 -0.2706  0.2243 -0.0736
  764SOL    HW1 3733   7.804   4.976   1.685 -0.0583  0.5123  0.2347
  764SOL    HW2 3734   7.794   5.127   1.690  1.1699  0.6692 -1.1690
  765SOL     OW 3735   1.011   5.758   2.322  0.4939  0.0024 -0.2858
  765SOL    HW1 3736   1.006   5.730   2.414  1.5018 -1.2666 -0.5752
  765SOL    HW2 3737   0.958   5.693   2.275 -0.4131  0.9246 -0.5721
  766SOL     OW 3738   1.228   3.249   2.043 -0.2002 -0.2587 -0.5297
  766SOL    HW1 3739   1.189   3.208   2.121  0.4218 -0.5558 -0.3693
  766SOL    HW2 3740   1.315   3.210   2.037  0.1904  0.6188 -0.7086
  767SOL     OW 3741   3.241   0.677   9.343 -0.0138 -0.2715  0.0278
  767SOL    HW1 3742   3.203   0.718   9.265  0.7132  0.3728  0.0067
  767SOL    HW2 3743   3.311   0.736   9.370  2.2916 -2.3229 -1.0383
  768SOL     OW 3744   1.559   3.564   6.750 -0.3814 -0.3215  0.1416
  768SOL    HW1 3745   1.580   3.578   6.842  0.4806  0.4685 -0.1593
  768SOL    HW2 3746   1.630   3.509   6.717  0.6085  1.3258 -0.5847
  769SOL     OW 3747   4.181   1.029   1.723 -0.0452 -0.1332  0.1655
  769SOL    HW1 3748   4.142   1.101   1.773 -1.3375 -0.0999 -0.8313
  769SOL    HW2 3749   4.139   1.033   1.638 -0.1833 -2.0894  0.0788
  770SOL     OW 3750   7.283   1.219   8.059  0.0213 -0.2486 -0.2576
  770SOL    HW1 3751   7.193   1.198   8.032  0.1984  0.7761 -1.7774
  770SOL    HW2 3752   7.275   1.244   8.151 -1.5465  1.5223 -0.8151
  771SOL     OW 3753   1.963   2.520  11.865 -0.0612  0.2545 -0.3540
  771SOL    HW1 3754   1.902   2.506  11.937 -0.1758  2.3441  0.0139
  771SOL    HW2 3755   1.945   2.448  11.804 -3.3099  1.0541 -0.5330
  772SOL     OW 3756   7.702   5.502   1.743  0.1040 -0.0065  0.2895
  772SOL    HW1 3757   7.769   5.567   1.762 -0.7629  0.4744  1.9061
  772SOL    HW2 3758   7.717   5.478   1.652  2.0119  0.5889  0.3987
  773SOL     OW 3759   0.959   4.146   3.614 -0.1431  0.1525 -0.2044
  773SOL    HW1 3760   1.013   4.090   3.669  0.7652  0.9197 -0.2915
  773SOL    HW2 3761   0.899   4.189   3.676  0.8426  0.9764  0.1999
  774SOL     OW 3762   3.318   3.514   1.100  0.8064 -0.3399  0.6734
  774SOL    HW1 3763   3.357   3.497   1.014  0.4718  0.5681  0.3330
  774SOL    HW2 3764   3.251   3.580   1.083  1.5255  0.7114  1.8196
  775SOL     OW 3765   3.182   1.603   6.368  0.1749 -0.0857  0.1970
  775SOL    HW1 3766   3.253   1.540   6.370  0.4614  0.2466  1.9478
  775SOL    HW2 3767   3.157   1.614   6.460 -2.7363 -0.8552 -0.3999
  776SOL     OW 3768   0.454   0.317  10.661 -0.0804 -0.0701  0.7943
  776SOL    HW1 3769   0.487   0.247  10.718 -0.7430 -0.5953  0.5442
  776SOL    HW2 3770   0.524   0.382  10.661  0.3178 -0.4783  1.4757
  777SOL     OW 3771   5.340   7.792  10.791  0.5640  0.1556  0.0163
  777SOL    HW1 3772   5.255   7.801  10.748 -0.0348 -0.4099  1.0521
  777SOL    HW2 3773   5.357   7.698  10.790  1.1124  0.2533 -0.0441
  778SOL     OW 3774   5.237   4.718  10.387 -0.4188  0.1130  0.5492
  778SOL    HW1 3775   5.161   4.659  10.385  1.4791 -2.4804 -0.5671
  778SOL    HW2 3776   5.213   4.789  10.327 -1.0393 -1.9945 -1.8918
  779SOL     OW 3777   3.078   3.647   8.837 -0.6153  0.5042  0.1786
  779SOL    HW1 3778   3.153   3.594   8.808 -1.1831 -0.4314  0.3559
  779SOL    HW2 3779   3.002   3.594   8.813 -1.1473 -0.5237  3.5726
  780SOL     OW 3780   3.492   0.268  11.220 -0.2430  0.1249  0.2719
  780SOL    HW1 3781   3.420   0.227  11.172 -0.2060  2.0456 -1.5836
  780SOL    HW2 3782   3.451   0.303  11.299 -0.3139 -3.0688  1.7795
  781SOL     OW 3783   7.210   6.689  10.241 -0.3034 -0.0911  0.5808
  781SOL    HW1 3784   7.304   6.692  10.254 -0.0531 -1.0219 -0.8486
  781SOL    HW2 3785   7.175   6.756  10.300  1.3374  1.0808  0.2526
  782SOL     OW 3786   3.974   1.301   6.152 -0.0218 -0.1560  0.5731
  782SOL    HW1 3787   4.069   1.309   6.144 -0.1086  0.7292  0.3704
  782SOL    HW2 3788   3.961   1.240   6.226  0.6977 -0.8651  0.1343
  783SOL     OW 3789   7.787   0.501  10.413  0.3402 -0.3859 -0.2758
  783SOL    HW1 3790   7.746   0.587  10.424  0.5912  0.0561 -2.3522
  783SOL    HW2 3791   7.873   0.520  10.375  0.8022 -1.5179  0.1479
  784SOL     OW 3792   5.012   3.370   5.657  0.4208 -0.1207 -0.2795
  784SOL    HW1 3793   4.918   3.391   5.651  0.1477 -0.9347  0.8628
  784SOL    HW2 3794   5.023   3.334   5.745  1.6972 -0.6430 -0.6326
  785SOL     OW 3795   5.930   5.000   3.933 -0.8957  0.3163  0.3296
  785SOL    HW1 3796   5.976   5.042   3.861  0.2244 -0.0415  0.8201
  785SOL    HW2 3797   5.999   4.969   3.991 -1.6150 -2.3654 -0.0836
  786SOL     OW 3798   4.418   5.710  11.402 -0.0821 -0.0515  0.3220
  786SOL    HW1 3799   4.437   5.621  11.372  0.3783  0.2994 -0.4658
  786SOL    HW2 3800   4.503   5.743  11.432  0.0429  0.5917 -0.6880
  787SOL     OW 3801   1.287   2.090   2.181  0.0497 -0.3949  0.3207
  787SOL    HW1 3802   1.290   2.162   2.119  0.6942 -0.6011  0.1048
  787SOL    HW2 3803   1.196   2.058   2.176  0.2645 -0.8451 -1.0289
  788SOL     OW 3804   0.890   6.836   6.651 -0.4459  0.1117 -0.2975
  788SOL    HW1 3805   0.893   6.811   6.743  1.3901  2.0186  0.2549
  788SOL    HW2 3806   0.972   6.804   6.614 -0.8651 -0.0656 -1.1020
  789SOL     OW 3807   5.642   4.303   4.362 -0.2982  0.3027 -0.3839
  789SOL    HW1 3808   5.561   4.353   4.373  0.4744  1.8062 -1.3407
  789SOL    HW2 3809   5.712   4.367   4.375  0.7791 -1.0666  0.9183
  790SOL     OW 3810   1.225   5.285   3.788  0.0022  0.0242 -0.1545
  790SOL    HW1 3811   1.250   5.200   3.751 -1.4129 -0.4104 -0.1726
  790SOL    HW2 3812   1.149   5.312   3.736 -0.3232  0.7132  0.6532
  791SOL     OW 3813   5.026   6.011   9.803 -0.3877 -0.4387  0.6805
  791SOL    HW1 3814   4.984   5.929   9.778 -0.5515 -0.5629  1.3375
  791SOL    HW2 3815   4.962   6.053   9.862 -2.0512  1.9277 -2.4554
  792SOL     OW 3816   5.935   4.905  12.473  0.4825  0.8683  0.3799
  792SOL    HW1 3817   5.840   4.890  12.481  0.5326  0.3377  0.0044
  792SOL    HW2 3818   5.943   4.999  12.457 -0.0107  0.8538  0.0167
  793SOL     OW 3819   4.190   1.858   6.213  0.9112 -0.2867  0.5789
  793SOL    HW1 3820   4.190   1.885   6.122  0.5054  1.8123  1.1473
  793SOL    HW2 3821   4.098   1.839   6.233  0.8979 -0.0639  0.7329
  794SOL     OW 3822   0.808   7.354   5.281  0.3361 -0.0327 -0.5035
  794SOL    HW1 3823   0.726   7.360   5.331 -0.2108 -0.1403 -1.3570
  794SOL    HW2 3824   0.877   7.362   5.347 -0.3569 -0.5563  0.3197
  795SOL     OW 3825   5.164   1.364   8.941 -0.1273  0.1449 -0.9162
  795SOL    HW1 3826   5.213   1.285   8.962 -1.0128 -0.0869  0.4079
  795SOL    HW2 3827   5.089   1.363   9.001 -0.8032  1.3753 -1.6869
  796SOL     OW 3828   5.923   7.283   0.964  0.1022  0.7114  0.2928
  796SOL    HW1 3829   5.846   7.340   0.955  0.5726  1.2109 -0.6612
  796SOL    HW2 3830   5.958   7.305   1.050 -0.2552  1.1898  0.3203
  797SOL     OW 3831   7.410   7.192   8.489  0.3622 -0.3648  0.1751
  797SOL    HW1 3832   7.492   7.234   8.514 -0.6897  1.5087  0.6950
  797SOL    HW2 3833   7.367   7.172   8.572  0.0632 -0.8764 -0.0972
  798SOL     OW 3834   5.904   5.350   7.291  0.1125 -0.4910  0.1305
  798SOL    HW1 3835   5.879   5.432   7.249 -0.1585  0.6938  2.4514
  798SOL    HW2 3836   5.915   5.288   7.219 -0.3716  1.3869 -1.6317
  799SOL     OW 3837   1.771   3.808   6.940  0.4402 -0.1600  0.8255
  799SOL    HW1 3838   1.852   3.794   6.892  1.3746  1.4606  1.8154
  799SOL    HW2 3839   1.722   3.871   6.887  0.2712 -0.3917  0.7056
  800SOL     OW 3840   6.048   2.900   1.998  0.0066 -0.2177 -0.3401
  800SOL    HW1 3841   6.026   2.906   1.905 -0.0522 -0.3030 -0.3322
  800SOL    HW2 3842   6.142   2.882   1.999 -0.2164 -1.4720 -0.4183
  801SOL     OW 3843   4.033   5.986   8.168  0.1632 -0.4706  0.5269
  801SOL    HW1 3844   4.079   6.044   8.108  2.6259 -2.0494  0.7720
  801SOL    HW2 3845   3.993   5.919   8.112  1.5309 -1.3163  0.5240
  802SOL     OW 3846   1.189   5.701   3.350 -0.6839  0.2555 -0.6631
  802SOL    HW1 3847   1.219   5.729   3.437 -1.1390 -1.6140  0.1568
  802SOL    HW2 3848   1.179   5.782   3.300  2.4272  1.2359  0.0614
  803SOL     OW 3849   7.588   3.006   4.343  0.7068  0.1863 -0.2891
  803SOL    HW1 3850   7.625   3.087   4.308 -0.1685  0.3280 -0.9311
  803SOL    HW2 3851   7.496   3.008   4.315  0.0586  0.0929  1.6553
  804SOL     OW 3852   4.372   3.986   3.980  0.5542  0.0289 -0.4883
  804SOL    HW1 3853   4.350   4.066   4.028  1.1493  0.9348 -1.6904
  804SOL    HW2 3854   4.437   3.943   4.035  0.3875  0.4641  0.0638
  805SOL     OW 3855   2.705   2.525   2.730  0.3959 -0.2149  0.2152
  805SOL    HW1 3856   2.783   2.506   2.782 -0.3709 -1.1459  1.0471
  805SOL    HW2 3857   2.714   2.469   2.653  1.6013  1.2683 -0.7857
  806SOL     OW 3858   6.575   5.696   0.825  0.0612 -0.3014 -0.2335
  806SOL    HW1 3859   6.598   5.742   0.906 -0.3913  0.6760 -0.6521
  806SOL    HW2 3860   6.479   5.699   0.822  0.0905  0.0383 -1.0124
  807SOL     OW 3861   7.949   4.106   7.292 -0.2114  0.1984  0.0763
  807SOL    HW1 3862   8.002   4.082   7.215 -1.8336  1.1054 -1.4100
  807SOL    HW2 3863   7.859   4.107   7.259 -0.9253  0.9887  1.9266
  808SOL     OW 3864   5.875   7.016   5.972 -0.4063  0.1171 -0.4809
  808SOL    HW1 3865   5.905   6.996   5.884  0.4550 -0.8441  0.0128
  808SOL    HW2 3866   5.899   7.108   5.985 -2.1664  0.8395 -1.8692
  809SOL     OW 3867   4.542   0.999   0.905  0.1817  0.0807  0.1095
  809SOL    HW1 3868   4.557   1.064   0.836  0.7146 -0.1110  0.0427
  809SOL    HW2 3869   4.470   0.946   0.873  0.5764 -0.1497 -0.4071
  810SOL     OW 3870   4.460   5.656   5.305 -0.0895 -0.0851 -0.4507
  810SOL    HW1 3871   4.463   5.679   5.398  2.4813  0.3396 -0.5589
  810SOL    HW2 3872   4.367   5.657   5.283 -0.7194  0.4905  1.9406
  811SOL     OW 3873   6.591   2.614   3.066  0.6259 -0.4440 -0.5452
  811SOL    HW1 3874   6.550   2.534   3.034 -0.7525 -0.5091  1.1848
  811SOL    HW2 3875   6.528   2.649   3.129  0.9928  2.2386 -1.5282
  812SOL     OW 3876   1.367   4.960  10.114  0.1569  0.4653  0.1397
  812SOL    HW1 3877   1.334   4.957  10.204 -1.6457  0.9445 -0.4560
  812SOL    HW2 3878   1.452   4.918  10.118 -0.3278 -0.4368  1.8958
  813SOL     OW 3879   1.718   0.198   5.264 -0.0240  0.2442  0.4630
  813SOL    HW1 3880   1.782   0.140   5.223 -0.7167 -1.3098  1.4866
  813SOL    HW2 3881   1.635   0.177   5.222 -0.4678 -0.2874  1.5642
  814SOL     OW 3882   4.913   1.187   4.853 -0.1142  0.1676  0.6058
  814SOL    HW1 3883   4.898   1.263   4.798  1.1156  0.0635  0.0910
  814SOL    HW2 3884   4.948   1.222   4.935 -0.3175  0.2010  0.6800
  815SOL     OW 3885   5.258   5.066   7.921 -0.0127  0.0872 -0.6860
  815SOL    HW1 3886   5.323   5.007   7.883 -0.2240 -1.5166  1.3008
  815SOL    HW2 3887   5.176   5.018   7.914  0.1713 -1.1068  3.1724
  816SOL     OW 3888   2.544   2.270   1.302  0.7164 -0.1614  0.7761
  816SOL    HW1 3889   2.598   2.213   1.247  1.9899  2.2433 -0.6485
  816SOL    HW2 3890   2.607   2.315   1.359 -0.1625  0.2502  1.4367
  817SOL     OW 3891   5.069   1.103   8.316 -0.7849  0.2487 -0.0852
  817SOL    HW1 3892   5.104   1.158   8.246  1.2500  1.3045  1.6474
  817SOL    HW2 3893   5.107   1.017   8.300 -1.3122  0.1538 -0.9199
  818SOL     OW 3894   6.489   2.484   2.391  0.2804  0.8199  0.0105
  818SOL    HW1 3895   6.470   2.400   2.349  1.2039  0.8549 -0.4845
  818SOL    HW2 3896   6.403   2.523   2.405 -0.2060 -0.4832  0.8337
  819SOL     OW 3897   5.898   1.603   4.668  0.6383  0.3977 -0.3132
  819SOL    HW1 3898   5.921   1.617   4.576  0.2242  0.4360 -0.4144
  819SOL    HW2 3899   5.818   1.654   4.680  0.1125 -0.4451 -0.2020
  820SOL     OW 3900   4.231   6.069   2.163 -0.0451 -0.0355  0.0951
  820SOL    HW1 3901   4.284   6.075   2.083  0.5400 -0.7718  0.4184
  820SOL    HW2 3902   4.162   6.134   2.151 -0.2935 -0.5212 -1.2572
  821SOL     OW 3903   4.800   4.118   9.675 -0.6638 -0.1425 -0.1264
  821SOL    HW1 3904   4.852   4.072   9.741 -0.6037  0.4122  0.2122
  821SOL    HW2 3905   4.829   4.080   9.591  0.9422  0.7815 -0.0228
  822SOL     OW 3906   4.405   1.736   5.302 -0.1985  0.2288 -0.0943
  822SOL    HW1 3907   4.429   1.644   5.309  1.0197  0.3796 -1.7328
  822SOL    HW2 3908   4.432   1.775   5.386  0.0107 -0.7325  0.2944
  823SOL     OW 3909   7.422   4.483   3.081  0.6420  0.2102  0.1130
  823SOL    HW1 3910   7.391   4.394   3.069  2.5419 -0.8012  2.0105
  823SOL    HW2 3911   7.360   4.537   3.032 -0.6530 -2.1072 -0.9632
  824SOL     OW 3912   5.106   1.431   0.233 -0.6445  0.5388  0.1159
  824SOL    HW1 3913   5.111   1.480   0.315 -0.7920  1.1786 -0.2559
  824SOL    HW2 3914   5.175   1.467   0.179 -1.2003  0.8200 -0.4150
  825SOL     OW 3915   0.122   4.510   5.575 -0.4776  0.1490 -0.5637
  825SOL    HW1 3916   0.078   4.584   5.615  0.7870  0.5843  0.0606
  825SOL    HW2 3917   0.091   4.434   5.624  1.2001  0.6907  1.4513
  826SOL     OW 3918   7.316   1.950   5.325  0.4431 -0.1023  0.6298
  826SOL    HW1 3919   7.308   1.895   5.403  0.4881 -0.6139  0.2740
  826SOL    HW2 3920   7.296   1.892   5.252  0.7175  0.2950  0.2345
  827SOL     OW 3921   6.054   7.573   1.844 -0.5260  0.2267  0.7020
  827SOL    HW1 3922   6.128   7.622   1.880 -0.3479  0.4980 -0.0148
  827SOL    HW2 3923   5.982   7.635   1.844  0.1010  1.0541 -1.7111
  828SOL     OW 3924   7.636   0.908   5.516  0.1981  0.3470 -0.1042
  828SOL    HW1 3925   7.731   0.923   5.508  0.1518  0.5157 -0.3451
  828SOL    HW2 3926   7.597   0.990   5.486 -0.0315  0.2002 -0.2061
  829SOL     OW 3927   3.788   0.847   0.595 -0.1857  0.1073 -0.2434
  829SOL    HW1 3928   3.847   0.787   0.551 -1.4687 -0.7402 -0.8839
  829SOL    HW2 3929   3.795   0.929   0.545  0.1223 -0.1166 -0.5726
  830SOL     OW 3930   1.341   0.919   5.998 -0.0172 -0.0112 -0.1791
  830SOL    HW1 3931   1.397   0.913   6.075  0.6128 -1.8704 -0.7224
  830SOL    HW2 3932   1.254   0.936   6.033  0.2497 -0.8458  0.9605
  831SOL     OW 3933   7.900   7.268   8.531 -0.4584  0.3569 -0.4413
  831SOL    HW1 3934   7.961   7.291   8.461 -0.9297 -1.1048 -1.4010
  831SOL    HW2 3935   7.862   7.185   8.502 -1.1806  0.0647  1.2463
  832SOL     OW 3936   7.745   1.606   0.669  0.7038  0.0998 -0.0281
  832SOL    HW1 3937   7.709   1.682   0.623  1.0696 -0.8767 -1.9931
  832SOL    HW2 3938   7.718   1.619   0.760  0.2697  2.2832 -0.4132
  833SOL     OW 3939   0.917   5.329  11.039 -0.4052  0.2671 -0.0612
  833SOL    HW1 3940   0.904   5.249  10.987  0.0955  0.3734 -0.3586
  833SOL    HW2 3941   0.893   5.400  10.979 -1.3577  0.3173  0.3744
  834SOL     OW 3942   5.061   3.007  11.945 -0.1708 -0.6170 -0.0963
  834SOL    HW1 3943   5.148   2.978  11.918 -0.1123 -0.6862  0.1556
  834SOL    HW2 3944   5.077   3.075  12.011 -0.2959 -1.1866  0.5412
  835SOL     OW 3945   7.865   2.361   0.265  0.1819 -0.2310  0.1718
  835SOL    HW1 3946   7.884   2.354   0.172  0.9287 -1.4656  0.4017
  835SOL    HW2 3947   7.771   2.344   0.272  0.3828 -1.6259 -0.2183
  836SOL     OW 3948   3.721   7.434  11.952  0.4648  0.2372  0.4271
  836SOL    HW1 3949   3.682   7.432  11.865  0.1776 -2.0382  0.5435
  836SOL    HW2 3950   3.807   7.392  11.941  1.3527  1.8697  0.8614
  837SOL     OW 3951   7.435   6.461   4.201  0.6461 -0.1652 -0.2740
  837SOL    HW1 3952   7.341   6.445   4.201  0.6130  0.0367 -0.0582
  837SOL    HW2 3953   7.473   6.379   4.167  0.3463  0.0638 -1.1914
  838SOL     OW 3954   6.801   6.964   6.139  0.1763  0.1755  0.0316
  838SOL    HW1 3955   6.786   7.053   6.172 -0.2219 -0.1230  0.6651
  838SOL    HW2 3956   6.854   6.922   6.207 -0.2350 -0.2914  0.0669
  839SOL     OW 3957   7.579   3.880   0.867  0.3227 -0.2425  0.5812
  839SOL    HW1 3958   7.614   3.790   0.865  1.9213  0.3231 -1.5575
  839SOL    HW2 3959   7.600   3.912   0.954  0.0512 -1.8215  1.2570
  840SOL     OW 3960   4.763   6.961   9.799 -0.1500  0.3490  0.1692
  840SOL    HW1 3961   4.679   6.945   9.841 -0.9202  1.2030 -0.9878
  840SOL    HW2 3962   4.788   7.049   9.828  0.5570 -0.0573  0.8294
  841SOL     OW 3963   5.416   1.051   3.283  0.1499 -0.2484  0.0899
  841SOL    HW1 3964   5.479   1.110   3.242 -1.2729  1.4483  0.1800
  841SOL    HW2 3965   5.331   1.094   3.269 -0.4772  0.5475  4.7618
  842SOL     OW 3966   5.241   7.275   8.415  0.2037  0.1463 -0.5487
  842SOL    HW1 3967   5.284   7.238   8.492 -0.1431  1.6965  0.4329
  842SOL    HW2 3968   5.256   7.370   8.423  0.0361  0.3434 -2.3198
  843SOL     OW 3969   1.137   3.805   9.828  0.0162  0.1481 -0.8458
  843SOL    HW1 3970   1.179   3.819   9.913 -0.0827 -1.6497 -0.4622
  843SOL    HW2 3971   1.186   3.861   9.768  1.9889 -0.7012 -0.1174
  844SOL     OW 3972   4.289   5.184  11.713 -0.2128  0.4736 -0.2012
  844SOL    HW1 3973   4.204   5.165  11.674 -0.5046  1.6341 -0.1642
  844SOL    HW2 3974   4.282   5.274  11.745  1.6101  1.2649 -1.8213
  845SOL     OW 3975   7.623   6.159  12.004  0.1478  0.5020  0.3466
  845SOL    HW1 3976   7.707   6.193  11.975 -0.0780  0.2676 -0.6172
  845SOL    HW2 3977   7.640   6.124  12.092  1.6074 -1.5443 -0.6611
  846SOL     OW 3978   4.736   6.130   3.076 -0.6787 -0.4120 -0.0755
  846SOL    HW1 3979   4.691   6.183   3.141 -0.0766 -0.5373  0.4498
  846SOL    HW2 3980   4.829   6.149   3.089 -0.5162 -0.8867 -0.5044
  847SOL     OW 3981   6.733   3.698   0.869 -0.8283  0.1866  0.2006
  847SOL    HW1 3982   6.792   3.703   0.943 -0.9095 -1.0370  0.3669
  847SOL    HW2 3983   6.671   3.769   0.882 -2.1021 -1.2345  2.4321
  848SOL     OW 3984   1.378   3.617   7.204 -0.2560  0.1093  0.3757
  848SOL    HW1 3985   1.438   3.557   7.249  0.2619  0.3236 -0.0188
  848SOL    HW2 3986   1.434   3.688   7.174 -0.8902  0.8779  0.9777
  849SOL     OW 3987   2.841   4.392   4.874  0.1112 -0.0347 -0.4763
  849SOL    HW1 3988   2.885   4.432   4.949  1.0740 -0.8976 -0.5511
  849SOL    HW2 3989   2.748   4.398   4.894  0.3185  0.5890  0.3494
  850SOL     OW 3990   1.839   6.685   7.471  0.1097  0.4319 -0.2795
  850SOL    HW1 3991   1.786   6.738   7.531  1.3350  0.7391  0.5803
  850SOL    HW2 3992   1.912   6.742   7.447  1.0779 -0.6057  0.1185
  851SOL     OW 3993   0.546   4.566   2.966 -0.5829 -0.0422  0.5377
  851SOL    HW1 3994   0.621   4.507   2.981  1.7824  2.8860  1.2685
  851SOL    HW2 3995   0.491   4.519   2.904  0.5454 -3.4327  1.8366
  852SOL     OW 3996   5.340   3.057   2.162  0.0478  0.4495  0.5551
  852SOL    HW1 3997   5.325   3.084   2.072 -0.1819 -1.3745  0.0034
  852SOL    HW2 3998   5.381   2.971   2.155  2.0537  1.1845  2.1805
  853SOL     OW 3999   2.140   0.526  12.462  0.1727  0.2829 -0.4331
  853SOL    HW1 4000   2.152   0.616  12.432  1.4437 -0.0028 -0.8950
  853SOL    HW2 4001   2.225   0.503  12.501 -0.3620 -0.4900  0.3014
  854SOL     OW 4002   7.725   4.551  10.322  0.5435 -0.0437 -0.2162
  854SOL    HW1 4003   7.744   4.518  10.234  1.6570 -0.0268  0.0042
  854SOL    HW2 4004   7.645   4.505  10.349  0.7457 -0.7736 -0.8445
  855SOL     OW 4005   3.261   0.894   0.670  0.1420 -0.8842 -0.1229
  855SOL    HW1 4006   3.340   0.842   0.686  0.1237 -0.7119  0.5992
  855SOL    HW2 4007   3.201   0.834   0.625 -0.4864 -2.0476  2.1044
  856SOL     OW 4008   2.313   2.373  12.271 -0.2215  0.1370 -0.3104
  856SOL    HW1 4009   2.271   2.459  12.279  0.0564  0.2506 -0.0595
  856SOL    HW2 4010   2.406   2.391  12.282 -0.2356 -0.3209  0.6357
  857SOL     OW 4011   5.208   3.930   0.563 -0.1770 -0.4941  0.0941
  857SOL    HW1 4012   5.113   3.936   0.559 -0.3950 -1.3169  2.3810
  857SOL    HW2 4013   5.225   3.875   0.640  2.1610  0.4257  0.3235
  858SOL     OW 4014   2.858   1.200   5.394  0.6262  0.0286  0.3586
  858SOL    HW1 4015   2.830   1.133   5.331  0.9725 -0.4720  0.7181
  858SOL    HW2 4016   2.783   1.212   5.451  0.6847 -0.3319  0.5165
  859SOL     OW 4017   1.632   5.426   5.655 -0.2520  0.1456  0.1201
  859SOL    HW1 4018   1.569   5.453   5.589 -1.5704 -1.8395  0.4635
  859SOL    HW2 4019   1.601   5.467   5.736 -0.4180  0.1411  0.0599
  860SOL     OW 4020   6.619   0.355   2.274 -0.9527 -0.3382 -0.0610
  860SOL    HW1 4021   6.598   0.264   2.297 -1.4099 -0.3867 -0.6495
  860SOL    HW2 4022   6.684   0.347   2.204  0.3540 -0.1908  1.0964
  861SOL     OW 4023   4.797   3.418   4.798  0.1160 -0.0287 -0.0673
  861SOL    HW1 4024   4.879   3.468   4.808  0.8771 -1.1796 -0.4345
  861SOL    HW2 4025   4.814   3.336   4.844 -1.1526  0.0485  0.5778
  862SOL     OW 4026   3.319   3.654   3.643 -0.0963  0.4121  0.1991
  862SOL    HW1 4027   3.397   3.619   3.686 -2.8749 -1.2451  4.6876
  862SOL    HW2 4028   3.313   3.744   3.673 -0.9130 -0.1186  1.7758
  863SOL     OW 4029   4.033   5.698   2.629  0.1461  0.1450 -0.4291
  863SOL    HW1 4030   4.036   5.711   2.723  1.5983 -0.4269 -0.3602
  863SOL    HW2 4031   3.940   5.700   2.607 -0.3351 -1.2944  1.2450
  864SOL     OW 4032   1.403   0.924   9.170  0.2089 -0.2170  0.4285
  864SOL    HW1 4033   1.329   0.947   9.227 -0.6673 -0.3452 -0.6081
  864SOL    HW2 4034   1.438   1.008   9.141 -1.2622 -0.0813 -1.1845
  865SOL     OW 4035   6.690   4.310   0.645  0.0994  0.2823 -0.8223
  865SOL    HW1 4036   6.747   4.387   0.639  0.4932  0.0604 -0.0960
  865SOL    HW2 4037   6.737   4.250   0.704 -0.8034  0.0286 -0.3396
  866SOL     OW 4038   7.169   0.487  10.582 -0.7057  0.3903 -0.6474
  866SOL    HW1 4039   7.105   0.417  10.599  0.6827 -0.7748  0.0082
  866SOL    HW2 4040   7.117   0.559  10.548 -2.3260 -0.6386 -0.4646
  867SOL     OW 4041   7.716   0.781   0.589  0.3555 -0.2834  0.3706
  867SOL    HW1 4042   7.706   0.836   0.511 -0.2794 -0.0620  0.5963
  867SOL    HW2 4043   7.686   0.837   0.661  0.6209 -0.6007  0.7294
  868SOL     OW 4044   4.221   2.768   3.043 -0.4027  0.0437  0.3791
  868SOL    HW1 4045   4.258   2.693   2.996 -0.8230 -1.1675  1.9163
  868SOL    HW2 4046   4.275   2.777   3.121 -0.5253  1.1804  0.3461
  869SOL     OW 4047   4.580   2.474   6.865  0.1608  0.2947 -0.1455
  869SOL    HW1 4048   4.637   2.414   6.913  0.2946  0.4181 -0.1498
  869SOL    HW2 4049   4.609   2.561   6.891 -0.5598  0.3575  0.4711
  870SOL     OW 4050   3.467   0.582   5.472 -0.3876 -0.0857  0.0696
  870SOL    HW1 4051   3.506   0.563   5.387  0.1013  1.0429  0.0405
  870SOL    HW2 4052   3.386   0.628   5.451 -1.0770 -1.1894  0.1824
  871SOL     OW 4053   5.928   4.743   7.551 -0.3789  0.5065 -0.3197
  871SOL    HW1 4054   5.833   4.732   7.541 -0.7037  1.8085  0.9376
  871SOL    HW2 4055   5.944   4.727   7.643  0.9573 -1.5544 -0.8614
  872SOL     OW 4056   3.286   1.457  10.169  0.1147 -0.1757 -0.1974
  872SOL    HW1 4057   3.225   1.493  10.104  2.3128 -1.3048 -3.1081
  872SOL    HW2 4058   3.296   1.527  10.234 -1.2829  1.5278 -1.7197
  873SOL     OW 4059   2.395   0.306  10.822 -0.3432  0.0651  0.5094
  873SOL    HW1 4060   2.488   0.285  10.824 -0.3630 -0.0616  0.1738
  873SOL    HW2 4061   2.361   0.259  10.745 -0.0644  2.6476 -1.3298
  874SOL     OW 4062   6.465   6.700   3.842 -0.2659 -0.2034 -0.3213
  874SOL    HW1 4063   6.516   6.654   3.909  0.7461  1.9677  0.5051
  874SOL    HW2 4064   6.374   6.694   3.873  0.3474  2.4720  2.5192
  875SOL     OW 4065   3.139   1.531   1.755  0.2548 -0.2351 -0.4554
  875SOL    HW1 4066   3.081   1.497   1.687  0.5124  0.2868 -0.9502
  875SOL    HW2 4067   3.080   1.562   1.824 -0.1310  1.0787 -1.3226
  876SOL     OW 4068   4.356   7.676   0.496  0.0216  0.7293 -0.1052
  876SOL    HW1 4069   4.443   7.714   0.508 -0.5337  1.5961  1.4715
  876SOL    HW2 4070   4.307   7.703   0.574 -0.6240 -2.7010  0.8384
  877SOL     OW 4071   4.245   5.703   1.991  0.5615  0.0120 -0.0892
  877SOL    HW1 4072   4.206   5.630   2.039  1.7067 -0.9013 -0.4845
  877SOL    HW2 4073   4.315   5.662   1.940  0.9222  1.3322 -0.6785
  878SOL     OW 4074   2.961   4.058   1.743 -0.1539  0.3113  0.1911
  878SOL    HW1 4075   3.045   4.050   1.699  0.1890 -1.5681  1.0805
  878SOL    HW2 4076   2.936   4.150   1.732  0.9625  0.4116 -1.9305
  879SOL     OW 4077   0.859   2.945   3.427 -0.2150 -0.2775 -0.4693
  879SOL    HW1 4078   0.849   3.023   3.373 -0.8491 -0.7480 -1.0466
  879SOL    HW2 4079   0.951   2.947   3.454  0.2037 -0.1726 -1.8041
  880SOL     OW 4080   7.381   4.529   7.508  0.5370 -0.3394  0.7177
  880SOL    HW1 4081   7.365   4.436   7.490  1.3113 -0.4264  0.4623
  880SOL    HW2 4082   7.360   4.573   7.425  0.5270 -0.3251  0.7278
  881SOL     OW 4083   5.990   4.176  12.471  0.1658 -0.1572  0.4174
  881SOL    HW1 4084   5.976   4.210  12.559  0.8474 -0.8368  0.7971
  881SOL    HW2 4085   5.904   4.147  12.442 -0.2009  0.7406  0.5574
  882SOL     OW 4086   3.419   7.721  12.283  0.1550 -0.1149  0.2783
  882SOL    HW1 4087   3.391   7.805  12.247 -1.6300 -1.2539 -1.1389
  882SOL    HW2 4088   3.486   7.689  12.222  0.6231  0.1220  0.6584
  883SOL     OW 4089   0.196   3.188   8.385 -0.0626 -0.2147  0.0169
  883SOL    HW1 4090   0.138   3.215   8.314 -0.0442 -1.3343 -0.4600
  883SOL    HW2 4091   0.151   3.114   8.426 -0.5470  1.0298  1.8565
  884SOL     OW 4092   5.684   2.027   7.086  0.3528 -0.5591 -0.1095
  884SOL    HW1 4093   5.684   2.040   6.991  0.4790 -0.7196 -0.1317
  884SOL    HW2 4094   5.776   2.028   7.110  0.3769 -1.5682 -0.1301
  885SOL     OW 4095   3.603   0.022  11.275  0.1037 -0.1872  0.0680
  885SOL    HW1 4096   3.693  -0.003  11.294 -0.5190 -0.2501  3.4978
  885SOL    HW2 4097   3.608   0.114  11.249  1.1197 -0.0674  0.6647
  886SOL     OW 4098   0.414   7.901   8.714  0.2604 -0.2312 -0.0215
  886SOL    HW1 4099   0.412   7.930   8.805 -0.1271 -1.0130  0.2341
  886SOL    HW2 4100   0.346   7.952   8.671 -0.5790 -0.8955  0.4769
  887SOL     OW 4101   1.762   1.364   3.274  0.4494 -0.1615 -0.4112
  887SOL    HW1 4102   1.807   1.447   3.287  1.5159 -0.8449  0.4806
  887SOL    HW2 4103   1.690   1.366   3.338  1.6732 -0.7273  1.0278
  888SOL     OW 4104   6.012   4.754   7.809 -0.1574 -0.0953  0.5616
  888SOL    HW1 4105   5.986   4.762   7.901  0.3386 -1.3813  0.8217
  888SOL    HW2 4106   6.078   4.823   7.797 -0.5015  0.3338  1.0552
  889SOL     OW 4107   5.507   3.710   1.541  0.0039 -0.5080 -0.0513
  889SOL    HW1 4108   5.412   3.697   1.546  0.0054 -0.4356  0.2167
  889SOL    HW2 4109   5.541   3.625   1.515 -0.2098 -0.2789 -1.1457
  890SOL     OW 4110   7.780   1.307  10.112 -0.0279  0.3228 -0.3953
  890SOL    HW1 4111   7.856   1.308  10.053 -1.5800 -0.5080 -2.5685
  890SOL    HW2 4112   7.744   1.218  10.103 -1.6506  0.9028 -0.0272
  891SOL     OW 4113   2.973   3.702   9.306 -0.0771  0.6238 -0.2188
  891SOL    HW1 4114   2.886   3.709   9.266 -0.7729 -0.2046  1.0776
  891SOL    HW2 4115   3.001   3.612   9.287  1.3852  1.4267 -2.2720
  892SOL     OW 4116   0.639   2.595   3.610 -0.0215 -0.3021  0.1630
  892SOL    HW1 4117   0.680   2.682   3.609  1.1730 -0.8418 -0.5863
  892SOL    HW2 4118   0.547   2.611   3.594  0.1473  0.8489  0.2781
  893SOL     OW 4119   5.953   3.784   3.738 -0.1779  0.2444  0.1904
  893SOL    HW1 4120   5.927   3.746   3.822  0.5877 -0.8612 -0.0416
  893SOL    HW2 4121   5.875   3.779   3.683 -0.4134  0.0924  0.5417
  894SOL     OW 4122   1.511   0.158   2.955  0.1642  0.0067 -0.0522
  894SOL    HW1 4123   1.483   0.077   2.999 -1.4916  0.7829  0.3750
  894SOL    HW2 4124   1.606   0.157   2.964  0.2303 -2.0495 -0.3348
  895SOL     OW 4125   2.954   0.657  11.232  0.1328  0.1112 -0.0426
  895SOL    HW1 4126   2.913   0.585  11.278 -0.9554  2.5796  3.2089
  895SOL    HW2 4127   2.933   0.642  11.140  0.9337 -4.1775  0.2464
  896SOL     OW 4128   2.518   7.790   0.710 -0.4027  0.2493 -0.2513
  896SOL    HW1 4129   2.545   7.745   0.790  0.4447  0.1026 -0.5999
  896SOL    HW2 4130   2.430   7.758   0.692  0.3582 -1.6783 -0.7622
  897SOL     OW 4131   2.903   2.338   0.858 -0.2300  0.0482  0.3388
  897SOL    HW1 4132   2.930   2.399   0.789 -2.4820  0.2889 -0.4230
  897SOL    HW2 4133   2.973   2.273   0.862  1.2819  1.5821 -0.2057
  898SOL     OW 4134   0.988   3.292   3.436  0.1545 -0.3710 -0.3517
  898SOL    HW1 4135   0.934   3.371   3.434  1.4945  0.5714 -0.6801
  898SOL    HW2 4136   0.974   3.256   3.523  1.7840  1.8971  0.9402
  899SOL     OW 4137   6.927   7.981   1.369  0.5696 -0.3740  0.4210
  899SOL    HW1 4138   6.905   7.892   1.343  0.3522  0.1312 -1.2116
  899SOL    HW2 4139   6.991   8.011   1.304  2.6915 -0.2075  2.4333
  900SOL     OW 4140   0.827   6.433   9.432  0.3550  0.2257 -0.8116
  900SOL    HW1 4141   0.752   6.407   9.485  0.2152 -1.5419 -1.8077
  900SOL    HW2 4142   0.791   6.497   9.369 -0.8705 -2.0779 -2.6112
  901SOL     OW 4143   6.097   4.104  12.060  0.4292 -0.1871  0.0566
  901SOL    HW1 4144   6.051   4.026  12.092  0.7879 -0.0359  0.9779
  901SOL    HW2 4145   6.071   4.112  11.968 -1.9440  0.2835  0.7011
  902SOL     OW 4146   7.791   3.399   4.417  0.2901 -0.0672 -0.5665
  902SOL    HW1 4147   7.853   3.332   4.391  1.5809  0.4582  0.9920
  902SOL    HW2 4148   7.826   3.480   4.380  1.9054  0.6126  2.2030
  903SOL     OW 4149   2.954   1.535   5.549 -0.1564 -0.3093  0.2360
  903SOL    HW1 4150   2.927   1.459   5.601 -2.4055 -0.1325 -0.5554
  903SOL    HW2 4151   3.049   1.541   5.562 -0.1556 -2.3030  1.5523
  904SOL     OW 4152   3.835   5.869  11.049 -0.0899  0.3096  0.2266
  904SOL    HW1 4153   3.778   5.899  11.121  1.7538  1.2197  1.3879
  904SOL    HW2 4154   3.844   5.946  10.993 -0.9180 -0.1849 -0.6117
  905SOL     OW 4155   6.994   3.597   7.594  0.2777  0.4536 -0.4361
  905SOL    HW1 4156   7.055   3.556   7.655  0.9986  0.8906 -0.8593
  905SOL    HW2 4157   6.908   3.584   7.634  0.3581 -2.2443 -0.9549
  906SOL     OW 4158   1.440   0.219   9.218 -0.1467 -0.4322 -0.3809
  906SOL    HW1 4159   1.503   0.237   9.288  0.7463  0.0285 -1.2766
  906SOL    HW2 4160   1.387   0.298   9.212 -0.9122 -0.8639  0.4518
  907SOL     OW 4161   7.603   0.167  10.078 -1.0666 -0.1069 -0.6958
  907SOL    HW1 4162   7.528   0.227  10.082  0.0775  1.3226  0.0795
  907SOL    HW2 4163   7.680   0.224  10.078  0.0464 -1.5488 -1.3068
  908SOL     OW 4164   3.113   0.829   9.134 -0.4112 -0.1588  0.1456
  908SOL    HW1 4165   3.054   0.905   9.132 -1.3776 -0.8524  1.0592
  908SOL    HW2 4166   3.056   0.755   9.154  1.0768 -0.5063  3.8353
  909SOL     OW 4167   0.680   2.673   5.269  0.3133  0.0293 -0.8050
  909SOL    HW1 4168   0.686   2.678   5.173  0.2574  1.7710 -0.7554
  909SOL    HW2 4169   0.759   2.716   5.300  1.2646 -2.1664 -0.0221
  910SOL     OW 4170   1.197   2.410   9.934  0.0757  0.3178 -0.0760
  910SOL    HW1 4171   1.287   2.409   9.968  0.5061 -0.1980 -1.1674
  910SOL    HW2 4172   1.161   2.493   9.964  0.1632 -0.3760  2.2296
  911SOL     OW 4173   3.179   3.732   0.596 -0.1435 -0.0328 -0.1137
  911SOL    HW1 4174   3.265   3.690   0.600  0.0447  0.4110  1.0088
  911SOL    HW2 4175   3.119   3.662   0.570  0.6453 -0.1751 -1.7009
  912SOL     OW 4176   1.017   4.597   2.521 -0.1257  0.2233 -0.4489
  912SOL    HW1 4177   1.051   4.663   2.581  1.5163 -0.0726 -1.0009
  912SOL    HW2 4178   1.021   4.639   2.435 -1.1985  0.1733 -0.5368
  913SOL     OW 4179   3.105   4.841   2.309  0.3767 -0.7939  0.3651
  913SOL    HW1 4180   3.119   4.761   2.259 -1.0471 -0.8945  0.0886
  913SOL    HW2 4181   3.125   4.912   2.248  0.1395 -0.9245  0.1362
  914SOL     OW 4182   2.754   3.852  12.417 -0.4953  0.0733 -0.0917
  914SOL    HW1 4183   2.763   3.833  12.323 -1.2152 -0.2932 -0.0941
  914SOL    HW2 4184   2.818   3.795  12.459 -0.1040  0.3055 -0.3633
  915SOL     OW 4185   6.304   0.947   0.318  0.4620 -0.2166 -0.0058
  915SOL    HW1 4186   6.319   0.953   0.412  0.0622 -0.6446  0.0894
  915SOL    HW2 4187   6.222   0.993   0.303 -0.1109 -1.1919  0.0409
  916SOL     OW 4188   5.513   5.230   5.072 -0.2788 -0.0923 -0.5567
  916SOL    HW1 4189   5.461   5.178   5.010  0.2708 -1.3378 -0.0182
  916SOL    HW2 4190   5.568   5.165   5.117  0.6215  1.0049 -0.0282
  917SOL     OW 4191   1.269   1.066   5.765  0.4710  0.6091 -0.0642
  917SOL    HW1 4192   1.237   0.982   5.798 -2.6678  1.7997  0.2269
  917SOL    HW2 4193   1.218   1.082   5.687  1.0295  2.2524 -0.1264
  918SOL     OW 4194   2.812   1.938   4.202 -0.4436  0.5560 -0.2424
  918SOL    HW1 4195   2.772   1.851   4.210 -0.6791  0.7808  1.5293
  918SOL    HW2 4196   2.791   1.966   4.113 -5.0920  0.9849  0.6937
  919SOL     OW 4197   2.508   2.963   5.765 -0.0010 -0.3508 -0.3023
  919SOL    HW1 4198   2.437   3.021   5.793  0.5024  1.0337 -1.7956
  919SOL    HW2 4199   2.581   2.985   5.823 -0.0104  0.0333 -0.4346
  920SOL     OW 4200   4.214   6.903  12.410 -0.2348  0.0429 -0.3445
  920SOL    HW1 4201   4.190   6.931  12.321 -0.1583 -0.8437 -0.6554
  920SOL    HW2 4202   4.138   6.853  12.441 -0.4600  0.7618  0.2848
  921SOL     OW 4203   4.557   6.507   8.631  0.3124  0.0169  0.7167
  921SOL    HW1 4204   4.493   6.444   8.665  0.3230 -0.3014  0.1551
  921SOL    HW2 4205   4.519   6.593   8.650 -1.3854 -0.1335 -1.5813
  922SOL     OW 4206   6.970   0.949  10.631  0.1114 -0.1150 -0.2562
  922SOL    HW1 4207   6.892   0.922  10.679  0.3885 -1.5478 -0.5769
  922SOL    HW2 4208   6.941   1.025  10.580 -0.7882  0.0060  0.4019
  923SOL     OW 4209   6.155   2.435   7.875 -0.3446 -0.2935  0.8094
  923SOL    HW1 4210   6.223   2.381   7.915  0.7634  0.4200 -0.0543
  923SOL    HW2 4211   6.073   2.391   7.897  0.4433 -1.5995  1.2256
  924SOL     OW 4212   1.737   1.235   7.525  0.6727  0.0551 -0.0030
  924SOL    HW1 4213   1.753   1.144   7.503 -0.1778  0.4357 -2.4358
  924SOL    HW2 4214   1.821   1.278   7.510  1.4909 -0.4670  2.5254
  925SOL     OW 4215   2.426   1.933   7.807  0.2682  0.1415  0.4955
  925SOL    HW1 4216   2.465   1.936   7.719 -0.6850 -1.0731 -0.0020
  925SOL    HW2 4217   2.501   1.938   7.866  0.8631  2.2343 -0.3293
  926SOL     OW 4218   3.159   3.056   9.903 -0.2181  0.4351 -0.1931
  926SOL    HW1 4219   3.239   3.041   9.852 -0.3968  0.8656 -0.6074
  926SOL    HW2 4220   3.186   3.117   9.972 -0.2807  0.9083 -0.5823
  927SOL     OW 4221   2.119   5.402   0.499 -0.5962  0.2504 -0.1478
  927SOL    HW1 4222   2.092   5.341   0.567  0.3188  0.0363  0.0286
  927SOL    HW2 4223   2.087   5.487   0.530 -2.4494 -0.1759 -0.7039
  928SOL     OW 4224   0.920   6.005   1.795  0.1211 -0.2961  0.3133
  928SOL    HW1 4225   0.983   6.054   1.742 -1.8151  0.8130 -1.0799
  928SOL    HW2 4226   0.839   6.056   1.789 -0.5007 -0.7425  3.4735
  929SOL     OW 4227   7.616   3.503   2.158 -0.0476  0.3485 -0.4959
  929SOL    HW1 4228   7.556   3.572   2.129 -0.1632 -0.3156 -1.9560
  929SOL    HW2 4229   7.579   3.423   2.121  0.4415 -0.4070  0.6274
  930SOL     OW 4230   6.241   0.356  10.700 -0.3392 -0.0592  0.5707
  930SOL    HW1 4231   6.222   0.388  10.789  0.7588 -0.6746  1.0546
  930SOL    HW2 4232   6.228   0.433  10.644  0.9581  0.9365  1.5346
  931SOL     OW 4233   2.570   0.011   1.873 -0.0097 -0.2386  0.5342
  931SOL    HW1 4234   2.497   0.062   1.839  2.3305  2.0149 -1.5506
  931SOL    HW2 4235   2.583  -0.058   1.808  1.8445  1.5655 -1.1714
  932SOL     OW 4236   2.754   0.373  12.350 -0.0468  0.2314 -0.5841
  932SOL    HW1 4237   2.809   0.449  12.371  0.0760  0.4207 -1.5576
  932SOL    HW2 4238   2.803   0.298  12.382  0.1765  0.5072 -0.2786
  933SOL     OW 4239   2.418   6.315  10.524 -0.0800 -0.3006  0.3860
  933SOL    HW1 4240   2.459   6.293  10.608 -0.6796 -0.3723  0.6632
  933SOL    HW2 4241   2.437   6.240  10.468  0.5138 -0.1548  0.3866
  934SOL     OW 4242   2.103   2.468  10.306 -0.0366  0.4430 -0.0232
  934SOL    HW1 4243   2.087   2.466  10.212 -0.7748  1.4582  0.0657
  934SOL    HW2 4244   2.149   2.551  10.321  2.4125 -0.8701  0.1915
  935SOL     OW 4245   3.224   7.654   7.106 -0.3775  0.4685 -0.5793
  935SOL    HW1 4246   3.212   7.739   7.064 -1.3529 -0.2510 -1.8371
  935SOL    HW2 4247   3.291   7.669   7.172 -0.5449  2.2135 -0.7562
  936SOL     OW 4248   3.827   7.419   0.293  0.4126 -0.0381 -0.7554
  936SOL    HW1 4249   3.797   7.365   0.366  0.2592 -0.6486 -1.2619
  936SOL    HW2 4250   3.902   7.468   0.329  0.6640 -0.7160 -0.3393
  937SOL     OW 4251   4.221   2.481   0.845  0.2903 -0.7101 -0.0470
  937SOL    HW1 4252   4.311   2.453   0.832 -0.0599 -1.1137 -1.8727
  937SOL    HW2 4253   4.211   2.558   0.790 -0.7373 -1.2518 -0.6576
  938SOL     OW 4254   1.349   2.688   7.174 -0.0826 -0.4535 -0.2825
  938SOL    HW1 4255   1.363   2.596   7.154 -0.1485 -0.3118 -1.0443
  938SOL    HW2 4256   1.436   2.727   7.172 -0.0056 -0.5837  0.5034
  939SOL     OW 4257   0.154   0.513   9.453 -0.0249 -0.0911 -0.0493
  939SOL    HW1 4258   0.109   0.596   9.468 -0.7294 -0.6547  1.0399
  939SOL    HW2 4259   0.146   0.498   9.359 -1.7319  0.0411  0.0542
  940SOL     OW 4260   3.922   3.219   9.173 -0.1902 -0.0672  0.5420
  940SOL    HW1 4261   3.841   3.250   9.212 -1.2980 -0.0491 -1.6244
  940SOL    HW2 4262   3.987   3.286   9.196 -1.0791  0.5781  1.2340
  941SOL     OW 4263   7.202   4.404  12.268  0.0373 -0.0351  0.3741
  941SOL    HW1 4264   7.166   4.350  12.338 -1.4740  0.1221 -0.2476
  941SOL    HW2 4265   7.151   4.380  12.191  0.2621  1.2989 -0.2150
  942SOL     OW 4266   0.945   1.859  11.847  0.8178  0.2295 -0.1173
  942SOL    HW1 4267   0.898   1.941  11.830 -0.2137  0.0386  1.5856
  942SOL    HW2 4268   0.876   1.794  11.860  1.6086 -0.5957  0.0516
  943SOL     OW 4269   6.859   0.241   2.515 -0.1561  0.7956 -0.2081
  943SOL    HW1 4270   6.812   0.204   2.440  1.3839 -1.2108 -0.2845
  943SOL    HW2 4271   6.803   0.224   2.590 -0.2772 -0.1174 -0.4950
  944SOL     OW 4272   3.101   4.839   3.513 -0.1327 -0.5497 -0.3799
  944SOL    HW1 4273   3.115   4.760   3.462  1.6695  0.6421 -1.8546
  944SOL    HW2 4274   3.068   4.808   3.597 -0.6578 -2.7542 -1.3395
  945SOL     OW 4275   6.246   4.745   2.030  0.0737 -0.0176  0.6558
  945SOL    HW1 4276   6.243   4.835   1.997  1.7005 -0.1418  0.0875
  945SOL    HW2 4277   6.159   4.730   2.068 -1.8761  0.2282 -3.2401
  946SOL     OW 4278   1.281   4.133   8.615 -0.4673 -0.4971 -0.0435
  946SOL    HW1 4279   1.262   4.225   8.598  0.0067  0.1917  2.6237
  946SOL    HW2 4280   1.196   4.089   8.609 -1.2823  0.7137  1.7183
  947SOL     OW 4281   7.112   0.196  10.162 -0.2371  0.4877 -0.2231
  947SOL    HW1 4282   7.036   0.254  10.155  0.0040  1.1394  1.8968
  947SOL    HW2 4283   7.088   0.135  10.231  1.3103  0.9543  0.7590
  948SOL     OW 4284   2.053   1.882   8.875 -0.0991  0.0881 -0.0358
  948SOL    HW1 4285   2.080   1.903   8.964 -1.1525  0.3315  0.2396
  948SOL    HW2 4286   1.960   1.862   8.882  0.2131 -1.8086 -0.7858
  949SOL     OW 4287   1.195   4.422   8.582  0.0005  0.2112  0.1068
  949SOL    HW1 4288   1.268   4.478   8.609  1.1082 -0.7974 -0.7398
  949SOL    HW2 4289   1.152   4.398   8.664  1.9500 -0.9721  0.8401
  950SOL     OW 4290   3.567   0.371   0.800  0.6038  0.2913 -0.0154
  950SOL    HW1 4291   3.545   0.322   0.722  0.3869 -1.2294  0.9586
  950SOL    HW2 4292   3.650   0.414   0.779  0.7768 -0.4663 -0.9120
  951SOL     OW 4293   1.154   0.427   7.173  0.0398 -0.3943 -0.5821
  951SOL    HW1 4294   1.131   0.357   7.111 -0.0604  0.5441 -1.6412
  951SOL    HW2 4295   1.249   0.418   7.184 -0.2226 -1.8801  0.8078
  952SOL     OW 4296   0.646   1.336   2.411 -0.2614 -0.7404 -0.0499
  952SOL    HW1 4297   0.692   1.404   2.462  0.2339 -0.3781 -0.9506
  952SOL    HW2 4298   0.653   1.257   2.465  0.1405 -0.3390  0.5031
  953SOL     OW 4299   3.902   5.928   4.329 -0.0870  0.1834 -0.0537
  953SOL    HW1 4300   3.889   5.991   4.399 -0.0325  0.7291 -0.5307
  953SOL    HW2 4301   3.919   5.981   4.251  1.8242 -0.4427 -0.1079
  954SOL     OW 4302   7.560   3.903   6.099  0.8981 -0.4030 -0.0241
  954SOL    HW1 4303   7.644   3.945   6.119  0.5699 -0.3843  1.4238
  954SOL    HW2 4304   7.585   3.820   6.057  1.5529  1.0355 -2.7042
  955SOL     OW 4305   5.517   6.572   0.498  0.2664  0.1500 -0.0515
  955SOL    HW1 4306   5.434   6.549   0.540  0.3319  0.6695  0.3721
  955SOL    HW2 4307   5.565   6.490   0.492  0.6352  0.2118  1.7394
  956SOL     OW 4308   0.185   5.141   2.947  0.2747 -0.7947  0.1308
  956SOL    HW1 4309   0.106   5.139   2.893  0.8925  1.1243 -0.9376
  956SOL    HW2 4310   0.154   5.168   3.033 -0.3163 -0.5948 -0.1370
  957SOL     OW 4311   2.389   1.213  10.914  0.4758  0.1129  0.2361
  957SOL    HW1 4312   2.455   1.282  10.905 -0.5631  1.2979  1.3929
  957SOL    HW2 4313   2.396   1.184  11.005 -0.8152  0.4828  0.4636
  958SOL     OW 4314   7.867   2.557   1.733 -0.2767 -0.2586  0.3105
  958SOL    HW1 4315   7.812   2.599   1.667 -0.3049 -0.4830  0.1875
  958SOL    HW2 4316   7.914   2.488   1.685 -1.3825 -1.3911  0.7972
  959SOL     OW 4317   2.249   5.419   8.932 -0.2385 -0.2173 -0.1818
  959SOL    HW1 4318   2.285   5.498   8.892 -0.5311 -0.3591 -0.7328
  959SOL    HW2 4319   2.242   5.440   9.025  0.2884  0.1769 -0.2257
  960SOL     OW 4320   4.262   1.193   2.850 -0.0188  0.2362  0.0759
  960SOL    HW1 4321   4.270   1.285   2.827  1.3601 -0.3486 -2.1379
  960SOL    HW2 4322   4.202   1.157   2.785  1.2838 -0.8348 -0.5952
  961SOL     OW 4323   0.779   0.676   4.317  0.6839 -0.2301  0.4685
  961SOL    HW1 4324   0.836   0.600   4.309  0.3143 -0.3507 -1.3649
  961SOL    HW2 4325   0.692   0.644   4.293  0.5930  0.8390 -0.7429
  962SOL     OW 4326   7.108   5.254  11.009  0.0382 -0.4708  0.4832
  962SOL    HW1 4327   7.070   5.222  11.090 -1.9090 -0.0385 -0.2070
  962SOL    HW2 4328   7.035   5.255  10.947  0.9071  1.5126 -0.6008
  963SOL     OW 4329   5.558   0.328  11.738 -0.0728  0.3051  0.3372
  963SOL    HW1 4330   5.579   0.237  11.758  0.6415  0.1840 -0.8242
  963SOL    HW2 4331   5.631   0.358  11.682 -1.7414  0.6496 -1.8064
  964SOL     OW 4332   7.481   3.040   8.479 -0.3329  0.2698  0.0492
  964SOL    HW1 4333   7.515   3.011   8.564 -0.5822 -1.2440 -0.3336
  964SOL    HW2 4334   7.391   3.010   8.477 -0.4251  0.5649 -0.6318
  965SOL     OW 4335   4.972   5.200  11.785  0.2630 -0.7166 -0.2983
  965SOL    HW1 4336   4.902   5.155  11.833 -0.1385 -0.9202 -1.0522
  965SOL    HW2 4337   5.015   5.254  11.851 -1.3239  0.2882 -0.0282
  966SOL     OW 4338   1.126   5.238   4.308 -0.0848 -0.4057 -0.0171
  966SOL    HW1 4339   1.045   5.201   4.273 -0.0629 -0.6818  0.2263
  966SOL    HW2 4340   1.192   5.220   4.242 -0.1509 -0.4741 -0.0641
  967SOL     OW 4341   7.210   6.005  10.372  0.4069  0.5668 -0.0019
  967SOL    HW1 4342   7.272   6.074  10.396  0.0080  1.1292 -0.5786
  967SOL    HW2 4343   7.125   6.049  10.369 -0.0543 -0.2226  0.9158
  968SOL     OW 4344   7.715   6.606  11.067  0.6463 -0.4588 -0.2862
  968SOL    HW1 4345   7.740   6.682  11.014  2.5295 -1.6178 -1.1373
  968SOL    HW2 4346   7.678   6.544  11.004 -2.9189  0.4502  0.6703
  969SOL     OW 4347   7.101   1.472   6.609 -0.2290  0.1981 -0.5286
  969SOL    HW1 4348   7.012   1.443   6.630 -0.5709  0.4989 -1.5016
  969SOL    HW2 4349   7.132   1.515   6.689 -0.3659 -1.2661  0.3453
  970SOL     OW 4350   2.794   7.818  11.323 -0.6701 -0.1805 -0.1243
  970SOL    HW1 4351   2.854   7.761  11.371 -1.6127 -0.2935  0.9690
  970SOL    HW2 4352   2.758   7.763  11.254 -0.3194 -0.4141 -0.1236
  971SOL     OW 4353   6.836   4.565   5.698  0.0897 -0.4081 -0.0634
  971SOL    HW1 4354   6.879   4.519   5.771  1.0048 -0.1546 -0.4197
  971SOL    HW2 4355   6.904   4.623   5.663 -1.4724  2.5880  1.4698
  972SOL     OW 4356   3.816   2.617  10.430  0.2332  0.0041  0.0304
  972SOL    HW1 4357   3.720   2.619  10.439  0.3250 -0.3207  1.4064
  972SOL    HW2 4358   3.832   2.627  10.336 -1.1544 -0.0914 -0.2390
  973SOL     OW 4359   7.822   2.466  11.272 -0.3159  0.1124 -0.1116
  973SOL    HW1 4360   7.819   2.423  11.186 -0.9773 -0.8525  0.3673
  973SOL    HW2 4361   7.730   2.485  11.292 -0.0832  1.2354 -0.0405
  974SOL     OW 4362   2.521   3.014   2.500 -0.2581 -0.4585 -0.7868
  974SOL    HW1 4363   2.606   3.046   2.470 -0.8089 -0.4915 -2.4790
  974SOL    HW2 4364   2.518   2.923   2.471 -0.9522 -0.3924 -0.9354
  975SOL     OW 4365   5.739   2.730   4.660  0.4112 -0.1162 -0.2828
  975SOL    HW1 4366   5.672   2.762   4.722 -0.7957 -1.8247 -0.6268
  975SOL    HW2 4367   5.704   2.753   4.574  1.2225  0.6846 -0.4022
  976SOL     OW 4368   1.500   0.948  10.592 -0.7741 -0.2641 -0.1522
  976SOL    HW1 4369   1.436   0.880  10.615 -1.1381  0.1737  0.1742
  976SOL    HW2 4370   1.584   0.911  10.617 -1.0104 -0.4332  0.4223
  977SOL     OW 4371   7.937   4.535   2.816  0.0521  0.3520 -0.1092
  977SOL    HW1 4372   7.978   4.619   2.793  1.1809  0.1331  0.9448
  977SOL    HW2 4373   8.009   4.472   2.811 -0.3563 -0.2160  0.8732
  978SOL     OW 4374   5.781   4.738   0.942  0.3535  0.0922  0.5415
  978SOL    HW1 4375   5.750   4.797   1.011  0.3279 -0.1659  0.7538
  978SOL    HW2 4376   5.757   4.651   0.973 -2.1354  0.1220 -1.0398
  979SOL     OW 4377   5.270   3.062   2.603  0.2919 -0.1250 -0.2803
  979SOL    HW1 4378   5.269   3.030   2.693  1.0737 -0.8579 -0.5202
  979SOL    HW2 4379   5.352   3.111   2.597  0.3880 -0.3355 -0.6776
  980SOL     OW 4380   0.584   3.509   7.790  0.1868 -0.3143 -0.2152
  980SOL    HW1 4381   0.659   3.563   7.814  0.1245  0.0567 -0.8175
  980SOL    HW2 4382   0.550   3.550   7.710  0.8540 -1.9032 -1.3748
  981SOL     OW 4383   3.092   4.896   4.817 -0.0683  0.0997  0.0924
  981SOL    HW1 4384   3.063   4.954   4.746  1.3069 -0.6878 -1.1746
  981SOL    HW2 4385   3.027   4.908   4.886 -0.1885  2.6628 -0.3625
  982SOL     OW 4386   6.319   0.069  10.289  0.1305 -0.0194 -0.0013
  982SOL    HW1 4387   6.390   0.044  10.230  0.7259 -2.7268  1.7043
  982SOL    HW2 4388   6.275  -0.013  10.311 -2.1785  1.3074  0.7459
  983SOL     OW 4389   7.276   5.774   6.315 -0.5353 -0.2120  0.0081
  983SOL    HW1 4390   7.233   5.845   6.268 -1.8506 -1.7105 -1.2034
  983SOL    HW2 4391   7.368   5.799   6.319 -0.9736  1.5779 -0.2748
  984SOL     OW 4392   0.300   1.814   2.143  0.5964 -0.1413 -0.2007
  984SOL    HW1 4393   0.242   1.740   2.128  0.3107 -0.0005  0.1755
  984SOL    HW2 4394   0.386   1.775   2.155  0.2203 -0.5461  1.4147
  985SOL     OW 4395   2.362   0.943   9.917 -0.1726  1.1353  0.3104
  985SOL    HW1 4396   2.313   1.024   9.929 -0.4993  0.9492  0.2411
  985SOL    HW2 4397   2.427   0.964   9.849  0.0372  1.4636  0.6075
  986SOL     OW 4398   7.391   0.517   8.736 -0.4821  0.1606  0.1850
  986SOL    HW1 4399   7.303   0.546   8.762 -0.0616 -0.4381  2.4837
  986SOL    HW2 4400   7.391   0.423   8.752  0.8708  0.3009  1.2068
  987SOL     OW 4401   0.284   5.502   1.891 -0.6082  0.2352  0.0345
  987SOL    HW1 4402   0.337   5.575   1.925 -0.1722 -0.4349  0.8350
  987SOL    HW2 4403   0.316   5.426   1.939 -0.8794 -0.5302 -0.9844
  988SOL     OW 4404   2.789   6.095   5.097 -0.0369 -0.3540  0.5969
  988SOL    HW1 4405   2.884   6.085   5.102 -0.0079  0.3084  1.6284
  988SOL    HW2 4406   2.767   6.154   5.169 -1.0722  0.6910 -0.5437
  989SOL     OW 4407   4.353   7.101   7.046  0.0665  0.1555 -0.0798
  989SOL    HW1 4408   4.376   7.100   7.139  2.7953  0.8096 -0.6644
  989SOL    HW2 4409   4.347   7.193   7.023  0.0374  0.0068 -0.6857
  990SOL     OW 4410   6.046   1.807   7.900 -0.1696 -0.7473 -0.5962
  990SOL    HW1 4411   6.006   1.807   7.986 -1.0569  3.7456 -0.7763
  990SOL    HW2 4412   6.131   1.765   7.913 -0.6135 -0.9622  2.2234
  991SOL     OW 4413   1.294   7.354   6.708  0.1539  0.1771 -0.1193
  991SOL    HW1 4414   1.354   7.420   6.742 -0.0584 -0.7414  2.2312
  991SOL    HW2 4415   1.213   7.402   6.690 -0.0921  0.5459  1.8236
  992SOL     OW 4416   1.119   0.693   2.142 -0.1104 -0.4829 -0.4758
  992SOL    HW1 4417   1.051   0.754   2.111 -0.2186  0.1654  0.9852
  992SOL    HW2 4418   1.151   0.732   2.223 -1.3129 -3.1732  1.4264
  993SOL     OW 4419   7.769   2.293   6.768  0.2169 -0.2614 -0.1918
  993SOL    HW1 4420   7.726   2.208   6.772 -0.3792  0.0749  1.9624
  993SOL    HW2 4421   7.724   2.346   6.834  1.4408  1.3116 -0.5504
  994SOL     OW 4422   3.134   1.908   9.008  0.1593 -0.5753 -0.4945
  994SOL    HW1 4423   3.109   1.853   8.934 -2.9336 -0.5382  0.4116
  994SOL    HW2 4424   3.131   1.997   8.973 -3.5823 -0.3361  0.0474
  995SOL     OW 4425   3.641   6.344  11.946  0.2086 -0.6748  0.1832
  995SOL    HW1 4426   3.550   6.366  11.964 -0.0289 -0.9467 -0.6531
  995SOL    HW2 4427   3.655   6.369  11.855  0.7499 -1.3337  0.0768
  996SOL     OW 4428   4.015   0.521   2.549 -0.0639  0.1751 -0.2096
  996SOL    HW1 4429   3.929   0.497   2.515  0.0119 -1.4942  0.6767
  996SOL    HW2 4430   4.025   0.614   2.527 -2.2520  0.5050  0.0202
  997SOL     OW 4431   4.437   4.590  12.408  0.6291  0.1672 -0.3252
  997SOL    HW1 4432   4.518   4.540  12.414  0.9166  0.6072 -0.5251
  997SOL    HW2 4433   4.375   4.531  12.365  0.8589 -0.1508 -0.2180
  998SOL     OW 4434   4.561   6.358   9.954  0.7046 -0.2702 -0.1419
  998SOL    HW1 4435   4.467   6.354   9.970  0.9766  0.2236  1.7904
  998SOL    HW2 4436   4.571   6.428   9.890 -0.3004 -0.9782 -1.1138
  999SOL     OW 4437   6.347   6.649   7.223 -0.0964  0.3733 -0.8095
  999SOL    HW1 4438   6.333   6.666   7.130  0.3511 -0.4310 -1.0362
  999SOL    HW2 4439   6.260   6.654   7.262 -0.1121  2.2522 -0.9872
 1000SOL     OW 4440   6.218   1.480   5.642 -0.0350 -0.2621  0.4246
 1000SOL    HW1 4441   6.283   1.496   5.710  1.5981 -1.0924 -0.8681
 1000SOL    HW2 4442   6.203   1.565   5.602  1.8185 -0.3548 -0.5648
 1001SOL     OW 4443   1.382   7.933   2.584  0.3566 -0.0198 -0.3389
 1001SOL    HW1 4444   1.473   7.906   2.576  0.1671 -0.2708 -1.9560
 1001SOL    HW2 4445   1.386   8.024   2.614  1.0614 -0.7055  1.8010
 1002SOL     OW 4446   0.271   7.073  11.797 -0.6106  0.3850  0.4006
 1002SOL    HW1 4447   0.229   6.997  11.756  1.8345 -0.1899 -1.2721
 1002SOL    HW2 4448   0.299   7.042  11.883 -0.3180 -0.3998  0.0332
 1003SOL     OW 4449   6.083   4.908   9.619  0.1368 -0.3566  0.3455
 1003SOL    HW1 4450   6.163   4.892   9.668 -0.4376 -0.3422  1.3105
 1003SOL    HW2 4451   6.049   4.990   9.654  0.5268  0.4994 -1.1867
 1004SOL     OW 4452   1.934   5.094   8.694 -0.3878  0.1279  0.3827
 1004SOL    HW1 4453   1.939   5.084   8.599  1.5028  0.9698  0.3338
 1004SOL    HW2 4454   1.994   5.027   8.728  1.6135  1.9835  0.7395
 1005SOL     OW 4455   0.710   1.130   1.978  0.6922 -0.1498  0.4030
 1005SOL    HW1 4456   0.740   1.044   2.006  1.6580  0.5715  1.6984
 1005SOL    HW2 4457   0.750   1.142   1.892 -0.6972 -1.5870 -0.5032
 1006SOL     OW 4458   2.786   7.770   1.437 -0.5127 -0.4001  0.3721
 1006SOL    HW1 4459   2.860   7.762   1.376 -1.6083 -2.1513 -0.8388
 1006SOL    HW2 4460   2.711   7.736   1.388 -1.8648  0.0781  2.0144
 1007SOL     OW 4461   2.070   3.346  12.145 -0.1084  0.2398  0.5460
 1007SOL    HW1 4462   2.155   3.337  12.187  0.0644  0.8426  0.3416
 1007SOL    HW2 4463   2.090   3.375  12.056 -0.3961 -2.2323 -0.3940
 1008SOL     OW 4464   1.649   3.329  11.166 -0.0229 -0.0117  0.4194
 1008SOL    HW1 4465   1.668   3.256  11.107 -0.5070  1.0688 -1.1315
 1008SOL    HW2 4466   1.711   3.397  11.140 -0.7662  0.7560  0.6470
 1009SOL     OW 4467   6.720   3.188   4.494  0.1142 -0.2664  0.3008
 1009SOL    HW1 4468   6.776   3.256   4.457 -0.9930  0.7781  0.4833
 1009SOL    HW2 4469   6.771   3.152   4.566  1.1969 -0.4707 -0.5316
 1010SOL     OW 4470   4.619   7.298   8.444  0.6012  0.6267  0.0641
 1010SOL    HW1 4471   4.623   7.239   8.368  1.1914  0.9616 -0.1734
 1010SOL    HW2 4472   4.710   7.316   8.465  0.4661  0.0575  1.2459
 1011SOL     OW 4473   4.070   6.093   0.166 -0.2204 -0.1341  0.0672
 1011SOL    HW1 4474   4.020   6.175   0.168  0.4123  0.2535  0.2271
 1011SOL    HW2 4475   4.110   6.087   0.253 -2.4590 -2.0151  1.0789
 1012SOL     OW 4476   3.613   1.417   1.988  0.0234  0.1614 -0.0171
 1012SOL    HW1 4477   3.572   1.481   1.929 -1.3243 -0.7257 -0.0971
 1012SOL    HW2 4478   3.655   1.470   2.055 -0.3607  1.1506 -0.5355
 1013SOL     OW 4479   6.724   4.866   4.131  0.1295 -0.3330 -0.0308
 1013SOL    HW1 4480   6.647   4.827   4.090  0.1316  0.5336 -0.8823
 1013SOL    HW2 4481   6.722   4.833   4.221 -1.1347 -0.4503 -0.0866
 1014SOL     OW 4482   5.516   6.692   4.419 -0.5949  0.4601 -0.1757
 1014SOL    HW1 4483   5.516   6.752   4.493 -0.6801 -1.5888  1.5635
 1014SOL    HW2 4484   5.426   6.691   4.388 -1.2756 -1.0163  1.7312
 1015SOL     OW 4485   3.565   7.581  12.114 -0.0756  0.5951  0.7180
 1015SOL    HW1 4486   3.622   7.510  12.085 -1.6274 -0.9463  1.2622
 1015SOL    HW2 4487   3.566   7.643  12.041 -1.4985 -1.7296 -1.4750
 1016SOL     OW 4488   3.209   1.304   0.348  0.5543 -0.9669  0.1515
 1016SOL    HW1 4489   3.223   1.372   0.283 -0.1299 -2.2333 -1.3827
 1016SOL    HW2 4490   3.291   1.301   0.398  0.7223  0.6978  0.0380
 1017SOL     OW 4491   5.999   3.822   4.855 -0.3902 -0.1486  0.0325
 1017SOL    HW1 4492   6.023   3.753   4.917  1.1355  0.8583  0.6239
 1017SOL    HW2 4493   6.001   3.902   4.907 -0.0161  0.5989 -1.1014
 1018SOL     OW 4494   7.176   7.901   7.587  0.2215 -0.1673  0.3251
 1018SOL    HW1 4495   7.247   7.842   7.562 -0.2507 -0.8843  0.6601
 1018SOL    HW2 4496   7.119   7.849   7.643 -1.7072 -0.2931 -1.6109
 1019SOL     OW 4497   7.046   1.529  11.114  0.1222  0.0765 -0.6552
 1019SOL    HW1 4498   7.080   1.440  11.103  0.9510  0.2159  0.5116
 1019SOL    HW2 4499   6.971   1.519  11.172 -0.8489 -0.0374 -1.8945
 1020SOL     OW 4500   2.423   1.317   8.581  0.4593  0.0233  0.3665
 1020SOL    HW1 4501   2.413   1.244   8.520  1.4879  0.0609  0.1401
 1020SOL    HW2 4502   2.463   1.386   8.529 -0.0055  0.5675  0.7235
 1021SOL     OW 4503   3.789   0.180   3.033  0.8034 -0.5141  0.1775
 1021SOL    HW1 4504   3.874   0.223   3.042  1.0076 -1.0195  0.7292
 1021SOL    HW2 4505   3.777   0.133   3.116 -0.0268 -0.4256  0.1146
 1022SOL     OW 4506   0.328   0.610   6.983 -0.0484  0.3602  0.3538
 1022SOL    HW1 4507   0.397   0.554   7.020  0.0850 -0.8801 -1.6081
 1022SOL    HW2 4508   0.376   0.678   6.935 -0.2067  0.7339  0.7230
 1023SOL     OW 4509   0.582   2.216   3.605 -0.7647  0.7175  0.2927
 1023SOL    HW1 4510   0.595   2.307   3.580 -3.2887  0.5288 -2.1428
 1023SOL    HW2 4511   0.521   2.181   3.540 -1.0431 -2.3257  1.9829
 1024SOL     OW 4512   4.037   4.562   3.035 -0.6944  0.3603 -0.3148
 1024SOL    HW1 4513   4.063   4.638   3.087  2.6153  0.5923 -2.0070
 1024SOL    HW2 4514   4.072   4.486   3.083  1.5001  0.5055 -1.5162
 1025SOL     OW 4515   1.685   5.489   0.209  0.4654 -0.4642 -0.6033
 1025SOL    HW1 4516   1.667   5.575   0.172  0.6679 -0.7848 -1.4724
 1025SOL    HW2 4517   1.726   5.508   0.294  0.4718  0.2923 -0.7663
 1026SOL     OW 4518   0.000   6.933   8.591 -0.5163 -0.2171  0.0211
 1026SOL    HW1 4519  -0.002   6.989   8.513  0.0340  0.5719  0.5537
 1026SOL    HW2 4520  -0.055   6.979   8.655  0.0636 -0.1868  0.5151
 1027SOL     OW 4521   2.823   4.682   5.873  0.6654  0.1387 -0.2590
 1027SOL    HW1 4522   2.901   4.729   5.904  0.6960  0.2320 -0.4800
 1027SOL    HW2 4523   2.844   4.658   5.783 -0.0557  1.2168 -0.7217
 1028SOL     OW 4524   6.852   6.564   3.874 -0.2662  0.4299  0.3429
 1028SOL    HW1 4525   6.810   6.641   3.912  2.1523  0.7733  2.5362
 1028SOL    HW2 4526   6.933   6.597   3.835 -0.0030 -0.7809 -0.1763
 1029SOL     OW 4527   4.226   0.332   9.460  0.3212 -0.3254 -0.2250
 1029SOL    HW1 4528   4.264   0.346   9.374 -0.0205  1.0258 -0.1806
 1029SOL    HW2 4529   4.134   0.309   9.443  0.2506 -0.0463 -0.2231
 1030SOL     OW 4530   5.862   4.164   1.751 -0.0313 -0.4520 -0.5195
 1030SOL    HW1 4531   5.788   4.214   1.787 -0.8488 -2.1317  0.2357
 1030SOL    HW2 4532   5.868   4.087   1.807  1.6168 -0.8957 -1.2580
 1031SOL     OW 4533   7.129   7.147   5.740 -0.2178  0.3144 -0.3252
 1031SOL    HW1 4534   7.169   7.219   5.788 -0.4418  0.2963 -0.1086
 1031SOL    HW2 4535   7.043   7.181   5.714  0.6122  1.0185 -2.3583
 1032SOL     OW 4536   4.046   4.286  10.735  0.6815  0.1809 -0.0235
 1032SOL    HW1 4537   3.951   4.283  10.744  0.7923  0.8023  1.6631
 1032SOL    HW2 4538   4.061   4.336  10.654 -0.4438  2.6911  1.1873
 1033SOL     OW 4539   4.663   1.906  12.447 -0.0008  0.5799 -0.4548
 1033SOL    HW1 4540   4.589   1.889  12.389 -0.4741  0.3381  0.2050
 1033SOL    HW2 4541   4.634   1.875  12.533  0.6493  1.0160 -0.0672
 1034SOL     OW 4542   0.212   5.014  10.390 -0.0702 -0.1083  0.0249
 1034SOL    HW1 4543   0.144   4.956  10.356  1.6494 -2.4429  0.2972
 1034SOL    HW2 4544   0.236   4.975  10.474  1.0389  1.1507  0.3200
 1035SOL     OW 4545   7.738   7.950   8.222 -0.2839  0.0018 -0.0111
 1035SOL    HW1 4546   7.825   7.971   8.186 -0.0667 -0.4254  0.2591
 1035SOL    HW2 4547   7.714   7.867   8.179  0.2520 -0.8505  1.2797
 1036SOL     OW 4548   7.544   6.175   9.846  0.5794 -0.3120  0.1367
 1036SOL    HW1 4549   7.518   6.237   9.914 -2.2252 -1.3103  0.1405
 1036SOL    HW2 4550   7.604   6.115   9.890  0.2293  0.1146  1.2319
 1037SOL     OW 4551   7.365   4.615  12.415 -0.1636 -0.3074 -0.0194
 1037SOL    HW1 4552   7.317   4.538  12.383 -0.8793 -0.1539  0.6632
 1037SOL    HW2 4553   7.308   4.689  12.393  0.4470  0.0293 -0.5243
 1038SOL     OW 4554   2.183   4.133  10.378  0.3539 -0.4031  0.0346
 1038SOL    HW1 4555   2.219   4.157  10.292 -0.3848 -2.2187 -0.8287
 1038SOL    HW2 4556   2.088   4.141  10.367  0.2772  0.1051  0.9510
 1039SOL     OW 4557   3.979   7.874   8.303  0.2372  0.3710 -0.5718
 1039SOL    HW1 4558   3.958   7.966   8.322 -0.7782  0.1243 -0.4269
 1039SOL    HW2 4559   4.009   7.875   8.212 -0.8664  0.7085 -0.9585
 1040SOL     OW 4560   3.490   6.443   8.822 -0.2454 -0.2562 -0.0970
 1040SOL    HW1 4561   3.505   6.524   8.871  0.4246 -0.4056 -0.0453
 1040SOL    HW2 4562   3.396   6.442   8.806 -0.2229  0.6622 -0.3343
 1041SOL     OW 4563   1.249   2.983   1.097 -0.0958  0.6972  0.4277
 1041SOL    HW1 4564   1.213   2.946   1.178  1.7242  1.1992  1.5283
 1041SOL    HW2 4565   1.321   3.038   1.126  0.5746  0.9480 -1.5567
 1042SOL     OW 4566   5.342   3.736   3.390 -0.5755  0.2262  0.6455
 1042SOL    HW1 4567   5.352   3.679   3.314 -1.3071 -1.0034  1.4323
 1042SOL    HW2 4568   5.302   3.816   3.355  1.1947  0.6253 -0.6087
 1043SOL     OW 4569   5.647   5.878  10.350 -0.5999 -0.1906  0.2195
 1043SOL    HW1 4570   5.563   5.838  10.326 -0.7935  0.5465 -0.3608
 1043SOL    HW2 4571   5.709   5.841  10.287 -0.5243 -0.5946  0.5305
 1044SOL     OW 4572   3.263   0.374   8.791 -0.3116  0.0381  0.3316
 1044SOL    HW1 4573   3.246   0.452   8.844  1.1622  1.1103 -0.6918
 1044SOL    HW2 4574   3.288   0.307   8.854  1.9244  1.4270  1.0172
 1045SOL     OW 4575   6.525   6.302   2.176  0.1522 -0.7351 -0.4371
 1045SOL    HW1 4576   6.458   6.369   2.191 -0.2408 -1.2691  0.2889
 1045SOL    HW2 4577   6.575   6.334   2.101 -0.4069  0.0703 -0.4811
 1046SOL     OW 4578   2.456   4.934   8.871  0.1312 -0.5068  0.3506
 1046SOL    HW1 4579   2.505   4.924   8.789  0.4996 -1.9582  0.7236
 1046SOL    HW2 4580   2.479   5.022   8.902 -2.1825  1.3079 -2.4664
 1047SOL     OW 4581   1.393   6.542   5.943  0.1155 -0.0313 -0.2331
 1047SOL    HW1 4582   1.328   6.584   6.000  1.1963  0.4825  0.6499
 1047SOL    HW2 4583   1.341   6.505   5.871 -1.0380  1.3209 -0.1331
 1048SOL     OW 4584   0.096   1.055  11.139 -0.1317 -0.5222  0.0202
 1048SOL    HW1 4585   0.152   1.120  11.098 -1.5167  0.5963 -0.1616
 1048SOL    HW2 4586   0.045   1.018  11.067 -0.7130 -0.4378  0.3861
 1049SOL     OW 4587   7.560   1.917   2.804 -0.3599 -0.7641  0.4716
 1049SOL    HW1 4588   7.644   1.944   2.768 -0.1345 -2.0358 -0.0372
 1049SOL    HW2 4589   7.528   1.851   2.742 -2.3846  0.6254 -0.0710
 1050SOL     OW 4590   0.504   0.812   5.827 -0.2602  0.2179 -0.1087
 1050SOL    HW1 4591   0.572   0.814   5.759  0.5240  2.5044  0.6483
 1050SOL    HW2 4592   0.474   0.721   5.827  1.4245 -0.4306 -1.8093
 1051SOL     OW 4593   2.271   0.742   1.697 -0.6011  0.2445  0.3625
 1051SOL    HW1 4594   2.211   0.695   1.639 -1.6892  1.3305  0.5961
 1051SOL    HW2 4595   2.290   0.824   1.652  0.4841  0.0441  0.4279
 1052SOL     OW 4596   6.064   2.653  11.068 -0.3173  0.3852 -0.2818
 1052SOL    HW1 4597   6.129   2.713  11.032 -0.6624 -0.4899 -2.5010
 1052SOL    HW2 4598   6.001   2.710  11.112  1.3462  1.3235  1.0255
 1053SOL     OW 4599   1.289   7.765   5.171 -0.7034 -0.1275  0.1231
 1053SOL    HW1 4600   1.279   7.840   5.112 -1.1779 -0.6294 -0.4458
 1053SOL    HW2 4601   1.273   7.689   5.116  1.2302 -0.7557  0.3485
 1054SOL     OW 4602   7.322   0.703   9.213  0.2941  0.5050  0.3714
 1054SOL    HW1 4603   7.288   0.782   9.254  0.2489  1.0981 -0.7807
 1054SOL    HW2 4604   7.249   0.642   9.214 -0.8328  1.7052 -1.9280
 1055SOL     OW 4605   2.795   3.124   1.943  0.1547  0.2498  0.2000
 1055SOL    HW1 4606   2.760   3.074   1.869 -1.1829 -0.2438  1.1231
 1055SOL    HW2 4607   2.768   3.214   1.927  0.4790  0.2710 -0.2503
 1056SOL     OW 4608   0.936   3.253  10.124  0.2603  0.1344 -0.1708
 1056SOL    HW1 4609   0.955   3.205  10.205 -0.7514 -0.6816 -0.4032
 1056SOL    HW2 4610   0.982   3.205  10.056  1.2239  0.9000 -0.0803
 1057SOL     OW 4611   1.883   0.655   7.209 -0.6100  0.2021  0.1679
 1057SOL    HW1 4612   1.882   0.560   7.199  1.7490  0.1639 -0.4124
 1057SOL    HW2 4613   1.886   0.670   7.304 -0.1891 -0.3376  0.2415
 1058SOL     OW 4614   2.183   4.528   3.763  0.2617 -0.7317 -0.2099
 1058SOL    HW1 4615   2.214   4.451   3.811  0.9843  1.5592  3.4087
 1058SOL    HW2 4616   2.261   4.560   3.718  0.2200 -1.4788 -0.8357
 1059SOL     OW 4617   0.520   6.518   2.082  0.2238 -0.2789 -0.4212
 1059SOL    HW1 4618   0.516   6.614   2.083 -1.0687 -0.1647 -3.6674
 1059SOL    HW2 4619   0.455   6.490   2.145 -0.0281  1.0001 -0.0897
 1060SOL     OW 4620   4.237   0.856   0.188 -0.5015 -0.1027  0.4317
 1060SOL    HW1 4621   4.280   0.776   0.158 -0.0973 -0.4032  1.7779
 1060SOL    HW2 4622   4.275   0.925   0.133  0.0471 -0.6687  0.0897
 1061SOL     OW 4623   1.413   6.092   1.445  0.2346 -0.0490  0.0167
 1061SOL    HW1 4624   1.328   6.103   1.401 -0.2069 -0.5731  0.7211
 1061SOL    HW2 4625   1.393   6.103   1.538  0.9426 -0.1986  0.1895
 1062SOL     OW 4626   2.874   4.339   1.697 -0.2556 -0.0823 -0.3689
 1062SOL    HW1 4627   2.957   4.386   1.685 -0.4746  0.0459 -1.4319
 1062SOL    HW2 4628   2.809   4.408   1.712 -0.4012 -0.1069 -0.8919
 1063SOL     OW 4629   2.825   1.862   8.222 -0.7157  0.5834  0.2925
 1063SOL    HW1 4630   2.758   1.908   8.172 -0.4151  1.3101  0.5484
 1063SOL    HW2 4631   2.866   1.930   8.275  1.5445  0.5808 -1.2889
 1064SOL     OW 4632   6.218   2.647   7.709 -0.2415 -0.3121 -0.2373
 1064SOL    HW1 4633   6.311   2.636   7.691  0.0549  0.1423  0.9485
 1064SOL    HW2 4634   6.193   2.566   7.755 -0.0819  0.1590  0.7110
 1065SOL     OW 4635   1.212   7.047   3.844  0.3224  0.0229  0.2321
 1065SOL    HW1 4636   1.159   6.974   3.876  1.7796 -0.8965  0.6311
 1065SOL    HW2 4637   1.190   7.119   3.902  0.0075 -0.5353  0.8240
 1066SOL     OW 4638   4.455   7.142  11.785  0.4616  0.4402 -0.4817
 1066SOL    HW1 4639   4.521   7.148  11.854  0.0546 -2.3825  0.2860
 1066SOL    HW2 4640   4.377   7.184  11.822  0.3930 -0.6178  0.6180
 1067SOL     OW 4641   3.276   1.019   4.994  0.3623  0.5528  0.2074
 1067SOL    HW1 4642   3.302   0.938   5.038 -3.1226 -2.1482 -2.1985
 1067SOL    HW2 4643   3.310   1.010   4.905 -0.7958  1.3242 -0.3369
 1068SOL     OW 4644   2.729   7.120  10.552 -0.8602  0.3473  0.3168
 1068SOL    HW1 4645   2.643   7.147  10.521 -0.2291  1.8610 -0.2514
 1068SOL    HW2 4646   2.773   7.202  10.575  1.4119 -0.0495 -2.0416
 1069SOL     OW 4647   0.851   2.643   0.750  0.0102  0.3019  0.4806
 1069SOL    HW1 4648   0.868   2.634   0.844 -0.7151  0.2659  0.6164
 1069SOL    HW2 4649   0.756   2.657   0.744  0.0611  0.3818 -0.2409
 1070SOL     OW 4650   3.097   5.549   0.609  0.2699 -0.3502 -0.1770
 1070SOL    HW1 4651   3.122   5.486   0.541 -1.1067  1.0704 -2.1045
 1070SOL    HW2 4652   3.013   5.584   0.579 -0.4996  0.2143  2.3942
 1071SOL     OW 4653   6.861   0.465   0.029 -0.7638  0.2770 -0.4350
 1071SOL    HW1 4654   6.796   0.399   0.055 -0.5171  0.0939 -0.2873
 1071SOL    HW2 4655   6.840   0.542   0.083 -1.6121  0.6273 -1.2336
 1072SOL     OW 4656   4.460   6.738   8.772 -0.1550 -0.5832 -0.1706
 1072SOL    HW1 4657   4.533   6.799   8.784  0.0589 -1.0070  0.8137
 1072SOL    HW2 4658   4.389   6.776   8.823 -1.0634  0.4930 -2.1474
 1073SOL     OW 4659   7.814   6.866   2.788  1.0212 -0.2035 -0.2668
 1073SOL    HW1 4660   7.730   6.822   2.799  1.0587 -0.4722 -0.9952
 1073SOL    HW2 4661   7.857   6.818   2.717  1.3553  0.5740 -0.6033
 1074SOL     OW 4662   4.130   7.477   1.560 -0.0445 -0.3710  0.2239
 1074SOL    HW1 4663   4.129   7.539   1.633 -0.7365  2.3113 -1.8970
 1074SOL    HW2 4664   4.107   7.530   1.483 -1.2428 -3.3948 -1.6956
 1075SOL     OW 4665   0.348   3.866  10.327  0.5317 -0.0743  0.3692
 1075SOL    HW1 4666   0.395   3.920  10.263  0.2840  0.2205  0.4299
 1075SOL    HW2 4667   0.407   3.861  10.402  0.7040 -0.1827  0.2266
 1076SOL     OW 4668   7.571   3.494   0.320 -0.2886  0.7547  0.7080
 1076SOL    HW1 4669   7.540   3.576   0.282  1.2975  0.4709 -1.3631
 1076SOL    HW2 4670   7.645   3.520   0.376 -1.2369  0.9375  1.9160
 1077SOL     OW 4671   2.038   2.998   3.651 -0.3444 -0.0953 -0.2908
 1077SOL    HW1 4672   2.074   3.077   3.692 -0.0421 -0.0451 -0.6476
 1077SOL    HW2 4673   2.062   3.006   3.559  0.9147 -1.2804 -0.1001
 1078SOL     OW 4674   3.724   3.567   2.787 -0.3572  0.0493 -0.1176
 1078SOL    HW1 4675   3.810   3.600   2.814 -0.6400  0.7414 -0.0577
 1078SOL    HW2 4676   3.667   3.643   2.790 -1.0183 -0.4437  0.0084
 1079SOL     OW 4677   4.848   3.326   7.968 -0.1153 -0.0015  0.1930
 1079SOL    HW1 4678   4.810   3.305   7.883 -1.6335 -1.2949  1.1525
 1079SOL    HW2 4679   4.838   3.421   7.976 -1.8095 -0.1205 -0.2271
 1080SOL     OW 4680   7.086   5.985   2.504  0.0395 -0.5870 -0.2619
 1080SOL    HW1 4681   7.157   5.975   2.568 -1.1950 -1.1179  1.0502
 1080SOL    HW2 4682   7.032   6.055   2.539  0.1769  0.2138 -1.5521
 1081SOL     OW 4683   7.618   4.716  11.545 -0.2534  0.0436 -0.5045
 1081SOL    HW1 4684   7.554   4.712  11.616 -0.2720 -0.5702 -0.5502
 1081SOL    HW2 4685   7.648   4.807  11.545 -1.4310  0.4472 -0.7566
 1082SOL     OW 4686   0.943   5.385   8.871 -0.0599  0.7469 -0.0205
 1082SOL    HW1 4687   0.993   5.308   8.899 -0.6183  0.4921  0.2773
 1082SOL    HW2 4688   0.878   5.351   8.810  1.4165  1.3399 -2.0758
 1083SOL     OW 4689   6.188   0.461   2.945 -0.3322 -0.1921  0.3475
 1083SOL    HW1 4690   6.213   0.515   3.020 -0.4911  0.4661 -0.0736
 1083SOL    HW2 4691   6.260   0.471   2.883 -0.3573 -0.4732  0.2705
 1084SOL     OW 4692   0.699   2.222   7.530  0.0286  0.2520 -0.2729
 1084SOL    HW1 4693   0.609   2.256   7.523 -0.6861 -1.7928 -4.2406
 1084SOL    HW2 4694   0.687   2.129   7.551  1.3472  0.2304  0.4842
 1085SOL     OW 4695   5.319   6.663  10.668 -0.3850  0.2508  0.2410
 1085SOL    HW1 4696   5.298   6.572  10.650  0.0988  0.1082  0.3927
 1085SOL    HW2 4697   5.247   6.713  10.628 -0.3496 -0.1637 -0.3327
 1086SOL     OW 4698   2.087   0.760   8.774  0.0401 -0.0540 -0.0175
 1086SOL    HW1 4699   2.173   0.754   8.815  1.9261  0.0724 -3.5321
 1086SOL    HW2 4700   2.056   0.848   8.795  0.4241 -0.3123  1.8032
 1087SOL     OW 4701   7.079   7.552   2.291  0.1193 -0.4525 -0.2506
 1087SOL    HW1 4702   7.012   7.583   2.230 -0.7922 -1.2078  0.3451
 1087SOL    HW2 4703   7.030   7.506   2.360  1.0378  1.1427  1.5553
 1088SOL     OW 4704   0.756   1.402  10.442 -0.4711  0.0214  0.4592
 1088SOL    HW1 4705   0.694   1.330  10.448  0.2201 -0.6936 -0.6261
 1088SOL    HW2 4706   0.840   1.360  10.424  0.3028  0.9845  1.6246
 1089SOL     OW 4707   4.857   3.882   4.649 -0.1261 -0.1104 -0.3740
 1089SOL    HW1 4708   4.835   3.863   4.740  0.7933 -1.9211 -0.4812
 1089SOL    HW2 4709   4.918   3.956   4.654 -0.6788  0.2956  0.4197
 1090SOL     OW 4710   1.959   6.047   3.874  0.6672 -0.0827  0.3234
 1090SOL    HW1 4711   1.864   6.056   3.866  0.4332 -2.0758  0.2993
 1090SOL    HW2 4712   1.980   6.081   3.961 -0.0074  0.6751  0.2008
 1091SOL     OW 4713   7.299   6.169   8.070  0.0922  0.4993  0.5140
 1091SOL    HW1 4714   7.229   6.144   8.131 -0.4099 -0.3208 -0.3815
 1091SOL    HW2 4715   7.255   6.177   7.985  0.6213  2.4587  0.3838
 1092SOL     OW 4716   4.261   5.450   7.760  0.1938  0.5044 -0.1758
 1092SOL    HW1 4717   4.335   5.489   7.715  0.2774  0.4073 -0.1215
 1092SOL    HW2 4718   4.207   5.414   7.689  0.3917  0.2343 -0.1917
 1093SOL     OW 4719   0.601   2.339   0.162  0.6782  0.0185 -0.9199
 1093SOL    HW1 4720   0.609   2.244   0.166  1.5948  0.0888 -0.7253
 1093SOL    HW2 4721   0.677   2.371   0.212 -0.5732  0.8452  0.5434
 1094SOL     OW 4722   6.120   7.267   4.153 -0.1684 -0.4835 -0.3768
 1094SOL    HW1 4723   6.044   7.216   4.126 -1.1185  0.2457  0.7880
 1094SOL    HW2 4724   6.167   7.211   4.214  0.0104 -0.7785 -0.7809
 1095SOL     OW 4725   6.749   6.214   8.754  0.0039 -0.2381  0.1401
 1095SOL    HW1 4726   6.721   6.304   8.770  1.2467  0.0033  1.0939
 1095SOL    HW2 4727   6.842   6.220   8.731  0.2648 -1.3085  0.8094
 1096SOL     OW 4728   0.234   5.223   8.910  0.0677 -0.3919 -0.1675
 1096SOL    HW1 4729   0.216   5.316   8.898  2.4828  0.1064 -0.3962
 1096SOL    HW2 4730   0.201   5.203   8.998  1.7495  1.3413  0.9353
 1097SOL     OW 4731   5.456   0.096   9.262  0.8633  0.4214  0.2902
 1097SOL    HW1 4732   5.399   0.153   9.211 -0.1108 -0.1841  0.6782
 1097SOL    HW2 4733   5.444   0.125   9.352  1.7713  0.7935  0.3058
 1098SOL     OW 4734   1.067   3.998  11.410  0.4117 -0.0032  0.0472
 1098SOL    HW1 4735   1.097   3.928  11.353 -0.9481 -0.7878  0.2327
 1098SOL    HW2 4736   1.033   4.065  11.351 -2.9628 -1.7085 -0.1861
 1099SOL     OW 4737   4.127   4.842   8.941 -0.3702  0.1973  0.3102
 1099SOL    HW1 4738   4.167   4.922   8.905 -1.9745 -0.2470 -2.8569
 1099SOL    HW2 4739   4.034   4.864   8.952 -0.5958 -0.8512  0.6538
 1100SOL     OW 4740   0.027   0.741  11.015  0.1685 -0.3572 -0.3863
 1100SOL    HW1 4741   0.017   0.649  10.990  1.1490 -0.4626 -0.4408
 1100SOL    HW2 4742   0.110   0.744  11.062  0.8811  0.7395 -1.6328
 1101SOL     OW 4743   2.861   1.810  10.211 -0.4331  0.1914 -0.0901
 1101SOL    HW1 4744   2.866   1.790  10.118 -2.2926  0.0179 -0.1945
 1101SOL    HW2 4745   2.827   1.900  10.215  0.9411  0.7130  0.4287
 1102SOL     OW 4746   3.992   5.752   7.339  0.0449 -1.2622  0.5248
 1102SOL    HW1 4747   3.936   5.697   7.394  0.3587 -1.7025  0.4092
 1102SOL    HW2 4748   3.959   5.740   7.250  0.5288 -1.8006  0.4058
 1103SOL     OW 4749   1.767   5.183   5.712  0.0033 -0.2289 -0.2791
 1103SOL    HW1 4750   1.683   5.154   5.747  0.5221 -0.9466  0.3900
 1103SOL    HW2 4751   1.749   5.272   5.681 -0.9749 -0.3271 -0.0567
 1104SOL     OW 4752   5.016   5.592   7.532 -0.2831 -0.2971  0.4500
 1104SOL    HW1 4753   5.063   5.542   7.599  0.1409  0.8848  1.0623
 1104SOL    HW2 4754   5.026   5.683   7.559  0.3323  0.2572 -1.4881
 1105SOL     OW 4755   2.296   7.713  11.154 -0.9370 -0.0093 -0.4281
 1105SOL    HW1 4756   2.257   7.793  11.189  0.5646  0.7852 -0.4644
 1105SOL    HW2 4757   2.382   7.741  11.121 -0.8135 -1.4357 -1.4198
 1106SOL     OW 4758   1.076   4.863   0.543 -0.1702 -0.3345 -0.2976
 1106SOL    HW1 4759   0.984   4.852   0.516 -0.3780 -0.2185  0.3393
 1106SOL    HW2 4760   1.082   4.955   0.568  0.6238  0.1555 -2.1427
 1107SOL     OW 4761   6.560   0.181   6.579 -0.5241  0.1973  0.4815
 1107SOL    HW1 4762   6.598   0.094   6.592 -0.5663  0.0552 -0.2841
 1107SOL    HW2 4763   6.636   0.239   6.571 -0.4514  0.0028 -0.4416
 1108SOL     OW 4764   0.302   2.730   9.215 -0.0755  0.3485 -0.1761
 1108SOL    HW1 4765   0.316   2.731   9.310  1.3532  1.1905 -0.3687
 1108SOL    HW2 4766   0.344   2.810   9.184 -1.2266  0.4849 -1.4387
 1109SOL     OW 4767   2.230   4.868   9.943  0.6557  0.9543 -0.6071
 1109SOL    HW1 4768   2.290   4.892   9.873  2.6729  0.3855  0.8507
 1109SOL    HW2 4769   2.270   4.902  10.023 -0.7924  0.2376  0.4796
 1110SOL     OW 4770   7.379   2.828   3.183  0.2994  0.8030  0.3521
 1110SOL    HW1 4771   7.306   2.890   3.182  0.9462  1.5771  0.0605
 1110SOL    HW2 4772   7.399   2.813   3.091  1.3746  1.6506  0.4315
 1111SOL     OW 4773   2.231   4.107   0.457  0.8260 -0.2724  0.0221
 1111SOL    HW1 4774   2.302   4.062   0.411  0.7053 -0.7813  0.3252
 1111SOL    HW2 4775   2.151   4.074   0.417  0.7511  1.8982 -1.8248
 1112SOL     OW 4776   3.314   5.368  11.647  0.5197 -0.2872  0.2508
 1112SOL    HW1 4777   3.366   5.413  11.714  0.5176  2.1518 -1.2713
 1112SOL    HW2 4778   3.237   5.423  11.635  0.8085 -0.3079 -2.1449
 1113SOL     OW 4779   6.847   0.264   9.971  0.5233 -1.0542  0.2698
 1113SOL    HW1 4780   6.762   0.293  10.006  0.0063 -0.5162 -1.3737
 1113SOL    HW2 4781   6.852   0.172   9.998 -0.1768 -0.8683  1.1187
 1114SOL     OW 4782   1.321   0.045   8.739  0.1351  0.4011 -0.1764
 1114SOL    HW1 4783   1.394   0.016   8.794  0.0523 -1.9120 -1.1742
 1114SOL    HW2 4784   1.262   0.089   8.800  1.7817  1.3002  0.8520
 1115SOL     OW 4785   0.606   0.515   6.564  0.0301 -0.1808  0.0690
 1115SOL    HW1 4786   0.595   0.471   6.480  0.4115 -0.9494  0.4135
 1115SOL    HW2 4787   0.540   0.475   6.621 -0.3971  0.5151  0.0779
 1116SOL     OW 4788   2.503   7.361  10.339  0.5068 -0.7535  0.2461
 1116SOL    HW1 4789   2.485   7.271  10.364  2.8466 -0.5570  3.1806
 1116SOL    HW2 4790   2.583   7.356  10.287  0.2359 -0.3902 -0.2213
 1117SOL     OW 4791   6.446   3.499   8.166  0.3993 -0.0369  0.0369
 1117SOL    HW1 4792   6.486   3.585   8.170  1.1695 -0.3412 -0.9780
 1117SOL    HW2 4793   6.493   3.452   8.097 -0.6873 -0.9202 -0.1438
 1118SOL     OW 4794   1.049   1.612   4.594  0.1983 -0.2233  0.0339
 1118SOL    HW1 4795   1.082   1.523   4.605 -1.2836 -1.0722 -1.7911
 1118SOL    HW2 4796   0.954   1.602   4.587 -0.2419  1.7658  1.9310
 1119SOL     OW 4797   1.094   2.473   3.193  0.8941  0.5293 -0.1590
 1119SOL    HW1 4798   1.121   2.464   3.102  0.3680 -0.2829 -0.2431
 1119SOL    HW2 4799   1.117   2.563   3.216 -0.8558  1.4352 -1.7234
 1120SOL     OW 4800   4.122   0.721   4.841  0.1413  0.3568  0.8808
 1120SOL    HW1 4801   4.069   0.645   4.818 -0.5046  0.6307  1.4328
 1120SOL    HW2 4802   4.092   0.790   4.781 -0.2202  0.5457  1.2743
 1121SOL     OW 4803   0.293   3.893   9.900  0.0595  0.4342 -0.2453
 1121SOL    HW1 4804   0.290   3.805   9.863  0.2963  0.3399 -0.0469
 1121SOL    HW2 4805   0.343   3.944   9.836 -0.8679  0.6562 -0.8168
 1122SOL     OW 4806   6.618   7.546   1.122 -0.1377  0.0646 -0.0192
 1122SOL    HW1 4807   6.614   7.460   1.080 -0.9682 -0.8682  1.8253
 1122SOL    HW2 4808   6.705   7.550   1.162  0.0929  0.3186 -0.5348
 1123SOL     OW 4809   4.926   5.939   1.555 -0.0264  0.7425  0.3937
 1123SOL    HW1 4810   4.859   5.936   1.624  2.4222  1.6110  2.9667
 1123SOL    HW2 4811   4.955   6.030   1.553 -0.6079  0.9834 -2.5493
 1124SOL     OW 4812   2.953   6.164   9.581  0.5086  0.9671 -0.3931
 1124SOL    HW1 4813   2.985   6.159   9.671 -1.4264  0.1720  0.2857
 1124SOL    HW2 4814   3.031   6.149   9.528  1.0080 -3.3931  1.1933
 1125SOL     OW 4815   0.510   4.212  12.152 -0.4363 -0.7341 -0.4374
 1125SOL    HW1 4816   0.461   4.243  12.228  2.4316  0.6478  1.0228
 1125SOL    HW2 4817   0.538   4.124  12.177 -0.4063 -0.6934 -0.3220
 1126SOL     OW 4818   5.001   1.954   0.918  0.0308 -0.4351 -0.2131
 1126SOL    HW1 4819   4.979   2.031   0.866 -3.0284 -2.3143 -2.0124
 1126SOL    HW2 4820   4.980   1.880   0.861  0.4927 -2.6249  2.2670
 1127SOL     OW 4821   5.601   5.925   3.461  0.1918 -0.5776  0.1777
 1127SOL    HW1 4822   5.570   5.950   3.548  0.4940  0.0336  0.1148
 1127SOL    HW2 4823   5.694   5.947   3.461  0.5916 -2.1413  0.2775
 1128SOL     OW 4824   2.095   0.024   4.490  0.4502 -0.3997  0.4581
 1128SOL    HW1 4825   2.156   0.018   4.417  0.6450 -1.6413  0.6999
 1128SOL    HW2 4826   2.102  -0.061   4.534  0.1059  0.2164  1.7346
 1129SOL     OW 4827   0.254   0.440   3.713  0.3209  0.3391 -0.2728
 1129SOL    HW1 4828   0.285   0.522   3.674 -0.3364  0.5241 -0.4219
 1129SOL    HW2 4829   0.278   0.447   3.805  0.3227  0.6796 -0.2980
 1130SOL     OW 4830   5.706   2.919   9.079 -0.2373  0.1160  0.3926
 1130SOL    HW1 4831   5.746   2.870   9.151 -1.9303  0.0188  1.3221
 1130SOL    HW2 4832   5.628   2.959   9.118 -0.8721  0.5464 -1.2508
 1131SOL     OW 4833   1.427   7.549   6.856 -0.3406  0.1891  0.2476
 1131SOL    HW1 4834   1.489   7.495   6.906 -0.6592  0.2760  0.7480
 1131SOL    HW2 4835   1.389   7.608   6.922  0.2659  1.2740 -0.3467
 1132SOL     OW 4836   1.225   0.301   7.952  0.4612  0.1700  0.1017
 1132SOL    HW1 4837   1.280   0.226   7.978  1.0376  0.2482 -0.8359
 1132SOL    HW2 4838   1.287   0.374   7.945  0.4699 -0.0034 -2.1200
 1133SOL     OW 4839   6.192   1.812   0.444 -0.8759  0.3228 -0.1009
 1133SOL    HW1 4840   6.152   1.893   0.412 -0.0440  0.0734 -1.8988
 1133SOL    HW2 4841   6.122   1.747   0.440 -0.5696  0.0666 -2.4802
 1134SOL     OW 4842   0.468   5.222   2.866 -0.2416  0.1890  0.0124
 1134SOL    HW1 4843   0.487   5.315   2.865 -0.9435  0.3416  0.5587
 1134SOL    HW2 4844   0.379   5.215   2.900 -0.7402 -0.5934 -1.3987
 1135SOL     OW 4845   2.947   1.818   9.209 -0.8396  0.1609 -0.2237
 1135SOL    HW1 4846   3.023   1.818   9.151 -0.2590 -0.2164  0.5231
 1135SOL    HW2 4847   2.984   1.821   9.297 -1.5880 -2.0834  0.2357
 1136SOL     OW 4848   4.572   2.478   3.449  0.1077  0.0420 -0.4708
 1136SOL    HW1 4849   4.566   2.394   3.494 -0.9185  0.5059  0.2885
 1136SOL    HW2 4850   4.487   2.488   3.406  0.0179  0.9523 -0.0833
 1137SOL     OW 4851   1.058   2.880  10.497  1.2890 -0.0497  0.2000
 1137SOL    HW1 4852   1.029   2.793  10.522  0.2337  0.6181  1.4680
 1137SOL    HW2 4853   1.104   2.914  10.575 -0.6757  1.4910  0.7879
 1138SOL     OW 4854   5.916   1.923  10.776  1.2515 -0.0065 -0.6570
 1138SOL    HW1 4855   5.913   1.921  10.681  0.8778  1.8134 -0.7347
 1138SOL    HW2 4856   5.994   1.975  10.796 -0.1077  1.9707 -0.0992
 1139SOL     OW 4857   3.911   1.436   9.800  0.5072  0.1392 -0.2223
 1139SOL    HW1 4858   3.955   1.466   9.721  0.2260 -0.5275 -0.6348
 1139SOL    HW2 4859   3.919   1.341   9.799 -1.1952 -0.0462 -0.4756
 1140SOL     OW 4860   2.570   4.366   2.521 -0.2528  0.1955 -0.2217
 1140SOL    HW1 4861   2.594   4.433   2.457  1.3752  0.1480  0.2714
 1140SOL    HW2 4862   2.505   4.313   2.477  0.8403  0.1430 -1.8834
 1141SOL     OW 4863   7.750   6.731  11.838 -0.1445 -0.7860  0.0402
 1141SOL    HW1 4864   7.768   6.812  11.886  0.0591 -0.6222 -0.3102
 1141SOL    HW2 4865   7.667   6.749  11.793 -0.0267 -0.7197 -0.1514
 1142SOL     OW 4866   1.926   1.810   6.398 -0.3187 -0.4965  0.4759
 1142SOL    HW1 4867   1.869   1.887   6.396  0.8164  0.4216 -2.4496
 1142SOL    HW2 4868   1.914   1.770   6.312  2.1859 -1.1963  0.3769
 1143SOL     OW 4869   7.817   0.647   7.673  0.1093 -0.3707  0.2655
 1143SOL    HW1 4870   7.783   0.604   7.751  0.0202  1.3330  1.2363
 1143SOL    HW2 4871   7.746   0.643   7.610  0.3352 -2.1530  0.0910
 1144SOL     OW 4872   2.151   2.927   7.926  0.5115 -0.6064  0.3752
 1144SOL    HW1 4873   2.198   2.996   7.880 -0.2251 -0.5727 -0.3556
 1144SOL    HW2 4874   2.083   2.899   7.864  0.7649 -1.9454  0.6702
 1145SOL     OW 4875   0.489   6.808   5.052 -0.0590  0.2563 -0.1990
 1145SOL    HW1 4876   0.406   6.823   5.007 -0.5665 -2.5156 -0.3739
 1145SOL    HW2 4877   0.489   6.870   5.125 -3.1254 -0.8096  0.8502
 1146SOL     OW 4878   3.211   6.393   6.059 -0.2118  0.9085 -0.3221
 1146SOL    HW1 4879   3.117   6.403   6.072  0.0519  1.0374  1.8647
 1146SOL    HW2 4880   3.221   6.384   5.964 -2.2732  2.2963 -0.7486
 1147SOL     OW 4881   1.417   6.265   3.467 -0.0159 -0.2818  0.0084
 1147SOL    HW1 4882   1.483   6.334   3.478 -0.6727  0.0068  3.5016
 1147SOL    HW2 4883   1.464   6.183   3.481 -0.1816 -0.1209  1.7054
 1148SOL     OW 4884   7.750   6.374   5.705  0.3166  0.4929  0.3578
 1148SOL    HW1 4885   7.724   6.313   5.636 -0.8763 -0.9245  1.9812
 1148SOL    HW2 4886   7.694   6.450   5.694  0.0919  0.2466 -0.1891
 1149SOL     OW 4887   5.926   7.715   9.545 -0.0308 -0.0594 -0.3001
 1149SOL    HW1 4888   5.863   7.788   9.549  0.8133  0.6727  3.1887
 1149SOL    HW2 4889   6.006   7.750   9.584  0.7060 -2.5868  0.6610
 1150SOL     OW 4890   5.590   4.691   6.632  0.0654 -0.1994  0.7393
 1150SOL    HW1 4891   5.619   4.614   6.583  0.4019  0.4728 -0.1482
 1150SOL    HW2 4892   5.599   4.763   6.570 -0.5822  0.5023  1.4471
 1151SOL     OW 4893   3.456   6.468   4.719  0.4398  0.2780 -0.0217
 1151SOL    HW1 4894   3.464   6.377   4.694 -0.1863  0.2789 -0.2481
 1151SOL    HW2 4895   3.509   6.516   4.655 -1.9314  0.3865 -2.0895
 1152SOL     OW 4896   3.932   5.489  11.243  0.2839 -0.0361  0.4298
 1152SOL    HW1 4897   4.014   5.453  11.210  0.5866 -1.2170  2.3054
 1152SOL    HW2 4898   3.870   5.416  11.238 -0.8834  1.0032 -1.5246
 1153SOL     OW 4899   3.722   1.985   4.697 -0.2669  0.5855  0.2645
 1153SOL    HW1 4900   3.692   2.070   4.662 -0.9800  0.4956  0.6429
 1153SOL    HW2 4901   3.707   1.991   4.791  0.4528  0.3401  0.4021
 1154SOL     OW 4902   5.296   1.512   7.035 -0.5673 -0.0416  0.1087
 1154SOL    HW1 4903   5.369   1.567   7.062 -1.6263  0.8149  1.3469
 1154SOL    HW2 4904   5.331   1.459   6.964  1.1714  0.5340  0.4875
 1155SOL     OW 4905   0.928   6.177  10.561  0.1745 -0.2298  0.4806
 1155SOL    HW1 4906   0.914   6.118  10.635 -0.1623 -1.4860 -0.5653
 1155SOL    HW2 4907   0.859   6.243  10.570  0.1083 -0.3953  1.2505
 1156SOL     OW 4908   0.575   0.981   5.327  0.1349 -0.3186  0.0096
 1156SOL    HW1 4909   0.670   0.981   5.326  0.1825 -2.1787  0.6376
 1156SOL    HW2 4910   0.551   1.074   5.323  1.9359  0.1696 -0.6869
 1157SOL     OW 4911   4.107   3.576   0.452 -0.2319  0.1658 -0.3807
 1157SOL    HW1 4912   4.024   3.619   0.432 -0.1699  0.5347  0.1246
 1157SOL    HW2 4913   4.173   3.629   0.407 -0.4028 -1.1756 -2.3276
 1158SOL     OW 4914   6.394   0.689   6.994  0.3034 -0.1951 -0.2733
 1158SOL    HW1 4915   6.451   0.687   6.917 -0.0078 -0.3881 -0.4989
 1158SOL    HW2 4916   6.414   0.773   7.036  0.0707  0.1723 -0.8727
 1159SOL     OW 4917   4.176   4.809   3.104  0.1439  0.2045 -0.1500
 1159SOL    HW1 4918   4.240   4.779   3.039  0.9537  0.3175  0.5800
 1159SOL    HW2 4919   4.225   4.865   3.163 -0.7755  0.8081  0.0713
 1160SOL     OW 4920   1.329   4.199   4.178 -0.0284 -0.0337 -0.4362
 1160SOL    HW1 4921   1.272   4.139   4.224 -0.4605  0.7272  0.0420
 1160SOL    HW2 4922   1.417   4.164   4.192 -0.1115  0.3353  1.2324
 1161SOL     OW 4923   4.571   5.780  10.206  0.1899 -0.0433  0.4113
 1161SOL    HW1 4924   4.639   5.846  10.223 -0.7088  1.4007 -1.2386
 1161SOL    HW2 4925   4.500   5.805  10.264  0.7256 -1.0772  1.5579
 1162SOL     OW 4926   4.598   0.430   2.585 -0.6909  0.4998 -0.2549
 1162SOL    HW1 4927   4.559   0.492   2.647 -1.1676  0.6439 -0.6944
 1162SOL    HW2 4928   4.682   0.406   2.625 -0.6397  1.1932  0.0666
 1163SOL     OW 4929   6.789   5.311   4.881 -0.2565 -0.2879  0.1634
 1163SOL    HW1 4930   6.749   5.389   4.841  1.4736 -0.0038 -1.1299
 1163SOL    HW2 4931   6.815   5.257   4.806 -0.4174 -1.6091  1.0270
 1164SOL     OW 4932   6.517   3.750  11.266 -0.5170 -0.1640  0.2613
 1164SOL    HW1 4933   6.507   3.793  11.182 -1.3628 -1.0814 -0.1316
 1164SOL    HW2 4934   6.508   3.657  11.247 -1.0447 -0.3707  1.4018
 1165SOL     OW 4935   2.542   4.393   1.418 -0.2874 -0.0951 -0.1230
 1165SOL    HW1 4936   2.495   4.391   1.335 -1.5641 -0.3442  0.5881
 1165SOL    HW2 4937   2.533   4.304   1.453 -0.3960  0.2112  0.6355
 1166SOL     OW 4938   7.001   3.535  11.636  0.4743 -0.1431  0.3261
 1166SOL    HW1 4939   7.018   3.538  11.730 -1.7927 -2.0397  0.8724
 1166SOL    HW2 4940   7.049   3.457  11.606 -0.0415 -0.4171  0.2086
 1167SOL     OW 4941   6.566   2.243  12.048  0.7294  0.3815  0.5505
 1167SOL    HW1 4942   6.472   2.224  12.053  1.1214 -2.5642 -0.8791
 1167SOL    HW2 4943   6.571   2.335  12.023 -1.9806 -0.2003 -3.0227
 1168SOL     OW 4944   4.557   6.826   9.217  0.3276 -0.1083  0.1657
 1168SOL    HW1 4945   4.628   6.888   9.234  0.4548 -0.3147  0.3891
 1168SOL    HW2 4946   4.479   6.881   9.212  0.8217  0.4793 -2.8692
 1169SOL     OW 4947   2.681   6.868   6.998  1.2756 -0.2853 -0.1665
 1169SOL    HW1 4948   2.667   6.955   7.035 -1.2824 -0.7499  0.1298
 1169SOL    HW2 4949   2.639   6.872   6.912  0.1683 -1.5039  0.2898
 1170SOL     OW 4950   2.845   0.674   3.528  0.0039 -0.3696 -0.0540
 1170SOL    HW1 4951   2.902   0.598   3.538  1.6115  0.9679  1.6465
 1170SOL    HW2 4952   2.904   0.744   3.499 -0.3640  1.4347  3.1557
 1171SOL     OW 4953   6.012   4.340   0.236 -0.4821  0.2080 -0.0404
 1171SOL    HW1 4954   6.077   4.373   0.299 -1.8575 -1.7538  2.6487
 1171SOL    HW2 4955   5.961   4.417   0.212  0.0295  1.0463  1.3999
 1172SOL     OW 4956   3.372   6.689   5.036 -0.4915  0.1251  0.4893
 1172SOL    HW1 4957   3.427   6.621   4.997 -1.3928  0.0059 -0.6323
 1172SOL    HW2 4958   3.379   6.675   5.130  1.8569  0.4772  0.4437
 1173SOL     OW 4959   5.104   7.052   5.908  0.2239 -0.5976  0.0027
 1173SOL    HW1 4960   5.020   7.007   5.905  0.6513 -1.3345 -2.4413
 1173SOL    HW2 4961   5.167   6.989   5.874  1.2674  0.9090 -0.9846
 1174SOL     OW 4962   5.896   1.035   4.702  0.6925 -0.7915 -0.3179
 1174SOL    HW1 4963   5.865   0.945   4.705  1.2003 -1.0137 -1.2914
 1174SOL    HW2 4964   5.985   1.031   4.737  0.4595 -0.5298  0.3342
 1175SOL     OW 4965   7.376   3.880   7.022  0.7166  0.1196 -0.5854
 1175SOL    HW1 4966   7.326   3.960   7.007 -0.0638  0.2298  1.9932
 1175SOL    HW2 4967   7.313   3.809   7.010 -0.7399  0.3071  4.0034
 1176SOL     OW 4968   2.287   3.708   0.590 -0.1156  0.2617  0.6351
 1176SOL    HW1 4969   2.358   3.746   0.538 -1.2982  0.7790 -0.6727
 1176SOL    HW2 4970   2.230   3.665   0.526 -1.8879  1.3197  1.3951
 1177SOL     OW 4971   2.971   6.743   0.245  0.0021 -0.0042 -0.2852
 1177SOL    HW1 4972   2.993   6.675   0.182 -0.4238 -0.5178  0.1119
 1177SOL    HW2 4973   2.951   6.820   0.192 -0.4950 -0.4754 -0.7883
 1178SOL     OW 4974   5.233   1.158   7.545 -0.2560  0.4240  0.0009
 1178SOL    HW1 4975   5.194   1.118   7.623  0.3587 -2.7914 -1.1694
 1178SOL    HW2 4976   5.168   1.222   7.516 -2.2266 -0.9439  1.1205
 1179SOL     OW 4977   2.583   2.889   0.940 -0.3326  0.0082 -0.2889
 1179SOL    HW1 4978   2.664   2.923   0.901 -0.2265 -0.0209 -0.0985
 1179SOL    HW2 4979   2.513   2.932   0.891 -0.2218 -0.9302 -1.3035
 1180SOL     OW 4980   3.418   4.990   5.567 -0.0332  0.1616  0.1118
 1180SOL    HW1 4981   3.458   4.945   5.492  0.3301 -0.1921  0.5080
 1180SOL    HW2 4982   3.374   5.066   5.529  3.2606  2.1580 -0.0938
 1181SOL     OW 4983   7.854   4.221   1.536  0.0764 -0.6441  0.4047
 1181SOL    HW1 4984   7.836   4.289   1.601  0.2719 -0.5931  0.4046
 1181SOL    HW2 4985   7.926   4.256   1.483 -0.7079 -0.2689 -0.4533
 1182SOL     OW 4986   7.843   0.864   5.931  0.0958  0.0035  0.0295
 1182SOL    HW1 4987   7.855   0.916   5.852 -0.5389 -0.0214 -0.0927
 1182SOL    HW2 4988   7.931   0.846   5.963  0.3306  0.7526 -0.1869
 1183SOL     OW 4989   2.911   4.605   4.572  0.3641 -0.0990 -0.2607
 1183SOL    HW1 4990   2.971   4.544   4.615  0.2926 -0.7812 -1.1053
 1183SOL    HW2 4991   2.866   4.649   4.644  0.8126 -0.6454  0.3676
 1184SOL     OW 4992   6.792   2.228  10.870 -0.1290  0.1914 -0.0407
 1184SOL    HW1 4993   6.831   2.286  10.804  1.0968  1.0402  1.3787
 1184SOL    HW2 4994   6.829   2.142  10.851 -0.3171  0.2849 -0.8663
 1185SOL     OW 4995   1.563   2.469   5.076 -0.1552 -0.2314 -0.1347
 1185SOL    HW1 4996   1.615   2.503   5.003  2.3034 -0.7711  1.2381
 1185SOL    HW2 4997   1.580   2.530   5.148 -0.6379 -0.9747  0.6342
 1186SOL     OW 4998   2.484   2.169   0.561  0.5537  0.1670  0.4795
 1186SOL    HW1 4999   2.458   2.116   0.485  1.1505  0.5275  0.0188
 1186SOL    HW2 5000   2.576   2.148   0.575  0.6389  0.6435  0.6570
 1187SOL     OW 5001   7.911   1.424   6.389 -0.2956  0.3423  0.0304
 1187SOL    HW1 5002   7.940   1.354   6.331 -0.9414 -0.4559  0.6413
 1187SOL    HW2 5003   7.966   1.499   6.367  1.6566 -0.8568  0.5777
 1188SOL     OW 5004   5.976   2.876  11.459  0.1063  0.3391  0.4281
 1188SOL    HW1 5005   5.962   2.915  11.545 -0.1743  0.0735  0.5052
 1188SOL    HW2 5006   5.968   2.781  11.474 -2.1605  0.3539 -0.2546
 1189SOL     OW 5007   2.228   2.119   0.909 -0.0667 -0.0093  0.0339
 1189SOL    HW1 5008   2.262   2.066   0.981 -1.0597  0.2983  0.7528
 1189SOL    HW2 5009   2.171   2.060   0.860  1.6661 -0.6048 -1.3397
 1190SOL     OW 5010   2.495   7.131   5.944 -0.3186 -0.2468  0.2598
 1190SOL    HW1 5011   2.525   7.086   6.023 -0.3952 -1.8418 -0.5943
 1190SOL    HW2 5012   2.404   7.105   5.935 -0.8053  1.2500  0.5218
 1191SOL     OW 5013   5.893   1.479  11.956 -0.7567  0.1310  0.3946
 1191SOL    HW1 5014   5.847   1.563  11.957 -0.3536  0.4197 -1.3125
 1191SOL    HW2 5015   5.982   1.501  11.983 -0.8271  0.1302  0.6283
 1192SOL     OW 5016   1.519   3.224   8.010  0.5807  0.7732  0.1139
 1192SOL    HW1 5017   1.494   3.132   8.001  0.8070  0.7323 -0.1115
 1192SOL    HW2 5018   1.603   3.221   8.056  0.1568  0.9101  0.9135
 1193SOL     OW 5019   7.462   1.384   0.541  0.2772 -0.3642  0.0692
 1193SOL    HW1 5020   7.452   1.356   0.450  1.4532 -1.2628  0.1952
 1193SOL    HW2 5021   7.546   1.429   0.544 -0.7333  1.6292  0.2797
 1194SOL     OW 5022   7.622   2.935  10.683 -0.1803  0.6040  0.3126
 1194SOL    HW1 5023   7.554   2.875  10.651 -2.1619  2.2502  1.2177
 1194SOL    HW2 5024   7.703   2.884  10.678 -1.3801 -1.2960 -1.2587
 1195SOL     OW 5025   0.486   1.053   6.492 -0.1272 -0.0686 -0.3544
 1195SOL    HW1 5026   0.458   1.094   6.574 -1.7352 -0.1724 -0.8131
 1195SOL    HW2 5027   0.531   0.973   6.519 -0.8775 -0.2360  0.4514
 1196SOL     OW 5028   7.079   0.306   6.680  0.3903 -0.0204 -0.0078
 1196SOL    HW1 5029   7.104   0.378   6.623  0.1375  1.6349  1.8429
 1196SOL    HW2 5030   7.097   0.338   6.768 -2.8961 -0.8475  1.1368
 1197SOL     OW 5031   7.886   3.859   6.539  0.2942  0.2660  0.3441
 1197SOL    HW1 5032   7.821   3.833   6.473 -0.8077  0.2353  1.4015
 1197SOL    HW2 5033   7.970   3.837   6.499 -0.4120 -1.2298 -0.4217
 1198SOL     OW 5034   3.653   4.378   8.178 -0.9083  0.4733  0.0804
 1198SOL    HW1 5035   3.626   4.469   8.163  0.1564  0.6759 -0.6892
 1198SOL    HW2 5036   3.650   4.338   8.091 -1.1088 -0.1595  0.3768
 1199SOL     OW 5037   6.742   4.673   0.973 -0.2346 -0.0980 -0.3196
 1199SOL    HW1 5038   6.697   4.710   1.049  0.1416  0.7544 -0.4920
 1199SOL    HW2 5039   6.737   4.578   0.985 -0.3403  0.0234  0.6642
 1200SOL     OW 5040   0.847   2.105   9.457  0.3237  0.1064 -0.1730
 1200SOL    HW1 5041   0.857   2.197   9.483  1.4892 -0.0684  0.0741
 1200SOL    HW2 5042   0.767   2.076   9.501  0.0100  0.9660 -0.1570
 1201SOL     OW 5043   4.514   4.948  11.655 -0.5572  0.1249 -0.2098
 1201SOL    HW1 5044   4.525   4.860  11.620 -1.7767  0.4342 -1.4907
 1201SOL    HW2 5045   4.453   4.937  11.728 -0.7607 -0.1007 -0.4094
 1202SOL     OW 5046   6.912   6.897  10.840 -0.2710  0.3660  0.2245
 1202SOL    HW1 5047   6.867   6.818  10.868  0.1930 -0.3896 -1.0990
 1202SOL    HW2 5048   6.999   6.868  10.815  0.5486  1.5964  1.4619
 1203SOL     OW 5049   0.309   4.250   7.541 -0.5184  0.0689 -0.2972
 1203SOL    HW1 5050   0.259   4.323   7.577 -0.2609 -0.3800  1.0502
 1203SOL    HW2 5051   0.386   4.290   7.501 -1.4313  0.6840 -1.5156
 1204SOL     OW 5052   4.754   1.426   2.781  0.3709 -0.4935 -0.3201
 1204SOL    HW1 5053   4.839   1.394   2.811 -0.1822 -1.2438  0.4786
 1204SOL    HW2 5054   4.704   1.441   2.861 -0.1276  0.3146 -0.7655
 1205SOL     OW 5055   1.499   3.206  11.685 -0.3245  0.6799  0.0854
 1205SOL    HW1 5056   1.585   3.230  11.652  0.1530  0.1655  0.9034
 1205SOL    HW2 5057   1.517   3.168  11.771 -1.5141  2.1071  1.0132
 1206SOL     OW 5058   2.678   3.311  10.741  0.3721 -0.0834  0.1053
 1206SOL    HW1 5059   2.760   3.343  10.779 -0.9403  0.4470  2.6859
 1206SOL    HW2 5060   2.650   3.382  10.682  2.4853 -0.9665 -2.1712
 1207SOL     OW 5061   1.128   0.202  10.300  0.0022  0.6776  0.0229
 1207SOL    HW1 5062   1.076   0.264  10.351 -0.1263  0.1668  0.5198
 1207SOL    HW2 5063   1.100   0.116  10.330  0.2592  0.3753 -0.5839
 1208SOL     OW 5064   4.642   4.654   0.659  0.1777  0.0508  0.2677
 1208SOL    HW1 5065   4.674   4.654   0.749 -1.0629 -0.4420  0.7394
 1208SOL    HW2 5066   4.665   4.740   0.625  0.8433  0.1691  0.9853
 1209SOL     OW 5067   2.921   2.494   0.656 -0.3665 -0.5330 -0.2272
 1209SOL    HW1 5068   2.996   2.484   0.598 -0.7905 -0.9010 -0.7241
 1209SOL    HW2 5069   2.849   2.451   0.610 -0.8878 -0.1723  0.2289
 1210SOL     OW 5070   4.234   0.478   1.430 -0.3686  0.3252  0.7248
 1210SOL    HW1 5071   4.253   0.556   1.378 -0.4450  0.3081  0.6723
 1210SOL    HW2 5072   4.145   0.491   1.463 -1.7877 -1.2980 -2.1184
 1211SOL     OW 5073   5.893   6.724   6.792  0.4710 -0.7133 -0.2376
 1211SOL    HW1 5074   5.843   6.769   6.861  1.1398 -0.1094 -0.1367
 1211SOL    HW2 5075   5.900   6.634   6.823 -0.3329 -0.7507 -0.1335
 1212SOL     OW 5076   6.761   3.327   9.608 -0.0605  1.0005  0.3598
 1212SOL    HW1 5077   6.696   3.304   9.541  1.4030 -0.0101 -0.7702
 1212SOL    HW2 5078   6.735   3.415   9.636 -3.1188 -0.1362  1.4986
 1213SOL     OW 5079   2.803   5.761  11.261  0.7982  0.5506  0.2091
 1213SOL    HW1 5080   2.870   5.708  11.305  0.2439 -0.2235  0.1263
 1213SOL    HW2 5081   2.740   5.781  11.330  0.5050  0.2750  0.0242
 1214SOL     OW 5082   4.786   4.294   1.127 -0.1957  0.4412  0.1015
 1214SOL    HW1 5083   4.801   4.264   1.037 -0.1185  2.4320 -0.6139
 1214SOL    HW2 5084   4.773   4.389   1.118  0.7816  0.8398  2.3111
 1215SOL     OW 5085   4.418   4.050   7.512 -0.4490  0.0216  0.4327
 1215SOL    HW1 5086   4.454   4.109   7.446 -2.4254 -0.4383 -1.1501
 1215SOL    HW2 5087   4.331   4.085   7.532  0.0020  0.0206  2.6880
 1216SOL     OW 5088   2.722   4.660   0.924  0.0014  0.2656 -0.0649
 1216SOL    HW1 5089   2.709   4.649   1.018  0.3810  0.1314 -0.0229
 1216SOL    HW2 5090   2.749   4.573   0.893 -3.2488 -0.5919 -0.8871
 1217SOL     OW 5091   4.624   4.586   7.381  0.2095 -0.0288 -0.2950
 1217SOL    HW1 5092   4.635   4.498   7.345  0.9896  0.0523 -0.2651
 1217SOL    HW2 5093   4.601   4.571   7.473 -0.1614 -0.2059 -0.4138
 1218SOL     OW 5094   5.017   2.190   6.186 -0.1807  0.2119  0.1495
 1218SOL    HW1 5095   5.045   2.281   6.199  0.4758  0.2257 -1.2151
 1218SOL    HW2 5096   5.082   2.154   6.125 -0.7209 -1.0288  0.2931
 1219SOL     OW 5097   0.780   5.515   7.572  0.3250 -0.7571 -0.3276
 1219SOL    HW1 5098   0.768   5.591   7.629  1.7454 -1.2065  0.6302
 1219SOL    HW2 5099   0.691   5.482   7.557 -0.3645  1.3450 -1.1755
 1220SOL     OW 5100   4.542   4.683  11.634 -0.3125 -0.5461 -0.0274
 1220SOL    HW1 5101   4.578   4.652  11.717 -0.7157 -1.7923 -0.2833
 1220SOL    HW2 5102   4.585   4.629  11.568 -1.0776 -0.5929 -0.4996
 1221SOL     OW 5103   0.771   1.998  11.079 -0.0253 -0.5086  0.3425
 1221SOL    HW1 5104   0.819   1.962  11.004  1.9750  1.2004  0.6972
 1221SOL    HW2 5105   0.834   1.995  11.151 -1.3317 -0.5011  1.5126
 1222SOL     OW 5106   2.797   5.389  11.296 -0.0198  0.6015 -0.8368
 1222SOL    HW1 5107   2.837   5.476  11.297  0.6989  0.2772 -0.7757
 1222SOL    HW2 5108   2.871   5.329  11.302 -0.4560 -0.0357 -1.6542
 1223SOL     OW 5109   2.800   6.161   0.273 -0.4158 -0.1215  0.2180
 1223SOL    HW1 5110   2.793   6.100   0.347  0.3639  0.4770  0.8178
 1223SOL    HW2 5111   2.713   6.163   0.234 -0.3490 -1.9649 -0.1070
 1224SOL     OW 5112   0.754   2.033   0.779 -0.6995  0.2107  0.6700
 1224SOL    HW1 5113   0.788   2.027   0.869 -0.1159 -2.4319  0.3412
 1224SOL    HW2 5114   0.823   2.078   0.731  0.7411 -1.7265  0.8115
 1225SOL     OW 5115   4.985   3.740   1.918  0.4213  0.1206  0.4323
 1225SOL    HW1 5116   5.028   3.683   1.854  0.8256 -0.9197  1.5894
 1225SOL    HW2 5117   4.899   3.699   1.932  0.2843  0.4199  0.4702
 1226SOL     OW 5118   6.405   7.749   5.687 -0.5962 -0.2573 -0.4491
 1226SOL    HW1 5119   6.467   7.676   5.684 -0.0309 -0.0107  2.3522
 1226SOL    HW2 5120   6.319   7.709   5.673 -0.1296 -1.1263 -0.8929
 1227SOL     OW 5121   5.789   2.222  11.125  0.3310 -0.0673  0.1217
 1227SOL    HW1 5122   5.856   2.282  11.094  1.8534 -1.9988 -0.5106
 1227SOL    HW2 5123   5.707   2.258  11.093  1.1096  1.9921  0.3373
 1228SOL     OW 5124   6.089   7.591   7.933 -0.4238 -0.2961 -0.4809
 1228SOL    HW1 5125   6.176   7.559   7.910  0.9456  2.1346  0.8897
 1228SOL    HW2 5126   6.041   7.592   7.850  1.3109 -0.3519 -1.5290
 1229SOL     OW 5127   5.122   0.917   9.693  0.3497 -0.2531 -0.7837
 1229SOL    HW1 5128   5.161   0.889   9.776 -1.8292 -0.6208  0.1869
 1229SOL    HW2 5129   5.131   0.842   9.635 -0.6581 -1.0684  0.0750
 1230SOL     OW 5130   2.273   6.869   8.470 -0.3736  0.2065  0.2491
 1230SOL    HW1 5131   2.294   6.776   8.479  0.4840  0.2211 -1.3359
 1230SOL    HW2 5132   2.226   6.876   8.387  0.7164  1.3383 -0.3045
 1231SOL     OW 5133   0.347   7.912   9.704 -0.4722 -0.4407  0.2497
 1231SOL    HW1 5134   0.273   7.911   9.765  0.3194 -0.5575  1.2485
 1231SOL    HW2 5135   0.361   7.820   9.682  0.2742 -0.5691  1.2127
 1232SOL     OW 5136   7.046   1.853   5.701  0.0724  0.2863  0.1267
 1232SOL    HW1 5137   7.101   1.776   5.686  1.6836  0.9348  2.1507
 1232SOL    HW2 5138   7.015   1.843   5.790  0.2251  1.8899  0.3909
 1233SOL     OW 5139   4.425   6.352  11.055 -0.1297 -0.5567  0.0681
 1233SOL    HW1 5140   4.477   6.431  11.070 -0.1017 -0.5527 -0.0551
 1233SOL    HW2 5141   4.475   6.302  10.991  0.5530 -1.3397  1.1938
 1234SOL     OW 5142   7.523   0.477   7.210  0.2094 -0.8049  0.8533
 1234SOL    HW1 5143   7.541   0.564   7.174 -0.2896 -0.7571  0.7102
 1234SOL    HW2 5144   7.428   0.476   7.224  0.3989 -0.7778  2.2712
 1235SOL     OW 5145   3.336   7.734   1.514  0.1924 -0.0187  0.5677
 1235SOL    HW1 5146   3.258   7.754   1.564 -0.7713  0.0881 -0.9157
 1235SOL    HW2 5147   3.396   7.807   1.532  0.3585 -0.5533  2.4177
 1236SOL     OW 5148   6.997   5.494  10.666  0.0844  0.0631 -0.0827
 1236SOL    HW1 5149   6.954   5.579  10.675  2.0416  1.3784 -1.8808
 1236SOL    HW2 5150   6.926   5.432  10.654 -1.3751  2.0373 -2.6503
 1237SOL     OW 5151   0.444   0.080   1.266  0.2158 -0.3217  0.2831
 1237SOL    HW1 5152   0.416   0.088   1.357 -1.0452  0.7782 -0.1516
 1237SOL    HW2 5153   0.415  -0.007   1.239 -1.5592  0.2063  0.3037
 1238SOL     OW 5154   7.497   6.288   2.698 -0.3105  0.5523  0.3088
 1238SOL    HW1 5155   7.553   6.267   2.773 -1.9780 -2.7383  0.8331
 1238SOL    HW2 5156   7.529   6.232   2.627 -0.9199  1.0397 -0.3702
 1239SOL     OW 5157   3.188   4.590   8.977  0.4348  0.3388 -0.9705
 1239SOL    HW1 5158   3.254   4.529   9.010 -1.5885 -1.7325 -0.5186
 1239SOL    HW2 5159   3.167   4.645   9.052  0.9457  0.3790 -0.8512
 1240SOL     OW 5160   4.107   0.136   6.797 -0.3188 -0.1340  0.5406
 1240SOL    HW1 5161   4.174   0.105   6.735  1.3257  0.7032  1.8017
 1240SOL    HW2 5162   4.037   0.169   6.742 -0.8770 -3.3024 -0.8582
 1241SOL     OW 5163   0.425   6.682   2.557  0.2726 -0.5879 -0.7413
 1241SOL    HW1 5164   0.367   6.630   2.612  2.1147 -0.9538  0.9678
 1241SOL    HW2 5165   0.381   6.767   2.549  0.4622 -0.0812  2.4201
 1242SOL     OW 5166   6.079   0.373   3.800 -0.1109  0.4113  0.3389
 1242SOL    HW1 5167   6.087   0.321   3.721  2.9182 -1.0027  1.4245
 1242SOL    HW2 5168   5.994   0.347   3.837 -0.4142 -0.8178 -1.1114
 1243SOL     OW 5169   6.564   2.233  10.369 -0.4327 -0.5279 -0.3491
 1243SOL    HW1 5170   6.487   2.187  10.336 -0.0419  0.0109 -2.1836
 1243SOL    HW2 5171   6.624   2.235  10.294 -0.0326  2.0538 -0.0745
 1244SOL     OW 5172   6.987   7.154   5.411  0.0234 -0.1719 -0.1229
 1244SOL    HW1 5173   6.968   7.141   5.318 -1.0180 -2.0919  0.3068
 1244SOL    HW2 5174   6.933   7.229   5.437 -0.9998 -0.6853 -0.7071
 1245SOL     OW 5175   4.905   4.604  11.317 -0.3416 -0.0481  0.0402
 1245SOL    HW1 5176   4.881   4.524  11.271 -0.5187  0.1214 -0.1683
 1245SOL    HW2 5177   4.998   4.617  11.297 -0.5210  0.2615 -0.6437
 1246SOL     OW 5178   5.297   5.324   2.374  0.3639 -0.8605 -0.4252
 1246SOL    HW1 5179   5.229   5.277   2.326 -0.7881 -0.5060  0.7961
 1246SOL    HW2 5180   5.309   5.273   2.454  0.1164  0.1265  0.2613
 1247SOL     OW 5181   7.495   7.602   5.496 -0.7871 -0.1710  0.1877
 1247SOL    HW1 5182   7.589   7.587   5.487 -0.6307  0.1055  1.2721
 1247SOL    HW2 5183   7.465   7.621   5.407  0.4443  1.2486  0.0454
 1248SOL     OW 5184   5.366   4.877   8.444 -0.4040  0.2306 -0.3535
 1248SOL    HW1 5185   5.347   4.950   8.503 -1.9670  1.0770 -1.8044
 1248SOL    HW2 5186   5.435   4.909   8.387 -2.3254  1.3716 -2.1813
 1249SOL     OW 5187   0.622   6.133   5.911 -0.3811 -0.0480  0.0670
 1249SOL    HW1 5188   0.644   6.179   5.830  0.0795  0.5015  0.4936
 1249SOL    HW2 5189   0.620   6.040   5.887  0.2061  0.0734 -0.4770
 1250SOL     OW 5190   1.104   6.768   8.252  0.2754 -0.4374 -0.0830
 1250SOL    HW1 5191   1.165   6.699   8.278  1.9186  0.8197 -0.3702
 1250SOL    HW2 5192   1.149   6.849   8.277 -0.6687  0.5902 -1.5483
 1251SOL     OW 5193   6.008   3.710  11.923  0.1289  0.2121  0.4828
 1251SOL    HW1 5194   5.965   3.705  11.838 -0.5728 -0.9950  0.8785
 1251SOL    HW2 5195   6.059   3.629  11.929  0.4255  0.4386  1.0720
 1252SOL     OW 5196   2.152   4.149  12.206  0.5447 -0.5746  0.0796
 1252SOL    HW1 5197   2.229   4.137  12.151 -0.5966 -0.7079 -1.5989
 1252SOL    HW2 5198   2.118   4.060  12.218  1.7622 -0.7805  2.6184
 1253SOL     OW 5199   3.432   2.808  10.114  0.1838 -0.5018  0.2718
 1253SOL    HW1 5200   3.440   2.903  10.109  2.3322 -0.4900  2.1645
 1253SOL    HW2 5201   3.342   2.793  10.141  0.1044  1.0818  0.9941
 1254SOL     OW 5202   0.031   4.104   2.074 -0.4986  0.0416 -0.2683
 1254SOL    HW1 5203   0.123   4.077   2.075 -0.2103  0.9807  1.1698
 1254SOL    HW2 5204  -0.014   4.036   2.124 -0.7097 -0.7581 -1.5146
 1255SOL     OW 5205   3.165   6.339  12.267 -0.1101 -1.0187 -0.2465
 1255SOL    HW1 5206   3.254   6.359  12.295 -0.5503 -0.6950  0.9861
 1255SOL    HW2 5207   3.137   6.415  12.216  0.5517 -1.4214 -1.2278
 1256SOL     OW 5208   7.176   3.510   3.047 -0.3605  0.1823 -0.3822
 1256SOL    HW1 5209   7.105   3.448   3.031 -1.1229  1.4736 -2.4078
 1256SOL    HW2 5210   7.168   3.574   2.976  0.9640  2.0720  1.0734
 1257SOL     OW 5211   0.095   0.611   2.768 -0.8686  0.3044 -0.0782
 1257SOL    HW1 5212   0.084   0.543   2.703  0.1878 -0.8986  0.9503
 1257SOL    HW2 5213   0.010   0.654   2.773 -1.9637 -1.7711  0.1445
 1258SOL     OW 5214   3.306   5.797   3.773 -0.1509  0.0150 -0.0001
 1258SOL    HW1 5215   3.400   5.814   3.778 -0.3843  1.0153  1.5044
 1258SOL    HW2 5216   3.279   5.839   3.691  0.2968  2.0920  0.8462
 1259SOL     OW 5217   3.497   1.097  11.240  0.0903  0.2040 -0.0009
 1259SOL    HW1 5218   3.469   1.167  11.182  1.0256  1.9701  1.5586
 1259SOL    HW2 5219   3.445   1.021  11.214 -1.7137  1.7426 -1.0834
 1260SOL     OW 5220   1.097   6.016   4.223 -0.1349  0.2231 -0.0772
 1260SOL    HW1 5221   1.013   6.003   4.267  0.3942  0.8701  1.1530
 1260SOL    HW2 5222   1.078   6.077   4.152 -0.6123  0.7520  0.5020
 1261SOL     OW 5223   5.410   7.641   3.674  0.2190 -0.4383  0.2965
 1261SOL    HW1 5224   5.320   7.631   3.703  0.0904 -2.9640 -0.6873
 1261SOL    HW2 5225   5.415   7.731   3.640 -1.7814 -0.1102  0.7650
 1262SOL     OW 5226   3.275   2.631   6.043 -0.0129  0.2696 -0.4031
 1262SOL    HW1 5227   3.325   2.590   5.973 -1.6549  0.1339 -1.5546
 1262SOL    HW2 5228   3.327   2.707   6.069  1.1654 -0.3199 -0.9779
 1263SOL     OW 5229   4.896   0.988  10.755  0.2210  0.0489 -0.1151
 1263SOL    HW1 5230   4.984   1.000  10.720  0.3832 -0.0422  0.2518
 1263SOL    HW2 5231   4.850   0.936  10.689  0.3393  0.3806 -0.4604
 1264SOL     OW 5232   7.170   2.464   0.211  0.1868  0.1248  0.1443
 1264SOL    HW1 5233   7.257   2.501   0.195  0.7885 -0.8628  0.9943
 1264SOL    HW2 5234   7.136   2.515   0.285  0.9369 -0.8612  1.1935
 1265SOL     OW 5235   2.700   5.898  11.062 -0.1098  0.4416  0.1373
 1265SOL    HW1 5236   2.721   5.981  11.106 -0.4441  0.0211  1.1309
 1265SOL    HW2 5237   2.730   5.831  11.124 -1.7504 -0.1803  0.3050
 1266SOL     OW 5238   4.914   5.061   8.103 -0.5264  0.1813  0.3788
 1266SOL    HW1 5239   4.976   5.004   8.058 -0.3497  0.7076 -0.0469
 1266SOL    HW2 5240   4.860   5.001   8.155  0.8474 -0.2118  1.4044
 1267SOL     OW 5241   1.579   2.664   3.782  0.3641  0.1495  0.5092
 1267SOL    HW1 5242   1.580   2.569   3.796 -0.8838 -0.0231 -0.4223
 1267SOL    HW2 5243   1.593   2.701   3.870 -1.2077 -0.9084  1.2465
 1268SOL     OW 5244   3.088   5.689   5.462  0.3737  0.2166  0.2077
 1268SOL    HW1 5245   3.072   5.775   5.499 -0.2267 -0.4148  1.4628
 1268SOL    HW2 5246   3.181   5.690   5.439  0.3125  1.2797 -0.0546
 1269SOL     OW 5247   2.449   7.785   4.764 -0.4050  0.4561  0.5121
 1269SOL    HW1 5248   2.396   7.825   4.833  0.4129 -0.2605  1.5978
 1269SOL    HW2 5249   2.508   7.726   4.811  0.4792  0.2778 -0.7750
 1270SOL     OW 5250   0.950   2.274   3.764 -0.1121  1.2504  0.0285
 1270SOL    HW1 5251   1.020   2.266   3.829  0.9033 -1.4643 -1.2485
 1270SOL    HW2 5252   0.996   2.274   3.680 -1.5814 -0.2751 -0.8343
 1271SOL     OW 5253   4.551   1.114   9.084 -0.8607 -0.1933 -0.2638
 1271SOL    HW1 5254   4.526   1.206   9.080  0.6459  0.5010  2.9301
 1271SOL    HW2 5255   4.647   1.115   9.086 -0.6862 -2.0741 -2.5224
 1272SOL     OW 5256   6.645   2.759   6.010 -0.4208  0.4456  0.1080
 1272SOL    HW1 5257   6.558   2.797   6.002 -0.3771  0.5296  0.0315
 1272SOL    HW2 5258   6.698   2.806   5.945 -1.0461 -1.7585 -2.1498
 1273SOL     OW 5259   7.769   6.095   9.674  0.3386 -0.1171  0.8142
 1273SOL    HW1 5260   7.772   6.146   9.593  1.6519 -0.7782  0.4003
 1273SOL    HW2 5261   7.810   6.151   9.739 -1.1898  0.6233  1.1736
 1274SOL     OW 5262   2.333   4.412   4.989  0.2286  0.1245  0.1868
 1274SOL    HW1 5263   2.318   4.480   4.923  1.1438 -0.4036 -0.5912
 1274SOL    HW2 5264   2.308   4.331   4.946  2.3357 -0.4235 -0.1251
 1275SOL     OW 5265   7.346   0.367  12.120 -0.0078 -0.1481  0.2330
 1275SOL    HW1 5266   7.263   0.408  12.096 -0.4828 -0.9983  0.3777
 1275SOL    HW2 5267   7.397   0.437  12.162 -1.9491 -0.3687  3.2852
 1276SOL     OW 5268   2.462   2.893   3.807 -0.3888 -0.7119  0.1960
 1276SOL    HW1 5269   2.431   2.964   3.750 -1.0947 -0.1171  1.2787
 1276SOL    HW2 5270   2.488   2.937   3.888  0.6351 -1.5395  0.3391
 1277SOL     OW 5271   6.781   4.525   4.731 -0.4557  0.4808  0.3046
 1277SOL    HW1 5272   6.846   4.500   4.797  0.3494  1.6640 -0.0117
 1277SOL    HW2 5273   6.760   4.443   4.685  0.0992 -0.0804  1.0248
 1278SOL     OW 5274   4.229   2.017   3.789 -0.1459  0.5308  0.1948
 1278SOL    HW1 5275   4.148   1.981   3.825  0.4473  1.5158  2.7644
 1278SOL    HW2 5276   4.228   2.109   3.817  1.9328  0.5133  0.5102
 1279SOL     OW 5277   2.129   3.562   3.463  0.5733  0.1919 -0.2831
 1279SOL    HW1 5278   2.218   3.542   3.492  0.9413 -1.6527 -2.3684
 1279SOL    HW2 5279   2.139   3.636   3.403  0.4539  1.0275  0.7135
 1280SOL     OW 5280   2.828   1.914  10.468 -0.0391 -0.1356 -0.1973
 1280SOL    HW1 5281   2.756   1.879  10.520 -0.7527 -0.3003 -1.2654
 1280SOL    HW2 5282   2.848   1.845  10.404  1.7049 -0.4769  0.6605
 1281SOL     OW 5283   3.736   2.063   4.958  0.1915  0.2903  0.3400
 1281SOL    HW1 5284   3.823   2.087   4.989 -0.1254 -0.1142  1.6261
 1281SOL    HW2 5285   3.700   2.008   5.028 -1.1971  0.6681 -0.0333
 1282SOL     OW 5286   6.340   2.097   5.379  0.1117 -0.1737 -0.0484
 1282SOL    HW1 5287   6.381   2.011   5.383  1.1223  0.3134  0.3640
 1282SOL    HW2 5288   6.340   2.119   5.285  0.2321 -0.4400 -0.1108
 1283SOL     OW 5289   3.499   6.659   5.442  0.2531 -0.0794  0.9615
 1283SOL    HW1 5290   3.560   6.593   5.475 -0.8428 -0.1563  2.9815
 1283SOL    HW2 5291   3.425   6.609   5.408  0.3021  0.0700  0.6319
 1284SOL     OW 5292   2.259   7.542   9.904  0.3023 -0.1361 -0.0225
 1284SOL    HW1 5293   2.261   7.477   9.974 -1.0800  1.3426  1.4580
 1284SOL    HW2 5294   2.240   7.491   9.825 -1.1485 -1.5072  1.1468
 1285SOL     OW 5295   3.346   4.863   7.873 -0.8722  0.4803 -0.3505
 1285SOL    HW1 5296   3.328   4.770   7.861 -0.7218  0.2689  0.9315
 1285SOL    HW2 5297   3.363   4.896   7.785  0.9621 -1.0991 -0.6368
 1286SOL     OW 5298   1.341   0.476   5.136  0.3966  0.1493 -0.4449
 1286SOL    HW1 5299   1.379   0.537   5.200  0.5069  1.2958 -1.5655
 1286SOL    HW2 5300   1.301   0.533   5.070  2.5782 -0.8705 -2.7997
 1287SOL     OW 5301   6.956   1.717   4.007  0.4330 -0.0876  0.3903
 1287SOL    HW1 5302   6.907   1.783   4.057 -0.7614 -0.0092 -0.8327
 1287SOL    HW2 5303   6.931   1.634   4.046 -0.4844 -0.0263 -0.0411
 1288SOL     OW 5304   6.810   5.737  11.761 -0.4093  0.1394 -0.2180
 1288SOL    HW1 5305   6.791   5.825  11.728  1.4996  0.1618 -1.4039
 1288SOL    HW2 5306   6.753   5.680  11.710 -1.7136  0.6503  0.6062
 1289SOL     OW 5307   7.356   3.540   1.074  0.5174  0.9129  0.0582
 1289SOL    HW1 5308   7.278   3.514   1.122  1.4950  0.3726  1.4044
 1289SOL    HW2 5309   7.331   3.531   0.982 -0.6723 -0.2567  0.4603
 1290SOL     OW 5310   4.155   0.682  11.149 -0.4539  0.0523  0.1133
 1290SOL    HW1 5311   4.200   0.765  11.169 -0.1986  0.1651 -0.8865
 1290SOL    HW2 5312   4.132   0.647  11.235  0.2465  0.7141  0.5900
 1291SOL     OW 5313   2.019   6.273   7.881 -0.3197 -0.2594  0.2606
 1291SOL    HW1 5314   1.981   6.350   7.838  1.7600  0.6293 -0.1121
 1291SOL    HW2 5315   2.061   6.225   7.811 -3.0014 -2.7536  0.1932
 1292SOL     OW 5316   1.830   5.217   8.362 -0.3573 -0.3327 -0.5452
 1292SOL    HW1 5317   1.891   5.186   8.430  0.3136  0.5343 -0.7429
 1292SOL    HW2 5318   1.763   5.265   8.411 -0.3109 -0.3916 -0.4218
 1293SOL     OW 5319   1.180   1.705   0.966  0.6004  0.3535  0.4354
 1293SOL    HW1 5320   1.112   1.720   1.032  0.3808 -0.4148  0.3879
 1293SOL    HW2 5321   1.155   1.762   0.894 -0.5585 -0.6324  0.0176
 1294SOL     OW 5322   4.786   2.355   4.043 -0.0873 -0.6161 -0.4174
 1294SOL    HW1 5323   4.854   2.292   4.066  0.9710  0.1976 -1.1783
 1294SOL    HW2 5324   4.759   2.330   3.955  0.4004  0.0245 -0.7570
 1295SOL     OW 5325   2.433   0.609   3.875 -0.4528  0.2352 -0.3712
 1295SOL    HW1 5326   2.490   0.640   3.805  1.3740 -3.2091 -0.6151
 1295SOL    HW2 5327   2.347   0.644   3.852  0.9082  3.1842 -1.5977
 1296SOL     OW 5328   4.390   4.803   2.787 -0.4195 -0.2178  0.0453
 1296SOL    HW1 5329   4.481   4.820   2.760 -1.1790  0.3646 -2.3590
 1296SOL    HW2 5330   4.363   4.884   2.831 -0.1824  0.1382 -0.4502
 1297SOL     OW 5331   0.945   1.626   4.182 -0.3197 -0.0156  0.5193
 1297SOL    HW1 5332   0.864   1.605   4.229  0.2490  0.3385  1.7033
 1297SOL    HW2 5333   0.963   1.718   4.205  1.2642 -0.5479  1.6285
 1298SOL     OW 5334   6.709   6.360   4.843  0.0322 -0.2504  0.0284
 1298SOL    HW1 5335   6.616   6.340   4.828  0.2052 -1.1580  0.0789
 1298SOL    HW2 5336   6.708   6.444   4.889 -0.9398 -1.4866  2.4675
 1299SOL     OW 5337   1.399   2.014  10.722  0.3675 -0.0728 -0.2463
 1299SOL    HW1 5338   1.409   1.947  10.654 -1.5877 -0.7313  0.0579
 1299SOL    HW2 5339   1.391   2.096  10.673  0.4096 -0.3629 -0.7454
 1300SOL     OW 5340   2.013   2.740   9.920  0.6014 -0.2055  0.1068
 1300SOL    HW1 5341   2.079   2.794   9.964  0.9045 -0.6016  0.1516
 1300SOL    HW2 5342   2.040   2.650   9.939 -0.2937 -0.3764  0.6274
 1301SOL     OW 5343   6.192   3.825   0.158 -0.1092 -0.1450 -0.2179
 1301SOL    HW1 5344   6.207   3.826   0.252  1.8950  1.4591 -0.4850
 1301SOL    HW2 5345   6.105   3.865   0.148  0.1376  0.7234  0.9002
 1302SOL     OW 5346   6.845   7.160   9.666 -0.0308 -0.7262  0.4775
 1302SOL    HW1 5347   6.799   7.133   9.586  0.9364  0.0882 -0.3832
 1302SOL    HW2 5348   6.775   7.180   9.728 -0.8422 -0.2193 -0.5631
 1303SOL     OW 5349   4.090   4.364  11.855 -0.4332 -0.0078  0.3422
 1303SOL    HW1 5350   4.142   4.288  11.831 -1.3487 -0.5580  0.0476
 1303SOL    HW2 5351   4.085   4.416  11.775 -0.3588  0.0330  0.3640
 1304SOL     OW 5352   2.609   7.804   0.443  0.1312  0.4752  0.3985
 1304SOL    HW1 5353   2.640   7.719   0.413 -0.8302  1.0451 -2.5001
 1304SOL    HW2 5354   2.594   7.792   0.537  2.5723 -1.7069  0.6371
 1305SOL     OW 5355   1.705   2.301   1.162 -0.0774  0.4468 -0.4766
 1305SOL    HW1 5356   1.727   2.240   1.232 -1.5280  2.7274  2.2029
 1305SOL    HW2 5357   1.775   2.366   1.162  0.6753 -0.3031 -2.2439
 1306SOL     OW 5358   2.361   4.385  10.421  0.4150 -0.3342 -0.5064
 1306SOL    HW1 5359   2.344   4.475  10.393  1.9480  0.1152 -0.1100
 1306SOL    HW2 5360   2.296   4.333  10.374  0.2202  0.8578 -1.6378
 1307SOL     OW 5361   7.185   5.126   3.189  0.1632 -0.4438  0.0764
 1307SOL    HW1 5362   7.126   5.110   3.263 -1.0061 -1.9369 -1.1020
 1307SOL    HW2 5363   7.243   5.050   3.187  0.7052 -0.0358 -0.0892
 1308SOL     OW 5364   2.024   7.440  10.814 -0.4093 -0.4513 -0.3057
 1308SOL    HW1 5365   2.074   7.513  10.851 -0.8420 -0.4007  0.1945
 1308SOL    HW2 5366   2.089   7.386  10.769  0.0743 -0.3062  0.2096
 1309SOL     OW 5367   2.855   0.296   1.699 -0.2484 -0.4459  0.2325
 1309SOL    HW1 5368   2.847   0.208   1.735 -0.7079  1.1608  4.6257
 1309SOL    HW2 5369   2.777   0.308   1.646 -0.0024 -2.7016 -0.7550
 1310SOL     OW 5370   6.333   6.686  11.346 -0.4747 -0.4781 -0.2589
 1310SOL    HW1 5371   6.320   6.655  11.435 -0.9235 -0.2467 -0.2408
 1310SOL    HW2 5372   6.417   6.732  11.348 -0.6146 -0.2398  0.1078
 1311SOL     OW 5373   0.442   1.616  10.289 -0.2976  0.2504 -0.1181
 1311SOL    HW1 5374   0.537   1.612  10.279 -0.3873 -1.8857 -0.5574
 1311SOL    HW2 5375   0.416   1.526  10.308 -2.0618  1.0752  1.8858
 1312SOL     OW 5376   2.713   7.284   4.667  0.3962 -0.1772  0.3912
 1312SOL    HW1 5377   2.797   7.264   4.708  0.0967  1.7225  2.0680
 1312SOL    HW2 5378   2.735   7.344   4.596  0.4886 -0.0013  0.5690
 1313SOL     OW 5379   6.817   1.741   2.474  0.0725 -0.3151 -0.0139
 1313SOL    HW1 5380   6.824   1.648   2.457  0.7642 -0.0956 -0.9976
 1313SOL    HW2 5381   6.768   1.747   2.556 -1.3137 -1.4832 -0.7119
 1314SOL     OW 5382   0.974   7.194   3.240 -0.4093  0.2994  0.4896
 1314SOL    HW1 5383   0.974   7.249   3.319  0.3697 -0.3705  0.9789
 1314SOL    HW2 5384   1.064   7.198   3.208  0.1708 -2.0689  1.5674
 1315SOL     OW 5385   0.954   5.351   9.226  0.1598 -0.4960 -0.1942
 1315SOL    HW1 5386   0.907   5.316   9.302 -0.4372  0.8020  0.0755
 1315SOL    HW2 5387   0.897   5.420   9.193  1.6240  0.7754 -0.1930
 1316SOL     OW 5388   5.680   2.454   1.086  0.3504 -0.0863  0.1797
 1316SOL    HW1 5389   5.624   2.489   1.155 -0.5441  0.0064 -0.5805
 1316SOL    HW2 5390   5.658   2.506   1.008  2.3050  0.7376  0.1069
 1317SOL     OW 5391   3.884   5.704   1.831  0.1018  0.2382 -0.0780
 1317SOL    HW1 5392   3.893   5.645   1.756 -1.3302 -0.5586  0.3453
 1317SOL    HW2 5393   3.802   5.751   1.815 -0.6688 -0.5344  1.3396
 1318SOL     OW 5394   0.264   2.032   3.460  0.0949 -0.5897 -0.1673
 1318SOL    HW1 5395   0.205   1.982   3.403 -0.2610  2.3429 -2.6131
 1318SOL    HW2 5396   0.351   2.021   3.422  0.0315  0.4552 -0.6624
 1319SOL     OW 5397   0.996   1.015   7.610  0.3743  0.1970  0.3925
 1319SOL    HW1 5398   1.019   0.926   7.584  0.6529  0.5768 -0.7366
 1319SOL    HW2 5399   0.944   1.005   7.689 -0.2463 -1.0151 -0.1483
 1320SOL     OW 5400   1.702   7.740   6.251  0.1725 -0.2182  0.0965
 1320SOL    HW1 5401   1.691   7.825   6.209 -0.5329  0.4421  1.5327
 1320SOL    HW2 5402   1.774   7.753   6.313  0.5516 -0.8868 -0.1983
 1321SOL     OW 5403   7.382   3.751   9.680  0.1482  0.3010  0.3331
 1321SOL    HW1 5404   7.335   3.667   9.683  1.4110 -0.4779 -0.4148
 1321SOL    HW2 5405   7.349   3.800   9.756 -0.0916 -1.1672  1.2242
 1322SOL     OW 5406   2.431   5.279   8.062  0.7116  0.2353  0.5104
 1322SOL    HW1 5407   2.520   5.301   8.034  0.1170  0.2733 -1.4693
 1322SOL    HW2 5408   2.388   5.247   7.983 -0.2949 -2.2731  1.9767
 1323SOL     OW 5409   5.150   3.797   0.828  0.5416  0.1279 -0.1782
 1323SOL    HW1 5410   5.234   3.751   0.826  0.9137  0.8001 -1.2309
 1323SOL    HW2 5411   5.168   3.878   0.876  0.1727 -0.2971  0.6870
 1324SOL     OW 5412   1.488   1.693   9.552 -0.5566  0.4742 -0.1971
 1324SOL    HW1 5413   1.561   1.723   9.605  0.0805 -1.3947  0.0426
 1324SOL    HW2 5414   1.519   1.698   9.462 -0.5569  0.7345 -0.1857
 1325SOL     OW 5415   3.563   4.878   3.623 -0.2362  0.3237 -0.0737
 1325SOL    HW1 5416   3.486   4.926   3.656 -0.3993 -0.0946  0.1626
 1325SOL    HW2 5417   3.591   4.824   3.697 -0.1671 -0.0804 -0.3909
 1326SOL     OW 5418   1.201   5.030   6.704 -0.3049  0.6217  0.3382
 1326SOL    HW1 5419   1.215   4.964   6.772 -0.6265 -0.2774 -0.4476
 1326SOL    HW2 5420   1.285   5.035   6.658 -0.6590 -0.1709 -0.4021
 1327SOL     OW 5421   1.991   1.268   4.768  0.3063 -0.3493 -0.4805
 1327SOL    HW1 5422   2.013   1.349   4.722 -1.8439 -0.8800 -2.6463
 1327SOL    HW2 5423   1.940   1.297   4.844  1.8209  0.4051  0.3009
 1328SOL     OW 5424   0.280   0.272  12.307  0.4833 -0.1000 -0.1112
 1328SOL    HW1 5425   0.286   0.357  12.265  2.2515  1.0926  2.2934
 1328SOL    HW2 5426   0.236   0.289  12.390 -1.0749 -1.9712 -0.4718
 1329SOL     OW 5427   0.526   1.050   0.116  0.2861 -0.2185 -0.3639
 1329SOL    HW1 5428   0.448   1.094   0.080  0.6553  1.0185  0.2817
 1329SOL    HW2 5429   0.543   1.097   0.198  2.4530  0.3826 -1.1072
 1330SOL     OW 5430   2.082   7.801   4.004 -0.1336  0.0334 -0.4668
 1330SOL    HW1 5431   2.109   7.841   4.086 -2.0009 -2.0361  1.2792
 1330SOL    HW2 5432   2.053   7.875   3.950  0.5016  1.3919  0.9711
 1331SOL     OW 5433   0.554   7.720  11.539 -0.3905  0.4520  0.0885
 1331SOL    HW1 5434   0.563   7.759  11.627  0.0266 -0.1086  0.2991
 1331SOL    HW2 5435   0.521   7.632  11.555 -0.8359  0.5388 -0.3574
 1332SOL     OW 5436   1.167   1.507   4.080 -0.0303  0.1403 -0.0841
 1332SOL    HW1 5437   1.081   1.519   4.122  0.7721 -0.1457  1.7365
 1332SOL    HW2 5438   1.180   1.586   4.028 -0.1534  1.5743  1.9490
 1333SOL     OW 5439   2.698   0.313   1.117  0.2399  0.4829  0.6905
 1333SOL    HW1 5440   2.767   0.264   1.162  0.6020  1.2255  0.9594
 1333SOL    HW2 5441   2.633   0.247   1.095  0.3167  0.0130  1.8063
 1334SOL     OW 5442   1.431   2.458   9.195  0.2566 -0.5042  0.8606
 1334SOL    HW1 5443   1.436   2.458   9.099  1.6115 -0.5217  0.9194
 1334SOL    HW2 5444   1.348   2.503   9.214 -0.5842 -1.4757 -0.3194
 1335SOL     OW 5445   2.483   1.068   0.868 -0.1181 -0.0552  0.8047
 1335SOL    HW1 5446   2.577   1.080   0.858 -0.2243  0.4757  0.4230
 1335SOL    HW2 5447   2.472   1.034   0.957  0.4049  0.1654  0.9535
 1336SOL     OW 5448   5.493   0.141   2.816  0.0816  0.3500 -0.0604
 1336SOL    HW1 5449   5.508   0.233   2.840 -2.2224  0.6609  0.4137
 1336SOL    HW2 5450   5.400   0.138   2.791  0.2896 -1.7215 -0.7271
 1337SOL     OW 5451   3.771   4.861  10.227 -0.1723 -0.1201 -0.0922
 1337SOL    HW1 5452   3.819   4.820  10.299  1.0531  0.8905 -0.3085
 1337SOL    HW2 5453   3.777   4.798  10.155  0.2688 -0.2795  0.0848
 1338SOL     OW 5454   3.082   6.930   0.774  0.1431 -0.0943 -0.2641
 1338SOL    HW1 5455   3.108   6.998   0.712  0.1622 -2.3203 -2.8822
 1338SOL    HW2 5456   2.989   6.915   0.755 -0.0345 -0.3584  0.7644
 1339SOL     OW 5457   3.781   5.414   5.520  0.0303  0.8600 -0.4241
 1339SOL    HW1 5458   3.755   5.474   5.590 -0.4030  0.3523 -0.1489
 1339SOL    HW2 5459   3.860   5.371   5.553  0.0981  0.9659 -0.4469
 1340SOL     OW 5460   0.562   1.944  10.906 -0.3116 -0.2428 -0.3843
 1340SOL    HW1 5461   0.610   1.965  10.986  0.0790  0.0508 -0.6913
 1340SOL    HW2 5462   0.626   1.899  10.851 -0.3146  0.3621 -0.8907
 1341SOL     OW 5463   3.689   5.354   7.313  0.0780  0.3987 -0.0942
 1341SOL    HW1 5464   3.677   5.259   7.310  0.7469  0.2915  0.3936
 1341SOL    HW2 5465   3.600   5.389   7.324 -0.1856 -0.1587 -0.4075
 1342SOL     OW 5466   2.355   0.752   8.019 -0.1575  0.1291  0.5208
 1342SOL    HW1 5467   2.446   0.780   8.031 -0.3432  1.1135 -0.2869
 1342SOL    HW2 5468   2.313   0.826   7.976 -0.1422 -2.1375 -3.9518
 1343SOL     OW 5469   0.984   4.627   5.837 -0.3317  0.1644  0.2097
 1343SOL    HW1 5470   0.959   4.536   5.850  0.5023 -0.0218  0.6112
 1343SOL    HW2 5471   1.076   4.623   5.812 -0.6662  0.8233 -1.1936
 1344SOL     OW 5472   7.821   1.471   1.360  0.6095 -0.6454  0.1794
 1344SOL    HW1 5473   7.770   1.540   1.404  0.3146 -1.9391  1.9742
 1344SOL    HW2 5474   7.910   1.483   1.392  1.2351  0.6703 -1.8055
 1345SOL     OW 5475   6.191   7.958   7.321 -0.2113 -0.1426  0.1134
 1345SOL    HW1 5476   6.245   7.958   7.242 -0.1150 -0.0573  0.1773
 1345SOL    HW2 5477   6.117   7.902   7.300 -1.4422  1.7545 -0.8754
 1346SOL     OW 5478   6.845   6.447  11.596 -0.1884 -0.6659  0.3164
 1346SOL    HW1 5479   6.836   6.540  11.615 -0.3608 -0.4787 -0.6412
 1346SOL    HW2 5480   6.940   6.433  11.586 -0.2179 -0.4214 -0.3430
 1347SOL     OW 5481   0.978   4.093   3.024  0.0391 -0.6162  0.2831
 1347SOL    HW1 5482   1.007   4.016   2.974 -1.9358 -1.1553 -0.1362
 1347SOL    HW2 5483   1.002   4.167   2.969  1.3707 -0.9543  0.3756
 1348SOL     OW 5484   4.082   5.943   9.419 -0.1170  0.3865  0.8117
 1348SOL    HW1 5485   4.144   5.925   9.490  1.7157 -0.0794 -0.8030
 1348SOL    HW2 5486   4.134   5.931   9.339 -2.1052  0.8363 -0.6161
 1349SOL     OW 5487   0.279   5.054   9.962  0.2627 -0.0723  0.5835
 1349SOL    HW1 5488   0.297   5.003  10.041  0.0260 -0.6260  0.2866
 1349SOL    HW2 5489   0.334   5.015   9.894 -0.5695 -0.5112  0.1444
 1350SOL     OW 5490   4.219   7.808   6.206 -0.6781  0.0391  0.7662
 1350SOL    HW1 5491   4.271   7.821   6.286 -0.5237  1.6302  0.4511
 1350SOL    HW2 5492   4.142   7.760   6.236 -0.9704  1.2304  2.0376
 1351SOL     OW 5493   2.386   5.010   9.772  0.4183 -0.4952  0.4970
 1351SOL    HW1 5494   2.419   4.963   9.695  0.9653  0.0472  0.3903
 1351SOL    HW2 5495   2.314   5.063   9.739  0.5337 -0.4031  0.3927
 1352SOL     OW 5496   2.553   4.170   1.621 -0.6883  0.2754 -0.2376
 1352SOL    HW1 5497   2.586   4.155   1.710  1.5536  0.0049 -1.0554
 1352SOL    HW2 5498   2.458   4.160   1.629 -0.4509 -0.9868  1.8817
 1353SOL     OW 5499   6.559   0.092   4.018  0.6104  0.2768 -0.1612
 1353SOL    HW1 5500   6.522   0.023   3.964  3.6403 -1.9840  0.3547
 1353SOL    HW2 5501   6.496   0.104   4.089  0.5755 -3.1503  0.5658
 1354SOL     OW 5502   1.257   0.624   7.742 -0.3033  0.6157  0.4912
 1354SOL    HW1 5503   1.279   0.560   7.674  3.2861  0.4273  1.6342
 1354SOL    HW2 5504   1.303   0.704   7.716  0.5059  0.7738  2.2428
 1355SOL     OW 5505   4.833   2.666   3.422 -0.3748  0.5787  0.6390
 1355SOL    HW1 5506   4.896   2.687   3.490 -2.5085  2.9386  2.0363
 1355SOL    HW2 5507   4.748   2.662   3.466 -1.8092  1.7825 -1.7570
 1356SOL     OW 5508   4.641   1.108  12.009 -0.3415  0.0493  0.1240
 1356SOL    HW1 5509   4.708   1.084  12.073 -1.5912  0.1535  1.5358
 1356SOL    HW2 5510   4.673   1.188  11.969  0.2236  0.2954  1.0325
 1357SOL     OW 5511   6.795   4.997   1.803 -0.5576 -0.3250  0.2495
 1357SOL    HW1 5512   6.724   4.993   1.867  1.4058 -1.1686  2.4889
 1357SOL    HW2 5513   6.875   4.996   1.855  1.1520 -0.7792 -2.2155
 1358SOL     OW 5514   3.780   1.645   4.147  0.0833 -0.1979 -0.7871
 1358SOL    HW1 5515   3.874   1.630   4.160  0.2573  0.0985 -1.6553
 1358SOL    HW2 5516   3.775   1.706   4.074 -0.7414  1.1550  0.3350
 1359SOL     OW 5517   6.566   4.090   0.914 -0.1383  0.2725 -0.4588
 1359SOL    HW1 5518   6.586   4.021   0.977 -1.9109 -0.5885 -0.7688
 1359SOL    HW2 5519   6.479   4.121   0.939 -0.6138  0.3518 -2.0715
 1360SOL     OW 5520   4.128   5.362   4.007  0.1959 -0.0737 -0.4945
 1360SOL    HW1 5521   4.134   5.436   4.068 -0.7773  0.9831 -1.6093
 1360SOL    HW2 5522   4.195   5.380   3.941 -0.8882  0.5505 -1.4729
 1361SOL     OW 5523   1.079   4.253   5.879 -0.6695 -0.2055  0.8682
 1361SOL    HW1 5524   1.155   4.304   5.910 -0.4562 -0.6113  1.0174
 1361SOL    HW2 5525   1.039   4.219   5.959 -0.9866 -0.0301  0.7861
 1362SOL     OW 5526   6.059   4.724  10.801  0.8728  0.1162  0.2827
 1362SOL    HW1 5527   6.101   4.643  10.830  1.0654  0.0849 -0.0772
 1362SOL    HW2 5528   5.967   4.714  10.826  1.2039  0.4945  1.7397
 1363SOL     OW 5529   3.385   5.540   0.355  0.1007  0.0268  0.1612
 1363SOL    HW1 5530   3.412   5.599   0.285 -1.3595  1.6436  0.8888
 1363SOL    HW2 5531   3.396   5.452   0.319  1.0638  0.7630 -1.4361
 1364SOL     OW 5532   2.509   5.769   2.906  0.1020  0.2033  0.2770
 1364SOL    HW1 5533   2.602   5.791   2.900  0.4533 -0.1974  2.9989
 1364SOL    HW2 5534   2.489   5.727   2.822  2.1508  0.9908 -0.6837
 1365SOL     OW 5535   1.603   4.250   8.823 -0.0695 -0.0539 -0.3736
 1365SOL    HW1 5536   1.581   4.322   8.763 -0.8646 -0.2332 -0.3117
 1365SOL    HW2 5537   1.689   4.274   8.859 -0.3648  0.9155 -0.2816
 1366SOL     OW 5538   4.401   1.495   9.407 -0.3330  0.7159 -0.2223
 1366SOL    HW1 5539   4.306   1.504   9.415 -0.3745 -0.8538  1.4906
 1366SOL    HW2 5540   4.414   1.439   9.331 -0.7768  0.7707 -0.3391
 1367SOL     OW 5541   2.540   4.877  10.401 -0.2954 -0.5769 -0.1080
 1367SOL    HW1 5542   2.461   4.859  10.351 -1.2969  1.7825  0.5073
 1367SOL    HW2 5543   2.607   4.894  10.334 -1.1310  0.6263 -0.6608
 1368SOL     OW 5544   5.470   6.181   8.495 -0.3137  0.0635 -0.3120
 1368SOL    HW1 5545   5.406   6.189   8.565  0.4088  1.2601  0.2417
 1368SOL    HW2 5546   5.417   6.185   8.415 -1.2570 -2.3340  0.0884
 1369SOL     OW 5547   1.519   7.103   7.061 -0.6477  0.0961 -0.2606
 1369SOL    HW1 5548   1.434   7.061   7.047 -0.3187 -0.4988 -0.5319
 1369SOL    HW2 5549   1.517   7.131   7.152 -1.5653  1.0889 -0.5739
 1370SOL     OW 5550   3.362   6.550   6.814 -0.9189  0.4345  0.5047
 1370SOL    HW1 5551   3.310   6.571   6.891 -2.6327  0.8864 -0.7196
 1370SOL    HW2 5552   3.314   6.479   6.771  1.3143 -1.5777  1.0897
 1371SOL     OW 5553   2.964   4.534   7.214 -0.2473  0.4836  0.0816
 1371SOL    HW1 5554   3.029   4.541   7.144 -0.9925  0.8161 -0.5956
 1371SOL    HW2 5555   2.939   4.441   7.214 -0.6208  0.5786 -0.4538
 1372SOL     OW 5556   7.897   1.848   2.128  0.4202 -0.0404 -0.2394
 1372SOL    HW1 5557   7.896   1.916   2.061  0.2745 -0.4397 -0.6428
 1372SOL    HW2 5558   7.883   1.766   2.080  1.9168 -0.5154  0.0651
 1373SOL     OW 5559   1.530   2.362   6.841  1.0855  0.0223 -0.2462
 1373SOL    HW1 5560   1.566   2.287   6.794 -0.2526 -0.4161 -0.6440
 1373SOL    HW2 5561   1.533   2.434   6.777  1.2196 -0.0220 -0.2897
 1374SOL     OW 5562   5.958   6.785  12.261  0.5510  0.3501  0.1329
 1374SOL    HW1 5563   5.979   6.691  12.266  0.1439  0.2779  0.6425
 1374SOL    HW2 5564   6.032   6.824  12.215 -0.9567 -0.7733 -3.6669
 1375SOL     OW 5565   0.372   4.585  10.188  0.0794 -0.4870 -0.2562
 1375SOL    HW1 5566   0.333   4.522  10.249 -0.0890 -0.6399 -0.5256
 1375SOL    HW2 5567   0.300   4.612  10.132 -0.4366  1.7409  1.3326
 1376SOL     OW 5568   5.997   4.416   6.503 -0.3017  0.7656 -0.3874
 1376SOL    HW1 5569   6.029   4.331   6.533 -0.5081  1.0497  0.6869
 1376SOL    HW2 5570   6.040   4.430   6.419  0.6174  0.1164 -0.0395
 1377SOL     OW 5571   5.387   2.149  12.000 -0.0281  1.1816  0.0053
 1377SOL    HW1 5572   5.306   2.200  11.996  0.2392  1.5339 -1.2897
 1377SOL    HW2 5573   5.375   2.080  11.934 -0.6549 -0.9031  2.1657
 1378SOL     OW 5574   6.727   3.997   9.742 -0.1714 -0.5761 -0.1659
 1378SOL    HW1 5575   6.681   4.041   9.671 -1.6750 -0.6026  0.7622
 1378SOL    HW2 5576   6.800   4.056   9.763 -1.3350  0.8094  0.1213
 1379SOL     OW 5577   0.935   3.877  10.952  0.0649 -0.0122  0.4132
 1379SOL    HW1 5578   1.011   3.927  10.983  0.4230 -0.7040  0.6674
 1379SOL    HW2 5579   0.968   3.788  10.939 -0.8602 -0.4887  1.1881
 1380SOL     OW 5580   1.856   2.391   7.159  0.3419  0.4309  0.6913
 1380SOL    HW1 5581   1.849   2.388   7.064  1.0175 -0.3131  0.6448
 1380SOL    HW2 5582   1.890   2.304   7.183  1.5375  1.0873  1.4765
 1381SOL     OW 5583   2.334   0.797  11.497 -0.2702 -0.5271  0.2926
 1381SOL    HW1 5584   2.314   0.726  11.435 -0.4408 -0.1807 -0.0500
 1381SOL    HW2 5585   2.253   0.809  11.545 -1.1962  1.3708 -1.5829
 1382SOL     OW 5586   0.531   5.047  10.581  0.0675 -0.2772 -0.2837
 1382SOL    HW1 5587   0.443   5.010  10.584 -0.1756  0.1676 -1.4181
 1382SOL    HW2 5588   0.589   4.972  10.589 -0.3622 -0.4201  2.4316
 1383SOL     OW 5589   2.294   6.322   0.833 -0.2920 -0.2129 -0.0383
 1383SOL    HW1 5590   2.268   6.402   0.787 -0.1242  1.2459  2.2608
 1383SOL    HW2 5591   2.243   6.253   0.791 -3.2903  1.6271  0.2806
 1384SOL     OW 5592   1.613   7.257   7.946  0.0073 -0.1170 -0.5420
 1384SOL    HW1 5593   1.677   7.316   7.985  0.8742 -1.0179 -0.5550
 1384SOL    HW2 5594   1.536   7.265   8.003 -0.3454  1.8965 -1.2264
 1385SOL     OW 5595   3.526   2.647   9.657 -0.0675 -0.0532 -0.3406
 1385SOL    HW1 5596   3.439   2.656   9.618 -0.5273 -0.9719  0.4354
 1385SOL    HW2 5597   3.557   2.562   9.625 -0.1772 -0.5109  0.7301
 1386SOL     OW 5598   4.474   6.928   1.988  0.4482 -0.1496 -0.7031
 1386SOL    HW1 5599   4.448   6.961   2.074  0.5334 -2.3234  0.2347
 1386SOL    HW2 5600   4.395   6.887   1.953  0.0410  1.8619 -2.3218
 1387SOL     OW 5601   1.733   3.949   2.176 -0.6001 -0.0160  0.2895
 1387SOL    HW1 5602   1.767   3.946   2.087 -1.6394 -0.0327 -0.1159
 1387SOL    HW2 5603   1.803   3.991   2.227  0.1142 -0.2677 -0.4694
 1388SOL     OW 5604   6.122   5.887  10.849 -0.1527  0.1591  0.1424
 1388SOL    HW1 5605   6.181   5.813  10.865 -0.8742 -0.3391  0.5688
 1388SOL    HW2 5606   6.082   5.903  10.935 -0.6430  0.4784 -0.1481
 1389SOL     OW 5607   1.203   5.203   7.702  0.1089  0.1445 -0.1297
 1389SOL    HW1 5608   1.236   5.291   7.680 -1.3482  0.1972 -2.4515
 1389SOL    HW2 5609   1.259   5.174   7.773  1.8419  2.2205 -0.5256
 1390SOL     OW 5610   2.792   7.158   4.407 -0.2291 -0.1558 -0.5667
 1390SOL    HW1 5611   2.730   7.231   4.400 -1.5014 -1.0529  0.6881
 1390SOL    HW2 5612   2.864   7.191   4.460 -1.8961 -0.4257  2.0229
 1391SOL     OW 5613   2.997   1.202   0.959 -0.7065  0.4069 -0.3781
 1391SOL    HW1 5614   3.061   1.191   0.889 -0.7686 -0.1095 -0.3574
 1391SOL    HW2 5615   2.912   1.200   0.916 -0.8185 -1.4253 -0.1426
 1392SOL     OW 5616   7.079   3.228  11.577 -0.1935  0.0593 -0.0298
 1392SOL    HW1 5617   7.120   3.220  11.491  1.2109 -0.8992  0.6852
 1392SOL    HW2 5618   7.152   3.235  11.639 -1.1781  1.4244  1.0517
 1393SOL     OW 5619   5.607   5.425  11.792 -0.1630  0.5096  0.3853
 1393SOL    HW1 5620   5.678   5.472  11.748  0.5534 -0.3654  0.5824
 1393SOL    HW2 5621   5.631   5.426  11.885 -0.1304 -0.2524  0.3909
 1394SOL     OW 5622   2.353   3.154  10.419 -0.2046 -0.0142  0.0218
 1394SOL    HW1 5623   2.442   3.184  10.405 -0.0100 -0.1303  0.9027
 1394SOL    HW2 5624   2.298   3.211  10.365  0.3811  0.1863 -0.3647
 1395SOL     OW 5625   3.635   2.707   3.458 -0.1350  0.2427 -0.4539
 1395SOL    HW1 5626   3.580   2.763   3.513  0.6326  0.9912 -0.4431
 1395SOL    HW2 5627   3.705   2.764   3.428  0.8943 -0.8121 -0.1111
 1396SOL     OW 5628   1.076   7.779   7.836  0.1580 -0.5666  0.2526
 1396SOL    HW1 5629   1.026   7.861   7.832  1.0972 -0.0166 -1.0740
 1396SOL    HW2 5630   1.013   7.713   7.863 -1.1908  0.2026 -0.8782
 1397SOL     OW 5631   5.020   5.142   5.569  0.0089  0.2951 -0.0100
 1397SOL    HW1 5632   5.075   5.137   5.647 -0.9712  1.6389  0.8048
 1397SOL    HW2 5633   5.074   5.189   5.505  1.1720 -1.6116 -0.5261
 1398SOL     OW 5634   5.318   6.845   3.521  0.3442  0.6216  0.4072
 1398SOL    HW1 5635   5.337   6.753   3.505 -0.5509  0.4590  0.2416
 1398SOL    HW2 5636   5.258   6.845   3.595  0.0590  1.0478  0.1808
 1399SOL     OW 5637   7.649   4.684   4.649 -0.7234 -0.3257 -0.2537
 1399SOL    HW1 5638   7.588   4.707   4.719 -1.7511 -2.6562 -0.3008
 1399SOL    HW2 5639   7.721   4.640   4.694 -0.9645 -1.0513 -0.5684
 1400SOL     OW 5640   1.319   3.413   8.488 -0.2923 -0.0183  0.4266
 1400SOL    HW1 5641   1.372   3.373   8.557 -1.4636 -3.0709 -0.2442
 1400SOL    HW2 5642   1.377   3.415   8.412 -0.3600 -1.0477  0.3315
 1401SOL     OW 5643   4.017   7.041   9.565 -0.1166 -0.0801 -0.1199
 1401SOL    HW1 5644   3.934   7.054   9.518  0.3680  0.1551 -0.9261
 1401SOL    HW2 5645   3.992   7.038   9.657 -1.2376 -1.7407 -0.4398
 1402SOL     OW 5646   0.039   3.054   3.018 -0.9812 -0.2876  0.4052
 1402SOL    HW1 5647   0.029   2.960   3.006  0.2416 -0.3900  0.0610
 1402SOL    HW2 5648   0.113   3.063   3.077 -0.7675  0.4704  0.0364
 1403SOL     OW 5649   4.303   1.623   3.551  0.4401  0.1883  0.5005
 1403SOL    HW1 5650   4.312   1.718   3.544 -0.6625  0.1766 -2.0509
 1403SOL    HW2 5651   4.362   1.588   3.484 -1.1090 -0.7990 -0.4007
 1404SOL     OW 5652   6.468   5.191   8.576  0.0197 -0.3290  0.4634
 1404SOL    HW1 5653   6.429   5.131   8.513 -0.5901 -0.1386  0.6514
 1404SOL    HW2 5654   6.399   5.206   8.641  0.2854  0.2904  0.6122
 1405SOL     OW 5655   2.088   2.645   6.115 -0.0692  0.2075 -0.1875
 1405SOL    HW1 5656   2.135   2.565   6.093  1.6522  0.7134  1.3739
 1405SOL    HW2 5657   2.087   2.647   6.211 -2.1401  0.9143 -0.1622
 1406SOL     OW 5658   3.323   5.224   4.764 -0.1206 -0.4462 -0.0913
 1406SOL    HW1 5659   3.347   5.146   4.713 -0.0624 -0.9433  0.6727
 1406SOL    HW2 5660   3.231   5.239   4.743 -0.5871 -1.6865  0.9568
 1407SOL     OW 5661   6.352   2.789   6.269 -0.1510  0.1347  0.4307
 1407SOL    HW1 5662   6.353   2.795   6.173  0.6580 -1.0643  0.3422
 1407SOL    HW2 5663   6.332   2.698   6.287  0.1314  0.2582  1.4041
 1408SOL     OW 5664   1.279   6.391   9.645 -0.0898 -0.3074 -0.6933
 1408SOL    HW1 5665   1.259   6.448   9.570  0.4716 -0.0480 -0.6444
 1408SOL    HW2 5666   1.204   6.331   9.649 -1.3073  1.1826 -0.0056
 1409SOL     OW 5667   5.941   2.771   3.473 -0.4369  0.4850 -0.0113
 1409SOL    HW1 5668   5.980   2.688   3.501  0.4789  1.6441  2.5766
 1409SOL    HW2 5669   6.013   2.817   3.429 -0.7157  0.2059 -0.7583
 1410SOL     OW 5670   5.364   6.942   0.507 -0.0341  0.6147  0.2949
 1410SOL    HW1 5671   5.390   7.013   0.565  0.2678  0.8356 -0.1008
 1410SOL    HW2 5672   5.283   6.973   0.465 -0.8864 -0.0156  1.4238
 1411SOL     OW 5673   2.621   4.152   2.280  0.1853 -0.4806  0.4751
 1411SOL    HW1 5674   2.576   4.070   2.298 -1.4977  0.4770  0.9021
 1411SOL    HW2 5675   2.576   4.187   2.203  2.0696 -0.7777 -0.8217
 1412SOL     OW 5676   7.193   1.557   0.882  0.3415 -0.1060 -0.6894
 1412SOL    HW1 5677   7.235   1.490   0.828  0.8552  0.1509 -0.6165
 1412SOL    HW2 5678   7.223   1.539   0.971 -0.2804 -0.3560 -0.5258
 1413SOL     OW 5679   3.859   2.350   9.531  0.1400 -0.4416  0.4185
 1413SOL    HW1 5680   3.929   2.329   9.592 -0.1846  1.2724  1.4359
 1413SOL    HW2 5681   3.902   2.401   9.461  0.3468 -1.6188 -0.3349
 1414SOL     OW 5682   1.270   1.521   9.424  0.1607  0.1390 -0.2185
 1414SOL    HW1 5683   1.184   1.520   9.467 -0.9412  1.0053 -2.2607
 1414SOL    HW2 5684   1.291   1.614   9.415  1.7375 -0.0594  0.9487
 1415SOL     OW 5685   2.935   5.932  10.105 -0.1482 -0.1991 -0.2043
 1415SOL    HW1 5686   2.839   5.928  10.101 -0.1076 -0.2005 -1.4083
 1415SOL    HW2 5687   2.963   5.841  10.094 -0.0101 -0.2265  0.3565
 1416SOL     OW 5688   4.804   5.743   1.407 -0.0769  0.0816  0.5332
 1416SOL    HW1 5689   4.829   5.681   1.475  1.4168  0.0014 -0.0573
 1416SOL    HW2 5690   4.839   5.827   1.437  0.0748  0.1567  0.1558
 1417SOL     OW 5691   1.982   0.247   6.781 -0.0390  0.3605 -0.6932
 1417SOL    HW1 5692   2.070   0.275   6.756  1.2465 -2.7419 -0.1955
 1417SOL    HW2 5693   1.980   0.255   6.876 -0.3568  0.5772 -0.7167
 1418SOL     OW 5694   0.217   6.200   5.109  0.3444 -0.3117  0.2589
 1418SOL    HW1 5695   0.280   6.156   5.166 -0.2109 -0.9462  0.3853
 1418SOL    HW2 5696   0.132   6.184   5.149  0.0298 -0.0476 -0.2875
 1419SOL     OW 5697   4.888   7.538   4.258  0.0857 -0.6343  0.0205
 1419SOL    HW1 5698   4.970   7.503   4.223 -0.2160 -1.8083  0.4474
 1419SOL    HW2 5699   4.893   7.521   4.352 -0.0346  0.5768  0.2570
 1420SOL     OW 5700   0.762   4.632   8.497  0.3437  0.1835 -0.4999
 1420SOL    HW1 5701   0.790   4.709   8.448  0.2672  1.6264  1.5956
 1420SOL    HW2 5702   0.807   4.640   8.581  1.5196 -2.8900 -0.7076
 1421SOL     OW 5703   7.456   5.242   7.124  0.6477  0.5355  0.0719
 1421SOL    HW1 5704   7.464   5.271   7.215 -0.4264  1.0153  0.0273
 1421SOL    HW2 5705   7.461   5.323   7.073  1.2029  0.2725 -0.2965
 1422SOL     OW 5706   0.686   7.167   0.243 -0.5712 -0.3600  0.4444
 1422SOL    HW1 5707   0.761   7.109   0.250 -1.0615 -0.8466  2.3661
 1422SOL    HW2 5708   0.614   7.118   0.283 -0.7656  1.9022  3.1527
 1423SOL     OW 5709   1.571   7.256  12.307 -0.1701  0.1210  0.6603
 1423SOL    HW1 5710   1.541   7.343  12.334 -0.5839  0.0649  0.3877
 1423SOL    HW2 5711   1.637   7.232  12.372  1.5759  1.5642 -0.4748
 1424SOL     OW 5712   5.348   2.495   4.495  0.2639 -0.4894  0.4606
 1424SOL    HW1 5713   5.337   2.421   4.436 -2.0384  0.4832 -0.4230
 1424SOL    HW2 5714   5.433   2.533   4.470  0.2871 -1.3184 -0.7921
 1425SOL     OW 5715   5.699   2.130   1.836 -0.0252  0.3706 -0.2633
 1425SOL    HW1 5716   5.644   2.066   1.791 -0.7120  0.4885  0.3747
 1425SOL    HW2 5717   5.648   2.154   1.914  0.8432  0.6457  0.2355
 1426SOL     OW 5718   3.586   2.613   1.120 -0.3106  0.1398 -0.6602
 1426SOL    HW1 5719   3.615   2.634   1.208 -0.1898 -0.5718 -0.5213
 1426SOL    HW2 5720   3.493   2.590   1.130 -0.4771  0.7418 -0.8288
 1427SOL     OW 5721   5.863   6.859   0.213 -0.3724 -0.2217 -0.3843
 1427SOL    HW1 5722   5.852   6.910   0.293 -0.1437 -0.0858 -0.4398
 1427SOL    HW2 5723   5.883   6.771   0.243  0.6123  0.0184 -0.2873
 1428SOL     OW 5724   4.435   6.699  12.028  0.1051  0.3088  0.0336
 1428SOL    HW1 5725   4.449   6.735  12.116 -0.1665  0.4753  0.0105
 1428SOL    HW2 5726   4.507   6.734  11.976  0.6305 -0.3076  0.3395
 1429SOL     OW 5727   7.654   1.571   8.640  0.1225  0.2642 -0.2422
 1429SOL    HW1 5728   7.628   1.610   8.724  1.0647  0.1213  0.1271
 1429SOL    HW2 5729   7.671   1.646   8.583  0.1076  0.3684 -0.1119
 1430SOL     OW 5730   2.738   2.314  10.876  0.1754  0.3789 -0.0875
 1430SOL    HW1 5731   2.692   2.314  10.792 -1.1319  0.6037  0.5990
 1430SOL    HW2 5732   2.822   2.355  10.857  0.0132  0.1779 -1.3371
 1431SOL     OW 5733   0.338   7.571   6.301  0.6590 -0.0191  0.3154
 1431SOL    HW1 5734   0.374   7.542   6.386  0.2357 -0.4912  0.3398
 1431SOL    HW2 5735   0.373   7.508   6.238 -0.1560 -0.5263  0.3481
 1432SOL     OW 5736   0.782   4.757   8.821 -0.0812 -0.0443  0.0777
 1432SOL    HW1 5737   0.750   4.668   8.806  0.8044 -0.4764  0.7011
 1432SOL    HW2 5738   0.865   4.761   8.774 -0.0513  0.4128  0.1659
 1433SOL     OW 5739   5.374   6.388   4.239 -0.7557  0.0799  0.4919
 1433SOL    HW1 5740   5.366   6.447   4.314 -0.6094 -0.5452  1.0094
 1433SOL    HW2 5741   5.429   6.317   4.270  0.0846  0.2662 -0.5048
 1434SOL     OW 5742   2.053   5.031   8.431 -0.3767 -0.1491 -0.7148
 1434SOL    HW1 5743   2.073   4.940   8.455  1.0716 -0.3626 -2.4796
 1434SOL    HW2 5744   2.133   5.062   8.388 -2.1872  0.5394 -3.9437
 1435SOL     OW 5745   1.486   4.703   1.229  0.6174 -0.4243 -0.0218
 1435SOL    HW1 5746   1.517   4.665   1.311  0.5311 -0.2617  0.0871
 1435SOL    HW2 5747   1.416   4.645   1.201  1.0419 -0.8103 -0.2860
 1436SOL     OW 5748   4.612   6.553  10.778  0.1705  0.6516  0.2451
 1436SOL    HW1 5749   4.612   6.621  10.711  0.5114  0.6484  0.2391
 1436SOL    HW2 5750   4.630   6.472  10.731 -0.7042  0.4828  0.1871
 1437SOL     OW 5751   7.606   4.066  12.384  0.2071 -0.5686 -0.4258
 1437SOL    HW1 5752   7.562   4.024  12.458  0.3371 -0.9934 -0.5883
 1437SOL    HW2 5753   7.607   3.999  12.316 -1.0593  0.2263 -1.2669
 1438SOL     OW 5754   2.535   4.264  10.599 -0.7233  0.1598  0.0873
 1438SOL    HW1 5755   2.487   4.306  10.528  0.7517  0.9086 -0.5111
 1438SOL    HW2 5756   2.468   4.243  10.664 -2.1084 -0.5719 -1.5035
 1439SOL     OW 5757   6.749   7.846   0.538  0.4115 -0.6277  0.4759
 1439SOL    HW1 5758   6.739   7.933   0.575  0.7554 -0.1791 -0.4643
 1439SOL    HW2 5759   6.796   7.797   0.606  1.5335  0.3415  0.4259
 1440SOL     OW 5760   3.773   7.412   7.248 -0.4820 -0.1843  0.2366
 1440SOL    HW1 5761   3.758   7.468   7.173 -0.5696  0.8989  1.0337
 1440SOL    HW2 5762   3.858   7.440   7.282 -1.0874  0.3607  1.3726
 1441SOL     OW 5763   6.380   1.052  11.750  0.0281  0.6794  0.1067
 1441SOL    HW1 5764   6.380   1.002  11.832 -1.6412 -1.1918 -0.9641
 1441SOL    HW2 5765   6.473   1.056  11.725  0.3552 -0.5166  1.0390
 1442SOL     OW 5766   1.536   1.829   6.963 -0.1611  0.3203 -0.4143
 1442SOL    HW1 5767   1.571   1.804   6.878 -0.3396 -2.2979  0.2204
 1442SOL    HW2 5768   1.613   1.834   7.020 -0.2141  0.5367 -0.3578
 1443SOL     OW 5769   3.385   1.975  10.349  0.5100  0.0337  0.2045
 1443SOL    HW1 5770   3.461   1.956  10.295 -0.8019  0.6782 -1.9765
 1443SOL    HW2 5771   3.421   2.022  10.425  2.3312 -0.2799 -0.4099
 1444SOL     OW 5772   5.156   2.381  11.281 -0.1685  0.1327 -0.5823
 1444SOL    HW1 5773   5.068   2.349  11.299 -0.7180  2.1729  0.7052
 1444SOL    HW2 5774   5.213   2.308  11.303 -1.3633 -0.1587  1.8672
 1445SOL     OW 5775   0.737   1.609   0.157  0.2607  0.4963  0.3763
 1445SOL    HW1 5776   0.830   1.611   0.137  0.1959 -0.0905 -0.0007
 1445SOL    HW2 5777   0.730   1.650   0.243  0.8867  0.3761  0.4884
 1446SOL     OW 5778   1.660   3.767   6.194 -0.3211  0.0221 -0.4344
 1446SOL    HW1 5779   1.669   3.739   6.103 -2.3037 -0.9913 -0.3602
 1446SOL    HW2 5780   1.625   3.856   6.188 -0.4479 -0.0418 -0.6650
 1447SOL     OW 5781   6.878   2.670   1.318 -0.1916 -0.2368 -0.7254
 1447SOL    HW1 5782   6.876   2.758   1.282  0.4989 -0.4510 -1.2909
 1447SOL    HW2 5783   6.926   2.679   1.401 -0.8669  0.0618 -0.3543
 1448SOL     OW 5784   4.426   5.290   2.207 -0.2057 -0.6279  0.4300
 1448SOL    HW1 5785   4.426   5.366   2.267  1.4373 -0.2285 -0.0202
 1448SOL    HW2 5786   4.485   5.227   2.249  1.5097 -0.0736 -1.0351
 1449SOL     OW 5787   6.091   1.026   8.466 -0.1858  0.6433 -0.0147
 1449SOL    HW1 5788   6.027   1.092   8.493 -0.9400 -0.6377  1.5267
 1449SOL    HW2 5789   6.053   0.987   8.388  0.0784  1.7373 -0.7120
 1450SOL     OW 5790   7.655   0.661   6.962  0.4694  0.4124  0.4491
 1450SOL    HW1 5791   7.701   0.593   6.912 -0.5740 -1.3967  1.7900
 1450SOL    HW2 5792   7.575   0.678   6.913  0.3725  0.0815  0.4885
 1451SOL     OW 5793   0.812   5.449  10.542  0.1110  0.1245 -0.0095
 1451SOL    HW1 5794   0.807   5.446  10.638  0.1339 -0.2113 -0.0183
 1451SOL    HW2 5795   0.722   5.465  10.514 -0.0171 -0.4596  0.0454
 1452SOL     OW 5796   7.199   0.351   5.333 -0.0776  0.4979  0.0294
 1452SOL    HW1 5797   7.241   0.358   5.419  1.3736 -1.8635 -0.4093
 1452SOL    HW2 5798   7.146   0.272   5.339  0.8234 -0.2701 -1.5129
 1453SOL     OW 5799   2.409   7.541   3.126 -0.2801  0.0556 -0.5472
 1453SOL    HW1 5800   2.327   7.502   3.156 -1.0070  2.1048  0.3781
 1453SOL    HW2 5801   2.468   7.533   3.201  0.1817 -0.8333 -0.9872
 1454SOL     OW 5802   0.528   6.237   8.037 -0.2555 -0.5018 -0.4316
 1454SOL    HW1 5803   0.446   6.191   8.018 -0.6842 -0.8145  1.8468
 1454SOL    HW2 5804   0.503   6.329   8.039 -0.5055 -0.5732 -0.0590
 1455SOL     OW 5805   6.374   2.849   3.907 -0.6774 -0.1502 -0.2135
 1455SOL    HW1 5806   6.284   2.818   3.901 -1.0318  1.0584 -1.6088
 1455SOL    HW2 5807   6.369   2.943   3.886  0.5264  0.6045  2.3950
 1456SOL     OW 5808   5.959   4.061   0.419  0.4109 -0.2126 -0.1487
 1456SOL    HW1 5809   5.891   4.007   0.458 -0.3283 -1.0877 -2.5069
 1456SOL    HW2 5810   6.038   4.041   0.470 -0.6266 -0.7139  1.3323
 1457SOL     OW 5811   3.224   5.464   8.248 -0.0036 -0.7521  0.2112
 1457SOL    HW1 5812   3.240   5.369   8.246  0.0568 -0.8051 -3.5325
 1457SOL    HW2 5813   3.309   5.501   8.271  0.1655 -1.5573  0.9637
 1458SOL     OW 5814   5.954   3.187   1.767  0.0137 -0.8071 -0.2208
 1458SOL    HW1 5815   5.986   3.252   1.705  0.7681 -1.3455 -0.3978
 1458SOL    HW2 5816   5.860   3.179   1.747 -0.1142  0.3108 -0.1072
 1459SOL     OW 5817   4.059   1.904   4.802  0.7315  0.2176  0.1866
 1459SOL    HW1 5818   4.046   1.954   4.883  1.3468 -1.4481  1.3882
 1459SOL    HW2 5819   4.055   1.969   4.732 -1.0158  1.5742  1.4460
 1460SOL     OW 5820   1.564   0.698   9.157  0.2756  0.1425 -0.3372
 1460SOL    HW1 5821   1.554   0.642   9.080  0.0314  1.2132 -1.1019
 1460SOL    HW2 5822   1.516   0.778   9.135  0.6725  0.6824  0.7061
 1461SOL     OW 5823   0.702   6.692   6.458 -0.2137 -0.0255  0.0440
 1461SOL    HW1 5824   0.727   6.727   6.544 -0.5645 -1.0343  0.5771
 1461SOL    HW2 5825   0.610   6.667   6.468 -0.1065 -0.6576 -0.4493
 1462SOL     OW 5826   3.191   6.982   2.250 -0.1336  0.2176  0.1412
 1462SOL    HW1 5827   3.141   7.064   2.256  0.4658  0.5380  0.8699
 1462SOL    HW2 5828   3.244   6.993   2.171 -0.4990  0.2729 -0.1031
 1463SOL     OW 5829   3.714   4.371  11.494  0.0101  0.8900 -0.1887
 1463SOL    HW1 5830   3.721   4.424  11.414  0.2476  1.0373 -0.0706
 1463SOL    HW2 5831   3.759   4.423  11.561 -1.6028  1.5701  0.4409
 1464SOL     OW 5832   7.090   3.605   0.696  0.2787  0.7403 -0.0177
 1464SOL    HW1 5833   7.159   3.647   0.748 -0.8424  2.6497  0.0103
 1464SOL    HW2 5834   7.056   3.675   0.639 -1.2659 -0.2717 -0.4109
 1465SOL     OW 5835   1.964   0.812   3.444  0.3680  0.3194  0.7308
 1465SOL    HW1 5836   1.917   0.881   3.492 -1.8167 -1.3263  1.1273
 1465SOL    HW2 5837   2.034   0.786   3.504  0.3968  1.2613  1.1373
 1466SOL     OW 5838   5.086   3.156   3.155 -0.5161  0.3625 -0.7888
 1466SOL    HW1 5839   5.176   3.167   3.186 -1.2200 -1.5196  2.4728
 1466SOL    HW2 5840   5.036   3.223   3.201 -1.0401  0.1728 -1.0685
 1467SOL     OW 5841   3.514   3.235   2.969 -0.5422  0.1515 -0.2577
 1467SOL    HW1 5842   3.455   3.166   3.002 -1.3813  0.8102 -0.3513
 1467SOL    HW2 5843   3.476   3.316   3.003  0.0870  0.6184 -0.6713
 1468SOL     OW 5844   0.617   5.858  11.900 -0.0065 -0.3281  0.3722
 1468SOL    HW1 5845   0.621   5.932  11.840 -0.2515 -0.0491  0.6917
 1468SOL    HW2 5846   0.708   5.836  11.917  0.2527  2.1117  2.9262
 1469SOL     OW 5847   0.715   7.713  10.067 -0.0681 -0.4522  0.0251
 1469SOL    HW1 5848   0.624   7.742  10.055  0.4651  0.5763 -1.8658
 1469SOL    HW2 5849   0.768   7.786  10.035  1.4760 -0.8084  1.5853
 1470SOL     OW 5850   7.879   2.815   4.343 -0.9489 -0.0347  0.5094
 1470SOL    HW1 5851   7.898   2.884   4.407  0.5718  0.9510 -0.9323
 1470SOL    HW2 5852   7.916   2.736   4.382 -0.8078  0.3665  1.2185
 1471SOL     OW 5853   3.468   7.960   3.746 -0.0694 -0.1912  0.0834
 1471SOL    HW1 5854   3.476   8.016   3.668 -0.3017 -0.1672  0.0754
 1471SOL    HW2 5855   3.555   7.921   3.757 -0.2725 -0.9060 -0.7242
 1472SOL     OW 5856   5.979   1.188  11.434 -0.0590  0.2824  0.4081
 1472SOL    HW1 5857   6.073   1.197  11.417  0.2017 -0.7986  1.2051
 1472SOL    HW2 5858   5.941   1.168  11.348  1.0008 -3.3588  0.6401
 1473SOL     OW 5859   0.486   3.279   0.743 -0.4005 -0.7183  0.4399
 1473SOL    HW1 5860   0.521   3.230   0.669  1.8443  1.1331  0.1384
 1473SOL    HW2 5861   0.528   3.239   0.820  2.7222  1.4547  0.0847
 1474SOL     OW 5862   2.194   1.580  12.007  0.1014 -0.7479  0.2629
 1474SOL    HW1 5863   2.099   1.589  12.006  0.1428 -0.3189 -0.2761
 1474SOL    HW2 5864   2.213   1.520  11.935  0.3794  0.8518 -1.0679
 1475SOL     OW 5865   1.022   0.007   5.426 -0.2112  0.3503  0.2824
 1475SOL    HW1 5866   1.018   0.098   5.456 -0.6089  1.3818 -2.5849
 1475SOL    HW2 5867   1.112  -0.004   5.394 -0.7610  0.4775 -1.3794
 1476SOL     OW 5868   3.588   0.244   0.203 -0.4437 -0.1398 -0.0711
 1476SOL    HW1 5869   3.653   0.176   0.221  0.2664  0.6738  0.5167
 1476SOL    HW2 5870   3.572   0.285   0.288 -1.1569  0.1768 -0.3459
 1477SOL     OW 5871   2.491   4.032   0.357 -0.4933 -0.6060 -0.1731
 1477SOL    HW1 5872   2.541   3.981   0.294 -1.0146 -0.3482 -0.8132
 1477SOL    HW2 5873   2.526   4.007   0.442  1.3884  0.2695 -0.6409
 1478SOL     OW 5874   1.074   2.897   8.770  0.0241 -0.4189 -0.5016
 1478SOL    HW1 5875   1.008   2.839   8.731 -0.3219  0.6135 -1.4905
 1478SOL    HW2 5876   1.101   2.954   8.699  2.8341 -1.5131 -0.4124
 1479SOL     OW 5877   7.944   4.994  11.860 -0.3452  0.3398 -0.2689
 1479SOL    HW1 5878   7.910   4.904  11.852  1.4748 -0.2750 -1.9548
 1479SOL    HW2 5879   7.999   4.992  11.937  1.3545 -0.6477 -1.4375
 1480SOL     OW 5880   7.543   3.585   9.146  0.2364 -0.1886 -0.0247
 1480SOL    HW1 5881   7.533   3.679   9.163  0.7231 -0.0514 -0.4793
 1480SOL    HW2 5882   7.613   3.579   9.082  0.6509 -0.9049  0.4726
 1481SOL     OW 5883   4.874   3.708   1.018  0.1109 -0.4855 -0.6857
 1481SOL    HW1 5884   4.910   3.751   1.095  0.4505  0.4224 -1.3389
 1481SOL    HW2 5885   4.844   3.622   1.050  0.8750 -0.3948  0.3000
 1482SOL     OW 5886   1.804   1.790   7.342 -0.0131  0.1361  0.8369
 1482SOL    HW1 5887   1.896   1.764   7.345  0.9191  3.0981  0.8559
 1482SOL    HW2 5888   1.780   1.786   7.250  0.1316 -0.5986  0.8260
 1483SOL     OW 5889   7.254   5.941   5.353  0.1726  0.1236 -0.4212
 1483SOL    HW1 5890   7.297   5.972   5.274 -0.0863 -2.6408 -1.7974
 1483SOL    HW2 5891   7.172   5.991   5.357  0.1924  0.3311 -1.9271
 1484SOL     OW 5892   3.320   4.432   2.798 -0.4728 -0.7066 -0.7897
 1484SOL    HW1 5893   3.297   4.387   2.880 -2.2852  0.0674 -0.8229
 1484SOL    HW2 5894   3.400   4.480   2.819 -2.6506  2.2715  1.7444
 1485SOL     OW 5895   3.999   0.590   2.868 -0.2025 -0.1348  0.0694
 1485SOL    HW1 5896   3.909   0.585   2.900 -0.5881 -1.6209 -1.0998
 1485SOL    HW2 5897   3.992   0.574   2.774  1.2958 -0.4667 -0.0177
 1486SOL     OW 5898   7.588   5.284   5.878 -0.0796 -0.1286 -0.3585
 1486SOL    HW1 5899   7.570   5.374   5.850 -1.1773  0.5845  2.3706
 1486SOL    HW2 5900   7.517   5.232   5.840  0.4098  0.1600 -1.7284
 1487SOL     OW 5901   3.617   1.230   4.385  0.1025  0.4509 -0.0714
 1487SOL    HW1 5902   3.625   1.266   4.473 -0.3854 -0.0546  0.1826
 1487SOL    HW2 5903   3.637   1.304   4.327 -1.3881  1.2815  0.4281
 1488SOL     OW 5904   5.815   4.507   4.379 -0.3806 -0.4410 -0.0065
 1488SOL    HW1 5905   5.895   4.532   4.332 -1.0329  0.4537 -0.6528
 1488SOL    HW2 5906   5.842   4.505   4.471  0.2048  0.6102 -0.1425
 1489SOL     OW 5907   2.931   5.619   1.478 -0.1038  0.4965 -0.2499
 1489SOL    HW1 5908   2.975   5.538   1.453 -1.2611  0.1344 -1.1667
 1489SOL    HW2 5909   2.853   5.590   1.526 -0.3876  1.0743 -0.3556
 1490SOL     OW 5910   6.381   3.761   1.195 -0.7231 -0.3451  0.3261
 1490SOL    HW1 5911   6.336   3.831   1.148  0.0480 -0.2500 -0.3036
 1490SOL    HW2 5912   6.352   3.681   1.153 -0.0821 -0.2641 -0.2896
 1491SOL     OW 5913   6.072   7.415  11.213  0.1371 -0.6264  0.3804
 1491SOL    HW1 5914   6.017   7.338  11.200 -1.1728  0.0410  1.6463
 1491SOL    HW2 5915   6.108   7.434  11.126 -1.8237 -0.9675 -0.5612
 1492SOL     OW 5916   3.982   4.930   8.197  0.6684 -0.7193  0.3643
 1492SOL    HW1 5917   4.013   4.843   8.218  3.0216 -0.3397 -1.1276
 1492SOL    HW2 5918   4.057   4.987   8.211  0.7881  0.3178 -3.3222
 1493SOL     OW 5919   3.301   1.900   1.033 -0.9838  0.3008  0.4094
 1493SOL    HW1 5920   3.209   1.882   1.049 -1.0327  0.8158  0.7321
 1493SOL    HW2 5921   3.348   1.836   1.086 -1.1371 -0.8837 -0.8171
 1494SOL     OW 5922   1.755   5.811  11.826  0.1073  0.1901  0.3219
 1494SOL    HW1 5923   1.827   5.845  11.773  1.6791  0.3607  2.4600
 1494SOL    HW2 5924   1.766   5.716  11.822  0.2387  0.2036  0.3524
 1495SOL     OW 5925   7.443   2.121   0.395 -0.4555  0.5479 -0.6287
 1495SOL    HW1 5926   7.431   2.139   0.302  1.1539  0.2863 -0.9278
 1495SOL    HW2 5927   7.443   2.207   0.437 -0.3352  0.7300 -1.0021
 1496SOL     OW 5928   0.751   1.311   0.851 -0.0613  0.0739  0.4890
 1496SOL    HW1 5929   0.739   1.406   0.855 -0.8073 -0.0654  1.7780
 1496SOL    HW2 5930   0.823   1.294   0.912 -0.2044 -0.2367  0.5690
 1497SOL     OW 5931   7.525   5.922  11.557  0.0197 -0.1486 -0.5011
 1497SOL    HW1 5932   7.558   5.913  11.646  0.7838  2.8121 -0.3927
 1497SOL    HW2 5933   7.524   6.016  11.540 -3.0852 -0.3788 -2.5378
 1498SOL     OW 5934   7.758   1.527   5.348 -0.3066  0.4517 -0.0001
 1498SOL    HW1 5935   7.791   1.527   5.258 -2.5897 -0.6087 -0.9154
 1498SOL    HW2 5936   7.676   1.576   5.344 -0.3455  0.5747  1.5704
 1499SOL     OW 5937   6.830   3.702   3.034  0.2285 -0.0199 -0.3696
 1499SOL    HW1 5938   6.774   3.754   2.976 -0.8589  0.1730  0.8061
 1499SOL    HW2 5939   6.819   3.743   3.120  1.7874 -0.3110 -0.0077
 1500SOL     OW 5940   6.516   6.704   8.295  0.3540  0.5949 -0.4397
 1500SOL    HW1 5941   6.449   6.763   8.330  0.9576  0.3634  1.1914
 1500SOL    HW2 5942   6.467   6.631   8.258 -0.3268  1.1543 -0.6743
 1501SOL     OW 5943   5.631   4.310   0.094  0.2127  0.2082  0.3410
 1501SOL    HW1 5944   5.558   4.290   0.035  1.3845 -0.8855 -0.8204
 1501SOL    HW2 5945   5.612   4.261   0.174 -0.0502 -0.5592 -0.1760
 1502SOL     OW 5946   5.305   7.590   1.139 -0.7548  0.5538 -0.6423
 1502SOL    HW1 5947   5.228   7.598   1.195 -0.9447 -1.1157 -0.5974
 1502SOL    HW2 5948   5.379   7.608   1.197 -1.0584  1.2811 -0.4684
 1503SOL     OW 5949   1.966   4.730   9.401  0.5630  0.2122  0.3162
 1503SOL    HW1 5950   1.876   4.759   9.417  0.1923 -0.3570 -0.6150
 1503SOL    HW2 5951   1.989   4.770   9.317  0.5231 -1.0572 -0.3247
 1504SOL     OW 5952   1.934   3.239  11.262 -0.4518 -0.1060  0.1490
 1504SOL    HW1 5953   1.986   3.300  11.210 -1.0200  1.5673  1.4497
 1504SOL    HW2 5954   1.849   3.237  11.219 -0.2411 -0.5201 -0.2636
 1505SOL     OW 5955   6.434   6.453   8.219  0.1068 -0.0977  0.4527
 1505SOL    HW1 5956   6.478   6.475   8.136 -0.7344  0.0072  0.0198
 1505SOL    HW2 5957   6.399   6.365   8.204  0.0475 -0.1211  0.7384
 1506SOL     OW 5958   0.479   3.885   8.444 -0.8183  0.4146 -0.1012
 1506SOL    HW1 5959   0.388   3.893   8.418 -0.3906  0.7379 -1.5938
 1506SOL    HW2 5960   0.528   3.878   8.362  0.5930  1.3428  0.6039
 1507SOL     OW 5961   2.800   0.937   7.854 -0.3933  0.0069 -0.1918
 1507SOL    HW1 5962   2.863   0.867   7.873 -0.1899  0.3793  0.5123
 1507SOL    HW2 5963   2.828   0.970   7.768  1.7942  1.6569  1.0379
 1508SOL     OW 5964   5.148   0.763   9.372 -0.2861 -0.5891 -0.0720
 1508SOL    HW1 5965   5.180   0.753   9.462  1.2801 -0.9675 -0.6418
 1508SOL    HW2 5966   5.120   0.676   9.347 -2.1458 -0.1996  0.5318
 1509SOL     OW 5967   1.932   7.533  12.201 -0.0530  0.0773  0.6636
 1509SOL    HW1 5968   1.867   7.604  12.211  1.1617  1.3569 -0.1717
 1509SOL    HW2 5969   1.893   7.475  12.136 -0.5267  0.6389  0.4305
 1510SOL     OW 5970   4.543   3.372   2.509 -0.1173  0.2905 -0.3238
 1510SOL    HW1 5971   4.488   3.333   2.576  0.4294  1.2205  0.6911
 1510SOL    HW2 5972   4.523   3.466   2.512  0.3706  0.4308 -1.0240
 1511SOL     OW 5973   1.379   6.640   4.549  0.6675 -0.2314 -0.2919
 1511SOL    HW1 5974   1.375   6.664   4.457 -0.6324  1.0327  0.0440
 1511SOL    HW2 5975   1.289   6.651   4.581  0.8357 -1.7860  0.8713
 1512SOL     OW 5976   1.607   6.836   8.976  0.0773  0.1558  0.4914
 1512SOL    HW1 5977   1.681   6.775   8.984 -0.4885 -0.6112  0.0508
 1512SOL    HW2 5978   1.648   6.921   8.959  0.8580 -0.3266 -0.1265
 1513SOL     OW 5979   0.570   5.862   8.060 -0.4404  0.4098 -0.0503
 1513SOL    HW1 5980   0.643   5.881   8.002 -0.4473 -0.4833 -0.3566
 1513SOL    HW2 5981   0.507   5.933   8.043 -0.1187  0.5723 -0.5732
 1514SOL     OW 5982   4.328   4.373  10.829 -0.3101  0.7139  0.7444
 1514SOL    HW1 5983   4.250   4.328  10.797  0.3703 -0.5437  0.7719
 1514SOL    HW2 5984   4.354   4.323  10.906 -0.1341  1.8139  1.4050
 1515SOL     OW 5985   0.573   0.942   4.539 -0.1316 -0.3299  0.1684
 1515SOL    HW1 5986   0.516   0.997   4.485 -1.0267 -0.8395  0.5714
 1515SOL    HW2 5987   0.657   0.943   4.493 -0.3770  0.6625 -0.2901
 1516SOL     OW 5988   0.865   1.173   0.190 -0.4508  0.3327  0.1980
 1516SOL    HW1 5989   0.864   1.167   0.285  1.0816 -0.7207  0.1810
 1516SOL    HW2 5990   0.925   1.103   0.162 -2.1025 -0.4341 -1.6277
 1517SOL     OW 5991   5.992   2.218   9.153  0.1740  0.2730  0.3527
 1517SOL    HW1 5992   5.955   2.263   9.229  0.1552  0.3254  0.3132
 1517SOL    HW2 5993   6.066   2.168   9.188 -1.1808 -1.5182  0.8011
 1518SOL     OW 5994   6.559   2.472  11.348  0.0052  0.4510  0.9859
 1518SOL    HW1 5995   6.640   2.463  11.297 -0.3723  0.4699  0.3684
 1518SOL    HW2 5996   6.523   2.556  11.320 -1.1398 -0.3704 -0.1084
 1519SOL     OW 5997   0.388   0.798   4.664  0.3918  0.2715 -0.1071
 1519SOL    HW1 5998   0.461   0.835   4.614 -0.0978  0.4671 -0.6784
 1519SOL    HW2 5999   0.428   0.770   4.747  1.1646  0.1537 -0.5079
 1520SOL     OW 6000   5.056   2.924   6.110  0.0567 -0.3078  0.5479
 1520SOL    HW1 6001   5.000   2.848   6.122  1.2877 -1.3763 -0.1439
 1520SOL    HW2 6002   5.120   2.896   6.044 -0.1300  1.7046 -0.5629
 1521SOL     OW 6003   5.858   5.135   1.122 -1.0933 -0.2689 -0.7687
 1521SOL    HW1 6004   5.889   5.181   1.200 -2.9429 -2.6280  1.5131
 1521SOL    HW2 6005   5.922   5.158   1.054 -0.8940  4.0776  0.5727
 1522SOL     OW 6006   3.672   6.769   3.443 -0.4875 -0.5407 -0.0792
 1522SOL    HW1 6007   3.736   6.743   3.377  0.0288 -2.3615  1.0774
 1522SOL    HW2 6008   3.721   6.770   3.525 -1.9514 -2.1853  0.8671
 1523SOL     OW 6009   2.861   6.486   0.974 -0.7296 -0.2791 -0.6261
 1523SOL    HW1 6010   2.803   6.562   0.978 -0.5590 -0.1298 -0.9686
 1523SOL    HW2 6011   2.855   6.447   1.061 -1.1617 -0.1299 -0.5866
 1524SOL     OW 6012   3.904   4.642   5.534  0.3552  0.2828  0.2022
 1524SOL    HW1 6013   3.955   4.670   5.458 -1.0341  0.2176 -0.7858
 1524SOL    HW2 6014   3.908   4.547   5.532 -0.3954  0.2524 -0.3175
 1525SOL     OW 6015   6.914   4.324   4.854  0.7139 -0.3566  0.1244
 1525SOL    HW1 6016   6.886   4.238   4.824  0.8648 -0.9823  1.6805
 1525SOL    HW2 6017   6.997   4.309   4.898  2.0887  1.0167 -1.8045
 1526SOL     OW 6018   6.175   1.245   8.859 -0.5379 -0.4515  0.1715
 1526SOL    HW1 6019   6.233   1.313   8.826 -0.6578 -0.7874 -0.7631
 1526SOL    HW2 6020   6.087   1.278   8.844 -0.6107 -1.1376 -1.0491
 1527SOL     OW 6021   6.704   4.359   9.850 -0.0489 -0.1999  0.1835
 1527SOL    HW1 6022   6.646   4.308   9.794 -1.2153 -0.8956  1.9438
 1527SOL    HW2 6023   6.768   4.296   9.882 -0.1500 -0.0766  0.6301
 1528SOL     OW 6024   0.152   3.270  11.288  0.7758 -0.4124  0.7579
 1528SOL    HW1 6025   0.128   3.189  11.242 -1.2183 -0.1599  1.2299
 1528SOL    HW2 6026   0.148   3.246  11.381  0.7344  0.0917  0.8859
 1529SOL     OW 6027   4.730   7.373   6.422 -0.0873  0.5350 -0.5185
 1529SOL    HW1 6028   4.696   7.324   6.496  0.9369  1.2654  0.4733
 1529SOL    HW2 6029   4.813   7.331   6.401  0.9655  1.9549  0.5537
 1530SOL     OW 6030   5.206   0.073   5.683 -0.4797 -0.0482 -0.3776
 1530SOL    HW1 6031   5.228   0.166   5.682 -0.4674 -0.0420 -1.5210
 1530SOL    HW2 6032   5.157   0.060   5.764  0.5485  0.6973  0.3771
 1531SOL     OW 6033   2.380   0.933   6.115  0.0853 -0.2846  0.3267
 1531SOL    HW1 6034   2.287   0.921   6.102  0.0735 -1.3959  1.3196
 1531SOL    HW2 6035   2.420   0.910   6.031 -0.5696  1.0970 -0.4011
 1532SOL     OW 6036   5.207   4.927   3.875  0.2657 -0.2820 -0.0614
 1532SOL    HW1 6037   5.268   4.911   3.803 -0.1923 -0.7800 -0.3514
 1532SOL    HW2 6038   5.204   4.844   3.922 -0.1323 -0.2450 -0.0134
 1533SOL     OW 6039   6.954   3.368   6.281 -0.2489 -0.6309  0.0936
 1533SOL    HW1 6040   6.865   3.380   6.313  0.0904 -0.0206  0.8267
 1533SOL    HW2 6041   7.010   3.407   6.348  0.4572  1.1852 -1.4613
 1534SOL     OW 6042   0.262   5.117  11.831  0.2810 -0.4547  0.0363
 1534SOL    HW1 6043   0.288   5.203  11.863  1.4693 -0.5814 -0.5596
 1534SOL    HW2 6044   0.234   5.070  11.909  1.1222 -0.0543  0.5875
 1535SOL     OW 6045   4.284   4.598   8.910 -0.4927  0.3755  0.1500
 1535SOL    HW1 6046   4.366   4.647   8.908 -0.6591  0.6621  0.4237
 1535SOL    HW2 6047   4.216   4.664   8.911 -0.7560  0.1396 -1.0057
 1536SOL     OW 6048   7.907   1.712  12.039 -0.3342  0.6303  0.1463
 1536SOL    HW1 6049   7.937   1.622  12.052  0.5042  0.9005  0.1449
 1536SOL    HW2 6050   7.867   1.710  11.952 -2.6295 -0.3075  1.1314
 1537SOL     OW 6051   4.526   7.253   6.614  0.0454 -0.1527 -0.6527
 1537SOL    HW1 6052   4.455   7.264   6.551 -0.1826  0.1951 -0.3430
 1537SOL    HW2 6053   4.508   7.168   6.655 -0.6960  0.3142  0.0306
 1538SOL     OW 6054   3.276   2.210   4.303  0.5913 -0.1716  0.0924
 1538SOL    HW1 6055   3.310   2.298   4.318 -1.3352  0.6790 -0.1363
 1538SOL    HW2 6056   3.215   2.196   4.376  0.4382 -1.0829 -0.2031
 1539SOL     OW 6057   5.308   5.717   7.937 -0.2009 -0.3906  0.5149
 1539SOL    HW1 6058   5.315   5.803   7.896  0.1524 -1.2782 -1.4075
 1539SOL    HW2 6059   5.391   5.706   7.983  0.5012 -0.3721 -0.6886
 1540SOL     OW 6060   2.988   6.432   3.611  0.6329 -0.3627  0.1900
 1540SOL    HW1 6061   2.895   6.413   3.618  0.9449 -2.5972 -0.7241
 1540SOL    HW2 6062   3.011   6.409   3.521  1.9976  0.5280  0.2803
 1541SOL     OW 6063   5.789   0.809  10.009  0.0667 -0.3008  0.2139
 1541SOL    HW1 6064   5.700   0.803   9.975 -0.0335 -0.3169  0.4772
 1541SOL    HW2 6065   5.778   0.812  10.104  0.3570 -0.4909  0.2536
 1542SOL     OW 6066   6.035   4.263  10.372  0.5743 -0.0239 -0.6045
 1542SOL    HW1 6067   5.958   4.267  10.315  0.8081 -0.1949 -0.9405
 1542SOL    HW2 6068   6.020   4.330  10.438  0.1257 -0.0744 -0.6533
 1543SOL     OW 6069   4.825   0.784   5.699 -0.2382  0.1453 -0.2674
 1543SOL    HW1 6070   4.902   0.781   5.643  0.3841 -0.0984  0.5822
 1543SOL    HW2 6071   4.752   0.762   5.641  0.4568 -0.6781 -0.8468
 1544SOL     OW 6072   0.661   7.545   2.591 -0.1741  0.1126 -0.0698
 1544SOL    HW1 6073   0.740   7.498   2.564 -0.4177  0.6776 -1.8441
 1544SOL    HW2 6074   0.595   7.519   2.528 -1.3822 -0.1701  1.2634
 1545SOL     OW 6075   0.906   1.957   1.462 -0.0854  0.3920 -0.1905
 1545SOL    HW1 6076   0.842   1.903   1.415 -0.0562  0.0907  0.1202
 1545SOL    HW2 6077   0.865   1.974   1.547  0.1258  0.4408 -0.0992
 1546SOL     OW 6078   3.394   1.220   6.710 -0.0349 -0.1251 -0.0066
 1546SOL    HW1 6079   3.327   1.157   6.734  1.0033 -1.3458 -0.1996
 1546SOL    HW2 6080   3.375   1.243   6.619 -1.4982  1.2960  0.6109
 1547SOL     OW 6081   2.623   7.666  11.098 -0.1194 -0.4934 -0.2500
 1547SOL    HW1 6082   2.715   7.658  11.073  0.0429 -0.2556  0.2518
 1547SOL    HW2 6083   2.602   7.582  11.141  0.3410  0.0522  1.1053
 1548SOL     OW 6084   6.042   1.111   5.509  0.1244 -0.1747  0.5742
 1548SOL    HW1 6085   5.953   1.146   5.515  0.3427  0.8408 -1.2536
 1548SOL    HW2 6086   6.078   1.122   5.597 -1.3013  0.1005  1.1552
 1549SOL     OW 6087   2.194   3.794   7.036  0.0336 -0.7176  0.5795
 1549SOL    HW1 6088   2.192   3.870   6.978 -0.3066 -1.4941 -0.4499
 1549SOL    HW2 6089   2.109   3.794   7.079 -1.0451 -2.0074 -1.4280
 1550SOL     OW 6090   0.693   5.887   2.467  0.4452 -0.2430 -0.3179
 1550SOL    HW1 6091   0.721   5.796   2.459  1.9782  0.0880  0.8030
 1550SOL    HW2 6092   0.736   5.918   2.546 -2.3895  0.6436  0.9968
 1551SOL     OW 6093   1.245   3.851   8.925  0.5852  0.0546 -0.3904
 1551SOL    HW1 6094   1.292   3.878   8.846  0.3077 -0.8691 -0.8735
 1551SOL    HW2 6095   1.247   3.755   8.923 -1.1799 -0.0112 -0.3379
 1552SOL     OW 6096   4.109   2.318   3.679 -0.1244  0.0308  0.4525
 1552SOL    HW1 6097   4.089   2.405   3.712 -0.3945  0.3853 -0.6243
 1552SOL    HW2 6098   4.122   2.265   3.758  1.8004  1.4219  1.1424
 1553SOL     OW 6099   4.755   6.713   1.125  0.3252  0.0546  0.2210
 1553SOL    HW1 6100   4.842   6.745   1.148  1.3857 -0.6763 -2.3808
 1553SOL    HW2 6101   4.734   6.757   1.043 -0.6302 -1.6543 -0.5022
 1554SOL     OW 6102   7.686   6.858   3.169  0.0099  0.0852  0.1233
 1554SOL    HW1 6103   7.607   6.902   3.138 -0.3677 -1.1350 -0.7209
 1554SOL    HW2 6104   7.653   6.785   3.222  0.5317 -0.6871 -0.5831
 1555SOL     OW 6105   5.401   2.803   1.417  0.3339 -0.0414 -0.1572
 1555SOL    HW1 6106   5.355   2.837   1.494 -0.2350  0.1804 -0.5849
 1555SOL    HW2 6107   5.475   2.862   1.405  0.7766 -0.4304  0.5695
 1556SOL     OW 6108   5.410   2.028   4.711 -0.1327 -0.4029 -0.2936
 1556SOL    HW1 6109   5.417   1.939   4.746 -0.5863  0.1307  1.2170
 1556SOL    HW2 6110   5.488   2.073   4.745 -0.0305 -0.1500 -0.8539
 1557SOL     OW 6111   0.443   4.620  10.981  0.4477 -0.5305 -0.0044
 1557SOL    HW1 6112   0.355   4.655  10.972  0.8632  1.2093  2.1270
 1557SOL    HW2 6113   0.431   4.525  10.972 -1.2932 -0.2271 -1.7629
 1558SOL     OW 6114   3.928   6.088  10.908 -0.4820  0.8231  0.3999
 1558SOL    HW1 6115   3.936   6.041  10.824 -1.5072  2.3118 -0.5994
 1558SOL    HW2 6116   4.016   6.120  10.926  0.1444 -1.0282  0.8715
 1559SOL     OW 6117   5.933   4.421  11.553  0.0439 -0.1230  0.1273
 1559SOL    HW1 6118   6.007   4.416  11.614 -1.2790 -1.1974  1.7295
 1559SOL    HW2 6119   5.863   4.462  11.604 -0.9978 -0.7256 -0.7824
 1560SOL     OW 6120   0.561   7.425  11.280  0.0551  0.1790  0.9686
 1560SOL    HW1 6121   0.636   7.467  11.321  0.6863  0.1697 -0.1483
 1560SOL    HW2 6122   0.536   7.356  11.342  1.1787 -0.0389  1.2083
 1561SOL     OW 6123   6.189   2.893  11.282  0.6787  0.5089 -0.0909
 1561SOL    HW1 6124   6.246   2.922  11.353  0.8342  0.3113 -0.1334
 1561SOL    HW2 6125   6.110   2.862  11.325 -0.2560  2.6621 -0.1250
 1562SOL     OW 6126   3.116   2.072   0.148  0.1232 -0.1169 -0.2370
 1562SOL    HW1 6127   3.091   2.088   0.239  1.0974 -0.5371  0.1166
 1562SOL    HW2 6128   3.093   2.154   0.103 -0.0675  0.2147  0.4409
 1563SOL     OW 6129   6.122   7.245   5.327  0.0946  0.4156 -0.1093
 1563SOL    HW1 6130   6.098   7.223   5.237  1.5941  1.1647 -0.7277
 1563SOL    HW2 6131   6.137   7.340   5.324 -2.2219  0.9066  1.5190
 1564SOL     OW 6132   1.909   6.429   7.523  0.3616 -0.6182  0.2343
 1564SOL    HW1 6133   1.894   6.455   7.613  0.8983  1.1378 -0.1420
 1564SOL    HW2 6134   1.933   6.510   7.478 -0.1179 -1.3997 -1.5368
 1565SOL     OW 6135   0.783   4.217   3.863 -0.2424 -0.4036  0.0476
 1565SOL    HW1 6136   0.791   4.309   3.889 -0.2709 -0.0174 -1.2464
 1565SOL    HW2 6137   0.818   4.168   3.938 -0.5994  0.6341  0.9195
 1566SOL     OW 6138   7.942   7.657   7.872  0.1513 -0.1119  0.5254
 1566SOL    HW1 6139   7.979   7.729   7.821 -0.0063 -1.1302 -1.0905
 1566SOL    HW2 6140   8.017   7.620   7.918  0.3723  0.5598  0.7231
 1567SOL     OW 6141   3.772   7.591  11.442  0.1886  0.1601  0.0327
 1567SOL    HW1 6142   3.839   7.607  11.376 -0.8212  0.7175 -0.9027
 1567SOL    HW2 6143   3.773   7.496  11.455 -0.2300 -0.0861 -1.5238
 1568SOL     OW 6144   6.352   1.986   4.174  0.2808 -0.1155  0.0845
 1568SOL    HW1 6145   6.425   1.993   4.235 -0.7486 -0.6714  1.4231
 1568SOL    HW2 6146   6.387   1.937   4.100  1.6053  0.7539  0.1130
 1569SOL     OW 6147   5.144   0.405   4.252 -0.1090  0.5370 -0.5938
 1569SOL    HW1 6148   5.165   0.496   4.273  1.5687  0.4522 -1.7007
 1569SOL    HW2 6149   5.054   0.393   4.282  0.1871  2.0738  1.0370
 1570SOL     OW 6150   4.202   4.089   0.973 -0.4324 -0.0569 -0.4055
 1570SOL    HW1 6151   4.265   4.021   0.947  2.3720  1.1444  2.5060
 1570SOL    HW2 6152   4.215   4.159   0.909  1.2689  0.1349  0.0914
 1571SOL     OW 6153   0.644   1.751   5.206 -0.1109 -0.0053  0.2697
 1571SOL    HW1 6154   0.611   1.662   5.218  0.1002 -0.2147 -0.6922
 1571SOL    HW2 6155   0.603   1.800   5.277 -2.0693 -0.3802 -0.5338
 1572SOL     OW 6156   1.689   6.805   9.494  0.1508 -0.1161 -0.2388
 1572SOL    HW1 6157   1.727   6.743   9.432 -0.3151 -1.3967  0.7244
 1572SOL    HW2 6158   1.753   6.810   9.565  0.5494  1.1255 -0.6525
 1573SOL     OW 6159   1.389   6.523   8.881  0.1406  0.5729 -0.0541
 1573SOL    HW1 6160   1.358   6.433   8.892 -0.0650  0.7044  0.4451
 1573SOL    HW2 6161   1.484   6.515   8.874  0.2699  0.4462  1.5305
 1574SOL     OW 6162   1.472   6.424   4.698  0.0100  0.7776 -0.2569
 1574SOL    HW1 6163   1.442   6.492   4.639  1.1690  1.5795  0.0461
 1574SOL    HW2 6164   1.417   6.434   4.776 -0.3536  0.8376 -0.5179
 1575SOL     OW 6165   5.362   3.205   5.348  0.0911  0.0371  0.4993
 1575SOL    HW1 6166   5.401   3.157   5.421  0.1327  0.1199  0.5319
 1575SOL    HW2 6167   5.356   3.295   5.379 -2.2900 -0.3636  1.3573
 1576SOL     OW 6168   3.952   4.384   7.151  0.2710 -0.0804 -0.3380
 1576SOL    HW1 6169   3.907   4.313   7.197  0.5515 -0.4401 -0.6166
 1576SOL    HW2 6170   3.932   4.462   7.203  0.8246 -0.5268  0.5729
 1577SOL     OW 6171   4.162   2.849   9.652  0.2460 -0.4836 -0.4704
 1577SOL    HW1 6172   4.195   2.939   9.649  3.0879 -1.3431  1.4324
 1577SOL    HW2 6173   4.235   2.795   9.622 -0.1544 -2.3922  1.7347
 1578SOL     OW 6174   7.448   6.727   9.059  0.6835  0.1526  0.2605
 1578SOL    HW1 6175   7.542   6.728   9.076  0.4626 -0.1538  1.6034
 1578SOL    HW2 6176   7.419   6.641   9.090  0.1666 -0.3205 -1.4221
 1579SOL     OW 6177   7.576   4.435   4.921  0.2828 -0.0226  0.0766
 1579SOL    HW1 6178   7.651   4.395   4.967  0.4817  0.1918 -0.0612
 1579SOL    HW2 6179   7.546   4.367   4.862 -1.2082 -1.0338  1.8846
 1580SOL     OW 6180   2.268   0.837  10.583 -0.3834  0.0921  0.1127
 1580SOL    HW1 6181   2.313   0.766  10.629 -2.4099 -1.6305 -0.4212
 1580SOL    HW2 6182   2.303   0.917  10.624  2.8983 -1.0562 -0.1145
 1581SOL     OW 6183   3.547   3.350   1.851 -0.2238  0.0175  0.1906
 1581SOL    HW1 6184   3.459   3.383   1.869  0.4582  0.9657  1.9562
 1581SOL    HW2 6185   3.600   3.429   1.839  1.1556 -0.3723  3.0718
 1582SOL     OW 6186   3.479   5.569   6.247  0.0049  0.1406 -0.4395
 1582SOL    HW1 6187   3.423   5.647   6.251  0.0073  0.1855 -1.1827
 1582SOL    HW2 6188   3.562   5.601   6.212  0.1240 -0.1344 -0.4090
 1583SOL     OW 6189   2.407   6.318   1.240 -0.5384  0.3615 -0.0697
 1583SOL    HW1 6190   2.347   6.251   1.207 -0.1533  0.3041 -0.6869
 1583SOL    HW2 6191   2.385   6.327   1.332  0.6072 -1.9299  0.5053
 1584SOL     OW 6192   7.193   3.540  10.052 -0.3408  0.0722  0.2262
 1584SOL    HW1 6193   7.209   3.567  10.143 -1.2708 -0.7259  0.6432
 1584SOL    HW2 6194   7.147   3.457  10.060  1.3971 -1.0782 -1.0061
 1585SOL     OW 6195   5.530   6.943   2.114 -0.1578  0.0803  0.6302
 1585SOL    HW1 6196   5.584   7.012   2.153 -0.8719  0.2477  1.3477
 1585SOL    HW2 6197   5.451   6.942   2.167 -0.1572 -1.3155  0.6445
 1586SOL     OW 6198   7.219   5.530   7.229 -0.0599  0.5618 -0.0056
 1586SOL    HW1 6199   7.310   5.528   7.198  0.2765 -1.5146  0.8656
 1586SOL    HW2 6200   7.166   5.515   7.151  0.5600 -1.0207 -0.1696
 1587SOL     OW 6201   4.559   1.397   5.635 -0.0683  0.0506 -0.0491
 1587SOL    HW1 6202   4.505   1.318   5.630 -2.7757  1.7484  0.4495
 1587SOL    HW2 6203   4.560   1.431   5.545  0.3076 -0.0170 -0.0754
 1588SOL     OW 6204   3.680   3.765   8.372 -0.5598 -0.2634 -0.0240
 1588SOL    HW1 6205   3.753   3.705   8.384  0.0912  0.6094  0.5197
 1588SOL    HW2 6206   3.630   3.757   8.453 -0.6899 -0.3563 -0.1129
 1589SOL     OW 6207   6.367   5.611   4.869  0.4863  0.3405  0.2578
 1589SOL    HW1 6208   6.354   5.682   4.932 -2.0595  0.7132 -0.5831
 1589SOL    HW2 6209   6.328   5.643   4.788 -1.9475 -2.4255  0.1710
 1590SOL     OW 6210   2.019   0.138   7.815 -0.6450 -0.0556 -0.2835
 1590SOL    HW1 6211   2.063   0.179   7.889  1.7542 -1.0646 -1.0665
 1590SOL    HW2 6212   2.015   0.206   7.748 -0.4143  0.0797 -0.1574
 1591SOL     OW 6213   0.174   4.529   8.561 -0.2624  0.0270 -0.4496
 1591SOL    HW1 6214   0.173   4.466   8.633 -0.1287 -0.1270 -0.5833
 1591SOL    HW2 6215   0.267   4.542   8.541 -0.3049 -0.0839 -0.7280
 1592SOL     OW 6216   2.473   3.628  10.286 -0.2629 -0.0395  0.7948
 1592SOL    HW1 6217   2.436   3.716  10.282  0.4356  0.2219 -0.7443
 1592SOL    HW2 6218   2.451   3.596  10.373  1.9470  2.7657  2.5561
 1593SOL     OW 6219   6.055   2.723   6.930 -0.3213 -0.2397 -0.7643
 1593SOL    HW1 6220   6.092   2.698   6.846  0.0974 -1.5719 -0.2121
 1593SOL    HW2 6221   6.007   2.804   6.913 -1.2440 -1.1118 -2.5513
 1594SOL     OW 6222   6.751   4.823   5.482  0.5295  0.2378  0.9357
 1594SOL    HW1 6223   6.703   4.765   5.542  1.1202 -0.2257  0.9603
 1594SOL    HW2 6224   6.807   4.875   5.540  0.7218  0.1510  0.8243
 1595SOL     OW 6225   6.185   4.417   1.431  0.3129 -0.0741  0.5625
 1595SOL    HW1 6226   6.104   4.425   1.380 -0.0867  0.0231  1.2116
 1595SOL    HW2 6227   6.156   4.400   1.520  0.9711  1.5031  1.1067
 1596SOL     OW 6228   3.815   7.002   9.059 -0.4842 -0.3077 -0.1026
 1596SOL    HW1 6229   3.873   7.063   9.104  0.5223 -1.1452 -0.2253
 1596SOL    HW2 6230   3.873   6.935   9.023 -1.3886 -0.4365 -1.4237
 1597SOL     OW 6231   7.502   3.002   2.289 -0.6483 -0.8283 -0.2596
 1597SOL    HW1 6232   7.462   2.931   2.340  0.2245 -0.9229  0.3151
 1597SOL    HW2 6233   7.518   3.071   2.354  1.1084 -1.2107 -0.2394
 1598SOL     OW 6234   1.416   7.578   3.964  0.2734 -0.2816  0.0935
 1598SOL    HW1 6235   1.494   7.525   3.979  0.1336 -0.5965 -0.2853
 1598SOL    HW2 6236   1.351   7.517   3.929 -0.6667 -0.3657  1.8339
 1599SOL     OW 6237   3.754   2.752   1.511  0.4895  0.7612  0.1066
 1599SOL    HW1 6238   3.703   2.759   1.430  0.3527 -0.9585 -0.0064
 1599SOL    HW2 6239   3.728   2.828   1.562 -1.6344  0.3667 -0.2766
 1600SOL     OW 6240   4.157   2.023   0.728  0.5508 -0.3782  0.0734
 1600SOL    HW1 6241   4.161   2.060   0.816 -1.3209  0.0049  0.0294
 1600SOL    HW2 6242   4.078   2.059   0.690  0.2027 -2.1746 -1.0307
 1601SOL     OW 6243   6.428   7.522   0.899  0.0961  0.3391 -0.4297
 1601SOL    HW1 6244   6.351   7.465   0.909  0.7542 -0.3127  1.1327
 1601SOL    HW2 6245   6.460   7.535   0.988  2.5168 -0.4065 -1.1097
 1602SOL     OW 6246   1.945   1.231   5.936 -0.3827 -0.1429  0.2446
 1602SOL    HW1 6247   1.876   1.176   5.972 -1.0175  1.4077  1.5258
 1602SOL    HW2 6248   1.928   1.234   5.842  0.2264 -2.8066 -0.0455
 1603SOL     OW 6249   3.438   1.685   3.894  0.3680  0.4966 -0.0165
 1603SOL    HW1 6250   3.374   1.713   3.959  1.7721  1.6282  0.9695
 1603SOL    HW2 6251   3.420   1.740   3.817 -2.2134 -1.8208 -1.2263
 1604SOL     OW 6252   7.435   6.093   8.580  0.6672 -0.4786 -0.1895
 1604SOL    HW1 6253   7.433   6.029   8.509  2.6286  0.0698 -0.7971
 1604SOL    HW2 6254   7.479   6.169   8.542 -0.3106  0.7168  0.9472
 1605SOL     OW 6255   1.449   6.403   9.302 -0.0657  0.1669  0.5420
 1605SOL    HW1 6256   1.468   6.434   9.391 -2.8827 -0.2796  1.4182
 1605SOL    HW2 6257   1.465   6.479   9.246 -1.9572  1.7354  1.9908
 1606SOL     OW 6258   6.437   7.108   5.002 -0.2677  0.4128 -0.4086
 1606SOL    HW1 6259   6.384   7.091   5.080 -0.8435 -0.6260 -1.0091
 1606SOL    HW2 6260   6.438   7.203   4.994  0.9482  0.6541  1.6434
 1607SOL     OW 6261   2.173   6.972   8.192 -0.3161  0.1502  0.2029
 1607SOL    HW1 6262   2.175   6.898   8.131 -0.6560 -1.9072  2.5098
 1607SOL    HW2 6263   2.118   7.037   8.150  1.6930  0.0576 -2.8784
 1608SOL     OW 6264   7.325   4.186   8.844 -0.4118 -0.1684 -0.5530
 1608SOL    HW1 6265   7.273   4.251   8.892 -1.5058 -0.5183 -1.2148
 1608SOL    HW2 6266   7.414   4.196   8.878 -0.7506  1.0085  0.0413
 1609SOL     OW 6267   5.954   4.781   1.825 -0.0392  0.2818 -0.7222
 1609SOL    HW1 6268   5.883   4.839   1.851  0.3382  0.6607 -0.5163
 1609SOL    HW2 6269   5.979   4.737   1.906  0.8185  1.1082 -0.5183
 1610SOL     OW 6270   6.628   5.049   4.950  0.2486 -0.1390  0.2910
 1610SOL    HW1 6271   6.645   5.140   4.975  0.0667 -0.2029  0.6628
 1610SOL    HW2 6272   6.628   5.050   4.854 -1.7575  0.6643  0.2406
 1611SOL     OW 6273   5.593   1.758  11.196  0.2890  0.2565 -0.1615
 1611SOL    HW1 6274   5.609   1.664  11.184 -0.5705 -0.1120  1.3270
 1611SOL    HW2 6275   5.680   1.797  11.194  0.8018 -0.7736  0.6084
 1612SOL     OW 6276   6.762   2.201  12.240 -0.3645 -0.5407 -0.1818
 1612SOL    HW1 6277   6.828   2.232  12.178 -0.1295 -3.3319 -1.4811
 1612SOL    HW2 6278   6.684   2.184  12.187 -1.2475  0.1283  0.8709
 1613SOL     OW 6279   2.366   4.099   2.097 -0.1781  0.2197  0.1158
 1613SOL    HW1 6280   2.355   4.004   2.089  3.9682 -0.3244 -2.5961
 1613SOL    HW2 6281   2.308   4.136   2.031 -0.7061 -0.5377  0.1427
 1614SOL     OW 6282   6.530   6.828   2.263 -0.3452  0.2874  0.4134
 1614SOL    HW1 6283   6.605   6.778   2.296  0.4838  0.9045 -0.4641
 1614SOL    HW2 6284   6.514   6.790   2.176 -1.0035  0.2205  0.5608
 1615SOL     OW 6285   3.057   3.263   7.500 -0.3726 -0.2719 -0.0751
 1615SOL    HW1 6286   3.116   3.291   7.430  1.5486 -0.7649  1.2904
 1615SOL    HW2 6287   3.049   3.340   7.557  1.2662 -1.0180  1.2383
 1616SOL     OW 6288   6.273   3.760   2.345 -0.3726 -0.0959 -0.3405
 1616SOL    HW1 6289   6.358   3.730   2.313 -0.5113  0.1393 -0.9384
 1616SOL    HW2 6290   6.212   3.690   2.322 -0.8368  0.9193 -2.4292
 1617SOL     OW 6291   0.727   0.367   7.261  0.4626  0.1443  0.2256
 1617SOL    HW1 6292   0.693   0.355   7.350  1.1648 -0.9199  0.3637
 1617SOL    HW2 6293   0.782   0.446   7.268  1.0844 -0.3355  0.9124
 1618SOL     OW 6294   2.491   6.646   9.054 -0.0861  0.3938 -0.2309
 1618SOL    HW1 6295   2.554   6.577   9.033 -0.4742 -1.3844  3.4812
 1618SOL    HW2 6296   2.502   6.660   9.148 -0.1795  5.4211 -0.6917
 1619SOL     OW 6297   5.246   1.111   6.526  0.6593 -0.4408  1.0046
 1619SOL    HW1 6298   5.320   1.170   6.512 -1.7083  3.4454  3.2622
 1619SOL    HW2 6299   5.258   1.077   6.615  1.1279 -2.2300  0.3175
 1620SOL     OW 6300   2.986   4.785   4.073  0.7535 -0.0177  0.5182
 1620SOL    HW1 6301   3.013   4.719   4.010 -1.1647 -0.8315  0.5008
 1620SOL    HW2 6302   3.051   4.855   4.064  4.2809 -2.7650  2.1474
 1621SOL     OW 6303   0.189   7.679  12.283  0.2780 -0.2542  0.2609
 1621SOL    HW1 6304   0.276   7.646  12.258  0.5603  0.7697 -0.1682
 1621SOL    HW2 6305   0.139   7.679  12.202  0.3558  0.5635  0.2058
 1622SOL     OW 6306   7.976   2.840   1.013  0.3145 -0.1952 -0.0792
 1622SOL    HW1 6307   8.035   2.838   0.938 -1.1609  0.8819 -1.3286
 1622SOL    HW2 6308   8.028   2.879   1.083  1.7871 -1.4169 -0.4484
 1623SOL     OW 6309   3.841   4.292   4.405 -0.3137  0.6533 -0.0971
 1623SOL    HW1 6310   3.775   4.361   4.395  0.0917  0.9080 -1.3095
 1623SOL    HW2 6311   3.861   4.291   4.498 -4.4476 -1.7505  0.9940
 1624SOL     OW 6312   2.395   2.884   9.713 -0.5254 -0.1054 -0.9484
 1624SOL    HW1 6313   2.460   2.814   9.724  0.2380  0.4233 -1.9054
 1624SOL    HW2 6314   2.448   2.964   9.704 -1.3812  0.6417  0.2877
 1625SOL     OW 6315   4.283   0.125   5.858  0.2235  0.2341  0.5881
 1625SOL    HW1 6316   4.262   0.096   5.947 -0.5023  0.2175  0.4184
 1625SOL    HW2 6317   4.368   0.084   5.839  0.4666  0.3805  1.3313
 1626SOL     OW 6318   6.877   1.574   0.211  0.3943 -0.2772 -0.0150
 1626SOL    HW1 6319   6.949   1.517   0.240  1.0064  1.6831  2.8260
 1626SOL    HW2 6320   6.875   1.643   0.277 -4.1803 -0.2442  0.1052
 1627SOL     OW 6321   5.303   4.582   4.548  0.4482  0.5684  0.0820
 1627SOL    HW1 6322   5.331   4.648   4.611  0.6664 -0.5270  1.1615
 1627SOL    HW2 6323   5.359   4.596   4.471  0.4116  1.6949  0.2463
 1628SOL     OW 6324   5.673   1.192   4.368 -0.1433 -0.0338  0.3122
 1628SOL    HW1 6325   5.679   1.246   4.447  1.3667 -0.5825  0.5945
 1628SOL    HW2 6326   5.675   1.255   4.296 -1.3103  0.4558  0.6786
 1629SOL     OW 6327   2.938   5.037   1.152  0.9208 -0.0686  0.1488
 1629SOL    HW1 6328   2.942   5.031   1.056  1.7354  1.3305  0.0597
 1629SOL    HW2 6329   3.012   4.984   1.183  1.0659  0.0228 -0.0367
 1630SOL     OW 6330   0.742   6.880   3.022 -0.2125  0.3559 -0.6009
 1630SOL    HW1 6331   0.678   6.882   2.951 -3.8203  0.6371  2.3428
 1630SOL    HW2 6332   0.756   6.972   3.045 -0.7886  0.2038  0.4012
 1631SOL     OW 6333   1.943   4.306   3.286 -0.2750 -0.0967 -0.4501
 1631SOL    HW1 6334   1.905   4.255   3.214 -0.3528 -0.7392  0.0375
 1631SOL    HW2 6335   1.927   4.254   3.364 -0.7383  0.8954  0.1326
 1632SOL     OW 6336   6.034   7.830   8.070  0.0215 -0.0426  0.4531
 1632SOL    HW1 6337   5.996   7.795   8.151 -0.6155  0.0718  0.2118
 1632SOL    HW2 6338   6.076   7.754   8.029 -0.9569 -0.4427  0.1580
 1633SOL     OW 6339   2.712   0.168   2.016 -0.1836 -0.3576  0.4304
 1633SOL    HW1 6340   2.805   0.149   2.006  0.2882  1.5396  0.7871
 1633SOL    HW2 6341   2.668   0.108   1.955  1.1585 -2.0108  1.0315
 1634SOL     OW 6342   0.563   2.557  11.899 -0.2512 -0.2261  0.2853
 1634SOL    HW1 6343   0.586   2.649  11.887  0.4489 -0.2661  1.2085
 1634SOL    HW2 6344   0.638   2.508  11.867  0.0739 -0.4184  1.3052
 1635SOL     OW 6345   3.755   3.798   1.784  0.0687  0.1059  0.1998
 1635SOL    HW1 6346   3.757   3.889   1.811  2.0777  0.1596  0.0311
 1635SOL    HW2 6347   3.781   3.799   1.692  0.4011 -0.6420  0.2707
 1636SOL     OW 6348   5.548   7.971  10.776 -0.2633  0.5100 -0.3910
 1636SOL    HW1 6349   5.487   7.896  10.775 -0.7876  0.8569 -3.3823
 1636SOL    HW2 6350   5.633   7.933  10.757 -0.4996  0.6117 -1.7259
 1637SOL     OW 6351   0.757   7.275   7.233 -0.0699  0.1495 -0.1144
 1637SOL    HW1 6352   0.734   7.368   7.225 -0.1795  0.0079 -2.0455
 1637SOL    HW2 6353   0.853   7.273   7.230 -0.0134  0.2715  1.2165
 1638SOL     OW 6354   4.439   3.029   2.376 -0.5467  0.0227  0.0991
 1638SOL    HW1 6355   4.427   3.008   2.283 -0.5692 -0.8447  0.2909
 1638SOL    HW2 6356   4.514   2.976   2.402  0.4570  1.4312  0.2041
 1639SOL     OW 6357   1.251   2.359  11.370 -0.0571  0.9515 -0.0019
 1639SOL    HW1 6358   1.332   2.347  11.321  0.4714 -0.2715  1.1342
 1639SOL    HW2 6359   1.266   2.317  11.454 -2.4229 -0.8281 -0.3427
 1640SOL     OW 6360   5.370   6.006   8.876 -0.6532  0.5609 -0.0532
 1640SOL    HW1 6361   5.337   5.925   8.837  0.8316 -1.4413  2.5042
 1640SOL    HW2 6362   5.314   6.021   8.953 -0.0750  1.1648  0.2668
 1641SOL     OW 6363   6.889   6.356   9.732  0.3883  0.1565 -0.1922
 1641SOL    HW1 6364   6.887   6.325   9.822 -1.5322 -1.6262 -0.7576
 1641SOL    HW2 6365   6.903   6.278   9.679  0.4658  1.0099 -1.4968
 1642SOL     OW 6366   5.219   1.435   7.387  0.2546 -0.0674 -0.2982
 1642SOL    HW1 6367   5.199   1.504   7.324 -3.1827 -1.2392 -0.7143
 1642SOL    HW2 6368   5.146   1.439   7.449  0.9349 -2.1746  0.7106
 1643SOL     OW 6369   0.844   7.731   6.825 -0.1210  0.2823 -0.5590
 1643SOL    HW1 6370   0.760   7.777   6.817 -0.9028 -1.2836 -2.2137
 1643SOL    HW2 6371   0.824   7.652   6.874  0.7678  0.6720  0.4715
 1644SOL     OW 6372   6.645   3.147   3.869  0.0414  0.3914  0.0789
 1644SOL    HW1 6373   6.585   3.080   3.900  0.3665  0.1565  0.2014
 1644SOL    HW2 6374   6.722   3.139   3.925 -0.1643  1.2817  0.5016
 1645SOL     OW 6375   7.063   6.751   6.179  0.1425 -0.4706 -0.1940
 1645SOL    HW1 6376   7.075   6.833   6.131 -3.1247 -0.8986 -2.0153
 1645SOL    HW2 6377   7.029   6.778   6.264 -0.1661  0.0923 -0.4941
 1646SOL     OW 6378   7.628   7.742   6.463  0.1553  0.5360  0.1717
 1646SOL    HW1 6379   7.544   7.706   6.493 -0.4420  1.6662 -0.0804
 1646SOL    HW2 6380   7.689   7.723   6.534  0.0355 -1.4786 -0.1986
 1647SOL     OW 6381   5.388   3.268   7.298  0.0816 -0.0507  0.1181
 1647SOL    HW1 6382   5.302   3.259   7.339  0.6432 -0.4172  1.2434
 1647SOL    HW2 6383   5.371   3.320   7.219 -1.3680 -1.2070 -0.3736
 1648SOL     OW 6384   3.110   7.692   0.989  0.2402 -0.5262 -0.4724
 1648SOL    HW1 6385   3.123   7.738   0.907 -1.2203 -1.9578 -1.5857
 1648SOL    HW2 6386   3.116   7.599   0.966  3.6008 -1.0157  1.7750
 1649SOL     OW 6387   2.914   7.480   9.606  0.6733 -0.3944 -0.5321
 1649SOL    HW1 6388   2.857   7.404   9.610  0.1986 -0.1378 -1.7648
 1649SOL    HW2 6389   2.860   7.553   9.637  1.6001 -0.7520  2.1496
 1650SOL     OW 6390   7.117   5.187   8.614  0.2485 -0.0257 -0.1841
 1650SOL    HW1 6391   7.166   5.154   8.689 -0.6113  1.0542  0.8841
 1650SOL    HW2 6392   7.124   5.282   8.620 -0.8481  0.1077 -0.7569
 1651SOL     OW 6393   0.589   5.864   4.575  0.2179 -0.4843  0.8163
 1651SOL    HW1 6394   0.495   5.859   4.591  0.2775  0.5761  1.6201
 1651SOL    HW2 6395   0.628   5.802   4.636  0.0906 -0.3783  1.0041
 1652SOL     OW 6396   1.785   0.914   1.273  0.3657  0.3489 -0.1332
 1652SOL    HW1 6397   1.695   0.944   1.287  1.0332  1.9946  0.8413
 1652SOL    HW2 6398   1.824   0.911   1.361  1.8056  1.4710 -0.6941
 1653SOL     OW 6399   2.723   0.495   7.271  0.1234  0.0044 -0.2395
 1653SOL    HW1 6400   2.675   0.472   7.192 -0.5344 -1.0462  0.4384
 1653SOL    HW2 6401   2.655   0.525   7.332  0.1917 -1.9590  0.8990
 1654SOL     OW 6402   1.550   6.527   9.541  0.1029 -0.5223 -0.2237
 1654SOL    HW1 6403   1.504   6.528   9.625  0.2879  0.4784 -0.1259
 1654SOL    HW2 6404   1.588   6.614   9.533 -0.2717 -0.4529 -1.5563
 1655SOL     OW 6405   2.872   0.226   5.718  0.0204 -0.8746  0.0403
 1655SOL    HW1 6406   2.964   0.200   5.727 -0.0153 -0.7887  0.7388
 1655SOL    HW2 6407   2.830   0.149   5.679  0.5094 -0.6583 -0.9347
 1656SOL     OW 6408   5.732   1.035   9.760 -0.0055  0.2050 -0.1143
 1656SOL    HW1 6409   5.804   1.041   9.697  1.0592 -0.2604  1.0162
 1656SOL    HW2 6410   5.662   1.086   9.721  1.4843  2.0334 -0.5326
 1657SOL     OW 6411   6.106   6.317  10.653  0.3561 -0.1451  0.0617
 1657SOL    HW1 6412   6.022   6.289  10.690 -0.4876  0.2338 -1.4638
 1657SOL    HW2 6413   6.154   6.354  10.726 -0.6657 -0.6942  1.0361
 1658SOL     OW 6414   3.511   7.083  10.667  0.0126 -0.7145  0.3130
 1658SOL    HW1 6415   3.449   7.015  10.691  0.0507 -1.0144 -0.3981
 1658SOL    HW2 6416   3.535   7.125  10.750 -1.4391 -0.3164  0.5544
 1659SOL     OW 6417   7.112   3.854   5.796  0.2205 -0.0215  0.6590
 1659SOL    HW1 6418   7.134   3.778   5.851  2.2365 -0.2916 -0.4392
 1659SOL    HW2 6419   7.036   3.825   5.746  0.7427 -1.1999  0.5151
 1660SOL     OW 6420   2.467   3.885  11.948  0.3177  0.3029  0.7034
 1660SOL    HW1 6421   2.509   3.802  11.972 -0.0167  0.1270  0.6834
 1660SOL    HW2 6422   2.399   3.859  11.886 -1.0688  0.3722  2.1550
 1661SOL     OW 6423   2.268   4.733   2.724  0.2747 -0.0624  0.1107
 1661SOL    HW1 6424   2.239   4.641   2.722  0.0550 -0.0164  1.0120
 1661SOL    HW2 6425   2.222   4.774   2.651  0.8431 -0.8005 -0.6909
 1662SOL     OW 6426   6.918   1.244  11.410 -0.1316 -0.3286 -0.4921
 1662SOL    HW1 6427   6.895   1.247  11.317  0.8905 -0.7217 -0.7729
 1662SOL    HW2 6428   7.011   1.267  11.412  0.3685 -2.2229  0.2020
 1663SOL     OW 6429   4.697   4.135   4.536 -0.0585 -0.0435  0.4019
 1663SOL    HW1 6430   4.748   4.203   4.580  2.3416 -1.5841  0.1571
 1663SOL    HW2 6431   4.640   4.183   4.476  0.9401  1.7784  0.8323
 1664SOL     OW 6432   2.950   7.393   7.662  0.0037 -0.1572 -0.1858
 1664SOL    HW1 6433   2.986   7.312   7.625 -2.3040 -1.0103 -0.6981
 1664SOL    HW2 6434   2.937   7.374   7.754 -0.2357 -0.2611 -0.2407
 1665SOL     OW 6435   5.918   4.799   6.055  0.0700 -0.3474 -0.5379
 1665SOL    HW1 6436   5.994   4.854   6.035  0.9048 -1.3348 -0.1637
 1665SOL    HW2 6437   5.862   4.806   5.977  0.5753  0.3183 -0.8538
 1666SOL     OW 6438   2.404   1.555   2.388  0.0730  0.2443 -0.1973
 1666SOL    HW1 6439   2.343   1.494   2.347 -0.8695  1.6342 -0.9092
 1666SOL    HW2 6440   2.489   1.512   2.379 -0.6780 -1.4121  0.2189
 1667SOL     OW 6441   2.416   3.111   6.547 -0.3621 -0.1388  0.0656
 1667SOL    HW1 6442   2.438   3.091   6.638 -0.3915 -2.3650 -0.3729
 1667SOL    HW2 6443   2.498   3.140   6.508 -0.2058  0.1906  0.6351
 1668SOL     OW 6444   5.163   5.246   8.980  0.4519 -0.4007  0.0727
 1668SOL    HW1 6445   5.175   5.152   8.973 -1.3697 -0.6090 -0.7351
 1668SOL    HW2 6446   5.069   5.260   8.970  0.8233  1.6289 -1.3559
 1669SOL     OW 6447   5.623   5.255   1.074  0.3793 -0.3691  0.1698
 1669SOL    HW1 6448   5.634   5.350   1.078 -1.2622 -0.0288 -1.6472
 1669SOL    HW2 6449   5.712   5.220   1.077  0.9903  1.1648  1.3890
 1670SOL     OW 6450   4.188   4.817   9.569  0.1153 -0.2353 -0.1053
 1670SOL    HW1 6451   4.151   4.905   9.578 -1.0065 -0.8450  2.1309
 1670SOL    HW2 6452   4.132   4.774   9.505  0.6797  0.6646 -1.2259
 1671SOL     OW 6453   7.331   5.818   8.017  0.0668  0.0607  0.1240
 1671SOL    HW1 6454   7.386   5.766   7.958  1.2381  1.2253  0.1653
 1671SOL    HW2 6455   7.295   5.887   7.961 -0.0330  0.2839  0.4640
 1672SOL     OW 6456   2.524   3.434   9.326  0.4732  0.2099  0.3418
 1672SOL    HW1 6457   2.558   3.421   9.415  0.5851 -0.8037  0.1595
 1672SOL    HW2 6458   2.580   3.380   9.270  0.3197  0.7398 -0.3304
 1673SOL     OW 6459   2.761   5.494  10.581  0.5543 -0.5261 -0.7085
 1673SOL    HW1 6460   2.722   5.515  10.496  2.4705 -2.5883 -2.2188
 1673SOL    HW2 6461   2.735   5.404  10.598  2.9875 -1.3311 -0.8780
 1674SOL     OW 6462   3.910   5.232   5.783 -0.2355 -0.5426  0.1066
 1674SOL    HW1 6463   3.832   5.200   5.828  1.1972 -4.0233  0.4279
 1674SOL    HW2 6464   3.900   5.199   5.693 -0.1423  0.9650 -0.4816
 1675SOL     OW 6465   0.690   1.117   9.537  0.3603 -0.1080 -0.2930
 1675SOL    HW1 6466   0.639   1.193   9.510  1.1219  0.1086 -1.1775
 1675SOL    HW2 6467   0.626   1.059   9.579 -0.4435  0.5305 -0.6032
 1676SOL     OW 6468   4.256   0.841  11.583 -0.2021 -0.6960 -0.1088
 1676SOL    HW1 6469   4.165   0.815  11.568 -0.0847  0.1629 -2.8743
 1676SOL    HW2 6470   4.250   0.934  11.608 -0.1136 -0.8253  0.3979
 1677SOL     OW 6471   3.244   4.783   4.539  0.0833 -0.4587  0.2729
 1677SOL    HW1 6472   3.196   4.775   4.457  0.8562 -0.7739 -0.1569
 1677SOL    HW2 6473   3.177   4.803   4.605 -0.5229 -0.0910 -0.4503
 1678SOL     OW 6474   7.568   4.231   8.909 -0.5916  0.6168  0.2036
 1678SOL    HW1 6475   7.627   4.156   8.897 -0.9896  0.3365 -0.0442
 1678SOL    HW2 6476   7.567   4.246   9.003  0.9501  1.5075  0.1055
 1679SOL     OW 6477   3.553   7.645   9.384 -0.0248 -0.2419 -0.2473
 1679SOL    HW1 6478   3.635   7.607   9.351  0.4987  1.3016 -0.8201
 1679SOL    HW2 6479   3.493   7.641   9.309 -0.0117 -0.0614 -0.2675
 1680SOL     OW 6480   0.328   5.485   4.829 -0.5279  0.0743 -0.1953
 1680SOL    HW1 6481   0.402   5.527   4.786 -0.8679 -0.2194 -1.0991
 1680SOL    HW2 6482   0.366   5.440   4.905 -0.1193  1.7128  0.6102
 1681SOL     OW 6483   3.700   7.001   4.579 -0.0563  0.4702  0.1274
 1681SOL    HW1 6484   3.710   6.914   4.539  1.1191  0.7263 -0.1823
 1681SOL    HW2 6485   3.781   7.047   4.556 -0.6696  1.6615  0.2742
 1682SOL     OW 6486   4.884   4.887   0.899 -0.0544  0.0321  0.2073
 1682SOL    HW1 6487   4.893   4.792   0.906 -0.4677  0.1134  2.2414
 1682SOL    HW2 6488   4.970   4.917   0.869 -0.3074 -1.0629 -1.8002
 1683SOL     OW 6489   0.677   7.908   0.958 -0.6544 -0.4149 -0.0427
 1683SOL    HW1 6490   0.725   7.982   0.920 -0.3337  0.3162  1.6574
 1683SOL    HW2 6491   0.719   7.895   1.043 -1.4100 -1.8816  0.1204
 1684SOL     OW 6492   7.753   2.726   9.413 -0.1813  0.1488 -0.3190
 1684SOL    HW1 6493   7.722   2.812   9.385 -1.1709  0.4098  1.4076
 1684SOL    HW2 6494   7.792   2.741   9.499  0.4822 -0.9751 -0.4045
 1685SOL     OW 6495   6.530   5.025   3.688  0.4995  0.7737  0.4182
 1685SOL    HW1 6496   6.473   5.086   3.642 -2.4733 -0.7018  1.8379
 1685SOL    HW2 6497   6.491   5.018   3.776  1.9278 -1.5474  0.9502
 1686SOL     OW 6498   4.895   2.295  11.285 -0.1121 -0.0940 -0.4875
 1686SOL    HW1 6499   4.833   2.313  11.214  2.0277  0.2293 -2.3921
 1686SOL    HW2 6500   4.909   2.201  11.281  0.4504  0.0044 -0.8982
 1687SOL     OW 6501   7.313   5.430   3.147 -0.1995 -0.3345 -0.4700
 1687SOL    HW1 6502   7.241   5.442   3.210 -1.3706  0.8685 -1.9596
 1687SOL    HW2 6503   7.391   5.423   3.201 -1.2473 -0.0807  1.1502
 1688SOL     OW 6504   3.012   4.771   3.763  0.3755 -0.2633  0.3548
 1688SOL    HW1 6505   2.990   4.864   3.763 -0.9327 -0.5283 -0.4112
 1688SOL    HW2 6506   2.927   4.727   3.772  0.7138 -1.3790 -1.3758
 1689SOL     OW 6507   6.315   5.464   7.198 -0.3162  0.0168  0.4059
 1689SOL    HW1 6508   6.233   5.483   7.153 -0.9395 -1.7263  0.7104
 1689SOL    HW2 6509   6.318   5.525   7.271 -1.3496  0.1040  0.3828
 1690SOL     OW 6510   1.576   0.142   4.301 -0.0540  0.5066  0.0271
 1690SOL    HW1 6511   1.636   0.179   4.367 -1.6644  2.1724  0.6457
 1690SOL    HW2 6512   1.535   0.219   4.261 -1.6697 -0.5737 -0.4533
 1691SOL     OW 6513   7.005   3.998   4.334 -0.2254 -0.5768 -0.3510
 1691SOL    HW1 6514   7.089   3.964   4.304  0.1020 -0.2618  0.2161
 1691SOL    HW2 6515   6.947   3.921   4.334  0.7079 -1.3491  1.6671
 1692SOL     OW 6516   2.539   3.354   7.488  0.7019  0.1609  0.4626
 1692SOL    HW1 6517   2.569   3.409   7.415  1.0082 -1.0981 -0.4137
 1692SOL    HW2 6518   2.474   3.407   7.533  0.9589  1.2241 -0.3537
 1693SOL     OW 6519   0.325   6.810   5.377 -0.3545 -0.0165 -0.7775
 1693SOL    HW1 6520   0.365   6.724   5.393 -1.5883 -0.2925  1.2122
 1693SOL    HW2 6521   0.398   6.868   5.360  0.7031 -1.0234  0.1453
 1694SOL     OW 6522   6.699   2.011   1.503  0.4719 -0.4530 -0.0395
 1694SOL    HW1 6523   6.626   1.952   1.484  1.9399 -2.6259  0.7724
 1694SOL    HW2 6524   6.759   1.960   1.556  0.9509  2.3910  2.4564
 1695SOL     OW 6525   4.642   3.963   7.644  0.7750 -0.6320 -0.7200
 1695SOL    HW1 6526   4.588   3.890   7.673  0.6253 -0.4705 -0.5885
 1695SOL    HW2 6527   4.585   4.016   7.589  0.0471  0.8301  1.3345
 1696SOL     OW 6528   7.240   3.842   9.894  0.1424 -0.3700  0.2497
 1696SOL    HW1 6529   7.313   3.852   9.955  0.5085 -0.7436 -0.1163
 1696SOL    HW2 6530   7.168   3.809   9.947  0.2417 -0.0162  0.6122
 1697SOL     OW 6531   2.810   6.797   7.607  0.1374 -0.0075 -0.2828
 1697SOL    HW1 6532   2.885   6.738   7.595 -1.2253 -1.9442  0.0831
 1697SOL    HW2 6533   2.845   6.871   7.656  1.6004 -1.4263  0.9372
 1698SOL     OW 6534   2.532   1.077   5.909 -0.1383  0.0489  0.4745
 1698SOL    HW1 6535   2.552   0.989   5.942  0.0769  0.6573  2.0375
 1698SOL    HW2 6536   2.439   1.074   5.888 -0.9950  0.3269  3.6840
 1699SOL     OW 6537   1.386   0.105   4.803 -0.3571  0.6285  0.7966
 1699SOL    HW1 6538   1.461   0.076   4.752 -1.4864  0.0208 -0.5831
 1699SOL    HW2 6539   1.423   0.161   4.871  1.5913 -1.5903  1.6680
 1700SOL     OW 6540   3.180   5.452   6.297 -0.3455  0.0994  0.8910
 1700SOL    HW1 6541   3.161   5.545   6.286 -1.8233 -0.1359  1.1626
 1700SOL    HW2 6542   3.259   5.449   6.350  1.0162  1.1828 -0.9624
 1701SOL     OW 6543   1.536   0.835  10.274 -0.4498  0.7307  0.0601
 1701SOL    HW1 6544   1.600   0.892  10.231 -0.6913  0.4886 -0.6272
 1701SOL    HW2 6545   1.565   0.832  10.365  0.1020  1.2041 -0.0906
 1702SOL     OW 6546   0.388   7.431   7.383  0.5707 -0.0119  0.3318
 1702SOL    HW1 6547   0.356   7.346   7.412  0.6006 -0.7289 -1.6450
 1702SOL    HW2 6548   0.310   7.479   7.357  0.5522  0.6025  1.4590
 1703SOL     OW 6549   3.209   1.769   4.037  0.1004  0.6922 -0.2304
 1703SOL    HW1 6550   3.177   1.830   4.103  0.8956  0.8281  0.0412
 1703SOL    HW2 6551   3.149   1.779   3.963  0.0102  1.5250 -0.0456
 1704SOL     OW 6552   6.909   5.828   2.367 -0.6234 -0.3785 -0.3686
 1704SOL    HW1 6553   6.839   5.881   2.404 -0.3038  0.4010 -0.8560
 1704SOL    HW2 6554   6.989   5.863   2.406 -0.4354 -0.6673 -0.4947
 1705SOL     OW 6555   1.450   6.064   5.471  0.0220  0.0736  0.2526
 1705SOL    HW1 6556   1.378   6.008   5.442  0.1107 -0.3780  0.8755
 1705SOL    HW2 6557   1.476   6.112   5.393 -1.2072  0.5246  0.1041
 1706SOL     OW 6558   1.718   4.362   1.457  0.1786  0.3246  0.1499
 1706SOL    HW1 6559   1.659   4.368   1.382 -0.6850  0.5798  0.8431
 1706SOL    HW2 6560   1.801   4.398   1.424 -0.4868  1.4181 -0.3876
 1707SOL     OW 6561   4.742   0.632   3.623 -0.5880 -0.1949  0.2588
 1707SOL    HW1 6562   4.777   0.611   3.537 -2.4827  0.2517 -0.6696
 1707SOL    HW2 6563   4.657   0.673   3.605 -0.4991  1.0036  2.2881
 1708SOL     OW 6564   0.761   5.008   1.767  0.6728 -0.6891  0.0446
 1708SOL    HW1 6565   0.842   4.979   1.725  0.5886  0.7216 -1.1853
 1708SOL    HW2 6566   0.791   5.060   1.842  1.0183  1.1855 -1.3150
 1709SOL     OW 6567   3.758   0.033   0.268 -0.0223 -0.2743 -0.0482
 1709SOL    HW1 6568   3.824  -0.035   0.261 -0.2554 -0.3732 -4.0333
 1709SOL    HW2 6569   3.675  -0.014   0.267 -0.1912 -0.0250  1.2131
 1710SOL     OW 6570   0.840   7.580  10.277 -0.0356  0.1409 -0.7308
 1710SOL    HW1 6571   0.888   7.531  10.209 -0.3785  1.3278 -1.8621
 1710SOL    HW2 6572   0.780   7.636  10.228 -1.9784 -0.6499  0.6346
 1711SOL     OW 6573   1.213   7.489   5.498 -0.1891  0.5627 -0.5628
 1711SOL    HW1 6574   1.256   7.472   5.414  0.4829  1.3456 -0.3908
 1711SOL    HW2 6575   1.180   7.579   5.490 -2.2034 -0.1509 -0.8508
 1712SOL     OW 6576   1.389   2.524   3.380  0.7224 -0.3089  0.4858
 1712SOL    HW1 6577   1.482   2.527   3.406  0.7950 -0.2254  0.2183
 1712SOL    HW2 6578   1.387   2.567   3.295  0.2569  0.7897  1.0205
 1713SOL     OW 6579   1.952   3.916   6.058 -0.6733  0.3111 -0.1156
 1713SOL    HW1 6580   1.922   4.005   6.079 -0.4208  0.1546  0.9600
 1713SOL    HW2 6581   2.026   3.901   6.117 -0.2623 -0.3568 -0.7877
 1714SOL     OW 6582   0.473   3.632   0.135  0.3019  0.5140  0.3687
 1714SOL    HW1 6583   0.398   3.662   0.186  0.0787  1.8725 -0.7114
 1714SOL    HW2 6584   0.545   3.626   0.198 -0.4222  0.3134  1.1902
 1715SOL     OW 6585   5.214   6.875   7.280 -1.0156 -0.2448  0.2802
 1715SOL    HW1 6586   5.150   6.840   7.342 -0.1556 -1.7979  0.3448
 1715SOL    HW2 6587   5.293   6.824   7.296  0.1754  1.4046 -0.0170
 1716SOL     OW 6588   5.477   7.391   9.868  0.5641  0.2155 -0.0474
 1716SOL    HW1 6589   5.566   7.382   9.834  0.8983  2.9688 -0.1257
 1716SOL    HW2 6590   5.431   7.444   9.802 -0.6592  0.2102  0.7575
 1717SOL     OW 6591   1.530   0.674  12.148 -0.3419 -0.6287 -0.2361
 1717SOL    HW1 6592   1.505   0.605  12.209 -1.4902 -0.8814 -0.9623
 1717SOL    HW2 6593   1.602   0.720  12.192 -0.6292 -1.2772  0.9583
 1718SOL     OW 6594   2.913   5.224   2.973 -0.3136  0.0969  0.1487
 1718SOL    HW1 6595   2.854   5.163   2.928 -0.4327 -0.3546  0.8977
 1718SOL    HW2 6596   2.981   5.168   3.010  1.7437  0.7540 -2.3479
 1719SOL     OW 6597   1.518   7.813   7.949 -0.4935  0.4639 -0.0950
 1719SOL    HW1 6598   1.501   7.776   8.035  0.4938  0.1658 -0.0265
 1719SOL    HW2 6599   1.606   7.785   7.926 -1.5422 -1.4625 -2.2398
 1720SOL     OW 6600   0.189   1.771   0.479 -0.7436 -0.2445  0.5539
 1720SOL    HW1 6601   0.224   1.838   0.538 -2.7514  1.1718  0.2382
 1720SOL    HW2 6602   0.123   1.817   0.427 -0.4349 -1.9137 -1.4412
 1721SOL     OW 6603   5.175   5.504   8.848 -0.6373  0.1219  0.0551
 1721SOL    HW1 6604   5.127   5.484   8.767 -0.0954  0.4203 -0.3380
 1721SOL    HW2 6605   5.175   5.421   8.896 -0.8870 -0.0786 -0.2829
 1722SOL     OW 6606   2.608   7.693   4.525  0.4015 -0.3316 -0.1760
 1722SOL    HW1 6607   2.686   7.749   4.529 -0.9193  1.4857  2.0622
 1722SOL    HW2 6608   2.593   7.665   4.615 -1.5063 -0.7285 -0.5660
 1723SOL     OW 6609   6.482   7.784  10.077 -0.0522  0.5597 -0.2159
 1723SOL    HW1 6610   6.482   7.777  10.173  1.2277  0.9055 -0.1722
 1723SOL    HW2 6611   6.420   7.855  10.058 -2.6655 -1.4464  0.1292
 1724SOL     OW 6612   4.048   1.579  12.353  0.0311  0.0264  0.6357
 1724SOL    HW1 6613   3.984   1.569  12.423 -0.2050 -0.5767  0.3408
 1724SOL    HW2 6614   4.067   1.490  12.324  0.2353  0.2567  0.0301
 1725SOL     OW 6615   7.695   7.873   0.681 -0.1432 -0.5945  0.5216
 1725SOL    HW1 6616   7.657   7.960   0.695 -0.1615 -0.4748 -0.2468
 1725SOL    HW2 6617   7.661   7.846   0.596  1.1219 -0.6937  0.0333
 1726SOL     OW 6618   3.152   3.734   1.086 -0.1305 -0.0414 -0.9695
 1726SOL    HW1 6619   3.224   3.795   1.073 -0.5103  0.5547 -0.3184
 1726SOL    HW2 6620   3.080   3.788   1.119  0.0384 -1.0835  1.2408
 1727SOL     OW 6621   0.026   4.916   6.168  0.3421 -0.2908  0.6376
 1727SOL    HW1 6622  -0.013   4.877   6.089 -0.6736  0.4655  0.7524
 1727SOL    HW2 6623   0.036   4.842   6.229  3.2507 -1.3730 -0.9306
 1728SOL     OW 6624   4.001   2.887   3.150 -0.9367  0.6503 -0.2837
 1728SOL    HW1 6625   3.931   2.840   3.104 -0.1909 -0.0489 -0.7340
 1728SOL    HW2 6626   4.082   2.855   3.110 -0.2416 -0.0372  1.5499
 1729SOL     OW 6627   5.003   0.343   4.815 -0.1786 -0.2952  0.1066
 1729SOL    HW1 6628   4.997   0.403   4.889  0.1803 -1.6612  1.2850
 1729SOL    HW2 6629   5.027   0.398   4.741  3.2683  0.6533  1.7235
 1730SOL     OW 6630   6.244   2.798   5.123  0.2047 -0.5317  0.6286
 1730SOL    HW1 6631   6.287   2.753   5.050  0.7253  1.0578 -0.0993
 1730SOL    HW2 6632   6.151   2.797   5.100 -0.0273 -2.6485  1.4577
 1731SOL     OW 6633   7.237   6.691   7.691  0.1546 -0.0247 -0.0243
 1731SOL    HW1 6634   7.314   6.667   7.742  0.5104  0.6611 -0.2230
 1731SOL    HW2 6635   7.215   6.779   7.722  0.9076  0.7719 -1.6744
 1732SOL     OW 6636   2.806   0.742   1.631 -0.3799 -0.2666  0.0869
 1732SOL    HW1 6637   2.823   0.672   1.694 -2.0836 -1.5299 -0.7724
 1732SOL    HW2 6638   2.889   0.754   1.585 -0.0563 -1.7825  0.2133
 1733SOL     OW 6639   1.895   3.004  10.893  0.4676 -0.2676 -0.0452
 1733SOL    HW1 6640   1.990   3.006  10.890  0.4389  0.1723 -2.3655
 1733SOL    HW2 6641   1.867   3.071  10.831 -1.3833  0.0205  1.0039
 1734SOL     OW 6642   5.219   0.596  11.534  0.0848 -0.3928 -0.2778
 1734SOL    HW1 6643   5.127   0.575  11.550  0.2283 -0.9507 -0.1744
 1734SOL    HW2 6644   5.220   0.633  11.445 -0.7068  2.6961  0.8638
 1735SOL     OW 6645   5.687   6.337   0.484  0.1740 -0.2566  0.1869
 1735SOL    HW1 6646   5.754   6.304   0.545  1.2769  1.8195  0.1975
 1735SOL    HW2 6647   5.737   6.361   0.405 -0.8136 -0.1798 -0.4275
 1736SOL     OW 6648   1.901   1.499   4.265 -0.1637  0.2250 -0.1063
 1736SOL    HW1 6649   1.815   1.512   4.304 -0.3314 -1.7693  0.3078
 1736SOL    HW2 6650   1.899   1.550   4.185 -1.0223  1.7387  0.8241
 1737SOL     OW 6651   6.835   0.601   6.923 -0.7807 -0.4185 -0.1790
 1737SOL    HW1 6652   6.798   0.640   7.002 -0.5028  1.6906 -0.9991
 1737SOL    HW2 6653   6.930   0.607   6.936 -0.6386  2.5819 -1.7205
 1738SOL     OW 6654   7.564   3.261  12.213  0.4155  0.3424  0.6027
 1738SOL    HW1 6655   7.655   3.277  12.189  0.0649  1.6814  0.0694
 1738SOL    HW2 6656   7.557   3.289  12.304  0.2871  1.3584  0.2933
 1739SOL     OW 6657   2.121   6.819   1.663 -0.2559 -0.4220 -0.3369
 1739SOL    HW1 6658   2.113   6.833   1.569  0.0997 -3.3324 -0.8913
 1739SOL    HW2 6659   2.213   6.795   1.676 -0.0297  0.9623  0.9619
 1740SOL     OW 6660   1.503   7.706   8.210  0.3253 -0.3694 -0.4809
 1740SOL    HW1 6661   1.413   7.726   8.234 -0.7222 -4.6946 -0.0270
 1740SOL    HW2 6662   1.551   7.707   8.292 -0.2418 -1.8027 -0.0997
 1741SOL     OW 6663   6.365   6.246  10.632  0.1074 -0.0254  0.2724
 1741SOL    HW1 6664   6.327   6.186  10.697  0.2338 -0.2307  0.1581
 1741SOL    HW2 6665   6.290   6.273  10.579  0.0058  0.1354  0.4974
 1742SOL     OW 6666   0.625   4.227   2.798 -0.1019 -0.4059 -0.2574
 1742SOL    HW1 6667   0.670   4.296   2.846 -0.0581  0.0387 -0.9337
 1742SOL    HW2 6668   0.616   4.156   2.862 -0.8595  0.5081  0.6801
 1743SOL     OW 6669   1.362   3.825   9.473 -0.1452  0.3841  0.4547
 1743SOL    HW1 6670   1.362   3.879   9.552  0.7682  0.3655  0.4864
 1743SOL    HW2 6671   1.391   3.885   9.403 -0.1323  0.1954  0.2964
 1744SOL     OW 6672   1.493   1.180   7.064 -0.3976 -0.1667  0.2033
 1744SOL    HW1 6673   1.531   1.229   7.137 -1.3416 -0.5216  0.9482
 1744SOL    HW2 6674   1.410   1.146   7.098 -0.2692 -1.3865 -0.6348
 1745SOL     OW 6675   3.504   0.044   0.013 -0.0765  0.9702  0.2573
 1745SOL    HW1 6676   3.456   0.058  -0.069 -2.2168  0.1903  1.2891
 1745SOL    HW2 6677   3.592   0.075  -0.005 -0.3986  0.5732 -2.4246
 1746SOL     OW 6678   0.507   0.042   9.372  0.2607  0.2821  0.1980
 1746SOL    HW1 6679   0.522  -0.037   9.422  2.0825 -0.9145 -2.0406
 1746SOL    HW2 6680   0.421   0.029   9.331  0.6126 -0.6529 -0.2727
 1747SOL     OW 6681   2.367   4.311   8.614 -0.1375  0.2923 -0.0727
 1747SOL    HW1 6682   2.307   4.284   8.545 -1.4608  3.2978 -0.2254
 1747SOL    HW2 6683   2.311   4.343   8.684  1.2517  0.6358  0.9315
 1748SOL     OW 6684   4.090   1.865   7.161  0.0780  0.0382 -0.0082
 1748SOL    HW1 6685   4.010   1.895   7.117 -0.1804 -0.2239  0.2774
 1748SOL    HW2 6686   4.129   1.945   7.196  0.1343  0.2127 -0.4680
 1749SOL     OW 6687   0.087   5.190   1.409  0.2348 -0.2794 -0.2438
 1749SOL    HW1 6688   0.072   5.102   1.445  1.3444  0.3235  1.8689
 1749SOL    HW2 6689   0.180   5.206   1.424 -0.0362  1.4122 -0.2084
 1750SOL     OW 6690   0.437   2.942   2.919  0.3802  0.0840  0.2881
 1750SOL    HW1 6691   0.471   2.882   2.852 -0.4031 -0.8320  0.6852
 1750SOL    HW2 6692   0.513   2.994   2.944  1.2746 -1.2117  0.4113
 1751SOL     OW 6693   2.606   4.402   5.003 -0.4291 -0.4536 -0.3805
 1751SOL    HW1 6694   2.642   4.427   5.088 -1.6758  0.6027 -0.1390
 1751SOL    HW2 6695   2.512   4.412   5.013 -0.6441 -0.9700 -1.6906
 1752SOL     OW 6696   7.560   7.786   7.096 -0.4664  0.5716 -0.8848
 1752SOL    HW1 6697   7.550   7.706   7.044  0.0099  0.3858 -0.7069
 1752SOL    HW2 6698   7.654   7.791   7.113 -0.5911  0.7384 -0.2159
 1753SOL     OW 6699   0.933   7.553   4.176  0.4671  0.0025 -0.0086
 1753SOL    HW1 6700   0.859   7.516   4.224  1.2393 -1.9520 -0.2257
 1753SOL    HW2 6701   0.914   7.534   4.084  0.2210  1.4661 -0.2908
 1754SOL     OW 6702   6.124   0.787  10.329 -0.0488  0.3658  0.6337
 1754SOL    HW1 6703   6.061   0.859  10.330 -0.7291 -0.1860  2.5382
 1754SOL    HW2 6704   6.196   0.817  10.385  0.8237  0.4773 -0.4971
 1755SOL     OW 6705   5.248   3.859   4.149 -0.8140 -0.0442 -0.9516
 1755SOL    HW1 6706   5.251   3.835   4.241  0.9126  0.2924 -0.8753
 1755SOL    HW2 6707   5.155   3.862   4.127 -1.2505 -0.0503  0.7883
 1756SOL     OW 6708   6.346   2.328   8.044  0.0336 -0.1270 -0.4501
 1756SOL    HW1 6709   6.440   2.309   8.041 -0.0204 -0.3799 -0.5600
 1756SOL    HW2 6710   6.322   2.319   8.136  0.0835 -0.2255 -0.4465
 1757SOL     OW 6711   7.724   7.842   4.214 -0.6963 -0.0446 -0.5427
 1757SOL    HW1 6712   7.815   7.870   4.198 -0.3693  0.6500  2.0212
 1757SOL    HW2 6713   7.692   7.902   4.281 -2.1797 -1.8491  0.4736
 1758SOL     OW 6714   4.156   2.111   2.143 -0.1940  0.3710  0.0910
 1758SOL    HW1 6715   4.159   2.179   2.211  0.1028  3.4299 -2.7148
 1758SOL    HW2 6716   4.063   2.105   2.120 -0.5709 -2.0085  1.8308
 1759SOL     OW 6717   1.633   3.822   0.553  0.5380 -0.1358  0.0118
 1759SOL    HW1 6718   1.654   3.854   0.465 -1.6537  1.6299  0.0382
 1759SOL    HW2 6719   1.580   3.745   0.538 -0.6460  0.7115 -0.2823
 1760SOL     OW 6720   5.031   7.687   7.507  0.0811  0.6683 -0.0243
 1760SOL    HW1 6721   4.991   7.601   7.492 -2.4309  2.0497 -2.3017
 1760SOL    HW2 6722   5.125   7.673   7.495 -0.3511 -1.6127 -1.2147
 1761SOL     OW 6723   7.368   1.082   8.609  0.2850 -0.1601 -0.2759
 1761SOL    HW1 6724   7.401   0.997   8.579 -0.2168 -0.0516 -1.1441
 1761SOL    HW2 6725   7.283   1.062   8.648  0.6193 -0.1928  0.4723
 1762SOL     OW 6726   7.718   1.450   5.763 -0.1721 -0.4714 -0.2771
 1762SOL    HW1 6727   7.768   1.404   5.830 -1.4948  0.5572  1.5306
 1762SOL    HW2 6728   7.754   1.419   5.680  1.9323 -1.3801  0.8925
 1763SOL     OW 6729   5.836   3.525   6.367  0.2914  0.0407  0.5881
 1763SOL    HW1 6730   5.845   3.557   6.277 -0.2355  0.3806  0.6574
 1763SOL    HW2 6731   5.920   3.483   6.385 -0.1242 -1.4360 -0.6181
 1764SOL     OW 6732   4.547   4.181   6.071  0.1724  0.4847 -0.2844
 1764SOL    HW1 6733   4.557   4.272   6.099 -1.4288  0.4417  0.5976
 1764SOL    HW2 6734   4.512   4.187   5.982  0.8101  0.7033 -0.5269
 1765SOL     OW 6735   1.786   0.224   9.669 -0.2406 -0.2434 -0.1522
 1765SOL    HW1 6736   1.829   0.292   9.617  0.8142 -0.3709  0.5232
 1765SOL    HW2 6737   1.735   0.272   9.735 -0.1410 -0.0956 -0.1835
 1766SOL     OW 6738   3.188   7.056   7.839 -0.3259  0.1004  0.0352
 1766SOL    HW1 6739   3.245   7.013   7.774 -0.1299 -0.7400  0.7415
 1766SOL    HW2 6740   3.150   6.983   7.888 -1.0839  0.7048  0.3571
 1767SOL     OW 6741   0.199   3.268   7.690 -0.6633  0.8097 -0.6788
 1767SOL    HW1 6742   0.125   3.216   7.720 -1.3209  1.6768 -0.7681
 1767SOL    HW2 6743   0.243   3.296   7.770  0.0092 -0.3128 -0.6413
 1768SOL     OW 6744   1.803   6.498   1.798 -0.0739 -0.4032  0.0173
 1768SOL    HW1 6745   1.783   6.444   1.875  0.9090  0.9960  1.3137
 1768SOL    HW2 6746   1.892   6.528   1.813 -0.2105  0.6739 -1.2040
 1769SOL     OW 6747   1.242   3.887  11.250 -0.5827 -0.1595 -0.5484
 1769SOL    HW1 6748   1.262   3.796  11.228  2.6818  0.8037 -2.2047
 1769SOL    HW2 6749   1.308   3.911  11.314  0.0323  1.6151 -1.7819
 1770SOL     OW 6750   1.805   3.714   6.415  0.1347 -0.2645 -0.0831
 1770SOL    HW1 6751   1.866   3.683   6.348  0.6943  0.1959  0.1948
 1770SOL    HW2 6752   1.732   3.752   6.366  1.1242  1.2238 -0.4784
 1771SOL     OW 6753   0.701   6.347   5.722 -0.4314 -0.0805 -0.1792
 1771SOL    HW1 6754   0.619   6.389   5.696 -0.0191  0.4542 -0.6481
 1771SOL    HW2 6755   0.734   6.400   5.795 -0.3436 -0.0949 -0.2073
 1772SOL     OW 6756   2.413   1.621   7.941  0.6522  0.2870 -0.7917
 1772SOL    HW1 6757   2.326   1.594   7.970  0.0958  0.1412 -2.4793
 1772SOL    HW2 6758   2.433   1.699   7.993 -0.8154  0.7570 -0.8964
 1773SOL     OW 6759   3.313   5.535   9.467  0.4303 -0.2553 -0.3927
 1773SOL    HW1 6760   3.236   5.559   9.517  1.4370  0.9031  0.6756
 1773SOL    HW2 6761   3.330   5.611   9.411 -0.2086 -1.2130 -1.9630
 1774SOL     OW 6762   1.450   7.488   8.756 -0.0980  0.2909 -0.1706
 1774SOL    HW1 6763   1.415   7.450   8.836 -1.5042  0.5141 -0.6618
 1774SOL    HW2 6764   1.407   7.440   8.685  1.1025  0.1187 -0.8124
 1775SOL     OW 6765   6.304   7.263   3.646 -0.1355 -0.0446 -1.1352
 1775SOL    HW1 6766   6.276   7.175   3.623 -1.2445 -0.0441  0.1131
 1775SOL    HW2 6767   6.393   7.253   3.678 -0.5645 -0.8440 -0.1707
 1776SOL     OW 6768   3.629   6.086   9.076  0.4694 -0.3017 -0.3121
 1776SOL    HW1 6769   3.702   6.143   9.101 -0.7773  1.2714 -0.1109
 1776SOL    HW2 6770   3.663   5.997   9.087  2.5439  0.3755 -0.8167
 1777SOL     OW 6771   2.853   2.297   5.997 -0.2863 -0.2451 -0.1815
 1777SOL    HW1 6772   2.911   2.365   5.964  2.7442 -1.9455  1.2015
 1777SOL    HW2 6773   2.858   2.227   5.932 -0.4861 -0.5393  0.1118
 1778SOL     OW 6774   6.195   4.701   6.943 -0.5066  0.5271  0.5805
 1778SOL    HW1 6775   6.142   4.743   7.012 -1.1579  1.1614 -0.2915
 1778SOL    HW2 6776   6.149   4.722   6.862 -0.0486 -0.6736 -0.0080
 1779SOL     OW 6777   7.577   3.943  10.553 -0.2926 -0.0370  0.2114
 1779SOL    HW1 6778   7.548   3.852  10.557 -0.4402 -0.0370 -0.6598
 1779SOL    HW2 6779   7.673   3.937  10.549 -0.3571 -0.2344 -1.4787
 1780SOL     OW 6780   5.148   7.430   8.106 -0.1589 -0.1771  0.7530
 1780SOL    HW1 6781   5.113   7.449   8.019 -2.2165  1.0063  1.7638
 1780SOL    HW2 6782   5.182   7.341   8.100 -3.1676 -1.3743 -0.4799
 1781SOL     OW 6783   1.693   6.405   5.595  0.0585  0.5023 -0.3319
 1781SOL    HW1 6784   1.765   6.435   5.651  0.7505 -0.4661 -0.6899
 1781SOL    HW2 6785   1.700   6.459   5.516 -0.6384  1.5496  0.2840
 1782SOL     OW 6786   7.646   6.641   8.056  0.1088  0.0840  0.5602
 1782SOL    HW1 6787   7.712   6.691   8.007 -0.0461 -0.2827 -0.0314
 1782SOL    HW2 6788   7.666   6.550   8.037 -1.6549 -0.0273 -1.1474
 1783SOL     OW 6789   0.755   1.633   1.226 -0.1655  0.2957  0.0684
 1783SOL    HW1 6790   0.842   1.596   1.240  0.2037  0.6843 -1.0720
 1783SOL    HW2 6791   0.709   1.568   1.173 -0.9018 -0.3214  1.4197
 1784SOL     OW 6792   4.433   5.885   4.385 -0.2628 -0.0610 -0.4320
 1784SOL    HW1 6793   4.393   5.859   4.302  0.6574 -0.9848 -0.5958
 1784SOL    HW2 6794   4.495   5.954   4.362  1.7779 -1.9432 -0.9262
 1785SOL     OW 6795   4.057   4.567  11.660 -0.5763  0.0290  0.0348
 1785SOL    HW1 6796   4.083   4.618  11.737 -0.6078 -0.0613  0.1054
 1785SOL    HW2 6797   3.966   4.545  11.676 -0.6228  0.1273 -0.0945
 1786SOL     OW 6798   4.567   7.171   9.566  0.0671  0.5536 -0.9372
 1786SOL    HW1 6799   4.491   7.160   9.509 -0.2411  1.5908 -0.7439
 1786SOL    HW2 6800   4.535   7.146   9.653 -0.0554  1.0077 -0.8529
 1787SOL     OW 6801   4.982   5.632   0.926  0.1891  0.3088  0.3336
 1787SOL    HW1 6802   5.053   5.681   0.886 -0.9327  1.2945 -0.5417
 1787SOL    HW2 6803   4.948   5.690   0.994 -2.2730  1.6692 -1.8398
 1788SOL     OW 6804   6.683   6.273   2.420  0.6356  0.4779  0.4174
 1788SOL    HW1 6805   6.615   6.266   2.353  0.2463  1.6318  0.6570
 1788SOL    HW2 6806   6.635   6.282   2.503  1.0828  0.5125  0.6787
 1789SOL     OW 6807   2.364   3.022   7.565  0.4234  0.1711  0.1398
 1789SOL    HW1 6808   2.449   3.044   7.526  0.7260 -0.8569  0.1884
 1789SOL    HW2 6809   2.381   2.942   7.614 -0.7248 -0.3924 -0.3649
 1790SOL     OW 6810   2.259   3.782  12.420 -0.3346 -0.1673 -0.0444
 1790SOL    HW1 6811   2.311   3.862  12.411 -1.7452  1.3301  3.3897
 1790SOL    HW2 6812   2.245   3.773  12.514 -4.8759 -1.4028 -0.6153
 1791SOL     OW 6813   4.105   7.289   3.366  0.2527 -0.1418 -0.6646
 1791SOL    HW1 6814   4.133   7.262   3.454  0.3130 -1.8253 -1.1694
 1791SOL    HW2 6815   4.156   7.234   3.307 -0.1641  0.6121 -1.7388
 1792SOL     OW 6816   6.675   2.017  12.415 -0.3575 -0.1755 -0.6434
 1792SOL    HW1 6817   6.709   2.086  12.357  0.2808 -1.0539 -1.3344
 1792SOL    HW2 6818   6.682   2.055  12.503 -0.3906  0.7924 -1.0464
 1793SOL     OW 6819   4.287   7.296   0.152  0.1666 -0.6579  0.6634
 1793SOL    HW1 6820   4.321   7.208   0.138  0.7928 -0.1621 -1.1889
 1793SOL    HW2 6821   4.294   7.310   0.246 -0.0793 -2.6264  1.0101
 1794SOL     OW 6822   3.645   1.913   0.226  0.3187 -0.0929  0.0726
 1794SOL    HW1 6823   3.662   1.920   0.320 -1.4330 -0.5804  0.4575
 1794SOL    HW2 6824   3.720   1.957   0.185  1.0882  0.1707  1.6845
 1795SOL     OW 6825   3.009   3.672  12.472 -0.3317 -0.2628  0.2227
 1795SOL    HW1 6826   3.035   3.581  12.485 -0.0733 -0.1915  0.2059
 1795SOL    HW2 6827   3.008   3.683  12.377 -2.1266 -0.7580  0.1485
 1796SOL     OW 6828   1.506   4.906   6.971  0.0302  0.2498  0.4691
 1796SOL    HW1 6829   1.521   4.978   7.032  0.7403 -1.2063  2.0857
 1796SOL    HW2 6830   1.433   4.856   7.009 -0.7818  0.3351 -0.8770
 1797SOL     OW 6831   4.685   2.901   4.557  0.5293 -0.3923  0.2936
 1797SOL    HW1 6832   4.699   2.955   4.635  0.4154 -0.9787  0.7283
 1797SOL    HW2 6833   4.714   2.814   4.583  3.3715 -0.0342 -1.2537
 1798SOL     OW 6834   2.878   7.597  11.931 -0.8049  0.4522  0.2365
 1798SOL    HW1 6835   2.860   7.584  12.024 -0.7458 -1.1822  0.0479
 1798SOL    HW2 6836   2.803   7.557  11.887  0.0822 -0.5532 -0.4295
 1799SOL     OW 6837   1.337   5.436   7.627 -0.3554  0.2891  0.0708
 1799SOL    HW1 6838   1.408   5.496   7.651 -0.7299  0.4413  0.7940
 1799SOL    HW2 6839   1.314   5.462   7.538 -1.5130  2.2158  0.8691
 1800SOL     OW 6840   2.199   0.756   4.916 -0.3417  0.0947  0.1002
 1800SOL    HW1 6841   2.241   0.841   4.903 -2.1305  1.0519  0.2210
 1800SOL    HW2 6842   2.240   0.698   4.851  1.7599  0.6995  0.8327
 1801SOL     OW 6843   5.904   0.790   9.609  0.0216 -0.1969  0.1817
 1801SOL    HW1 6844   5.955   0.756   9.536 -0.7345 -1.1538  0.0801
 1801SOL    HW2 6845   5.907   0.885   9.598  1.0339 -0.2725 -0.3111
 1802SOL     OW 6846   7.009   2.869   9.650 -0.5081  0.0828 -0.1988
 1802SOL    HW1 6847   6.937   2.932   9.648  0.5702  1.3163 -1.0474
 1802SOL    HW2 6848   7.047   2.879   9.737 -0.5883  0.3051 -0.1883
 1803SOL     OW 6849   4.650   2.037   1.353 -0.0142 -0.4029 -0.6695
 1803SOL    HW1 6850   4.675   1.945   1.358 -0.5384 -0.4994  0.6052
 1803SOL    HW2 6851   4.706   2.074   1.285  3.9432 -0.5145  2.1958
 1804SOL     OW 6852   4.104   5.660   9.601 -0.4967  0.0188 -0.4503
 1804SOL    HW1 6853   4.103   5.566   9.583  0.1883 -0.0549 -0.1538
 1804SOL    HW2 6854   4.028   5.675   9.657 -0.3979 -0.4242 -0.1952
 1805SOL     OW 6855   4.486   1.932  12.203  0.3456 -1.3767  0.2183
 1805SOL    HW1 6856   4.578   1.936  12.177  0.4459  0.2155  0.7310
 1805SOL    HW2 6857   4.448   2.014  12.171 -0.2697 -0.8130  2.2431
 1806SOL     OW 6858   2.531   7.008   8.350  0.2077  0.2071  0.4504
 1806SOL    HW1 6859   2.617   6.986   8.388 -0.1603  0.0378  1.2063
 1806SOL    HW2 6860   2.470   7.000   8.423 -0.9168 -2.4562 -0.6269
 1807SOL     OW 6861   4.848   6.505   9.952 -0.7225  0.1760  0.2637
 1807SOL    HW1 6862   4.924   6.525   9.897 -0.0050 -0.7241  0.8884
 1807SOL    HW2 6863   4.775   6.552   9.911  0.3547  1.9119  0.2293
 1808SOL     OW 6864   1.915   2.517   7.568 -0.0910 -0.2078  0.0359
 1808SOL    HW1 6865   1.953   2.541   7.653 -0.7039  0.8443  0.0271
 1808SOL    HW2 6866   1.982   2.540   7.505 -0.3880  0.8424  0.0893
 1809SOL     OW 6867   1.766   2.318   1.887  0.1723  0.0928 -0.7166
 1809SOL    HW1 6868   1.764   2.230   1.925  0.0493 -0.3478 -1.7046
 1809SOL    HW2 6869   1.678   2.352   1.901  0.1840  0.0103 -0.4358
 1810SOL     OW 6870   6.112   4.963   9.141  0.5303  0.0823  0.3257
 1810SOL    HW1 6871   6.098   5.034   9.078  0.3364  0.1452  0.4389
 1810SOL    HW2 6872   6.064   4.888   9.104 -0.1205  0.2965  0.7123
 1811SOL     OW 6873   5.869   7.015   3.852  0.6652  0.0884 -0.3786
 1811SOL    HW1 6874   5.816   7.081   3.897  1.2295  0.0032  0.4201
 1811SOL    HW2 6875   5.885   7.052   3.765  0.9098  0.9712  0.0326
 1812SOL     OW 6876   7.207   1.547   6.104  0.0627  0.3601  0.0562
 1812SOL    HW1 6877   7.302   1.552   6.114  0.1364 -0.1095 -0.3694
 1812SOL    HW2 6878   7.185   1.456   6.126 -0.1421  0.1458 -0.9902
 1813SOL     OW 6879   7.206   1.495   4.618  0.4555 -0.5234 -0.2588
 1813SOL    HW1 6880   7.196   1.470   4.526  2.8189 -0.4296 -0.6011
 1813SOL    HW2 6881   7.232   1.415   4.663 -1.5948 -0.7833  0.5569
 1814SOL     OW 6882   6.336   3.510   3.404 -0.0278 -0.0039  0.0307
 1814SOL    HW1 6883   6.271   3.478   3.341 -0.5686  2.0303 -0.5094
 1814SOL    HW2 6884   6.286   3.560   3.468  0.7610 -0.3904  0.9884
 1815SOL     OW 6885   4.170   2.923   9.231  0.0369 -0.2650  0.4379
 1815SOL    HW1 6886   4.162   2.829   9.216  0.7304 -0.3918  0.8314
 1815SOL    HW2 6887   4.148   2.963   9.146 -2.8587 -0.6251  0.9219
 1816SOL     OW 6888   5.975   0.554   1.519 -0.4361  0.6602 -0.2168
 1816SOL    HW1 6889   6.051   0.532   1.465 -1.4747 -2.5017 -0.6403
 1816SOL    HW2 6890   5.900   0.521   1.469 -1.6364 -0.4015  2.1102
 1817SOL     OW 6891   0.727   7.901  10.768  0.4095 -0.4352  0.5083
 1817SOL    HW1 6892   0.666   7.838  10.732  0.6236 -1.3197  1.6214
 1817SOL    HW2 6893   0.673   7.962  10.819  0.3111 -0.3603  0.3127
 1818SOL     OW 6894   6.359   4.019   0.423 -0.2499 -0.2139  0.0656
 1818SOL    HW1 6895   6.278   4.068   0.436 -1.2457 -2.0427  1.1537
 1818SOL    HW2 6896   6.374   3.974   0.506  0.5509 -1.7918 -0.8750
 1819SOL     OW 6897   1.583   2.171   3.188 -0.4389  0.4571 -0.3128
 1819SOL    HW1 6898   1.651   2.166   3.121 -0.0754 -1.7153  0.1556
 1819SOL    HW2 6899   1.622   2.226   3.256  1.1682 -1.2483  0.2308
 1820SOL     OW 6900   1.386   3.110  10.627  0.5358  0.3421 -0.5945
 1820SOL    HW1 6901   1.373   3.017  10.612  1.0351 -0.2922  2.1983
 1820SOL    HW2 6902   1.480   3.123  10.616  0.8900 -0.1079  1.4791
 1821SOL     OW 6903   1.944   4.972   1.348 -0.6154 -0.2276  0.6255
 1821SOL    HW1 6904   1.935   5.034   1.420 -0.6401  0.5506 -0.0289
 1821SOL    HW2 6905   1.998   5.018   1.284 -0.3982 -0.9971  0.2443
 1822SOL     OW 6906   1.833   4.917   6.384  0.1749 -0.1028 -0.1931
 1822SOL    HW1 6907   1.904   4.893   6.324  0.4086  1.8508 -0.7485
 1822SOL    HW2 6908   1.875   4.974   6.448 -0.4009 -0.9668  0.9925
 1823SOL     OW 6909   1.363   3.306   3.542  0.3879 -0.2260 -0.3874
 1823SOL    HW1 6910   1.293   3.324   3.604 -0.4141 -0.4486 -1.1983
 1823SOL    HW2 6911   1.350   3.214   3.517 -0.1158  0.2000 -1.8322
 1824SOL     OW 6912   1.262   6.840  11.730  0.1766  0.0034  0.1256
 1824SOL    HW1 6913   1.340   6.786  11.744  2.0915  2.9391  1.9143
 1824SOL    HW2 6914   1.262   6.901  11.804 -2.7035  1.4598 -0.9397
 1825SOL     OW 6915   4.007   5.403   2.454  0.0951 -0.2015 -0.0478
 1825SOL    HW1 6916   4.056   5.337   2.405  0.8741  0.1358  0.2725
 1825SOL    HW2 6917   4.073   5.454   2.500 -0.6321 -0.7447  1.6913
 1826SOL     OW 6918   0.286   3.113  10.568 -0.0887  0.2060  0.3899
 1826SOL    HW1 6919   0.201   3.107  10.524 -0.0482 -1.5824  0.4759
 1826SOL    HW2 6920   0.279   3.190  10.624 -1.4899  0.3324  0.0794
 1827SOL     OW 6921   2.911   5.920   6.961  0.1889 -0.0575  0.8415
 1827SOL    HW1 6922   2.996   5.929   6.918  0.6234  0.2381  1.7289
 1827SOL    HW2 6923   2.866   6.002   6.941  0.3684  0.0588  0.9093
 1828SOL     OW 6924   0.371   6.666  10.294  0.4047  0.6186 -0.0860
 1828SOL    HW1 6925   0.394   6.689  10.204 -1.6741  1.2297 -0.5209
 1828SOL    HW2 6926   0.425   6.724  10.348  0.6709  1.2439 -0.9909
 1829SOL     OW 6927   1.678   2.520   5.663  0.0472  0.0833 -0.3033
 1829SOL    HW1 6928   1.740   2.555   5.727  0.2491 -0.9375  0.0785
 1829SOL    HW2 6929   1.730   2.458   5.611 -0.5228 -0.3821 -0.3278
 1830SOL     OW 6930   3.527   4.973  10.274  0.4263 -0.0195 -0.0984
 1830SOL    HW1 6931   3.618   4.951  10.251  0.3829 -1.6060  1.0998
 1830SOL    HW2 6932   3.491   4.892  10.309 -1.3108  0.7389 -0.0503
 1831SOL     OW 6933   1.648   6.980   6.218  0.1393 -0.6525 -0.2724
 1831SOL    HW1 6934   1.597   7.059   6.238  0.2015 -0.8309  0.6404
 1831SOL    HW2 6935   1.581   6.913   6.204  0.0846 -0.4305 -1.1096
 1832SOL     OW 6936   2.388   7.296   0.588  0.5031  0.3153  0.1253
 1832SOL    HW1 6937   2.371   7.329   0.499  1.7472  0.5758 -0.0421
 1832SOL    HW2 6938   2.359   7.204   0.585 -2.2248  1.0832  0.3557
 1833SOL     OW 6939   5.915   6.509   8.614  0.3560 -0.1916  0.2583
 1833SOL    HW1 6940   5.844   6.470   8.666 -1.5961 -1.0057 -2.7823
 1833SOL    HW2 6941   5.988   6.448   8.623 -0.5142 -1.2084  0.6807
 1834SOL     OW 6942   2.255   3.783  11.814 -0.2824  0.4144 -0.0843
 1834SOL    HW1 6943   2.242   3.821  11.727  0.0582  0.1355 -0.2562
 1834SOL    HW2 6944   2.174   3.805  11.861 -0.4920  0.5201 -0.4850
 1835SOL     OW 6945   6.271   0.690   4.779  0.5194 -0.5981  0.1215
 1835SOL    HW1 6946   6.277   0.740   4.698 -3.0072  3.5357  2.0033
 1835SOL    HW2 6947   6.216   0.615   4.757  1.1078 -0.5608 -1.6381
 1836SOL     OW 6948   7.664   3.956   5.118 -0.4394 -0.1155  0.6296
 1836SOL    HW1 6949   7.645   3.903   5.040  0.4444  1.0240 -0.4206
 1836SOL    HW2 6950   7.759   3.948   5.129 -0.0947  2.0296 -0.2229
 1837SOL     OW 6951   5.669   5.988   3.995 -0.0575 -0.2606 -0.0313
 1837SOL    HW1 6952   5.674   5.918   4.060  0.4358 -0.1758  0.0217
 1837SOL    HW2 6953   5.652   6.067   4.047 -3.2133 -0.6511 -0.2492
 1838SOL     OW 6954   5.360   4.766  11.889 -0.3010 -0.2419  0.2086
 1838SOL    HW1 6955   5.354   4.862  11.890  0.2051 -0.1863 -0.6502
 1838SOL    HW2 6956   5.355   4.743  11.796 -2.2782 -1.1948  0.4982
 1839SOL     OW 6957   1.544   3.534  10.101 -0.4042 -0.1099  0.1220
 1839SOL    HW1 6958   1.637   3.556  10.103 -0.6558  0.9598  1.9793
 1839SOL    HW2 6959   1.532   3.490  10.017  1.9265 -0.9826  0.1727
 1840SOL     OW 6960   1.736   0.473   3.074  0.0609  0.0648  0.1981
 1840SOL    HW1 6961   1.795   0.497   3.003 -0.0636  1.2388  0.4737
 1840SOL    HW2 6962   1.650   0.505   3.046 -0.1761 -0.3445  0.4430
 1841SOL     OW 6963   1.054   5.694   5.843  0.3513  0.1906  0.3305
 1841SOL    HW1 6964   1.011   5.759   5.788  1.3907  1.8568  1.3932
 1841SOL    HW2 6965   1.072   5.621   5.784  0.0512  1.2695 -1.1699
 1842SOL     OW 6966   0.639   6.560   3.319  0.0465 -0.2056  0.2819
 1842SOL    HW1 6967   0.664   6.504   3.245  1.3706 -0.2514  0.7276
 1842SOL    HW2 6968   0.721   6.600   3.347 -0.6564  0.8503  0.8928
 1843SOL     OW 6969   3.449   6.895   6.504 -0.0451 -0.0978  0.1679
 1843SOL    HW1 6970   3.361   6.909   6.538  0.1161 -0.9732  0.9930
 1843SOL    HW2 6971   3.436   6.840   6.427 -0.1376 -1.3864  1.0756
 1844SOL     OW 6972   2.797   1.399  10.712  0.0184  0.1613  0.9990
 1844SOL    HW1 6973   2.876   1.346  10.715 -0.5254 -0.8628 -0.9321
 1844SOL    HW2 6974   2.767   1.392  10.621 -1.9998  0.9333  1.5466
 1845SOL     OW 6975   5.464   7.005   1.403 -0.4174  0.6960 -0.1602
 1845SOL    HW1 6976   5.532   6.973   1.462 -0.3022  1.5093  0.1579
 1845SOL    HW2 6977   5.457   6.937   1.336 -0.1360  0.0413  0.4576
 1846SOL     OW 6978   1.954   6.563  11.432 -0.1972  0.1639  0.3783
 1846SOL    HW1 6979   1.905   6.482  11.427  1.3757 -0.8145  0.1665
 1846SOL    HW2 6980   2.046   6.536  11.438  0.6202  1.9044 -2.3414
 1847SOL     OW 6981   6.201   2.715   0.636 -0.2904 -0.1996  0.6134
 1847SOL    HW1 6982   6.193   2.767   0.716 -0.4047 -1.4513  1.4505
 1847SOL    HW2 6983   6.120   2.732   0.588 -0.0004  0.9590  0.4901
 1848SOL     OW 6984   7.537   3.626   3.797  0.2621 -0.6938  0.4138
 1848SOL    HW1 6985   7.512   3.649   3.886  0.2695 -2.7849  1.0148
 1848SOL    HW2 6986   7.510   3.535   3.787 -1.8525  0.1206 -2.5536
 1849SOL     OW 6987   2.663   6.665  10.762 -0.3071 -0.3208 -0.0113
 1849SOL    HW1 6988   2.694   6.609  10.691 -0.0282 -1.3118  0.8658
 1849SOL    HW2 6989   2.568   6.667  10.751 -0.3097 -0.8777 -0.1210
 1850SOL     OW 6990   1.279   4.173   9.988  0.3080  0.0703  0.3578
 1850SOL    HW1 6991   1.208   4.229   9.958  0.7171  0.5650  0.3126
 1850SOL    HW2 6992   1.245   4.133  10.069  0.8464  2.1551  1.6916
 1851SOL     OW 6993   0.180   3.172   5.691 -0.7349  0.2424 -0.5755
 1851SOL    HW1 6994   0.273   3.151   5.684 -1.2052 -1.5005 -2.4696
 1851SOL    HW2 6995   0.177   3.268   5.685  0.9991  0.4849  1.2372
 1852SOL     OW 6996   3.133   4.700   9.275  0.3220 -0.1872  0.1599
 1852SOL    HW1 6997   3.207   4.652   9.314  1.1417 -0.0900 -1.1992
 1852SOL    HW2 6998   3.067   4.703   9.344  1.3280 -0.8741  1.1893
 1853SOL     OW 6999   2.649   4.519   1.626  0.1382  0.1357 -0.1123
 1853SOL    HW1 7000   2.673   4.605   1.590  1.7205 -0.8618 -1.6258
 1853SOL    HW2 7001   2.628   4.466   1.549  0.9208 -1.3077  0.6302
 1854SOL     OW 7002   5.629   1.681   5.326 -0.2113 -0.1234 -0.0779
 1854SOL    HW1 7003   5.547   1.650   5.287 -0.1111  1.0475 -1.2808
 1854SOL    HW2 7004   5.601   1.734   5.400 -0.4965 -0.4650  0.0625
 1855SOL     OW 7005   4.233   5.566   0.810  0.6624 -0.2239  0.2625
 1855SOL    HW1 7006   4.290   5.506   0.856  0.4620  0.1375  0.9954
 1855SOL    HW2 7007   4.181   5.511   0.752  1.8383 -0.5455 -0.5233
 1856SOL     OW 7008   2.450   6.390   9.536 -0.1522  0.2276 -0.1344
 1856SOL    HW1 7009   2.498   6.472   9.543  0.7321 -0.4312  3.0806
 1856SOL    HW2 7010   2.358   6.414   9.548  0.0736  0.8226  0.4423
 1857SOL     OW 7011   6.983   0.313   4.767 -0.0423  0.2935  0.0881
 1857SOL    HW1 7012   6.926   0.275   4.700 -1.6238  1.4868  0.6872
 1857SOL    HW2 7013   6.972   0.408   4.758  1.8208  0.5576  0.2861
 1858SOL     OW 7014   4.717   4.805  10.142 -0.3786 -0.2861 -0.2186
 1858SOL    HW1 7015   4.668   4.874  10.099  0.9909 -0.1206 -1.6019
 1858SOL    HW2 7016   4.702   4.819  10.235 -0.4883  1.5945 -0.4861
 1859SOL     OW 7017   2.800   5.588   4.343 -0.0800 -0.0730  0.2208
 1859SOL    HW1 7018   2.822   5.619   4.255  0.1121 -2.3431 -0.5977
 1859SOL    HW2 7019   2.708   5.613   4.355 -0.9421 -1.9708 -1.7520
 1860SOL     OW 7020   6.596   0.880   6.868  0.5850 -0.2334 -0.2697
 1860SOL    HW1 7021   6.641   0.852   6.789  0.1819 -0.2394 -0.4993
 1860SOL    HW2 7022   6.620   0.972   6.878  1.4564 -0.4927  0.1727
 1861SOL     OW 7023   7.613   0.833  11.995 -0.3562  0.4460 -0.1291
 1861SOL    HW1 7024   7.592   0.804  11.906 -0.7429  2.4764 -0.7425
 1861SOL    HW2 7025   7.572   0.919  12.003  0.4737  0.7249  1.6915
 1862SOL     OW 7026   5.841   6.265   5.323  0.0416  0.2145 -0.4190
 1862SOL    HW1 7027   5.846   6.191   5.263  2.4775 -0.2813  0.2925
 1862SOL    HW2 7028   5.838   6.226   5.410 -2.1233  0.9498 -0.1020
 1863SOL     OW 7029   0.254   6.237   2.087 -0.5290 -0.1225  0.0608
 1863SOL    HW1 7030   0.289   6.306   2.143 -0.0335 -0.4995  0.2272
 1863SOL    HW2 7031   0.242   6.279   2.002  0.6394 -0.0430 -0.0903
 1864SOL     OW 7032   6.975   1.639  10.363 -0.6921 -0.2018 -0.4996
 1864SOL    HW1 7033   6.884   1.649  10.393 -0.0640  2.7885  0.7974
 1864SOL    HW2 7034   7.027   1.647  10.443  0.8016  0.4923 -1.5068
 1865SOL     OW 7035   7.186   5.884   7.511  0.2199 -0.2054 -0.3173
 1865SOL    HW1 7036   7.182   5.846   7.424 -0.9322  0.6666 -0.6758
 1865SOL    HW2 7037   7.134   5.964   7.505  0.6721  0.2237  0.9987
 1866SOL     OW 7038   4.515   4.992   5.902  0.4495  0.2097 -0.3353
 1866SOL    HW1 7039   4.535   5.049   5.977 -1.4874  1.3440 -0.6234
 1866SOL    HW2 7040   4.499   5.052   5.830  0.9675 -0.8313 -1.3414
 1867SOL     OW 7041   4.687   2.151   2.947 -0.1967 -0.4562 -0.5764
 1867SOL    HW1 7042   4.617   2.106   2.899 -0.8656  2.1949 -2.2940
 1867SOL    HW2 7043   4.643   2.189   3.024 -0.6701  0.9936 -1.5216
 1868SOL     OW 7044   4.968   4.268   9.433 -0.5418 -0.0960  0.5234
 1868SOL    HW1 7045   4.913   4.325   9.486  1.1238  0.6493  1.5334
 1868SOL    HW2 7046   5.012   4.327   9.372 -1.7181 -0.8262 -1.0994
 1869SOL     OW 7047   5.530   1.300   8.990  0.0132 -0.2298 -0.4899
 1869SOL    HW1 7048   5.590   1.240   8.946 -0.2219 -1.7819  1.1586
 1869SOL    HW2 7049   5.449   1.250   9.000  0.5959 -0.7142  3.1911
 1870SOL     OW 7050   1.756   5.279   2.305  0.2025 -0.2109  0.3630
 1870SOL    HW1 7051   1.821   5.350   2.313  0.8683 -0.6967 -0.4996
 1870SOL    HW2 7052   1.729   5.260   2.395  2.3247 -0.9585  0.8970
 1871SOL     OW 7053   2.471   5.600   8.159 -0.6760 -0.4465  0.1992
 1871SOL    HW1 7054   2.554   5.576   8.117 -0.9654 -2.4428  0.6331
 1871SOL    HW2 7055   2.465   5.541   8.234 -1.3183  1.3986  1.6674
 1872SOL     OW 7056   7.303   6.450  12.102  0.5087 -0.2315  0.4098
 1872SOL    HW1 7057   7.210   6.445  12.123  0.3031 -0.7584 -0.5463
 1872SOL    HW2 7058   7.340   6.368  12.136  0.0595 -1.3793 -1.7058
 1873SOL     OW 7059   0.525   0.118   2.054 -0.3929 -0.1077  0.1769
 1873SOL    HW1 7060   0.496   0.095   1.966 -0.2387 -2.6819  0.7117
 1873SOL    HW2 7061   0.619   0.101   2.054 -0.3227  0.2466  0.7417
 1874SOL     OW 7062   0.667   3.384   8.740  0.6601  0.1309  0.2849
 1874SOL    HW1 7063   0.712   3.468   8.729 -0.1902  0.6839  0.9391
 1874SOL    HW2 7064   0.687   3.335   8.660 -0.7524  1.8523 -1.1997
 1875SOL     OW 7065   0.069   5.773   9.726 -0.0740  0.2747 -0.6736
 1875SOL    HW1 7066   0.084   5.834   9.654 -0.2878  1.7474  0.4894
 1875SOL    HW2 7067   0.026   5.698   9.684 -1.7220  1.7686 -1.8561
 1876SOL     OW 7068   6.316   3.251   7.515  0.1278 -0.0969 -0.3106
 1876SOL    HW1 7069   6.302   3.257   7.420  1.0423 -1.7328 -0.5773
 1876SOL    HW2 7070   6.336   3.159   7.531  1.8807  0.4951  1.2188
 1877SOL     OW 7071   7.036   6.349  12.083  0.1876  0.1036 -0.9390
 1877SOL    HW1 7072   6.954   6.316  12.118  1.6318 -2.9178 -0.0156
 1877SOL    HW2 7073   7.011   6.425  12.030 -2.8477  0.7846  1.2143
 1878SOL     OW 7074   7.469   4.048   8.667 -0.3888 -0.1536 -0.0936
 1878SOL    HW1 7075   7.447   4.093   8.748  2.2411  0.8640  0.1525
 1878SOL    HW2 7076   7.489   4.118   8.604  2.6391 -0.8215 -0.0414
 1879SOL     OW 7077   0.422   4.731   6.545 -0.4427 -0.4538  0.4959
 1879SOL    HW1 7078   0.360   4.783   6.598 -0.9026 -0.4783 -0.0029
 1879SOL    HW2 7079   0.491   4.707   6.606 -1.8425 -2.0156  1.5698
 1880SOL     OW 7080   5.460   0.736   7.022 -0.9679 -0.5874 -0.2691
 1880SOL    HW1 7081   5.365   0.739   7.011 -1.1289 -0.6000  1.0514
 1880SOL    HW2 7082   5.488   0.827   7.025 -0.8973 -0.5820 -0.8639
 1881SOL     OW 7083   7.481   5.499   0.442  0.5099  0.1484 -0.7781
 1881SOL    HW1 7084   7.517   5.412   0.431  0.8020  0.2016 -0.2815
 1881SOL    HW2 7085   7.488   5.516   0.536 -0.3024  0.3775 -0.7499
 1882SOL     OW 7086   0.216   1.720   9.307  0.6839  0.2084 -0.7444
 1882SOL    HW1 7087   0.162   1.641   9.310 -0.8956  1.2188  2.4373
 1882SOL    HW2 7088   0.306   1.688   9.317 -0.0416 -1.2437  2.4010
 1883SOL     OW 7089   0.544   0.578   3.102 -0.2457  0.1400  0.5691
 1883SOL    HW1 7090   0.608   0.522   3.059 -0.4118  0.9868 -0.8431
 1883SOL    HW2 7091   0.596   0.638   3.155 -0.0235 -0.6979  1.3269
 1884SOL     OW 7092   4.169   4.224   7.979 -0.4779 -0.4797  0.6978
 1884SOL    HW1 7093   4.145   4.186   8.064  0.4843  0.1593  1.2722
 1884SOL    HW2 7094   4.156   4.318   7.990  0.0417 -0.3507  0.2789
 1885SOL     OW 7095   3.516   5.259   9.399  0.5147  0.0479 -0.6478
 1885SOL    HW1 7096   3.479   5.212   9.474  1.1409  0.4049 -0.1031
 1885SOL    HW2 7097   3.440   5.297   9.355  0.1399 -0.1612 -0.1917
 1886SOL     OW 7098   1.292   4.923   4.009  0.0934  0.2290 -0.5566
 1886SOL    HW1 7099   1.321   4.919   3.918 -0.3220 -1.5881 -0.6377
 1886SOL    HW2 7100   1.241   4.843   4.022  2.0719 -0.7744  1.9250
 1887SOL     OW 7101   6.727   6.152  10.684  0.0837  0.3168  0.6737
 1887SOL    HW1 7102   6.677   6.220  10.730 -2.0625  2.0595 -3.7131
 1887SOL    HW2 7103   6.679   6.071  10.701 -0.5178  0.8467  1.5943
 1888SOL     OW 7104   1.253   4.256   8.986 -0.5788 -0.2727 -0.5195
 1888SOL    HW1 7105   1.288   4.336   8.947 -0.4136 -0.3348 -0.4989
 1888SOL    HW2 7106   1.330   4.199   8.998  0.0480  1.0697  3.2166
 1889SOL     OW 7107   4.664   1.176   5.981 -0.0700  0.2587  0.2775
 1889SOL    HW1 7108   4.657   1.116   6.055  1.1295 -0.7728 -0.4021
 1889SOL    HW2 7109   4.573   1.201   5.961 -0.5851 -1.1924  0.6956
 1890SOL     OW 7110   4.033   4.285   5.791 -0.1985  0.0339 -0.0568
 1890SOL    HW1 7111   4.034   4.227   5.867  1.4498 -1.1519 -0.9058
 1890SOL    HW2 7112   4.058   4.371   5.825  1.4258 -0.6777  0.6257
 1891SOL     OW 7113   4.279   5.358  10.424  0.4376  0.5951 -0.1378
 1891SOL    HW1 7114   4.367   5.350  10.462 -0.0198  1.2403  1.0865
 1891SOL    HW2 7115   4.222   5.374  10.499 -0.7959 -0.2016 -0.8730
 1892SOL     OW 7116   1.150   0.532   1.905 -0.1241  0.0783 -0.6521
 1892SOL    HW1 7117   1.148   0.438   1.886  1.0261 -0.1581  0.2934
 1892SOL    HW2 7118   1.132   0.538   1.998 -0.9557  0.8739 -0.8479
 1893SOL     OW 7119   6.519   1.682   3.451 -0.0510 -0.5529 -0.2458
 1893SOL    HW1 7120   6.534   1.749   3.384 -1.4390 -0.8075 -0.8530
 1893SOL    HW2 7121   6.586   1.616   3.434 -0.2020 -0.4729 -1.2140
 1894SOL     OW 7122   4.994   2.387   4.358 -0.0812  0.6382 -0.1239
 1894SOL    HW1 7123   5.067   2.437   4.323 -1.1097  1.2660 -1.4909
 1894SOL    HW2 7124   4.969   2.328   4.287 -0.3897 -0.1355  0.6179
 1895SOL     OW 7125   6.795   7.469   8.544 -0.0332 -0.4142 -0.0199
 1895SOL    HW1 7126   6.702   7.490   8.548  0.0744  0.5333 -1.7933
 1895SOL    HW2 7127   6.806   7.422   8.461  1.0168 -0.8202  0.3265
 1896SOL     OW 7128   5.822   0.307   7.922 -0.0035 -0.3578  0.1059
 1896SOL    HW1 7129   5.835   0.401   7.919  0.9083 -0.4975 -0.9461
 1896SOL    HW2 7130   5.848   0.276   7.835 -1.5605 -1.4305 -0.0187
 1897SOL     OW 7131   2.995   5.435   6.067 -0.0348 -0.1294 -0.2045
 1897SOL    HW1 7132   3.032   5.510   6.019 -0.2195  0.6194  0.7894
 1897SOL    HW2 7133   3.038   5.437   6.152 -1.3529 -0.0457  0.4945
 1898SOL     OW 7134   7.196   4.494   1.877 -0.2023 -0.2904 -0.8685
 1898SOL    HW1 7135   7.272   4.438   1.860  0.8089  0.6709  0.3197
 1898SOL    HW2 7136   7.203   4.563   1.811 -0.8777 -0.9803 -1.6817
 1899SOL     OW 7137   2.550   4.672   1.847 -0.4374 -0.4721 -0.7158
 1899SOL    HW1 7138   2.567   4.706   1.759  2.5521 -1.2664 -0.5440
 1899SOL    HW2 7139   2.587   4.584   1.847  1.3186  0.1298  1.7795
 1900SOL     OW 7140   5.906   2.328   6.335 -0.1339 -0.3950 -0.1146
 1900SOL    HW1 7141   5.937   2.418   6.339 -0.8314 -0.1366 -0.3687
 1900SOL    HW2 7142   5.896   2.301   6.427 -0.4463 -0.0256 -0.0386
 1901SOL     OW 7143   6.715   1.495   3.454  0.0835 -0.4630  0.4028
 1901SOL    HW1 7144   6.734   1.430   3.387  0.8297 -0.4646  0.5978
 1901SOL    HW2 7145   6.799   1.507   3.499 -0.2740 -0.0609  0.9749
 1902SOL     OW 7146   4.260   0.803   3.379 -0.0977 -0.5335  0.0559
 1902SOL    HW1 7147   4.180   0.790   3.430 -0.5042  0.9266 -0.1820
 1902SOL    HW2 7148   4.262   0.727   3.320 -0.4471 -1.4215  1.1468
 1903SOL     OW 7149   5.638   2.657   7.648 -0.1386  0.0823 -0.0492
 1903SOL    HW1 7150   5.553   2.673   7.606 -0.5149 -0.4033  0.5078
 1903SOL    HW2 7151   5.689   2.611   7.581 -0.9026 -1.1270  0.1530
 1904SOL     OW 7152   5.305   0.089   4.554  0.6895  0.1218  0.3121
 1904SOL    HW1 7153   5.350   0.080   4.638 -0.0801  0.8404  0.8119
 1904SOL    HW2 7154   5.343   0.020   4.500  1.1658 -0.3804  1.2528
 1905SOL     OW 7155   2.683   2.148   7.552  0.2832 -0.5939 -0.5245
 1905SOL    HW1 7156   2.759   2.187   7.508 -0.0086 -0.2822 -0.7492
 1905SOL    HW2 7157   2.607   2.192   7.514  0.0225 -0.3914  0.2149
 1906SOL     OW 7158   1.113   6.179   7.799 -0.3054 -0.5995  0.5488
 1906SOL    HW1 7159   1.204   6.202   7.816 -0.0832 -0.9999 -0.0791
 1906SOL    HW2 7160   1.113   6.084   7.787 -0.8561 -0.6461  0.8603
 1907SOL     OW 7161   7.120   7.807   3.330  0.1101 -0.0907 -0.6096
 1907SOL    HW1 7162   7.101   7.865   3.257 -0.8817 -0.5681 -0.7514
 1907SOL    HW2 7163   7.158   7.864   3.397  2.4617  0.1044 -2.0094
 1908SOL     OW 7164   7.549   6.261   8.401 -0.2975 -0.1906 -0.0947
 1908SOL    HW1 7165   7.617   6.292   8.460 -0.2239  0.0874 -0.3228
 1908SOL    HW2 7166   7.593   6.196   8.346 -0.7002 -1.4655  1.0558
 1909SOL     OW 7167   6.680   7.136  10.329 -0.1313  0.2396 -0.4614
 1909SOL    HW1 7168   6.670   7.128  10.234  1.2635 -0.4529 -0.5691
 1909SOL    HW2 7169   6.685   7.046  10.360  0.1646  0.4741  0.1910
 1910SOL     OW 7170   7.766   4.024   1.781  0.3747 -0.0796 -0.4814
 1910SOL    HW1 7171   7.734   3.985   1.699  1.9291 -1.7935 -0.3426
 1910SOL    HW2 7172   7.743   3.960   1.848 -2.2789  1.9788  0.8047
 1911SOL     OW 7173   7.641   0.928   3.398 -0.3253 -0.5941  0.2450
 1911SOL    HW1 7174   7.546   0.917   3.404 -0.4575  0.5287  0.3861
 1911SOL    HW2 7175   7.654   0.986   3.323  0.2131 -0.3281  0.5369
 1912SOL     OW 7176   5.995   0.675   3.023 -0.0160 -0.1279  0.0643
 1912SOL    HW1 7177   6.041   0.625   2.955  0.0298 -0.2334  0.1730
 1912SOL    HW2 7178   6.004   0.767   2.995  0.1874 -0.1543  0.0403
 1913SOL     OW 7179   0.160   4.505   0.299  0.0333  0.6616 -0.1718
 1913SOL    HW1 7180   0.090   4.441   0.306 -0.4465  1.2777  0.9603
 1913SOL    HW2 7181   0.223   4.480   0.367  1.7067 -0.7735 -2.1287
 1914SOL     OW 7182   2.170   1.139   7.926 -0.0990  0.2580  0.5077
 1914SOL    HW1 7183   2.177   1.189   7.845 -0.4396  0.4584  0.6025
 1914SOL    HW2 7184   2.254   1.094   7.933 -0.1635  0.0263 -0.0942
 1915SOL     OW 7185   2.084   5.624   4.322  0.1574  0.6462 -0.4373
 1915SOL    HW1 7186   2.131   5.679   4.385 -1.0140 -0.3696  1.3964
 1915SOL    HW2 7187   2.058   5.547   4.372 -0.2770 -0.5030 -2.3518
 1916SOL     OW 7188   0.244   1.634   5.902 -0.5079  0.2077  0.1592
 1916SOL    HW1 7189   0.157   1.605   5.872  0.0095 -1.0796 -0.1503
 1916SOL    HW2 7190   0.297   1.554   5.903  1.0281  1.1762 -0.8480
 1917SOL     OW 7191   4.914   4.764  11.564  0.1649  0.7283  0.3249
 1917SOL    HW1 7192   4.925   4.702  11.492 -0.8739 -0.8432  1.4767
 1917SOL    HW2 7193   5.003   4.792  11.584  0.6394 -0.2134 -0.3655
 1918SOL     OW 7194   7.622   0.194   8.828  0.0932  0.1006  0.0425
 1918SOL    HW1 7195   7.531   0.223   8.824  0.3735  1.0734  0.5043
 1918SOL    HW2 7196   7.652   0.197   8.737 -1.0070 -2.5641 -0.5096
 1919SOL     OW 7197   0.745   4.985   5.579 -0.2819  0.4056 -0.7325
 1919SOL    HW1 7198   0.654   4.991   5.550 -0.3586  0.2871 -0.5269
 1919SOL    HW2 7199   0.790   5.055   5.533 -0.4873  0.4931 -0.8033
 1920SOL     OW 7200   3.937   4.446   1.718  0.6446  0.3095  0.2105
 1920SOL    HW1 7201   3.959   4.365   1.670  0.1750  0.2243  0.1331
 1920SOL    HW2 7202   4.021   4.485   1.739  0.9183 -0.8256  1.3196
 1921SOL     OW 7203   6.501   0.468   2.486  0.7235  0.6244  0.6526
 1921SOL    HW1 7204   6.560   0.526   2.536  0.0146  2.1056 -0.1670
 1921SOL    HW2 7205   6.556   0.431   2.418  1.1778  0.3566  1.1553
 1922SOL     OW 7206   6.729   0.879  10.733  0.7467 -0.0417  0.1515
 1922SOL    HW1 7207   6.762   0.790  10.736 -3.5908 -1.8581  0.3642
 1922SOL    HW2 7208   6.645   0.876  10.778  0.4194  4.2308  0.2880
 1923SOL     OW 7209   4.343   6.028   6.096  0.5118 -0.7296  0.3698
 1923SOL    HW1 7210   4.253   6.019   6.128  1.0204 -1.7660  1.6609
 1923SOL    HW2 7211   4.397   6.023   6.176  1.6529  1.6633 -0.1692
 1924SOL     OW 7212   3.263   1.253   6.461  0.7025  0.0403  0.3208
 1924SOL    HW1 7213   3.220   1.168   6.459  1.1879 -0.2630  1.8220
 1924SOL    HW2 7214   3.305   1.261   6.375  0.0340 -0.8952 -0.1019
 1925SOL     OW 7215   4.900   2.263   6.791 -0.3961  0.3115 -0.2458
 1925SOL    HW1 7216   4.948   2.192   6.833  0.0547  0.3691 -0.6511
 1925SOL    HW2 7217   4.836   2.219   6.736  0.3606  0.1922 -1.0557
 1926SOL     OW 7218   1.676   6.482   8.890  0.0302 -0.2378  0.1649
 1926SOL    HW1 7219   1.691   6.503   8.797 -3.8839 -0.9006 -0.8115
 1926SOL    HW2 7220   1.692   6.387   8.896 -1.9819 -0.6697 -0.5149
 1927SOL     OW 7221   5.107   4.547   8.063 -0.2142  0.4066  0.0223
 1927SOL    HW1 7222   5.043   4.520   7.997 -1.0313  2.3218 -0.0431
 1927SOL    HW2 7223   5.192   4.530   8.023 -0.6910 -0.0492 -0.8223
 1928SOL     OW 7224   6.229   6.300  11.589 -0.4632  0.0220 -0.5212
 1928SOL    HW1 7225   6.305   6.250  11.559 -1.0109 -0.7890 -0.5792
 1928SOL    HW2 7226   6.165   6.291  11.518 -0.8994  0.0488 -0.1354
 1929SOL     OW 7227   1.121   1.181  11.698 -0.2485  0.0793 -0.5686
 1929SOL    HW1 7228   1.070   1.102  11.681 -1.2981  0.3389  1.0751
 1929SOL    HW2 7229   1.177   1.157  11.772  2.1636 -0.2151 -2.3617
 1930SOL     OW 7230   0.695   6.588   7.876 -0.2030 -0.0538  0.2216
 1930SOL    HW1 7231   0.764   6.550   7.822 -0.6998  0.7093 -1.0018
 1930SOL    HW2 7232   0.722   6.678   7.891 -0.9535  0.2835 -0.3527
 1931SOL     OW 7233   2.908   0.495   0.179  0.3011 -0.4093 -0.2674
 1931SOL    HW1 7234   2.904   0.411   0.134 -1.4830  0.1289 -1.2312
 1931SOL    HW2 7235   2.935   0.474   0.268  5.0428 -1.4212 -1.7009
 1932SOL     OW 7236   0.959   1.378  11.811 -0.3209 -0.4305  0.1577
 1932SOL    HW1 7237   1.016   1.309  11.775  0.7848 -0.4531  1.8654
 1932SOL    HW2 7238   0.889   1.330  11.855 -1.0168 -0.4024 -0.8621
 1933SOL     OW 7239   6.506   7.427   9.551 -0.1089  0.1186 -0.2354
 1933SOL    HW1 7240   6.531   7.511   9.590  0.5661 -0.5395  0.7946
 1933SOL    HW2 7241   6.412   7.421   9.567 -0.0404  0.3778  0.3197
 1934SOL     OW 7242   0.698   7.499   6.929  0.2568  0.2851  0.0997
 1934SOL    HW1 7243   0.657   7.413   6.934  3.3803 -1.2927  2.2278
 1934SOL    HW2 7244   0.686   7.537   7.015  3.3349 -0.4504  0.9933
 1935SOL     OW 7245   6.924   1.108   2.659  0.1371 -0.7510  0.4355
 1935SOL    HW1 7246   6.831   1.092   2.675 -0.4343  2.4585  0.9501
 1935SOL    HW2 7247   6.940   1.074   2.571 -2.0309  0.3140 -0.4421
 1936SOL     OW 7248   3.784   2.397  11.574 -0.0420 -0.3252 -0.1068
 1936SOL    HW1 7249   3.839   2.319  11.566 -0.5508 -0.6692 -0.3182
 1936SOL    HW2 7250   3.697   2.363  11.593 -0.2313  0.2031 -0.0177
 1937SOL     OW 7251   3.759   0.269   6.695 -0.2908 -0.5133 -0.1840
 1937SOL    HW1 7252   3.708   0.198   6.656 -1.6945  0.2677  0.1460
 1937SOL    HW2 7253   3.847   0.259   6.658 -1.4938  0.2045 -3.5749
 1938SOL     OW 7254   5.233   3.536  11.968  0.5220 -0.1519  0.2158
 1938SOL    HW1 7255   5.320   3.575  11.971  1.3604 -1.4885 -2.6685
 1938SOL    HW2 7256   5.216   3.507  12.057  3.2929 -0.3806  0.7615
 1939SOL     OW 7257   5.508   3.369   7.887  0.2249 -0.1630 -0.7198
 1939SOL    HW1 7258   5.470   3.294   7.933  0.4691 -1.8503 -3.0917
 1939SOL    HW2 7259   5.594   3.380   7.927 -0.5384  0.1100  0.9337
 1940SOL     OW 7260   7.486   7.326   2.973  0.1874  0.1924 -0.0784
 1940SOL    HW1 7261   7.485   7.398   2.911 -1.4698 -0.6742 -1.1228
 1940SOL    HW2 7262   7.518   7.251   2.923 -0.5520 -0.3724  0.2775
 1941SOL     OW 7263   3.185   5.964   5.110 -0.5609 -0.9101 -0.5027
 1941SOL    HW1 7264   3.167   6.055   5.133  1.5146 -1.2749  3.3747
 1941SOL    HW2 7265   3.110   5.915   5.143  0.5597 -0.9906  2.1514
 1942SOL     OW 7266   1.214   6.488   4.184  0.5996  0.3646 -0.0624
 1942SOL    HW1 7267   1.308   6.474   4.176  0.9714  0.8025  2.5832
 1942SOL    HW2 7268   1.205   6.580   4.210 -0.7515  0.9589 -2.3801
 1943SOL     OW 7269   4.139   5.621   9.937 -0.2496  0.1329 -0.1363
 1943SOL    HW1 7270   4.182   5.621  10.022 -0.9703 -0.3475  0.2354
 1943SOL    HW2 7271   4.099   5.535   9.930  2.9035 -1.3271 -2.5709
 1944SOL     OW 7272   3.572   3.140   8.714  0.3959 -0.7435  0.5071
 1944SOL    HW1 7273   3.618   3.104   8.790  0.7795  0.7135  0.9887
 1944SOL    HW2 7274   3.518   3.068   8.683 -0.3875 -1.1524  2.6590
 1945SOL     OW 7275   2.012   3.007  11.400 -0.5273 -0.1454  0.4695
 1945SOL    HW1 7276   1.997   3.096  11.369 -0.9346 -0.2352  0.4022
 1945SOL    HW2 7277   2.055   2.963  11.326 -1.0549 -0.2239  0.2058
 1946SOL     OW 7278   3.856   6.757  11.744  0.5457 -0.0249  0.0538
 1946SOL    HW1 7279   3.892   6.773  11.657  1.0044 -1.5078 -0.0582
 1946SOL    HW2 7280   3.919   6.699  11.786 -1.6149 -2.6817 -0.1118
 1947SOL     OW 7281   4.044   1.739   1.937  0.1050 -0.5838  0.3948
 1947SOL    HW1 7282   4.096   1.686   1.875 -0.0734 -1.1551  0.7280
 1947SOL    HW2 7283   4.032   1.822   1.892 -0.4247 -1.1520 -0.5589
 1948SOL     OW 7284   6.538   3.713   0.369 -0.0065  0.0331 -0.1520
 1948SOL    HW1 7285   6.488   3.640   0.331  0.3041 -0.1223 -0.2683
 1948SOL    HW2 7286   6.568   3.680   0.454 -0.7221  0.3904  0.2449
 1949SOL     OW 7287   1.010   7.059  11.585  0.5169  0.2684  0.2127
 1949SOL    HW1 7288   0.949   6.985  11.588  1.2568 -0.3329  0.9734
 1949SOL    HW2 7289   1.012   7.091  11.675 -1.1814  2.3988 -0.4480
 1950SOL     OW 7290   4.253   1.911   1.279  0.4321 -0.5024 -0.0249
 1950SOL    HW1 7291   4.342   1.943   1.262  0.5018 -0.9862 -0.6143
 1950SOL    HW2 7292   4.249   1.901   1.374  0.4143  1.2029  0.1850
 1951SOL     OW 7293   6.647   5.481   7.872 -0.4805 -0.3317 -0.2097
 1951SOL    HW1 7294   6.711   5.532   7.921 -0.5870 -0.4398  0.0428
 1951SOL    HW2 7295   6.661   5.391   7.902 -0.5990 -0.3868 -0.3194
 1952SOL     OW 7296   3.312   1.415   1.996  0.7528 -0.0205 -0.1212
 1952SOL    HW1 7297   3.404   1.387   1.990  0.5438 -0.6468 -0.5577
 1952SOL    HW2 7298   3.287   1.434   1.906  0.5206  0.3733  0.0257
 1953SOL     OW 7299   0.879   4.823  11.558 -0.1386 -0.0879  0.4334
 1953SOL    HW1 7300   0.880   4.733  11.527 -0.3635 -0.0769  0.3943
 1953SOL    HW2 7301   0.788   4.852  11.547 -0.3722 -0.2826  1.6655
 1954SOL     OW 7302   2.747   5.339   6.414 -0.3987  0.1955 -0.2173
 1954SOL    HW1 7303   2.771   5.313   6.503 -1.0136 -0.0572 -0.1159
 1954SOL    HW2 7304   2.810   5.295   6.358  0.1806  0.5969  0.1092
 1955SOL     OW 7305   2.877   5.092   6.310  0.2409  0.2499 -0.0945
 1955SOL    HW1 7306   2.966   5.122   6.327  0.7991 -1.1270 -0.4743
 1955SOL    HW2 7307   2.858   5.033   6.383 -1.2126  2.1827  1.1864
 1956SOL     OW 7308   5.952   5.569   1.288  0.0770  0.1715 -0.2936
 1956SOL    HW1 7309   6.024   5.527   1.242 -1.0871 -0.8928 -1.2006
 1956SOL    HW2 7310   5.984   5.658   1.307  2.3347 -0.8331  1.0659
 1957SOL     OW 7311   4.167   7.800   0.314 -0.1082 -0.0234  0.7577
 1957SOL    HW1 7312   4.111   7.850   0.374 -2.3785 -2.2151  0.6320
 1957SOL    HW2 7313   4.255   7.812   0.348 -0.5606  3.4576  1.0921
 1958SOL     OW 7314   2.269   4.137   7.563  0.4746  0.4320  0.5823
 1958SOL    HW1 7315   2.256   4.049   7.599 -0.0052  0.0738 -0.4192
 1958SOL    HW2 7316   2.249   4.127   7.469 -0.9233  1.8871  0.6871
 1959SOL     OW 7317   6.270   2.966   7.545  0.0438  0.2849  0.4067
 1959SOL    HW1 7318   6.201   2.949   7.610  0.1902 -2.7222 -0.0798
 1959SOL    HW2 7319   6.230   2.940   7.462  1.4654 -0.7782  0.0178
 1960SOL     OW 7320   5.485   4.796   0.372 -0.3721 -0.2174 -0.6368
 1960SOL    HW1 7321   5.411   4.740   0.397  0.9259 -1.0493  1.5722
 1960SOL    HW2 7322   5.543   4.737   0.323 -0.0253 -0.2480 -0.1968
 1961SOL     OW 7323   6.568   0.759  10.264  0.4343  0.1334 -0.4888
 1961SOL    HW1 7324   6.526   0.745  10.348  1.3833 -3.1167 -0.4191
 1961SOL    HW2 7325   6.497   0.788  10.206 -1.3397 -2.2639  0.3288
 1962SOL     OW 7326   6.382   5.057   3.917 -0.2144 -0.4334 -0.1437
 1962SOL    HW1 7327   6.411   5.010   3.995  1.4086  0.5558 -0.1134
 1962SOL    HW2 7328   6.365   5.146   3.947  2.3593  0.5101 -1.1940
 1963SOL     OW 7329   7.011   3.895   9.708  0.0292 -0.4240  0.2189
 1963SOL    HW1 7330   7.064   3.875   9.785  0.7487  2.1867  0.4912
 1963SOL    HW2 7331   6.921   3.892   9.740  0.2729 -0.3317  0.9375
 1964SOL     OW 7332   5.683   6.860   2.758 -0.0855  0.1284 -0.1879
 1964SOL    HW1 7333   5.715   6.858   2.668 -0.7393 -0.3306 -0.4203
 1964SOL    HW2 7334   5.653   6.771   2.775 -1.5294  0.5925 -0.1069
 1965SOL     OW 7335   1.098   7.155  10.433  0.4027  0.2177  0.6936
 1965SOL    HW1 7336   1.104   7.105  10.515  0.6064  0.9064  1.1040
 1965SOL    HW2 7337   1.162   7.113  10.375  1.9672  1.1636  1.6699
 1966SOL     OW 7338   2.183   0.608   5.964 -0.1350  0.0326  0.6433
 1966SOL    HW1 7339   2.124   0.560   5.906 -0.3074  0.1635  0.7123
 1966SOL    HW2 7340   2.271   0.588   5.930 -0.2774  0.9760 -0.3300
 1967SOL     OW 7341   6.629   0.091   2.346  0.7925  0.3192  0.3783
 1967SOL    HW1 7342   6.640  -0.003   2.357  0.4898  0.2708  0.2564
 1967SOL    HW2 7343   6.702   0.117   2.289 -0.1218 -0.1251 -1.0448
 1968SOL     OW 7344   0.511   2.614   3.019  0.2665  0.5834 -0.1895
 1968SOL    HW1 7345   0.578   2.677   3.044  0.7444 -0.5017  1.4091
 1968SOL    HW2 7346   0.521   2.605   2.924  0.9457  2.0140 -0.2818
 1969SOL     OW 7347   3.020   7.844   7.431  0.0663  0.2034 -0.3345
 1969SOL    HW1 7348   3.063   7.880   7.353 -2.1314  0.5883 -1.4187
 1969SOL    HW2 7349   3.068   7.762   7.449  1.3838  0.7244 -1.3137
 1970SOL     OW 7350   2.201   3.915  11.561 -0.1665 -0.4372  0.3474
 1970SOL    HW1 7351   2.272   3.977  11.580 -0.0753 -0.4287 -0.0082
 1970SOL    HW2 7352   2.134   3.969  11.517 -0.6844 -0.3033  1.2754
 1971SOL     OW 7353   5.754   6.205   4.173 -0.1929  0.2610  0.5338
 1971SOL    HW1 7354   5.800   6.282   4.208  2.1798 -1.2606  0.9793
 1971SOL    HW2 7355   5.759   6.140   4.243 -0.8693 -0.7785 -0.3473
 1972SOL     OW 7356   7.091   2.537   3.603  0.1608 -0.3591  0.2292
 1972SOL    HW1 7357   7.114   2.457   3.650  3.1397  0.4454  0.3067
 1972SOL    HW2 7358   7.149   2.539   3.528  0.2582  1.8025  0.3046
 1973SOL     OW 7359   1.940   2.519  11.056 -0.1057 -0.4425 -0.9007
 1973SOL    HW1 7360   1.923   2.548  10.966  0.5358  2.6115 -0.1475
 1973SOL    HW2 7361   2.034   2.533  11.068 -0.4349  0.6648  0.6639
 1974SOL     OW 7362   6.036   6.489   0.392  0.3076  0.4746  0.0056
 1974SOL    HW1 7363   5.945   6.472   0.365  0.8213 -0.9920 -0.9103
 1974SOL    HW2 7364   6.028   6.528   0.479 -1.1791 -0.1541  0.1813
 1975SOL     OW 7365   3.619   4.751   8.932  0.5292 -0.1265  0.6142
 1975SOL    HW1 7366   3.544   4.733   8.875  0.0556  1.5018  0.6942
 1975SOL    HW2 7367   3.690   4.698   8.895 -0.2794 -0.5988 -0.3072
 1976SOL     OW 7368   3.269   7.788  11.861 -0.6012 -0.4840  0.3583
 1976SOL    HW1 7369   3.208   7.858  11.883 -1.1588 -0.9204  0.2013
 1976SOL    HW2 7370   3.339   7.833  11.813  1.0128  0.6339  3.4764
 1977SOL     OW 7371   7.499   7.103   6.251 -0.4707 -0.5701 -0.1814
 1977SOL    HW1 7372   7.470   7.156   6.326 -1.4916  0.5194 -1.3045
 1977SOL    HW2 7373   7.486   7.013   6.279 -0.5783 -0.1982  1.0502
 1978SOL     OW 7374   2.195   1.608   1.088 -0.6001  0.3407  0.2728
 1978SOL    HW1 7375   2.225   1.615   1.179 -0.3724 -0.2635  0.2495
 1978SOL    HW2 7376   2.234   1.527   1.057  1.0541  1.5495 -1.0163
 1979SOL     OW 7377   6.775   4.643   4.306 -0.5069  0.0378 -0.7065
 1979SOL    HW1 7378   6.716   4.601   4.243 -0.1488 -0.2038 -0.8828
 1979SOL    HW2 7379   6.846   4.581   4.317  1.0949  1.4053 -2.5186
 1980SOL     OW 7380   2.922   2.540   9.620  0.6488 -0.1949 -0.0178
 1980SOL    HW1 7381   2.981   2.598   9.572  0.4319  0.9912  1.0936
 1980SOL    HW2 7382   2.835   2.578   9.606  0.3140 -1.1040 -0.4647
 1981SOL     OW 7383   3.787   5.542   1.618  0.1074 -0.2127  0.0310
 1981SOL    HW1 7384   3.811   5.451   1.599  0.5581 -0.3958  1.4101
 1981SOL    HW2 7385   3.707   5.534   1.670 -0.8015  0.2609 -1.2466
 1982SOL     OW 7386   3.067   2.193   0.407  0.2782 -0.2148  0.6300
 1982SOL    HW1 7387   3.066   2.287   0.389 -0.3073 -0.0234  1.5742
 1982SOL    HW2 7388   3.160   2.171   0.413  0.4836  1.0286  3.7223
 1983SOL     OW 7389   1.707   4.419  10.308 -0.2913 -0.1011 -0.6862
 1983SOL    HW1 7390   1.772   4.349  10.300  0.2431  0.0666  1.5295
 1983SOL    HW2 7391   1.722   4.456  10.395 -3.2436  0.0511 -0.1280
 1984SOL     OW 7392   1.166   7.584   7.640 -0.1666 -0.0705  0.3151
 1984SOL    HW1 7393   1.156   7.651   7.708  0.8031  1.1149 -0.6556
 1984SOL    HW2 7394   1.168   7.501   7.687 -0.2890  0.6656  1.6554
 1985SOL     OW 7395   6.263   3.811   8.637 -0.7107  0.3639 -0.0376
 1985SOL    HW1 7396   6.245   3.736   8.694 -1.5732  0.4792 -0.1482
 1985SOL    HW2 7397   6.299   3.772   8.557 -1.0489  0.0751 -0.0506
 1986SOL     OW 7398   3.742   5.218  11.766  0.2195  0.1672  0.2240
 1986SOL    HW1 7399   3.824   5.178  11.797  0.3956  1.9350  2.3009
 1986SOL    HW2 7400   3.771   5.281  11.700  0.4576  0.2023  0.3571
 1987SOL     OW 7401   5.163   2.072   0.232 -0.2239 -0.3397  0.4367
 1987SOL    HW1 7402   5.212   2.009   0.179  0.1844 -0.0905  0.5079
 1987SOL    HW2 7403   5.097   2.107   0.173  0.5970  0.3602 -0.0845
 1988SOL     OW 7404   0.387   7.185   3.769 -0.3279  0.6711  0.2478
 1988SOL    HW1 7405   0.416   7.094   3.774 -1.4050  0.3876  1.9466
 1988SOL    HW2 7406   0.419   7.216   3.684  2.1931 -0.5466  0.6652
 1989SOL     OW 7407   4.890   0.831  11.833 -0.4490 -0.0531 -0.0185
 1989SOL    HW1 7408   4.950   0.782  11.776 -0.2479 -1.4740  1.3483
 1989SOL    HW2 7409   4.819   0.857  11.775 -0.9155 -2.6196 -0.7337
 1990SOL     OW 7410   7.659   3.311   8.980 -0.0765 -0.6987  0.2582
 1990SOL    HW1 7411   7.733   3.273   8.933 -0.1953 -0.8032  0.1551
 1990SOL    HW2 7412   7.676   3.405   8.981  0.3734 -0.7765  0.7718
 1991SOL     OW 7413   1.987   0.875  10.595  0.1290 -0.0256  0.5049
 1991SOL    HW1 7414   2.077   0.858  10.621  0.3052 -1.6309 -0.9139
 1991SOL    HW2 7415   1.995   0.932  10.518 -0.0625 -0.1007  0.4291
 1992SOL     OW 7416   0.331   4.044  11.175 -0.3421  0.2502  0.1052
 1992SOL    HW1 7417   0.388   3.979  11.216  1.2409  1.7084  0.2956
 1992SOL    HW2 7418   0.323   4.013  11.084 -0.7999 -0.9633  0.5320
 1993SOL     OW 7419   3.269   6.078   3.662 -0.1198  0.7079 -0.5194
 1993SOL    HW1 7420   3.321   6.039   3.592 -0.9317  0.6811 -1.1248
 1993SOL    HW2 7421   3.191   6.113   3.617 -1.0531 -0.0376  0.4838
 1994SOL     OW 7422   6.221   3.028  10.224 -0.5984  0.5755  0.4826
 1994SOL    HW1 7423   6.230   3.036  10.319 -2.6058  0.3469  0.7352
 1994SOL    HW2 7424   6.240   2.937  10.205  0.2248  0.7165  0.5897
 1995SOL     OW 7425   1.992   7.051   5.810 -0.5572 -0.1402  0.1079
 1995SOL    HW1 7426   1.921   7.051   5.875 -0.2394  1.6750  0.5111
 1995SOL    HW2 7427   1.951   7.017   5.730 -1.6807  0.1405  0.5432
 1996SOL     OW 7428   2.964   0.217   8.597  0.0811  0.0502 -0.2703
 1996SOL    HW1 7429   3.002   0.300   8.626 -2.1608  1.1116 -0.1484
 1996SOL    HW2 7430   2.891   0.202   8.657  0.1108 -1.7564 -0.6364
 1997SOL     OW 7431   6.839   3.022   7.761  0.2467 -0.5469  0.4362
 1997SOL    HW1 7432   6.748   2.994   7.769 -0.2718  0.3693 -1.5970
 1997SOL    HW2 7433   6.838   3.115   7.782  0.2292  0.0326 -1.9048
 1998SOL     OW 7434   7.019   4.017   6.694 -0.6171 -0.3525  0.3192
 1998SOL    HW1 7435   7.038   3.923   6.696  0.7895 -0.0923  0.0797
 1998SOL    HW2 7436   6.998   4.039   6.784  0.6428 -0.5987  0.6837
 1999SOL     OW 7437   7.909   1.072   7.343  0.1208 -0.0603  0.1191
 1999SOL    HW1 7438   7.925   0.985   7.379 -0.4961  0.0364  0.6496
 1999SOL    HW2 7439   7.992   1.118   7.351  0.6806 -0.8503 -0.9031
 2000SOL     OW 7440   4.855   3.174   4.971  0.6681 -0.6179 -0.1849
 2000SOL    HW1 7441   4.779   3.215   5.013  2.5254  1.3390  1.4543
 2000SOL    HW2 7442   4.877   3.101   5.029  0.0890 -1.1711 -0.6474
 2001SOL     OW 7443   1.612   5.460   3.385  0.1347  0.4158  0.2018
 2001SOL    HW1 7444   1.687   5.518   3.398  0.1317  0.5664 -0.4168
 2001SOL    HW2 7445   1.650   5.375   3.362  0.1397  0.1554  1.1369
 2002SOL     OW 7446   4.840   4.267   6.005  0.5072  0.0659 -0.6476
 2002SOL    HW1 7447   4.810   4.357   6.018  1.1939  0.1782  0.2448
 2002SOL    HW2 7448   4.826   4.224   6.090  3.7012  0.3897  0.1661
 2003SOL     OW 7449   1.389   5.661   9.562  0.4700 -0.0272 -0.7923
 2003SOL    HW1 7450   1.443   5.712   9.622  0.9441 -0.5770 -0.7433
 2003SOL    HW2 7451   1.350   5.593   9.616  1.1928 -0.7526 -1.1582
 2004SOL     OW 7452   3.480   6.407   1.807  0.0193  0.2398 -0.0521
 2004SOL    HW1 7453   3.501   6.464   1.733  1.0063 -0.2912 -0.2074
 2004SOL    HW2 7454   3.387   6.387   1.798 -0.3455  1.7946  0.0007
 2005SOL     OW 7455   7.894   5.043   8.951 -0.0034 -0.0344  0.0418
 2005SOL    HW1 7456   7.839   5.083   8.883  0.0532 -0.4146 -0.2302
 2005SOL    HW2 7457   7.855   5.072   9.033 -1.1473 -0.9989 -0.1283
 2006SOL     OW 7458   2.699   1.080   4.299  0.0315  0.2626  0.0087
 2006SOL    HW1 7459   2.640   1.073   4.374 -0.4316  1.1053 -0.2657
 2006SOL    HW2 7460   2.723   1.173   4.296 -1.7507  0.7359 -2.2141
 2007SOL     OW 7461   2.838   1.047   3.424  0.2539  0.0830  0.0989
 2007SOL    HW1 7462   2.756   1.013   3.387  0.3389 -0.9469  0.8150
 2007SOL    HW2 7463   2.828   1.035   3.518  0.5049  1.6247  0.3536
 2008SOL     OW 7464   0.467   7.279   9.029 -0.2995 -0.1416  0.7712
 2008SOL    HW1 7465   0.488   7.371   9.042 -0.2748 -0.1788  1.0013
 2008SOL    HW2 7466   0.378   7.280   8.992  1.1856  0.1812 -3.3051
 2009SOL     OW 7467   3.568   0.470   3.234 -0.0857 -0.5378  0.2920
 2009SOL    HW1 7468   3.662   0.472   3.254  0.1823 -0.0603 -0.9034
 2009SOL    HW2 7469   3.525   0.463   3.319  0.9690  1.2360  1.0152
 2010SOL     OW 7470   6.607   1.457   6.919 -0.6735 -0.2868  0.2609
 2010SOL    HW1 7471   6.635   1.459   7.011 -0.8197 -0.5829  0.3135
 2010SOL    HW2 7472   6.529   1.402   6.919 -0.8750 -0.0056  0.0096
 2011SOL     OW 7473   0.045   6.099  11.319  0.0808  0.1255 -0.3179
 2011SOL    HW1 7474   0.115   6.054  11.367 -1.1101 -0.9519  0.4795
 2011SOL    HW2 7475   0.046   6.058  11.233  0.9830  0.7386 -0.6205
 2012SOL     OW 7476   4.179   4.233   2.682 -0.3395  0.2074 -0.2415
 2012SOL    HW1 7477   4.135   4.307   2.724  0.4437  0.7593 -0.3588
 2012SOL    HW2 7478   4.258   4.220   2.735 -0.4056 -0.4578 -0.3054
 2013SOL     OW 7479   3.133   5.657   3.390 -0.0651 -0.0136 -0.2247
 2013SOL    HW1 7480   3.199   5.597   3.425 -1.5898 -0.9403  1.2540
 2013SOL    HW2 7481   3.115   5.625   3.302  0.2786 -0.7843 -0.0224
 2014SOL     OW 7482   3.944   4.452   0.578  0.0815  0.0375  0.1140
 2014SOL    HW1 7483   3.888   4.515   0.534 -0.6682 -1.3762 -1.0663
 2014SOL    HW2 7484   3.969   4.390   0.509  1.0719 -0.7441  1.1430
 2015SOL     OW 7485   7.362   5.665  11.873 -0.7285 -0.0786  0.3406
 2015SOL    HW1 7486   7.418   5.663  11.795  0.2311  1.1020  0.9503
 2015SOL    HW2 7487   7.295   5.730  11.852 -0.6281  0.0426  0.3916
 2016SOL     OW 7488   3.859   7.747   4.589  0.3096 -0.4654 -0.4947
 2016SOL    HW1 7489   3.872   7.654   4.573 -0.7585 -0.5881 -0.7108
 2016SOL    HW2 7490   3.790   7.751   4.655 -0.3197  0.1843 -1.1701
 2017SOL     OW 7491   6.776   7.959   9.439 -0.4574 -0.1321 -0.6323
 2017SOL    HW1 7492   6.693   8.003   9.421  0.6488  2.0039 -0.8937
 2017SOL    HW2 7493   6.838   8.001   9.379  0.7945 -1.8179 -0.5985
 2018SOL     OW 7494   4.667   5.326   0.547 -0.1791 -0.2841 -0.4095
 2018SOL    HW1 7495   4.628   5.285   0.624  0.1848 -1.9456 -1.0726
 2018SOL    HW2 7496   4.611   5.297   0.474  0.2838  0.1362 -0.9401
 2019SOL     OW 7497   5.116   3.845  11.681 -0.0301 -0.2513  0.3236
 2019SOL    HW1 7498   5.027   3.812  11.671 -0.2226 -0.4195  2.2481
 2019SOL    HW2 7499   5.169   3.768  11.703  0.8235 -0.3266 -1.8235
 2020SOL     OW 7500   0.391   4.357   3.442 -0.1876  0.1821  0.1026
 2020SOL    HW1 7501   0.452   4.361   3.368 -1.5475  1.3642 -1.0240
 2020SOL    HW2 7502   0.376   4.449   3.465 -1.5383 -0.0785  0.3316
 2021SOL     OW 7503   7.516   0.864  11.111  0.3870 -0.6864  0.1664
 2021SOL    HW1 7504   7.584   0.813  11.155  1.6423  0.5686 -0.2125
 2021SOL    HW2 7505   7.533   0.852  11.018  0.4746  0.0865  0.0712
 2022SOL     OW 7506   7.646   0.382   9.033 -0.7400  0.0167 -0.2390
 2022SOL    HW1 7507   7.730   0.428   9.027 -1.2863  1.1759  0.6701
 2022SOL    HW2 7508   7.662   0.299   8.989  0.5494  0.6837 -1.1082
 2023SOL     OW 7509   0.122   5.344   0.597 -0.1437  0.0380  0.0051
 2023SOL    HW1 7510   0.074   5.374   0.674 -0.6509 -0.3164 -0.1648
 2023SOL    HW2 7511   0.183   5.278   0.631  0.3264  0.5789  0.2396
 2024SOL     OW 7512   0.307   5.699   1.256 -0.5977 -0.1056  0.4113
 2024SOL    HW1 7513   0.356   5.619   1.239 -0.9724  0.0028 -1.3700
 2024SOL    HW2 7514   0.273   5.688   1.345 -0.3936 -1.7898  0.3132
 2025SOL     OW 7515   5.467   1.478   3.326  0.3824  0.1177  0.1213
 2025SOL    HW1 7516   5.544   1.442   3.281  0.8371  1.7529 -0.4847
 2025SOL    HW2 7517   5.471   1.572   3.308 -0.6025  0.5295  1.8564
 2026SOL     OW 7518   3.642   7.265   9.441  0.1758 -0.4364  0.1495
 2026SOL    HW1 7519   3.635   7.170   9.452 -0.2223 -0.2685  1.5561
 2026SOL    HW2 7520   3.609   7.282   9.353  1.5493 -1.7277 -0.6607
 2027SOL     OW 7521   2.033   4.211  11.676 -0.5218  0.3330 -0.0365
 2027SOL    HW1 7522   2.102   4.162  11.721 -1.4191 -0.9207  0.0450
 2027SOL    HW2 7523   2.056   4.204  11.583 -1.0693 -1.0189 -0.1026
 2028SOL     OW 7524   5.840   6.180   0.641  0.2565  0.2750 -0.1256
 2028SOL    HW1 7525   5.831   6.167   0.735  0.7174 -0.9036 -0.2324
 2028SOL    HW2 7526   5.811   6.098   0.601  0.4980  0.5898 -0.9918
 2029SOL     OW 7527   3.650   7.381   1.458 -0.2289 -0.1728  0.7271
 2029SOL    HW1 7528   3.719   7.419   1.404  0.1789 -1.1525  0.5499
 2029SOL    HW2 7529   3.576   7.441   1.447  0.6918  1.1217  1.2409
 2030SOL     OW 7530   1.453   4.614  11.118  0.4019 -0.1081 -0.9786
 2030SOL    HW1 7531   1.441   4.529  11.076  0.1956 -0.4821 -0.1903
 2030SOL    HW2 7532   1.528   4.602  11.176  0.0112  0.0627 -0.4215
 2031SOL     OW 7533   5.319   1.487   9.589  0.4940 -0.6481 -0.1614
 2031SOL    HW1 7534   5.363   1.571   9.580 -1.0757  0.4918  1.9644
 2031SOL    HW2 7535   5.226   1.508   9.588 -0.0226 -2.6124 -1.3696
 2032SOL     OW 7536   1.784   1.996   7.065 -0.1114 -0.2391 -0.6066
 2032SOL    HW1 7537   1.780   1.978   6.971  2.8675 -0.6492 -0.7398
 2032SOL    HW2 7538   1.876   1.983   7.088 -0.5423  0.9860  2.1619
 2033SOL     OW 7539   6.764   5.792   8.317 -0.3550 -0.3623  0.1723
 2033SOL    HW1 7540   6.788   5.746   8.397 -0.6380  0.9982  1.0756
 2033SOL    HW2 7541   6.800   5.738   8.246 -2.0925 -2.8394  1.0445
 2034SOL     OW 7542   6.188   6.778   7.906 -0.9602  0.1996  0.0894
 2034SOL    HW1 7543   6.156   6.690   7.923 -1.7250  0.5180  0.3793
 2034SOL    HW2 7544   6.205   6.814   7.993  1.7265 -0.4740 -0.0725
 2035SOL     OW 7545   2.702   5.191   7.880  0.2297 -0.4832  0.1746
 2035SOL    HW1 7546   2.748   5.117   7.840  0.0975 -0.4459 -0.0474
 2035SOL    HW2 7547   2.636   5.216   7.815 -0.8459 -1.2426  0.9307
 2036SOL     OW 7548   1.324   6.376   5.104 -0.5392  0.3519 -0.3690
 2036SOL    HW1 7549   1.241   6.421   5.087  0.1022  1.1713 -1.4704
 2036SOL    HW2 7550   1.335   6.318   5.029  0.9647  1.9327 -1.4603
 2037SOL     OW 7551   7.502   6.724  11.734 -0.7215  0.2771 -0.2268
 2037SOL    HW1 7552   7.418   6.757  11.765 -0.6779 -0.0610  0.2762
 2037SOL    HW2 7553   7.479   6.650  11.677 -0.7368 -1.7092  2.1867
 2038SOL     OW 7554   7.416   7.675   8.906 -0.9087  0.0283 -0.4987
 2038SOL    HW1 7555   7.408   7.581   8.924 -0.6759 -0.0769 -0.9254
 2038SOL    HW2 7556   7.331   7.700   8.872 -1.1379  0.0868  0.0965
 2039SOL     OW 7557   3.208   0.572  10.343  0.1034  0.1693 -0.8253
 2039SOL    HW1 7558   3.185   0.665  10.338 -0.6481  0.0986  0.9026
 2039SOL    HW2 7559   3.164   0.540  10.421  1.5056 -1.3181 -0.5888
 2040SOL     OW 7560   0.390   6.690  10.020  0.0495 -0.5343  0.0687
 2040SOL    HW1 7561   0.415   6.782  10.013  0.0474 -0.4859  0.5942
 2040SOL    HW2 7562   0.473   6.643  10.024  0.0695 -0.4607  0.7986
 2041SOL     OW 7563   6.848   3.013   3.015 -0.2875  0.3166 -0.0910
 2041SOL    HW1 7564   6.884   3.071   3.082 -0.1417  0.8973 -0.6682
 2041SOL    HW2 7565   6.814   2.938   3.065  1.0116  0.1122  0.5254
 2042SOL     OW 7566   5.689   6.938   1.557  0.1418 -0.3527 -0.1162
 2042SOL    HW1 7567   5.679   6.910   1.648  1.2579  0.0121  0.1330
 2042SOL    HW2 7568   5.756   6.879   1.521  0.8849  0.5374 -0.2238
 2043SOL     OW 7569   0.539   2.791   7.861 -0.0423  0.1559 -0.0553
 2043SOL    HW1 7570   0.477   2.853   7.900 -0.4149 -1.3105  1.7955
 2043SOL    HW2 7571   0.519   2.793   7.768 -2.0855  0.5826  0.3484
 2044SOL     OW 7572   6.677   0.944   2.210 -0.1950 -0.0860  0.1454
 2044SOL    HW1 7573   6.613   1.004   2.247 -0.1126 -0.2666  0.5936
 2044SOL    HW2 7574   6.641   0.919   2.125  0.5323  1.8259 -0.7671
 2045SOL     OW 7575   7.478   3.303   5.244  0.3344 -0.0659 -0.2909
 2045SOL    HW1 7576   7.446   3.228   5.194  0.2720 -1.5097  1.8402
 2045SOL    HW2 7577   7.573   3.289   5.250  1.0434  2.2511 -3.3558
 2046SOL     OW 7578   6.703   0.701  10.032 -0.2641 -0.4487  0.0113
 2046SOL    HW1 7579   6.641   0.736  10.097 -0.9005 -2.3410  0.4859
 2046SOL    HW2 7580   6.737   0.621  10.073  0.8668 -0.5864 -1.1621
 2047SOL     OW 7581   2.362   7.327   5.015  0.2889 -0.5882 -0.3467
 2047SOL    HW1 7582   2.333   7.374   5.093 -0.6730  1.4484 -1.8309
 2047SOL    HW2 7583   2.302   7.252   5.008 -1.6611  0.9256 -0.7652
 2048SOL     OW 7584   0.847   1.616  10.577  0.5103  0.5566 -0.2066
 2048SOL    HW1 7585   0.792   1.551  10.533 -0.4164  0.6711  0.7484
 2048SOL    HW2 7586   0.891   1.662  10.505  0.1672 -0.2427 -0.9460
 2049SOL     OW 7587   4.881   3.055   7.589 -0.3465 -0.2430  0.2745
 2049SOL    HW1 7588   4.813   3.054   7.656 -1.0646 -2.1278 -0.4159
 2049SOL    HW2 7589   4.911   2.964   7.584 -0.5667 -0.2479 -2.1535
 2050SOL     OW 7590   4.537   7.589   8.198 -0.2099 -0.0793 -0.1937
 2050SOL    HW1 7591   4.608   7.646   8.228 -0.2354  0.2808 -0.8009
 2050SOL    HW2 7592   4.475   7.587   8.271  0.0427  0.2473  0.0318
 2051SOL     OW 7593   0.932   7.515   3.871 -0.6257 -0.3165  0.1003
 2051SOL    HW1 7594   0.902   7.581   3.809 -1.4540  0.5513  1.3657
 2051SOL    HW2 7595   1.014   7.483   3.834 -1.5248 -0.4812 -1.8627
 2052SOL     OW 7596   6.446   2.195   3.113 -0.4478 -0.0303 -0.9599
 2052SOL    HW1 7597   6.528   2.170   3.071  0.8406  2.2017  0.0723
 2052SOL    HW2 7598   6.403   2.253   3.050 -0.4165  0.1755 -0.7909
 2053SOL     OW 7599   1.621   6.687   2.103  0.3564 -0.0789 -0.3375
 2053SOL    HW1 7600   1.589   6.695   2.013  0.9610  1.6016 -0.4271
 2053SOL    HW2 7601   1.575   6.610   2.138 -1.2508  0.3125 -1.5057
 2054SOL     OW 7602   5.282   2.431   6.661  0.1923  0.2161  0.0398
 2054SOL    HW1 7603   5.194   2.457   6.690 -1.2009  1.1596 -4.3341
 2054SOL    HW2 7604   5.334   2.510   6.669  0.3543  0.0062  1.3777
 2055SOL     OW 7605   5.497   1.825  11.933  0.1449  0.2166 -0.4178
 2055SOL    HW1 7606   5.421   1.862  11.977 -1.5451 -1.7129 -1.5160
 2055SOL    HW2 7607   5.503   1.874  11.851  0.3427  0.6303 -0.1587
 2056SOL     OW 7608   2.353   6.248   2.055  0.0403  0.3696  0.6732
 2056SOL    HW1 7609   2.373   6.164   2.013  1.5398 -0.1914  2.3859
 2056SOL    HW2 7610   2.268   6.273   2.017 -0.2161 -1.6582 -0.2703
 2057SOL     OW 7611   7.754   5.490   8.416 -0.1331  0.0997  0.2519
 2057SOL    HW1 7612   7.817   5.558   8.437  0.1004 -0.3386  1.0325
 2057SOL    HW2 7613   7.807   5.412   8.400 -0.4488 -0.1524  0.4240
 2058SOL     OW 7614   1.894   5.466   0.877  0.0754 -0.5238  0.1453
 2058SOL    HW1 7615   1.826   5.533   0.870  2.2953  1.9447  0.6560
 2058SOL    HW2 7616   1.910   5.458   0.971  1.1713 -0.2777 -0.0067
 2059SOL     OW 7617   3.711   4.813   2.165 -0.0371 -0.5241  0.7726
 2059SOL    HW1 7618   3.753   4.897   2.183 -1.0773  0.1243  0.2696
 2059SOL    HW2 7619   3.727   4.761   2.244  1.7025 -0.3214  0.5852
 2060SOL     OW 7620   1.036   4.802   6.545  0.1953  0.2514 -0.9184
 2060SOL    HW1 7621   1.046   4.833   6.635  1.4707 -0.2141 -0.8775
 2060SOL    HW2 7622   1.122   4.816   6.506  0.2469 -1.4416 -1.4576
 2061SOL     OW 7623   5.436   2.757   2.596 -0.0574 -0.2703  0.3073
 2061SOL    HW1 7624   5.360   2.762   2.654 -0.2106 -0.8352  0.1652
 2061SOL    HW2 7625   5.428   2.672   2.553  0.5351 -0.2400  0.1198
 2062SOL     OW 7626   6.670   4.756   1.246 -0.2349  0.7442  0.7474
 2062SOL    HW1 7627   6.599   4.766   1.309 -0.0677 -1.5299  1.3772
 2062SOL    HW2 7628   6.750   4.773   1.296 -0.2029  0.9196  0.6390
 2063SOL     OW 7629   3.638   2.410   1.318  0.0891  0.1215  0.0977
 2063SOL    HW1 7630   3.680   2.372   1.240 -0.8439  1.8333 -1.2906
 2063SOL    HW2 7631   3.627   2.335   1.377  0.0511 -1.4189 -1.7477
 2064SOL     OW 7632   5.894   1.616   5.440  0.4712 -0.3019 -0.3769
 2064SOL    HW1 7633   5.809   1.658   5.433  0.8287  0.1735 -2.4433
 2064SOL    HW2 7634   5.914   1.618   5.534 -1.5536 -0.0192  0.0992
 2065SOL     OW 7635   5.541   0.234   7.589  0.3967 -0.0510  0.3687
 2065SOL    HW1 7636   5.593   0.310   7.564  0.9132 -0.2625  0.7842
 2065SOL    HW2 7637   5.450   0.263   7.579  0.5224 -0.3953 -2.5570
 2066SOL     OW 7638   6.416   0.441   3.188  0.0744  0.1748 -0.2345
 2066SOL    HW1 7639   6.390   0.533   3.183  0.7730  0.3235 -1.3956
 2066SOL    HW2 7640   6.338   0.396   3.220 -0.9291  0.9050 -1.5565
 2067SOL     OW 7641   2.344   4.590   3.533 -0.2243  0.2737  0.3122
 2067SOL    HW1 7642   2.374   4.508   3.494 -0.7729  0.0291  0.4095
 2067SOL    HW2 7643   2.280   4.625   3.470  1.0626  1.3633 -0.4561
 2068SOL     OW 7644   3.128   4.006   0.532  0.2264 -0.6393  0.0929
 2068SOL    HW1 7645   3.170   3.925   0.563  0.2051 -0.0667  1.6851
 2068SOL    HW2 7646   3.043   4.007   0.575  0.2009  0.2091  0.0331
 2069SOL     OW 7647   3.222   5.339   7.063 -0.4274 -0.1326  0.3484
 2069SOL    HW1 7648   3.134   5.377   7.058 -1.0573 -1.6119 -1.8482
 2069SOL    HW2 7649   3.211   5.260   7.115 -0.8374 -1.2045 -1.2867
 2070SOL     OW 7650   2.560   3.963  10.744  0.1990 -0.1267 -0.0647
 2070SOL    HW1 7651   2.579   3.917  10.826 -2.1774 -1.2328 -0.0506
 2070SOL    HW2 7652   2.576   4.055  10.764 -0.8234 -0.3057  1.8380
 2071SOL     OW 7653   3.774   5.454   4.662  0.0928 -0.2320 -0.1791
 2071SOL    HW1 7654   3.756   5.548   4.667  2.2693  0.2858 -1.0763
 2071SOL    HW2 7655   3.730   5.425   4.583  1.3050  0.5522 -1.1736
 2072SOL     OW 7656   5.939   5.134   9.649  0.3484 -0.1430  0.0376
 2072SOL    HW1 7657   5.855   5.105   9.686 -0.3589  2.0525  0.3443
 2072SOL    HW2 7658   5.972   5.197   9.713  1.1340  0.6505 -1.1060
 2073SOL     OW 7659   6.853   4.377   5.476  0.2487 -0.7067 -0.1303
 2073SOL    HW1 7660   6.909   4.301   5.493 -0.8948 -1.3262  0.9345
 2073SOL    HW2 7661   6.868   4.435   5.551  1.2193  0.2154 -1.0019
 2074SOL     OW 7662   3.329   7.603   4.342  0.2870  0.5016 -0.9050
 2074SOL    HW1 7663   3.299   7.589   4.432  1.1629  0.7457 -0.5645
 2074SOL    HW2 7664   3.365   7.518   4.316 -0.7258  0.1900 -1.3374
 2075SOL     OW 7665   6.655   5.146   9.336  0.5788  0.3202 -0.5009
 2075SOL    HW1 7666   6.608   5.145   9.253  1.5494 -0.4910 -1.0624
 2075SOL    HW2 7667   6.708   5.066   9.335 -0.9136 -0.7870  1.7954
 2076SOL     OW 7668   6.330   5.881   4.941 -0.4524 -0.2074 -1.0272
 2076SOL    HW1 7669   6.365   5.931   5.014  0.8328 -0.2442 -1.5955
 2076SOL    HW2 7670   6.308   5.948   4.875  0.9002 -0.3182 -1.6326
 2077SOL     OW 7671   2.193   6.400   5.409 -0.2948 -0.9276 -0.3842
 2077SOL    HW1 7672   2.185   6.362   5.321  0.8080  0.0721 -0.9414
 2077SOL    HW2 7673   2.282   6.380   5.437  0.4091  1.3367 -0.7898
 2078SOL     OW 7674   5.907   6.809   5.678  0.0919 -0.2812 -0.4213
 2078SOL    HW1 7675   5.988   6.792   5.630  0.8529  1.1046  0.2979
 2078SOL    HW2 7676   5.894   6.904   5.669 -1.7167 -0.5389 -0.9012
 2079SOL     OW 7677   6.109   2.765   6.651  0.7769 -0.0764  0.9169
 2079SOL    HW1 7678   6.062   2.813   6.583  2.4222  0.7606  0.3239
 2079SOL    HW2 7679   6.141   2.686   6.607  1.1719  0.0756  0.9318
 2080SOL     OW 7680   1.062   5.763   0.021  0.4881  0.1128  0.9360
 2080SOL    HW1 7681   1.092   5.850   0.048  0.8259 -0.3224  1.9960
 2080SOL    HW2 7682   1.122   5.738  -0.049 -0.1048  1.0564  0.0598
 2081SOL     OW 7683   6.526   6.681   7.873 -0.0169  0.1166 -0.6406
 2081SOL    HW1 7684   6.500   6.597   7.911 -0.2323 -0.0642 -1.1724
 2081SOL    HW2 7685   6.593   6.659   7.809  1.1703  0.5433  0.4299
 2082SOL     OW 7686   3.800   4.264   2.719 -0.8241  0.1652  0.1586
 2082SOL    HW1 7687   3.782   4.239   2.628  1.1963 -1.5759  0.1778
 2082SOL    HW2 7688   3.893   4.286   2.720 -0.5858 -0.7338  1.9703
 2083SOL     OW 7689   4.752   0.344  10.758 -0.0194  0.2392 -0.5303
 2083SOL    HW1 7690   4.809   0.414  10.787  0.0692 -0.6485  1.6054
 2083SOL    HW2 7691   4.794   0.310  10.679  2.0081  0.1438  0.5206
 2084SOL     OW 7692   5.507   7.356   1.413 -0.0348 -0.0228  0.3317
 2084SOL    HW1 7693   5.423   7.332   1.374 -0.8830  1.5834  1.0568
 2084SOL    HW2 7694   5.513   7.451   1.400 -0.3272  0.6156  3.8791
 2085SOL     OW 7695   0.578   6.743   5.959  0.2525 -0.5080  0.1926
 2085SOL    HW1 7696   0.495   6.727   5.913  0.3251  0.4985 -0.3112
 2085SOL    HW2 7697   0.609   6.826   5.924  0.2680  0.3685  2.1347
 2086SOL     OW 7698   7.770   1.194  10.703 -0.0116 -0.3931  1.0110
 2086SOL    HW1 7699   7.781   1.287  10.720  2.1688 -0.5416  0.7871
 2086SOL    HW2 7700   7.682   1.185  10.667  0.7812  2.0575 -1.9603
 2087SOL     OW 7701   3.924   6.371   5.375  0.0862 -0.1184 -0.1087
 2087SOL    HW1 7702   3.908   6.277   5.386  0.4702 -0.1457  0.2140
 2087SOL    HW2 7703   3.990   6.392   5.441 -0.5734  0.5356  0.3678
 2088SOL     OW 7704   0.812   0.950   8.905  0.9390 -0.4387 -0.0125
 2088SOL    HW1 7705   0.789   0.994   8.986  1.9696 -0.9098  0.5560
 2088SOL    HW2 7706   0.745   0.883   8.894 -1.4411  1.9920 -1.5834
 2089SOL     OW 7707   2.131   7.752   9.139  0.2504  0.9710  0.5111
 2089SOL    HW1 7708   2.108   7.719   9.052  2.8253 -2.2344  0.8702
 2089SOL    HW2 7709   2.064   7.715   9.197 -0.6388  1.9162  0.1075
 2090SOL     OW 7710   4.639   0.443   7.226  0.5424 -0.6751 -0.1654
 2090SOL    HW1 7711   4.658   0.518   7.168  1.2282  0.0947  1.0058
 2090SOL    HW2 7712   4.720   0.392   7.225  0.5458 -0.6748  0.0884
 2091SOL     OW 7713   4.556   5.279   9.626 -0.3362  0.0831 -0.0954
 2091SOL    HW1 7714   4.505   5.198   9.627 -0.2801  0.0505  0.5207
 2091SOL    HW2 7715   4.578   5.295   9.718 -1.2927  1.3999 -0.0722
 2092SOL     OW 7716   0.581   6.855  11.142  0.4806 -0.1870 -0.2091
 2092SOL    HW1 7717   0.649   6.791  11.121  0.4470 -0.3282  0.1063
 2092SOL    HW2 7718   0.610   6.895  11.224  1.0246  0.9455 -0.9256
 2093SOL     OW 7719   4.725   7.435   7.167 -0.7752  0.1515  0.1302
 2093SOL    HW1 7720   4.798   7.393   7.212 -0.0276  2.0000  0.7360
 2093SOL    HW2 7721   4.648   7.407   7.216 -0.4898 -1.6708 -0.3988
 2094SOL     OW 7722   0.232   6.764   3.319  0.4616  0.2515 -0.1180
 2094SOL    HW1 7723   0.179   6.803   3.388 -0.0512  0.5413 -0.6612
 2094SOL    HW2 7724   0.314   6.813   3.321  0.3743  0.3894  0.1486
 2095SOL     OW 7725   2.374   2.545  12.033  0.5590  0.3625  0.4429
 2095SOL    HW1 7726   2.301   2.585  12.080  0.8951  0.7232  0.6686
 2095SOL    HW2 7727   2.333   2.484  11.971  0.0739  0.5367  0.5901
 2096SOL     OW 7728   5.636   5.654   4.955 -0.2797  0.1975  0.3298
 2096SOL    HW1 7729   5.647   5.565   4.922 -2.1460  0.6594 -1.7918
 2096SOL    HW2 7730   5.601   5.643   5.044  1.6538 -1.1134  0.9890
 2097SOL     OW 7731   3.492   0.280  11.769 -0.0678 -0.0932 -0.2388
 2097SOL    HW1 7732   3.477   0.359  11.717  0.8649 -0.4372 -1.0666
 2097SOL    HW2 7733   3.529   0.217  11.707 -1.0669 -1.2963  0.3296
 2098SOL     OW 7734   3.896   3.477   9.536 -0.2571  0.9257  0.4111
 2098SOL    HW1 7735   3.810   3.483   9.577  0.0075 -1.1075  1.3787
 2098SOL    HW2 7736   3.924   3.387   9.551  0.6590  0.5705 -2.7233
 2099SOL     OW 7737   1.867   0.990   9.477  0.6991  0.3043  0.5402
 2099SOL    HW1 7738   1.904   0.923   9.419  0.4979  0.5753  0.0867
 2099SOL    HW2 7739   1.788   1.020   9.431  0.8778  0.9730  0.6491
 2100SOL     OW 7740   5.407   7.296   8.764 -0.3191 -0.0938 -0.3577
 2100SOL    HW1 7741   5.383   7.241   8.839 -0.6508 -1.4809 -1.4432
 2100SOL    HW2 7742   5.421   7.383   8.802  0.5788 -0.9827  1.4756
 2101SOL     OW 7743   2.233   1.492   3.038 -0.1618  0.8275 -0.5017
 2101SOL    HW1 7744   2.173   1.428   2.999 -1.1039  0.2268  1.7493
 2101SOL    HW2 7745   2.293   1.515   2.967 -0.4392 -1.7498 -1.6965
 2102SOL     OW 7746   2.375   3.549   1.948  0.2658 -0.3194 -0.4824
 2102SOL    HW1 7747   2.384   3.454   1.958 -0.7384 -0.2615  1.2175
 2102SOL    HW2 7748   2.281   3.565   1.951  0.4482  0.7811 -0.3337
 2103SOL     OW 7749   5.963   1.655   2.185  0.0128  0.2971  0.2556
 2103SOL    HW1 7750   5.974   1.730   2.242  1.6252  1.0593 -0.9855
 2103SOL    HW2 7751   5.910   1.687   2.112  1.7354  0.6484 -0.9035
 2104SOL     OW 7752   0.315   1.428   2.649  0.0509  0.1672  0.0277
 2104SOL    HW1 7753   0.318   1.346   2.599 -0.1009  0.4310 -0.4186
 2104SOL    HW2 7754   0.258   1.486   2.598 -1.4577 -0.1031  1.3484
 2105SOL     OW 7755   5.426   4.016   5.338 -0.0597 -0.1322  0.3348
 2105SOL    HW1 7756   5.339   3.978   5.330 -0.4585  0.9363 -0.7606
 2105SOL    HW2 7757   5.461   3.980   5.419 -1.7991 -0.0337  1.1677
 2106SOL     OW 7758   0.309   1.619   0.759  0.0955  0.6483  0.2061
 2106SOL    HW1 7759   0.348   1.535   0.732 -0.5082  0.1325  0.8794
 2106SOL    HW2 7760   0.263   1.650   0.681  1.4246  1.0229 -0.4507
 2107SOL     OW 7761   2.918   0.558   8.804 -0.6618  0.0170 -0.3126
 2107SOL    HW1 7762   2.851   0.623   8.784  0.3718  0.9933 -0.7169
 2107SOL    HW2 7763   2.975   0.557   8.727  1.1846  1.0146  0.9705
 2108SOL     OW 7764   1.706   6.703  11.436 -0.3641 -0.0166 -0.2081
 2108SOL    HW1 7765   1.773   6.720  11.503 -1.2410  0.0746  0.6687
 2108SOL    HW2 7766   1.739   6.628  11.388  0.4856  0.1781  0.0492
 2109SOL     OW 7767   5.429   3.240   1.572 -0.1730 -0.2670 -0.1729
 2109SOL    HW1 7768   5.419   3.187   1.493  1.0940 -0.5281 -0.1795
 2109SOL    HW2 7769   5.498   3.196   1.621  0.3792  0.9600  0.1751
 2110SOL     OW 7770   6.666   0.979   5.517  0.3626  0.2998 -0.2323
 2110SOL    HW1 7771   6.597   1.029   5.475  0.9371  0.2347 -1.2752
 2110SOL    HW2 7772   6.623   0.939   5.593 -1.2053 -1.1048 -1.7599
 2111SOL     OW 7773   0.886   6.515   2.834 -0.4912  0.0186  0.3911
 2111SOL    HW1 7774   0.931   6.598   2.815  1.8922 -1.3753 -0.6421
 2111SOL    HW2 7775   0.882   6.511   2.929  0.5324  0.7806  0.4922
 2112SOL     OW 7776   2.521   2.656  10.834 -0.1172  0.4008 -0.0595
 2112SOL    HW1 7777   2.596   2.604  10.860 -0.3335  0.3677  0.5084
 2112SOL    HW2 7778   2.511   2.722  10.902 -0.1601  0.8681 -0.5060
 2113SOL     OW 7779   6.633   7.252   5.637  0.1191 -0.1924  0.1946
 2113SOL    HW1 7780   6.559   7.261   5.697  1.1324 -0.8560  1.5822
 2113SOL    HW2 7781   6.710   7.260   5.692  1.1166 -3.4045 -0.5407
 2114SOL     OW 7782   2.005   5.049   3.976  0.4562  0.1547 -0.0283
 2114SOL    HW1 7783   1.956   4.985   4.028 -0.0856 -0.8656 -1.7258
 2114SOL    HW2 7784   2.089   5.008   3.961  0.8397  0.7146  0.5309
 2115SOL     OW 7785   6.546   7.030   3.144 -0.0494 -0.2266 -0.4491
 2115SOL    HW1 7786   6.546   6.979   3.063 -0.2416  0.4886 -0.9001
 2115SOL    HW2 7787   6.477   7.095   3.132 -1.4810 -1.3544  1.0796
 2116SOL     OW 7788   1.040   7.532   2.135  0.3797  0.1888 -0.0741
 2116SOL    HW1 7789   1.039   7.622   2.104  0.8483 -0.1084 -0.9957
 2116SOL    HW2 7790   0.953   7.517   2.171 -0.1593  0.5709 -1.2027
 2117SOL     OW 7791   3.734   5.420   2.385 -0.0838 -0.4137  0.7875
 2117SOL    HW1 7792   3.829   5.415   2.399  0.0500  0.6990  0.3635
 2117SOL    HW2 7793   3.703   5.332   2.406  1.1250 -0.9797  0.3582
 2118SOL     OW 7794   6.138   6.679   2.172 -0.1697 -0.0982  0.6392
 2118SOL    HW1 7795   6.091   6.751   2.130  0.9600  0.1233 -0.3204
 2118SOL    HW2 7796   6.143   6.704   2.265 -1.6098  0.0269  0.6945
 2119SOL     OW 7797   4.100   0.497  11.396  0.0374  0.4424  0.2406
 2119SOL    HW1 7798   4.157   0.455  11.461  1.0631  1.2739 -0.0905
 2119SOL    HW2 7799   4.065   0.574  11.442 -1.2423 -0.3218  0.6031
 2120SOL     OW 7800   5.485   2.584   5.716 -0.0601 -0.2862  0.8860
 2120SOL    HW1 7801   5.567   2.536   5.728  0.4917  0.6753  1.0521
 2120SOL    HW2 7802   5.508   2.675   5.733 -0.7698  0.2378 -0.8149
 2121SOL     OW 7803   6.629   7.223   0.489  0.0013  0.3763 -0.2396
 2121SOL    HW1 7804   6.570   7.153   0.459  0.5755 -0.1958 -0.0512
 2121SOL    HW2 7805   6.692   7.179   0.545 -0.9347  1.3921  1.6964
 2122SOL     OW 7806   2.201   4.478   6.973 -0.1292  0.3909  0.8864
 2122SOL    HW1 7807   2.288   4.485   6.934 -0.6850  0.0497 -0.4576
 2122SOL    HW2 7808   2.140   4.485   6.899 -1.2235 -0.2135  1.6928
 2123SOL     OW 7809   7.205   1.181   7.442 -0.4367 -0.0864  0.1579
 2123SOL    HW1 7810   7.282   1.142   7.402 -0.9663 -1.2964  0.2636
 2123SOL    HW2 7811   7.138   1.179   7.373 -0.6316  0.1130  0.3384
 2124SOL     OW 7812   1.627   1.652  10.465 -0.0126  0.4141 -0.6774
 2124SOL    HW1 7813   1.553   1.673  10.523  0.2858 -0.1934 -0.0648
 2124SOL    HW2 7814   1.690   1.722  10.481 -0.1605  0.5473 -0.6737
 2125SOL     OW 7815   6.819   5.093   5.952  0.0864 -0.1776  0.4453
 2125SOL    HW1 7816   6.910   5.080   5.926  0.0246 -0.3277  0.3000
 2125SOL    HW2 7817   6.771   5.099   5.869 -0.2984 -1.9565  0.4943
 2126SOL     OW 7818   4.218   5.071   5.038 -0.3800 -0.6620 -0.1593
 2126SOL    HW1 7819   4.203   4.981   5.009 -1.7170 -1.2033  1.9624
 2126SOL    HW2 7820   4.312   5.077   5.053 -0.0014 -1.0647 -2.1818
 2127SOL     OW 7821   0.304   1.821   0.202  0.3111 -0.5936 -0.2497
 2127SOL    HW1 7822   0.342   1.825   0.290 -0.1979 -0.4088 -0.0343
 2127SOL    HW2 7823   0.380   1.812   0.144  0.6445 -0.8253  0.2130
 2128SOL     OW 7824   7.570   5.385   7.371 -0.1643  0.2875  0.3362
 2128SOL    HW1 7825   7.597   5.434   7.448 -1.4006 -0.3286  1.2097
 2128SOL    HW2 7826   7.638   5.318   7.360 -0.1599  0.1459  1.1340
 2129SOL     OW 7827   3.364   3.547   0.583  0.0511  0.1059  0.1822
 2129SOL    HW1 7828   3.338   3.475   0.525  1.6210 -0.1530 -0.2418
 2129SOL    HW2 7829   3.394   3.504   0.663  1.6309  0.2022 -0.3178
 2130SOL     OW 7830   4.484   1.574   3.348 -0.9728  0.7816  0.5330
 2130SOL    HW1 7831   4.485   1.512   3.275 -1.0089  1.6709 -0.2514
 2130SOL    HW2 7832   4.524   1.527   3.421 -3.4582 -1.1281  0.7923
 2131SOL     OW 7833   0.609   6.420   4.028  0.6842 -0.5482  0.2692
 2131SOL    HW1 7834   0.666   6.395   4.101  2.6087 -0.9456 -1.2636
 2131SOL    HW2 7835   0.544   6.350   4.023  1.2258 -1.1108  0.9098
 2132SOL     OW 7836   5.000   7.846   7.755  0.1438  0.5469  0.6945
 2132SOL    HW1 7837   5.036   7.839   7.667 -0.6863  0.8281  0.3273
 2132SOL    HW2 7838   4.942   7.770   7.764  1.5052 -0.4429  1.6290
 2133SOL     OW 7839   1.460   4.681  10.545  0.0145 -0.1002  0.1187
 2133SOL    HW1 7840   1.532   4.725  10.591  0.6606 -0.9216 -0.0642
 2133SOL    HW2 7841   1.500   4.648  10.465 -0.4377 -1.0268  0.2603
 2134SOL     OW 7842   7.586   6.598   1.246 -0.5882  0.2708  0.2651
 2134SOL    HW1 7843   7.620   6.534   1.184 -1.8877 -1.1041  0.9256
 2134SOL    HW2 7844   7.588   6.553   1.331 -1.2119  1.2221  0.8031
 2135SOL     OW 7845   4.229   6.714   4.395  0.0090 -0.3144 -0.3768
 2135SOL    HW1 7846   4.290   6.655   4.439 -1.2384 -0.4254  1.2860
 2135SOL    HW2 7847   4.285   6.777   4.350  1.3493 -1.0601  0.1819
 2136SOL     OW 7848   7.461   7.342  11.636 -0.7151 -0.2120 -0.5635
 2136SOL    HW1 7849   7.524   7.411  11.617  0.7870 -1.4410 -0.2171
 2136SOL    HW2 7850   7.397   7.347  11.564 -0.5522  1.3897 -0.6336
 2137SOL     OW 7851   1.853   2.360   3.589 -0.3659 -0.1026 -0.2408
 2137SOL    HW1 7852   1.944   2.353   3.618 -0.7820  0.1157  1.2106
 2137SOL    HW2 7853   1.851   2.317   3.503  1.1572  0.1775 -0.4312
 2138SOL     OW 7854   7.801   0.803   8.828 -0.3160 -0.6344  0.1388
 2138SOL    HW1 7855   7.747   0.725   8.842 -1.7931  0.3191  0.0061
 2138SOL    HW2 7856   7.760   0.847   8.753  0.6670  0.1047  0.0206
 2139SOL     OW 7857   4.492   7.336   3.097  0.4093  0.8342 -0.1768
 2139SOL    HW1 7858   4.423   7.381   3.145 -0.0109  1.0050 -0.9210
 2139SOL    HW2 7859   4.476   7.358   3.005 -0.1969 -1.3098 -0.6414
 2140SOL     OW 7860   1.244   6.825   9.322  0.2334 -0.0186 -0.0253
 2140SOL    HW1 7861   1.246   6.828   9.418  0.5112  0.8117 -0.0543
 2140SOL    HW2 7862   1.322   6.873   9.295 -0.0115  0.0186 -0.6783
 2141SOL     OW 7863   5.715   3.589  12.024  0.3174 -0.1412 -0.3929
 2141SOL    HW1 7864   5.759   3.549  12.099  0.4162 -1.7036 -1.2474
 2141SOL    HW2 7865   5.770   3.664  12.001 -0.9082  1.8510  2.4578
 2142SOL     OW 7866   3.884   5.372   0.745  0.0580  0.0420  0.6631
 2142SOL    HW1 7867   3.845   5.457   0.727  0.7492  0.0808 -0.8165
 2142SOL    HW2 7868   3.978   5.385   0.730  0.1565 -1.0012  0.2942
 2143SOL     OW 7869   4.873   0.132   4.254 -0.4541  0.1526  0.3460
 2143SOL    HW1 7870   4.783   0.132   4.287 -0.6878  0.2115 -0.2672
 2143SOL    HW2 7871   4.914   0.208   4.294 -0.4745 -0.2614  1.1628
 2144SOL     OW 7872   1.470   5.571   1.297  0.9042  0.1438  0.0792
 2144SOL    HW1 7873   1.411   5.505   1.333  2.6972 -1.6240 -0.0425
 2144SOL    HW2 7874   1.426   5.601   1.217 -0.2490 -0.4039  0.4817
 2145SOL     OW 7875   6.691   0.453  11.211 -0.2186 -0.0122  0.3721
 2145SOL    HW1 7876   6.615   0.403  11.243 -0.0663 -0.5875 -0.1455
 2145SOL    HW2 7877   6.735   0.482  11.291 -0.3008 -0.7303  0.6898
 2146SOL     OW 7878   7.151   3.275   9.750 -0.4354 -0.1331  0.4612
 2146SOL    HW1 7879   7.101   3.250   9.672 -0.5200 -1.6540  0.9766
 2146SOL    HW2 7880   7.119   3.218   9.819  0.2891  0.5623  1.4084
 2147SOL     OW 7881   5.790   2.470   2.138  0.4840 -0.6911 -0.0425
 2147SOL    HW1 7882   5.716   2.463   2.198  1.0011 -0.4848  0.6261
 2147SOL    HW2 7883   5.861   2.424   2.182  0.9088 -0.4253 -0.4455
 2148SOL     OW 7884   5.046   5.749   7.302 -0.3694  0.4938  0.2046
 2148SOL    HW1 7885   5.082   5.712   7.382 -0.1150  0.8255  0.2433
 2148SOL    HW2 7886   5.005   5.674   7.258 -0.3224  0.2690  0.5374
 2149SOL     OW 7887   4.109   0.545   8.219 -0.1463  0.1522  0.9850
 2149SOL    HW1 7888   4.142   0.455   8.227 -0.0508 -0.0658 -1.1694
 2149SOL    HW2 7889   4.169   0.597   8.272  0.0413 -0.9989  1.9542
 2150SOL     OW 7890   2.415   5.669   0.587  0.2247  0.1743 -0.0545
 2150SOL    HW1 7891   2.482   5.719   0.542 -0.3375 -0.1253 -1.2917
 2150SOL    HW2 7892   2.380   5.728   0.653  1.9105  0.2182  0.8396
 2151SOL     OW 7893   0.690   6.744   7.091  0.1860  0.3818 -0.0236
 2151SOL    HW1 7894   0.752   6.814   7.069 -0.3732  0.9618  0.2348
 2151SOL    HW2 7895   0.723   6.709   7.174 -1.2816  2.4705  1.5428
 2152SOL     OW 7896   4.684   4.899   8.220 -0.6346 -0.4518 -0.2963
 2152SOL    HW1 7897   4.641   4.956   8.155  0.3735  1.1178  0.3650
 2152SOL    HW2 7898   4.615   4.881   8.284 -0.9032  0.2287 -0.3836
 2153SOL     OW 7899   2.652   6.408   9.062 -0.3140  0.2668 -0.0073
 2153SOL    HW1 7900   2.663   6.413   8.967  0.5936 -0.1303  0.0631
 2153SOL    HW2 7901   2.582   6.345   9.075 -2.1402  2.0890 -0.4592
 2154SOL     OW 7902   1.096   7.962  10.421 -0.2581 -0.1464 -0.0103
 2154SOL    HW1 7903   1.139   7.979  10.505  0.0396  0.2929 -0.2501
 2154SOL    HW2 7904   1.038   7.888  10.439  2.0249 -2.0556 -0.1588
 2155SOL     OW 7905   5.149   4.884   6.890 -0.2839  0.0526 -0.1405
 2155SOL    HW1 7906   5.228   4.873   6.837 -0.2874  0.6001 -0.2635
 2155SOL    HW2 7907   5.154   4.813   6.954 -0.5313 -0.9151 -1.1636
 2156SOL     OW 7908   0.785   5.786  10.757  0.6538  0.6489 -0.4664
 2156SOL    HW1 7909   0.699   5.824  10.740  0.7820  1.2941  0.2511
 2156SOL    HW2 7910   0.815   5.755  10.672 -0.0435  0.9289 -0.8240
 2157SOL     OW 7911   4.559   6.147   4.306  0.4528 -0.0474  0.1136
 2157SOL    HW1 7912   4.585   6.196   4.227 -0.0807  0.5380  0.2999
 2157SOL    HW2 7913   4.634   6.156   4.365  0.2711  0.7284  0.2290
 2158SOL     OW 7914   4.627   2.390   9.559 -0.2048 -0.6915  0.5630
 2158SOL    HW1 7915   4.688   2.336   9.509  0.5098 -0.2212  0.9041
 2158SOL    HW2 7916   4.673   2.473   9.570 -1.0751 -0.1904  0.4949
 2159SOL     OW 7917   7.168   2.219  10.203 -0.0888 -0.1372 -0.2368
 2159SOL    HW1 7918   7.151   2.152  10.136 -0.6241  0.5367 -0.7923
 2159SOL    HW2 7919   7.260   2.240  10.194 -0.0131 -0.5065 -0.3356
 2160SOL     OW 7920   5.285   5.161   0.324 -0.4917  0.3675 -0.2662
 2160SOL    HW1 7921   5.285   5.248   0.365 -1.0572  1.2671 -2.0736
 2160SOL    HW2 7922   5.302   5.101   0.396 -0.3393  1.9522  1.0848
 2161SOL     OW 7923   1.969   0.230   4.315  1.0525 -0.3996  0.1384
 2161SOL    HW1 7924   2.032   0.173   4.359  1.1019 -0.6316 -0.2300
 2161SOL    HW2 7925   1.974   0.313   4.362  0.6507 -0.8394  0.9675
 2162SOL     OW 7926   6.630   2.045   2.872  0.4573  0.2953  0.0974
 2162SOL    HW1 7927   6.694   2.114   2.858 -0.1425  0.2945 -3.7215
 2162SOL    HW2 7928   6.682   1.964   2.874  0.8581  0.5601  1.1887
 2163SOL     OW 7929   1.476   4.914   2.895  0.2748  0.2667  0.0611
 2163SOL    HW1 7930   1.495   5.007   2.900  0.1265  0.3128 -0.1861
 2163SOL    HW2 7931   1.391   4.909   2.851 -0.7552  0.0975  1.9574
 2164SOL     OW 7932   4.048   1.013   6.889  0.4581 -0.1805  0.6550
 2164SOL    HW1 7933   4.106   1.064   6.834 -0.2786 -0.1029 -0.0767
 2164SOL    HW2 7934   3.977   0.986   6.830 -0.2009 -0.3364  1.5014
 2165SOL     OW 7935   5.620   1.638   6.348  0.1997 -0.0791  0.3642
 2165SOL    HW1 7936   5.694   1.697   6.363  2.2464 -2.1935 -0.8058
 2165SOL    HW2 7937   5.657   1.550   6.358 -1.3080 -1.3488 -3.5031
 2166SOL     OW 7938   2.203   1.979   4.215  0.1376 -0.2567 -0.7525
 2166SOL    HW1 7939   2.111   1.950   4.211  0.5577 -1.8712  0.1074
 2166SOL    HW2 7940   2.240   1.927   4.286  1.3118  1.6174  0.0608
 2167SOL     OW 7941   2.493   3.844   1.772  0.6453  0.3650  0.3826
 2167SOL    HW1 7942   2.538   3.927   1.786  2.5507 -0.5880  0.2824
 2167SOL    HW2 7943   2.539   3.804   1.699 -1.1525 -0.1938 -0.4985
 2168SOL     OW 7944   2.252   6.305   0.265 -0.5641  0.3379 -0.2568
 2168SOL    HW1 7945   2.291   6.324   0.180 -0.3048  1.3090  0.0773
 2168SOL    HW2 7946   2.212   6.387   0.293  0.5880  0.4378  1.2116
 2169SOL     OW 7947   7.019   0.957   2.460 -0.0560  0.2444 -0.3765
 2169SOL    HW1 7948   7.111   0.931   2.470 -0.2882 -0.2006  0.8855
 2169SOL    HW2 7949   6.995   0.930   2.372  0.5618 -1.1774 -0.1306
 2170SOL     OW 7950   1.891   2.358   8.198 -0.1527  0.3230  0.4173
 2170SOL    HW1 7951   1.915   2.391   8.284  0.4440 -0.3767  0.5213
 2170SOL    HW2 7952   1.966   2.379   8.142  0.0070 -0.3789  0.3641
 2171SOL     OW 7953   2.661   7.254   8.916  0.0014 -0.2796  0.0893
 2171SOL    HW1 7954   2.615   7.332   8.886  0.8266 -0.2944 -1.3459
 2171SOL    HW2 7955   2.694   7.214   8.835  2.2291 -0.4349  1.0047
 2172SOL     OW 7956   2.649   1.812   9.434  0.1932 -0.4762  0.2905
 2172SOL    HW1 7957   2.668   1.765   9.352  0.5451 -1.1824  0.7698
 2172SOL    HW2 7958   2.555   1.832   9.429  0.0690 -1.1189  0.0215
 2173SOL     OW 7959   1.557   5.781   6.556 -0.1618  0.5278  0.2689
 2173SOL    HW1 7960   1.494   5.711   6.572  0.9124 -0.1366  1.7517
 2173SOL    HW2 7961   1.525   5.855   6.608 -0.5142  0.7110 -0.1876
 2174SOL     OW 7962   7.312   7.936  11.026  0.4283  0.5250  0.0129
 2174SOL    HW1 7963   7.281   7.865  11.082 -2.2637  1.2191 -0.4720
 2174SOL    HW2 7964   7.408   7.927  11.026  0.2993 -1.5613  1.9220
 2175SOL     OW 7965   0.782   6.629  11.875 -0.1021 -0.1121  0.0305
 2175SOL    HW1 7966   0.857   6.680  11.845 -0.6384 -0.9336 -3.0250
 2175SOL    HW2 7967   0.819   6.544  11.899  0.0930 -0.2247 -0.6370
 2176SOL     OW 7968   2.910   7.558   2.927 -0.4056  0.2664 -0.1075
 2176SOL    HW1 7969   2.876   7.485   2.978  0.2980  0.5340  0.7792
 2176SOL    HW2 7970   3.000   7.569   2.958 -0.1511  0.8168 -0.9991
 2177SOL     OW 7971   7.850   7.284   4.053  0.1912  0.3746 -0.4088
 2177SOL    HW1 7972   7.848   7.379   4.059  0.9653  0.4433 -1.0019
 2177SOL    HW2 7973   7.940   7.263   4.028 -0.1153 -0.4689 -0.8688
 2178SOL     OW 7974   7.306   4.495   8.614 -0.4388 -0.0390 -0.0228
 2178SOL    HW1 7975   7.223   4.455   8.587  0.0642 -0.0637 -1.6081
 2178SOL    HW2 7976   7.373   4.443   8.570  0.4594 -0.2239  1.5062
 2179SOL     OW 7977   7.079   2.400   5.522  0.5896 -0.3343 -0.2014
 2179SOL    HW1 7978   7.018   2.425   5.590 -0.5728 -1.6280 -0.7141
 2179SOL    HW2 7979   7.157   2.369   5.569  0.3730  0.1470  0.4835
 2180SOL     OW 7980   5.293   2.640  11.409  0.1525 -0.1837  0.8004
 2180SOL    HW1 7981   5.268   2.566  11.464  1.3344 -0.2893  1.2382
 2180SOL    HW2 7982   5.213   2.665  11.364 -0.4858 -1.1051  1.3862
 2181SOL     OW 7983   5.949   7.491   5.506  0.1056  0.1117 -0.2657
 2181SOL    HW1 7984   5.954   7.525   5.417  0.6931 -0.1852 -0.3510
 2181SOL    HW2 7985   5.857   7.502   5.531  0.2324  1.5786 -0.3528
 2182SOL     OW 7986   1.910   1.825   3.027 -0.1159 -0.3514  0.4578
 2182SOL    HW1 7987   1.995   1.812   3.068  1.2306  3.7759 -0.5612
 2182SOL    HW2 7988   1.920   1.788   2.939  0.1612 -0.9291  0.7224
 2183SOL     OW 7989   1.875   3.128   5.583 -0.1724  0.5027  0.7624
 2183SOL    HW1 7990   1.875   3.221   5.607 -1.3986  0.8700 -0.5055
 2183SOL    HW2 7991   1.944   3.120   5.518  0.5878  0.3111  1.5834
 2184SOL     OW 7992   7.371   6.921   1.380  0.2581 -0.2973 -0.0421
 2184SOL    HW1 7993   7.421   6.918   1.299  1.4177 -0.4261  0.6502
 2184SOL    HW2 7994   7.395   7.005   1.419  1.2001 -1.0419  1.0574
 2185SOL     OW 7995   2.007   3.429   1.534  0.3620  0.2934 -0.3134
 2185SOL    HW1 7996   2.097   3.462   1.533  0.0351  1.4705 -3.1599
 2185SOL    HW2 7997   1.960   3.487   1.593  1.0602  1.0857 -0.5219
 2186SOL     OW 7998   2.620   4.029   5.614  0.0729  0.2765  0.1351
 2186SOL    HW1 7999   2.658   3.962   5.557  0.8347  0.7377  0.0794
 2186SOL    HW2 8000   2.594   3.981   5.693  1.3509  0.0057  0.4270
 2187SOL     OW 8001   5.954   0.637   6.006 -0.5300  0.3487 -0.4273
 2187SOL    HW1 8002   5.927   0.687   6.083  0.0990  1.3502 -0.8272
 2187SOL    HW2 8003   6.029   0.586   6.036 -0.6284  0.3145 -0.2364
 2188SOL     OW 8004   7.812   6.708   1.949  0.0632 -0.0448 -0.7681
 2188SOL    HW1 8005   7.830   6.619   1.918  2.9128 -0.1349  0.8299
 2188SOL    HW2 8006   7.727   6.701   1.993 -1.0710 -1.2919 -2.9462
 2189SOL     OW 8007   6.856   5.717  10.690  0.2853 -0.3689 -0.2567
 2189SOL    HW1 8008   6.888   5.804  10.665  0.9765 -0.4595  0.2885
 2189SOL    HW2 8009   6.784   5.699  10.629  0.8060  0.1510 -1.0328
 2190SOL     OW 8010   4.728   4.365   5.509 -0.1013 -0.0212  0.1991
 2190SOL    HW1 8011   4.760   4.452   5.487  0.8079 -0.0690  1.2624
 2190SOL    HW2 8012   4.788   4.334   5.577 -1.5900 -0.6748  1.2594
 2191SOL     OW 8013   6.441   7.881  11.270 -0.0550 -0.4772  0.2574
 2191SOL    HW1 8014   6.480   7.908  11.186  1.6855 -0.4107  1.0479
 2191SOL    HW2 8015   6.400   7.797  11.251  0.1735 -0.3810 -0.7144
 2192SOL     OW 8016   2.076   0.270   6.472  0.1855  0.2365  0.2124
 2192SOL    HW1 8017   1.995   0.253   6.520  0.5130 -0.7081  0.4538
 2192SOL    HW2 8018   2.115   0.183   6.458  2.3117  0.7737  2.1044
 2193SOL     OW 8019   4.334   1.166   2.058 -0.1642  0.5764 -0.4609
 2193SOL    HW1 8020   4.350   1.248   2.105 -0.1414  0.9394 -1.0979
 2193SOL    HW2 8021   4.354   1.098   2.123 -0.0257  1.0655  0.0246
 2194SOL     OW 8022   6.728   1.894   7.168  0.8078 -0.3488  0.1642
 2194SOL    HW1 8023   6.635   1.879   7.150  0.9996 -1.3755 -0.0227
 2194SOL    HW2 8024   6.747   1.980   7.129  0.0055 -0.2476 -0.0182
 2195SOL     OW 8025   4.585   7.379   4.109  0.2706 -0.1095  0.2570
 2195SOL    HW1 8026   4.496   7.394   4.077  0.2296 -1.3342 -0.2555
 2195SOL    HW2 8027   4.629   7.463   4.098 -0.6395  0.3371 -0.0799
 2196SOL     OW 8028   5.697   3.994  11.133 -0.1086  0.4340 -0.1552
 2196SOL    HW1 8029   5.707   3.899  11.137 -0.4931  0.3846 -0.3401
 2196SOL    HW2 8030   5.604   4.008  11.113 -0.0552  0.8482 -0.1321
 2197SOL     OW 8031   1.848   2.629   5.839  0.2237  0.3795 -0.2037
 2197SOL    HW1 8032   1.856   2.703   5.898  0.6010  0.0453  0.1688
 2197SOL    HW2 8033   1.901   2.651   5.763  1.1376  0.0685  0.3372
 2198SOL     OW 8034   2.181   7.621  12.191  0.4846 -0.6420 -0.8180
 2198SOL    HW1 8035   2.088   7.602  12.197  0.0727  1.4767  0.3621
 2198SOL    HW2 8036   2.220   7.540  12.157 -1.8503 -1.3256 -2.0681
 2199SOL     OW 8037   6.915   2.682   0.794  0.3344 -0.4500  0.8345
 2199SOL    HW1 8038   6.897   2.734   0.716  0.6297 -0.2415  0.9018
 2199SOL    HW2 8039   6.969   2.610   0.763 -1.3941 -1.6575  0.4464
 2200SOL     OW 8040   6.532   7.163  12.053 -0.3950 -0.4615  0.2306
 2200SOL    HW1 8041   6.545   7.179  12.147 -0.3545  0.7146  0.0451
 2200SOL    HW2 8042   6.506   7.249  12.018  0.0300 -0.7866 -0.9127
 2201SOL     OW 8043   7.640   7.300   3.685 -0.0131  0.6300 -0.1162
 2201SOL    HW1 8044   7.618   7.387   3.718  0.2263  0.4171  0.6384
 2201SOL    HW2 8045   7.705   7.315   3.617 -1.3317  1.1572 -1.2972
 2202SOL     OW 8046   7.631   7.331   8.543 -0.2539 -0.5383 -0.0033
 2202SOL    HW1 8047   7.633   7.406   8.485  1.2010 -1.9491 -1.9245
 2202SOL    HW2 8048   7.719   7.328   8.581 -0.5732 -0.7712  0.7324
 2203SOL     OW 8049   2.696   0.227  10.898  0.4580 -0.6664 -0.4096
 2203SOL    HW1 8050   2.651   0.146  10.922 -0.6826 -0.3424 -1.3377
 2203SOL    HW2 8051   2.741   0.207  10.816  0.7162 -0.5464 -0.2985
 2204SOL     OW 8052   1.850   4.609   2.150  0.0799  0.0718 -0.0996
 2204SOL    HW1 8053   1.763   4.616   2.189  0.0156 -0.0626 -0.2190
 2204SOL    HW2 8054   1.859   4.688   2.097 -0.3791 -0.3959 -0.9065
 2205SOL     OW 8055   7.120   5.693   6.510 -0.4027  0.0142  0.0070
 2205SOL    HW1 8056   7.183   5.717   6.442  1.3185  0.6284  1.7185
 2205SOL    HW2 8057   7.048   5.756   6.500 -0.3114 -0.0834 -1.3760
 2206SOL     OW 8058   4.247   2.802   1.797 -0.1254  0.4006 -0.1140
 2206SOL    HW1 8059   4.254   2.780   1.704  1.3119 -2.0120  0.4613
 2206SOL    HW2 8060   4.158   2.775   1.821 -0.7548  1.6901 -0.8958
 2207SOL     OW 8061   0.794   1.379   0.458  0.2784 -0.3918 -0.3108
 2207SOL    HW1 8062   0.790   1.285   0.479  0.0281 -0.4802 -0.7420
 2207SOL    HW2 8063   0.733   1.390   0.385 -0.4128  0.2821  0.3539
 2208SOL     OW 8064   2.939   3.143   5.958 -0.2815 -0.2809 -0.5445
 2208SOL    HW1 8065   2.849   3.117   5.975 -0.0372 -1.7812 -1.3962
 2208SOL    HW2 8066   2.992   3.081   6.008  0.2906  0.0145 -0.7756
 2209SOL     OW 8067   7.106   1.563   1.547  0.0602 -0.1554  0.0786
 2209SOL    HW1 8068   7.077   1.472   1.538  0.0935 -0.3362  1.5528
 2209SOL    HW2 8069   7.025   1.614   1.543  0.1593 -0.0840 -2.2222
 2210SOL     OW 8070   6.595   4.411  11.209 -0.8186  0.4694  0.0288
 2210SOL    HW1 8071   6.560   4.493  11.174 -1.5355  0.3266  0.4048
 2210SOL    HW2 8072   6.545   4.394  11.289 -0.2571 -0.0175  0.2903
 2211SOL     OW 8073   5.701   4.267   9.997  1.0733  0.1809 -0.3749
 2211SOL    HW1 8074   5.687   4.192   9.940 -0.6048  1.0727 -1.1853
 2211SOL    HW2 8075   5.621   4.318   9.992  1.4315  1.0799  1.6355
 2212SOL     OW 8076   5.896   3.755   2.648 -0.0728 -0.0327 -0.3380
 2212SOL    HW1 8077   5.801   3.743   2.652  0.1220 -1.5942  3.0012
 2212SOL    HW2 8078   5.927   3.677   2.602 -0.3456  0.2975 -1.1052
 2213SOL     OW 8079   7.890   4.288   3.558 -0.1099  0.4615  0.0044
 2213SOL    HW1 8080   7.822   4.242   3.509 -1.5150  1.3060  1.0797
 2213SOL    HW2 8081   7.972   4.261   3.516 -1.0649 -0.8158 -1.1498
 2214SOL     OW 8082   7.278   3.722   6.016  0.3965 -0.0580 -0.0026
 2214SOL    HW1 8083   7.276   3.666   6.093  1.2811 -0.5604 -0.3444
 2214SOL    HW2 8084   7.364   3.763   6.018  0.1001  0.5911 -0.2607
 2215SOL     OW 8085   4.532   5.685   1.359  0.3152 -0.1342  0.8601
 2215SOL    HW1 8086   4.623   5.706   1.380  0.3585 -0.3718  0.9167
 2215SOL    HW2 8087   4.497   5.765   1.321  0.7369 -0.2495  0.2242
 2216SOL     OW 8088   1.358   6.082   8.718  0.1411 -0.0520 -0.2197
 2216SOL    HW1 8089   1.308   6.000   8.725 -0.3976  0.3122  0.2263
 2216SOL    HW2 8090   1.313   6.143   8.776  0.3008  0.6864 -0.8548
 2217SOL     OW 8091   1.184   6.604   6.404  0.2494 -0.4392  0.0596
 2217SOL    HW1 8092   1.194   6.618   6.310  0.3929 -0.4428  0.0745
 2217SOL    HW2 8093   1.094   6.573   6.414 -0.1067  0.5462  0.0343
 2218SOL     OW 8094   5.497   1.626   0.294 -0.0947  0.2483 -0.1319
 2218SOL    HW1 8095   5.574   1.594   0.340  0.6817 -0.4430 -1.8441
 2218SOL    HW2 8096   5.530   1.655   0.209 -1.2020  3.0652  0.2898
 2219SOL     OW 8097   7.680   5.885   1.220  0.2917 -0.7048 -0.2850
 2219SOL    HW1 8098   7.596   5.879   1.175  0.4465  0.0624 -0.6842
 2219SOL    HW2 8099   7.682   5.808   1.277 -1.1563 -0.1557  0.5482
 2220SOL     OW 8100   5.396   0.637  10.612  0.2440  0.0725 -0.2245
 2220SOL    HW1 8101   5.381   0.562  10.554  0.2609  0.2196 -0.4183
 2220SOL    HW2 8102   5.408   0.598  10.699  0.3601 -0.1584 -0.3433
 2221SOL     OW 8103   4.224   1.435   8.157  0.2850 -0.1015 -0.0444
 2221SOL    HW1 8104   4.290   1.404   8.219 -0.5831 -1.8808  0.0557
 2221SOL    HW2 8105   4.274   1.456   8.078  1.0327 -1.0490  0.1536
 2222SOL     OW 8106   7.248   1.543   5.787  0.0279  0.0435 -0.2691
 2222SOL    HW1 8107   7.250   1.497   5.871 -0.6909 -2.1103 -1.3648
 2222SOL    HW2 8108   7.326   1.599   5.789  1.4151 -1.7995  0.8341
 2223SOL     OW 8109   3.349   3.125   3.847  0.5554  0.6843  0.1960
 2223SOL    HW1 8110   3.371   3.032   3.845 -0.8585  0.2979  1.1343
 2223SOL    HW2 8111   3.433   3.170   3.856  1.2770 -0.4754 -0.5582
 2224SOL     OW 8112   7.447   0.264   4.881  0.3866  0.7652 -0.1091
 2224SOL    HW1 8113   7.360   0.228   4.863  0.7559 -0.6931  0.8069
 2224SOL    HW2 8114   7.434   0.321   4.956  0.1538  0.8703 -0.2282
 2225SOL     OW 8115   1.249   5.987   8.459 -0.1118 -0.1401 -0.0515
 2225SOL    HW1 8116   1.316   5.945   8.405  1.1077  1.8911 -0.2045
 2225SOL    HW2 8117   1.285   5.985   8.548 -0.6423 -0.5249  0.1688
 2226SOL     OW 8118   6.467   7.283   6.052 -0.2742 -0.8049 -0.2918
 2226SOL    HW1 8119   6.408   7.355   6.070 -1.4353 -1.5121 -1.1482
 2226SOL    HW2 8120   6.417   7.204   6.075  0.4947 -1.3980 -0.5879
 2227SOL     OW 8121   7.657   7.603   7.461 -0.0272 -0.2000  0.1748
 2227SOL    HW1 8122   7.679   7.668   7.528 -1.7219  0.2364  0.3766
 2227SOL    HW2 8123   7.674   7.519   7.503 -1.3731  0.0556  1.3314
 2228SOL     OW 8124   5.913   5.408   3.627  0.1601 -0.4896 -0.0901
 2228SOL    HW1 8125   6.004   5.385   3.644 -0.0968 -0.9260  0.7543
 2228SOL    HW2 8126   5.867   5.386   3.709 -0.2998  1.9945  0.3755
 2229SOL     OW 8127   4.742   0.471  12.316  0.6547 -0.2729 -0.3253
 2229SOL    HW1 8128   4.817   0.466  12.376 -0.5274  0.5124  1.2985
 2229SOL    HW2 8129   4.753   0.555  12.272  0.3110  0.2277  0.5218
 2230SOL     OW 8130   5.688   7.081   0.143 -0.3677 -0.2269 -0.3839
 2230SOL    HW1 8131   5.699   6.992   0.176  0.1464 -0.6111 -1.5287
 2230SOL    HW2 8132   5.759   7.091   0.079 -1.5811  0.3046 -1.7039
 2231SOL     OW 8133   2.783   1.656   4.668 -0.2888  0.0703 -0.0274
 2231SOL    HW1 8134   2.775   1.745   4.705 -0.2129  0.6411 -1.3259
 2231SOL    HW2 8135   2.693   1.630   4.650 -0.4128 -0.6522  1.5200
 2232SOL     OW 8136   4.727   7.561   9.077  0.3469  0.1411 -0.4690
 2232SOL    HW1 8137   4.765   7.487   9.125  1.0431  0.0991 -1.0699
 2232SOL    HW2 8138   4.773   7.562   8.993  0.4478  1.3337 -0.4212
 2233SOL     OW 8139   4.088   4.761   4.832 -0.4859  0.4981 -0.7261
 2233SOL    HW1 8140   4.017   4.818   4.862 -2.2426 -1.0617 -1.6900
 2233SOL    HW2 8141   4.128   4.728   4.912 -2.6313 -0.6515 -0.0414
 2234SOL     OW 8142   4.368   4.515   7.203 -0.6291  0.3005 -0.1977
 2234SOL    HW1 8143   4.361   4.465   7.122 -0.9247 -0.3442  0.2184
 2234SOL    HW2 8144   4.443   4.476   7.249 -0.3546  0.7768 -0.2380
 2235SOL     OW 8145   7.510   0.697   1.616 -0.3145 -0.2905  0.2282
 2235SOL    HW1 8146   7.481   0.755   1.546  0.4266 -1.6459 -1.2636
 2235SOL    HW2 8147   7.429   0.672   1.662 -0.8198  0.5416 -0.1982
 2236SOL     OW 8148   3.055   0.742   9.863  0.4151  0.0569 -0.1444
 2236SOL    HW1 8149   3.104   0.818   9.895 -0.0301  1.9967 -3.5849
 2236SOL    HW2 8150   2.965   0.773   9.856  0.1599 -0.8993 -1.2972
 2237SOL     OW 8151   5.407   7.273   3.281 -0.2151 -0.7831  0.0446
 2237SOL    HW1 8152   5.388   7.328   3.357 -1.1507  0.0183 -0.7394
 2237SOL    HW2 8153   5.341   7.203   3.285 -3.3344  1.6827 -2.3587
 2238SOL     OW 8154   2.645   3.104   5.983 -0.5983 -0.3723  0.5373
 2238SOL    HW1 8155   2.637   3.193   5.948  0.5936 -0.4624 -0.0153
 2238SOL    HW2 8156   2.607   3.109   6.071 -1.4359  0.4423  0.1341
 2239SOL     OW 8157   1.610   4.902   8.451  0.0438  0.1562 -0.3744
 2239SOL    HW1 8158   1.577   4.928   8.537  0.2002  0.5705 -0.4419
 2239SOL    HW2 8159   1.541   4.845   8.416  0.3265 -0.6655  0.3522
 2240SOL     OW 8160   0.057   7.461   1.407  0.3161  0.8674 -0.1576
 2240SOL    HW1 8161  -0.008   7.531   1.400  0.5873  1.0428 -1.0036
 2240SOL    HW2 8162   0.024   7.392   1.349  1.7129  1.6333 -1.9716
 2241SOL     OW 8163   1.913   4.076   1.575 -0.1404  0.6392 -0.5861
 2241SOL    HW1 8164   1.889   4.066   1.668  2.2468 -0.1031  0.0227
 2241SOL    HW2 8165   1.914   4.170   1.561 -0.8702  0.7581  0.0152
 2242SOL     OW 8166   2.356   3.520   3.235 -0.0246  0.5587  0.2366
 2242SOL    HW1 8167   2.307   3.438   3.237  0.9095 -0.0247 -0.0552
 2242SOL    HW2 8168   2.417   3.510   3.162  0.4710  1.2977  0.5319
 2243SOL     OW 8169   0.201   4.122   0.534 -0.0473 -0.2141  0.3048
 2243SOL    HW1 8170   0.252   4.198   0.508  1.0139 -0.6151  1.1531
 2243SOL    HW2 8171   0.116   4.135   0.492  0.0429  1.5187  0.6038
 2244SOL     OW 8172   0.101   4.450   6.220 -0.8108 -0.0262  0.5759
 2244SOL    HW1 8173   0.171   4.430   6.283 -0.1876 -3.5814 -0.9840
 2244SOL    HW2 8174   0.147   4.459   6.137 -1.9975  0.4573 -0.0394
 2245SOL     OW 8175   0.172   1.101   8.403 -0.4211 -0.3914 -0.1548
 2245SOL    HW1 8176   0.209   1.136   8.322 -1.0072  0.0978 -0.2189
 2245SOL    HW2 8177   0.231   1.030   8.427  0.4851  0.2828 -0.3233
 2246SOL     OW 8178   1.991   0.847  11.447  0.0213 -0.2238 -0.6155
 2246SOL    HW1 8179   1.914   0.799  11.417 -0.6040  0.7558 -0.6055
 2246SOL    HW2 8180   2.014   0.805  11.530 -1.5189  0.5234  0.2279
 2247SOL     OW 8181   3.674   4.739   6.642 -0.5446  0.4656 -0.2303
 2247SOL    HW1 8182   3.599   4.800   6.646  0.0364  1.1611  0.4562
 2247SOL    HW2 8183   3.748   4.791   6.674 -0.0262 -0.5979  0.3459
 2248SOL     OW 8184   5.075   4.651   3.648  0.3313  0.4824 -0.2249
 2248SOL    HW1 8185   4.995   4.599   3.635  0.7965 -0.4121  0.4029
 2248SOL    HW2 8186   5.093   4.646   3.742  0.9530  0.9511 -0.3069
 2249SOL     OW 8187   3.712   6.037   0.413 -0.7350 -0.4881 -0.1307
 2249SOL    HW1 8188   3.652   6.077   0.349 -2.4443  0.5091  1.9490
 2249SOL    HW2 8189   3.772   6.108   0.437 -0.5817 -0.6349 -0.0761
 2250SOL     OW 8190   7.845   7.778  10.353  0.2915 -0.0103 -0.2358
 2250SOL    HW1 8191   7.874   7.861  10.314  1.7943 -0.3242  0.1507
 2250SOL    HW2 8192   7.791   7.738  10.285  0.7830  0.6109 -1.0151
 2251SOL     OW 8193   7.120   3.372   6.486  0.0849 -0.2007  0.7143
 2251SOL    HW1 8194   7.140   3.334   6.400  0.6737  0.0664  0.7290
 2251SOL    HW2 8195   7.058   3.311   6.525 -2.2419  0.9501 -0.9254
 2252SOL     OW 8196   1.543   2.819   6.044 -0.0123  0.2388  0.3525
 2252SOL    HW1 8197   1.512   2.763   6.115 -0.4090  1.4781  1.2061
 2252SOL    HW2 8198   1.638   2.824   6.058  0.1884 -1.0754 -0.3999
 2253SOL     OW 8199   7.672   1.397   2.044 -0.1253  0.3989 -0.5393
 2253SOL    HW1 8200   7.679   1.357   1.957 -1.1532 -1.1733  0.0486
 2253SOL    HW2 8201   7.578   1.415   2.054 -0.1157 -0.1106  0.5141
 2254SOL     OW 8202   4.175   0.401   4.907  0.1704 -0.2668 -0.6556
 2254SOL    HW1 8203   4.258   0.361   4.879  0.2954  0.8878 -2.0263
 2254SOL    HW2 8204   4.133   0.428   4.826 -0.1549  1.8872  0.1587
 2255SOL     OW 8205   6.747   7.428   9.417 -0.3878  0.1595 -0.3782
 2255SOL    HW1 8206   6.764   7.522   9.420 -0.1853  0.1719 -1.6862
 2255SOL    HW2 8207   6.670   7.416   9.474  1.2101  0.6964  2.0384
 2256SOL     OW 8208   4.438   7.361   0.711 -0.3551  0.4643 -0.5445
 2256SOL    HW1 8209   4.346   7.334   0.701 -0.3955  0.6055 -0.5473
 2256SOL    HW2 8210   4.433   7.446   0.755 -0.2787  1.1149 -1.7689
 2257SOL     OW 8211   3.269   6.849   6.948 -0.4388 -0.3144 -0.3012
 2257SOL    HW1 8212   3.300   6.928   6.993  0.5959 -0.4034 -0.8290
 2257SOL    HW2 8213   3.175   6.847   6.965 -0.3682  0.6721  0.2754
 2258SOL     OW 8214   6.953   0.656   3.711  0.4022  0.1591  0.0028
 2258SOL    HW1 8215   6.875   0.697   3.749  0.8379  1.5190 -0.5396
 2258SOL    HW2 8216   7.006   0.631   3.787  0.1281  0.6053  0.3475
 2259SOL     OW 8217   7.231   1.254   5.697 -0.4299 -0.2699 -1.1206
 2259SOL    HW1 8218   7.253   1.226   5.786  1.7273  1.8115 -0.8979
 2259SOL    HW2 8219   7.272   1.190   5.641  0.4015 -0.2005 -0.6082
 2260SOL     OW 8220   0.115   0.674   2.128 -0.5595  0.2221  0.0223
 2260SOL    HW1 8221   0.141   0.617   2.200  0.5418  0.9649  0.2410
 2260SOL    HW2 8222   0.070   0.616   2.067  0.7247 -0.9485  0.1258
 2261SOL     OW 8223   2.877   6.855  10.681 -0.4744 -0.1650 -0.0053
 2261SOL    HW1 8224   2.822   6.787  10.720  0.0475  0.4431  1.9095
 2261SOL    HW2 8225   2.815   6.925  10.658 -0.6600  0.1116  1.2389
 2262SOL     OW 8226   2.533   1.667   0.835  0.0852  0.3495 -0.0052
 2262SOL    HW1 8227   2.611   1.613   0.848  0.4735  0.7943 -0.4741
 2262SOL    HW2 8228   2.464   1.604   0.813  0.5853  0.0616 -0.7771
 2263SOL     OW 8229   3.210   1.350  12.118  0.1242  0.2752 -0.3297
 2263SOL    HW1 8230   3.153   1.420  12.087  0.7100  0.7114 -0.4295
 2263SOL    HW2 8231   3.152   1.294  12.170 -0.6153  0.1686 -1.2242
 2264SOL     OW 8232   5.590   4.839  10.796  0.3267 -0.3177  0.4483
 2264SOL    HW1 8233   5.572   4.914  10.740 -0.7107 -0.4798  0.5278
 2264SOL    HW2 8234   5.503   4.807  10.821  0.7401  0.3879  3.0143
 2265SOL     OW 8235   6.584   1.989   6.292  0.5425 -0.0343  0.0733
 2265SOL    HW1 8236   6.559   1.927   6.223  0.3360  0.2297 -0.0896
 2265SOL    HW2 8237   6.541   1.955   6.370 -0.3656  0.4338 -0.2122
 2266SOL     OW 8238   6.193   5.520   3.281  0.1078  0.4308  0.0781
 2266SOL    HW1 8239   6.122   5.456   3.290  1.8424 -1.5062  0.8171
 2266SOL    HW2 8240   6.238   5.495   3.200  0.9933  0.4889  0.5374
 2267SOL     OW 8241   7.347   6.464  10.030  0.8961  0.3234 -0.2936
 2267SOL    HW1 8242   7.292   6.464  10.108  0.9249  1.7035 -0.2605
 2267SOL    HW2 8243   7.286   6.450   9.957  0.3429  2.4872 -0.3237
 2268SOL     OW 8244   7.403   2.130   8.802  0.4054 -0.0033 -0.4825
 2268SOL    HW1 8245   7.445   2.070   8.863 -0.3287 -0.5973 -0.5458
 2268SOL    HW2 8246   7.440   2.107   8.717  0.8463  0.2959 -0.3742
 2269SOL     OW 8247   0.041   0.957   6.770  0.0322 -0.9774  0.1658
 2269SOL    HW1 8248   0.034   1.028   6.705 -1.3922 -2.2577 -1.1681
 2269SOL    HW2 8249  -0.036   0.968   6.825  0.0265 -1.2414  0.2096
 2270SOL     OW 8250   7.296   2.194   8.123  0.0163 -0.1605 -0.2531
 2270SOL    HW1 8251   7.343   2.125   8.168 -0.8799 -1.0856 -0.6859
 2270SOL    HW2 8252   7.203   2.172   8.134 -0.3370  1.4309  0.3116
 2271SOL     OW 8253   2.892   6.356   0.090  0.0323 -0.1330  0.1774
 2271SOL    HW1 8254   2.902   6.306   0.009  1.1727 -0.1272  0.2926
 2271SOL    HW2 8255   2.870   6.290   0.156 -0.6971 -0.1651 -0.0847
 2272SOL     OW 8256   4.724   5.069   4.326 -0.1383 -0.0157 -0.5249
 2272SOL    HW1 8257   4.642   5.113   4.303 -0.3277  0.2482  0.5898
 2272SOL    HW2 8258   4.765   5.127   4.390  0.2136 -0.8682  0.0346
 2273SOL     OW 8259   2.909   2.931   8.050  0.6694 -0.4879 -0.0126
 2273SOL    HW1 8260   2.894   3.018   8.011 -1.0510 -0.6565  0.1903
 2273SOL    HW2 8261   2.990   2.901   8.010  0.8727  0.8725 -0.7059
 2274SOL     OW 8262   7.895   2.477   8.075 -0.3354 -0.2851  0.7879
 2274SOL    HW1 8263   7.820   2.512   8.123 -1.3586 -2.6948  1.1480
 2274SOL    HW2 8264   7.972   2.506   8.124 -0.5381  5.2747 -1.4904
 2275SOL     OW 8265   6.588   4.612   6.440  0.1223  0.0688 -0.2107
 2275SOL    HW1 8266   6.624   4.694   6.407 -2.2869  0.7419 -1.4399
 2275SOL    HW2 8267   6.550   4.570   6.363 -2.2161 -0.2404  1.0272
 2276SOL     OW 8268   1.064   3.570   2.466 -0.2110 -0.0930  0.4864
 2276SOL    HW1 8269   1.124   3.609   2.530  0.4728  0.2665 -0.3532
 2276SOL    HW2 8270   1.004   3.641   2.443  1.7599  0.9268 -1.9304
 2277SOL     OW 8271   2.653   3.477   4.140 -0.1256 -0.2808  0.3708
 2277SOL    HW1 8272   2.571   3.482   4.188 -0.9272 -5.4912  0.1394
 2277SOL    HW2 8273   2.681   3.386   4.151  3.5789  0.2320 -2.8294
 2278SOL     OW 8274   2.776   4.052   1.495  0.3629  1.0105 -0.6706
 2278SOL    HW1 8275   2.689   4.071   1.531 -0.0594 -1.5159 -0.1573
 2278SOL    HW2 8276   2.836   4.106   1.547 -0.5978  0.2405  1.3449
 2279SOL     OW 8277   5.827   7.330   3.230 -0.7164  0.1492 -0.3157
 2279SOL    HW1 8278   5.811   7.416   3.191 -2.1104 -0.1999 -0.5664
 2279SOL    HW2 8279   5.762   7.273   3.190  0.0295 -0.9835  0.0292
 2280SOL     OW 8280   2.473   1.764  10.089  0.2162  0.0443  0.0835
 2280SOL    HW1 8281   2.441   1.839  10.139  0.8787 -1.0442  2.3055
 2280SOL    HW2 8282   2.399   1.736  10.037 -1.4513 -0.3061  2.4646
 2281SOL     OW 8283   0.618   0.385  12.410  0.0484 -0.2307 -0.0316
 2281SOL    HW1 8284   0.673   0.392  12.487  0.8696  1.1678 -0.7044
 2281SOL    HW2 8285   0.627   0.470  12.366 -2.3760 -0.0544 -0.3551
 2282SOL     OW 8286   2.139   7.123   5.374 -0.2357 -0.2614  0.2195
 2282SOL    HW1 8287   2.208   7.061   5.397 -0.0686  0.7829  2.7776
 2282SOL    HW2 8288   2.163   7.204   5.419 -1.0203  1.3924 -2.1443
 2283SOL     OW 8289   1.206   4.959   0.269  0.5547 -0.1847 -0.1750
 2283SOL    HW1 8290   1.270   4.910   0.218 -0.0019 -1.2511  0.1253
 2283SOL    HW2 8291   1.255   4.990   0.345  1.0539  0.2574 -0.6633
 2284SOL     OW 8292   0.808   6.654  11.125  0.7180  0.2382  0.8604
 2284SOL    HW1 8293   0.888   6.697  11.156  0.4525  1.7804 -0.4397
 2284SOL    HW2 8294   0.827   6.634  11.033 -0.2398  0.2451  0.6562
 2285SOL     OW 8295   0.700   4.963   4.824  0.3703  0.0281  0.3723
 2285SOL    HW1 8296   0.647   5.031   4.781  1.7849  0.2609 -1.1095
 2285SOL    HW2 8297   0.640   4.889   4.832 -1.3545  1.5081  2.4469
 2286SOL     OW 8298   2.566   3.944   8.550  0.4139  0.0741 -0.2597
 2286SOL    HW1 8299   2.471   3.944   8.566  0.2882 -2.8777 -0.4165
 2286SOL    HW2 8300   2.598   4.020   8.598 -2.0526  1.2432 -0.3289
 2287SOL     OW 8301   7.694   5.210   1.420  0.5321  0.3513 -0.5962
 2287SOL    HW1 8302   7.693   5.173   1.332  0.7545 -2.3574  0.4387
 2287SOL    HW2 8303   7.743   5.146   1.472 -0.3752  1.4015  1.6731
 2288SOL     OW 8304   2.455   6.610   2.823 -0.9410  0.3195  0.3125
 2288SOL    HW1 8305   2.516   6.682   2.807 -0.2114 -0.6709 -1.6573
 2288SOL    HW2 8306   2.507   6.542   2.866 -1.5422  0.7816  1.8399
 2289SOL     OW 8307   3.846   7.901  11.263  0.4726  0.0790  0.2181
 2289SOL    HW1 8308   3.855   7.812  11.230 -1.3472  0.0791 -0.3975
 2289SOL    HW2 8309   3.896   7.955  11.203  1.8632 -0.5349  0.7830
 2290SOL     OW 8310   6.865   0.063   7.217 -0.1832 -0.2995  0.2104
 2290SOL    HW1 8311   6.925   0.081   7.290  1.9319 -0.0078 -1.4811
 2290SOL    HW2 8312   6.920   0.023   7.150 -2.0038 -0.4381 -1.2940
 2291SOL     OW 8313   6.962   6.528  10.612 -0.0661  0.5242 -0.1697
 2291SOL    HW1 8314   6.898   6.468  10.573  0.8799 -1.2028  0.8372
 2291SOL    HW2 8315   7.034   6.472  10.640  0.9083  2.1524  0.7348
 2292SOL     OW 8316   3.303   4.264   1.197  0.1436  0.0709 -0.0402
 2292SOL    HW1 8317   3.242   4.198   1.163  1.3678  0.2402 -2.7919
 2292SOL    HW2 8318   3.388   4.220   1.199  0.5259  0.8037  0.6756
 2293SOL     OW 8319   4.150   6.165   3.666  0.1227 -0.7253 -0.0592
 2293SOL    HW1 8320   4.115   6.249   3.637 -0.3138 -1.1564 -0.8237
 2293SOL    HW2 8321   4.089   6.136   3.735  0.3063 -0.3915  0.2440
 2294SOL     OW 8322   6.191   0.298   9.384 -0.2655 -0.3130 -0.4862
 2294SOL    HW1 8323   6.170   0.319   9.476  2.1411 -0.5234  0.1723
 2294SOL    HW2 8324   6.146   0.215   9.368 -0.1619 -0.6276  0.7501
 2295SOL     OW 8325   5.331   4.095   2.029 -0.0706  0.1417  0.7252
 2295SOL    HW1 8326   5.337   4.035   1.956 -0.7524 -0.1555  0.9029
 2295SOL    HW2 8327   5.421   4.106   2.060  0.0411 -0.9117  0.7892
 2296SOL     OW 8328   1.690   0.391   8.232  0.8389  0.2135 -0.4907
 2296SOL    HW1 8329   1.673   0.457   8.300  0.5680 -0.7227  0.3658
 2296SOL    HW2 8330   1.604   0.355   8.211  1.1854 -1.3245  0.5659
 2297SOL     OW 8331   1.277   6.210  11.014  0.0381 -0.2624  0.2129
 2297SOL    HW1 8332   1.293   6.227  10.921  0.4880 -0.7564  0.1967
 2297SOL    HW2 8333   1.259   6.296  11.052 -0.6504 -0.1152 -0.4266
 2298SOL     OW 8334   7.360   4.151   2.048  0.2877 -0.2468 -0.3596
 2298SOL    HW1 8335   7.286   4.091   2.046 -0.1790  0.3064 -0.0309
 2298SOL    HW2 8336   7.334   4.219   2.111  0.2865  0.9627 -1.6250
 2299SOL     OW 8337   7.786   1.780  12.459 -0.6823 -0.1109 -0.6862
 2299SOL    HW1 8338   7.839   1.799  12.537 -1.0485 -2.0251  0.0925
 2299SOL    HW2 8339   7.721   1.850  12.456 -0.6158  0.0353  0.7130
 2300SOL     OW 8340   7.037   7.573  11.319 -0.0240 -0.4806 -0.4000
 2300SOL    HW1 8341   6.979   7.554  11.246 -1.0874 -1.4417  0.6507
 2300SOL    HW2 8342   7.064   7.486  11.351  0.3288 -0.0818  0.4151
 2301SOL     OW 8343   6.568   2.558   9.470 -0.3169  0.4743  0.0714
 2301SOL    HW1 8344   6.589   2.630   9.411  0.1330 -0.1963 -0.6145
 2301SOL    HW2 8345   6.487   2.521   9.435 -0.4511  0.5326  0.3161
 2302SOL     OW 8346   3.434   7.221   6.511  0.6142 -0.4548 -0.6135
 2302SOL    HW1 8347   3.371   7.170   6.460 -0.7294  0.4411  0.0914
 2302SOL    HW2 8348   3.467   7.159   6.576  1.0235 -1.1250 -1.4413
 2303SOL     OW 8349   6.925   5.737   9.611  0.2555  0.6049  0.2225
 2303SOL    HW1 8350   6.956   5.773   9.694 -0.1559 -1.4210  1.3189
 2303SOL    HW2 8351   6.962   5.795   9.545  2.1406  1.2336  1.7256
 2304SOL     OW 8352   6.895   2.082   7.707 -0.5543  0.2354 -0.8156
 2304SOL    HW1 8353   6.867   2.075   7.798 -0.5613 -0.6830 -0.8854
 2304SOL    HW2 8354   6.879   1.996   7.669  2.1331 -0.3173 -0.9070
 2305SOL     OW 8355   2.019   5.136   1.144  0.2171  0.3317  0.1410
 2305SOL    HW1 8356   2.114   5.142   1.159  0.2115  2.5925 -0.3887
 2305SOL    HW2 8357   2.010   5.120   1.051  0.1293  2.5979 -0.3110
 2306SOL     OW 8358   0.215   6.771  12.242 -0.0086 -0.3367 -0.2032
 2306SOL    HW1 8359   0.163   6.753  12.164 -1.6932 -0.9432  1.0040
 2306SOL    HW2 8360   0.270   6.693  12.253 -2.0492 -1.7151  0.9252
 2307SOL     OW 8361   2.778   2.204   5.361  0.2459 -0.0633  0.1113
 2307SOL    HW1 8362   2.792   2.296   5.381  0.3564 -0.5385  2.4327
 2307SOL    HW2 8363   2.690   2.184   5.394  0.1068 -0.7495 -0.6166
 2308SOL     OW 8364   2.216   5.981   8.048 -0.3911 -0.2202  0.4601
 2308SOL    HW1 8365   2.185   5.899   8.086  1.7124 -0.7308  1.2199
 2308SOL    HW2 8366   2.241   5.958   7.959 -1.4646  0.0441  0.0684
 2309SOL     OW 8367   5.462   1.090  12.103 -0.2197  0.4250  0.0682
 2309SOL    HW1 8368   5.547   1.050  12.085 -0.5252  0.2534 -1.1038
 2309SOL    HW2 8369   5.483   1.169  12.152  0.5934  0.2102  0.0930
 2310SOL     OW 8370   6.379   0.237   9.144  0.4850 -0.1216 -0.0936
 2310SOL    HW1 8371   6.315   0.308   9.146 -1.8695 -2.1048 -0.6132
 2310SOL    HW2 8372   6.381   0.204   9.234  0.5632 -0.2629 -0.1468
 2311SOL     OW 8373   6.532   3.898   6.845  0.2305 -0.2609  0.6341
 2311SOL    HW1 8374   6.564   3.863   6.762  0.7942 -1.1808  1.2223
 2311SOL    HW2 8375   6.525   3.821   6.902 -0.9269  0.2436  1.1936
 2312SOL     OW 8376   7.608   2.573   9.275 -0.0282 -0.1422  1.1228
 2312SOL    HW1 8377   7.648   2.641   9.331  0.1681  1.4970 -0.8899
 2312SOL    HW2 8378   7.514   2.591   9.279  0.0353  0.3797  0.4737
 2313SOL     OW 8379   1.265   7.280  11.960  0.1307  0.4225 -0.3240
 2313SOL    HW1 8380   1.246   7.250  12.049 -0.7811 -0.5535 -0.8321
 2313SOL    HW2 8381   1.246   7.204  11.904  1.7378  0.6650 -1.2627
 2314SOL     OW 8382   0.256   6.501  12.240  0.7365  0.3283  0.0412
 2314SOL    HW1 8383   0.291   6.478  12.326  1.2938 -0.8546 -0.4793
 2314SOL    HW2 8384   0.177   6.448  12.232  2.6266 -2.5044 -1.6281
 2315SOL     OW 8385   2.023   3.977  11.071 -0.2066  0.3458 -0.1973
 2315SOL    HW1 8386   2.035   4.072  11.071 -1.9698  0.6033 -0.8760
 2315SOL    HW2 8387   1.990   3.957  11.158  1.2565  0.1578  0.3493
 2316SOL     OW 8388   5.929   7.167  11.223  0.3529  0.0602  0.0147
 2316SOL    HW1 8389   6.010   7.133  11.185 -0.4282 -0.2360 -1.4992
 2316SOL    HW2 8390   5.866   7.165  11.150 -1.2871 -0.6798  1.3767
 2317SOL     OW 8391   5.872   6.759   3.653 -0.0454 -0.1496  0.9143
 2317SOL    HW1 8392   5.923   6.768   3.734 -0.8400 -0.7402  1.5064
 2317SOL    HW2 8393   5.783   6.742   3.684 -0.4481  0.1015 -0.0981
 2318SOL     OW 8394   2.406   3.099   3.619  0.0444 -0.2047  0.0343
 2318SOL    HW1 8395   2.324   3.138   3.588 -0.6319 -0.4941  1.3704
 2318SOL    HW2 8396   2.446   3.062   3.541 -0.6648  0.7086 -0.7954
 2319SOL     OW 8397   6.424   6.840  12.444 -0.1155  0.2620  0.3934
 2319SOL    HW1 8398   6.363   6.786  12.495  0.7729 -0.4532  0.7392
 2319SOL    HW2 8399   6.495   6.861  12.506  0.7957 -0.3065 -0.4309
 2320SOL     OW 8400   1.191   0.204   8.360 -0.1097 -0.2081  0.7772
 2320SOL    HW1 8401   1.178   0.279   8.303  0.6520  0.2058  1.1350
 2320SOL    HW2 8402   1.190   0.240   8.449  1.3296 -0.4386  0.9091
 2321SOL     OW 8403   6.908   5.463   3.452 -0.9576  0.3288  0.6290
 2321SOL    HW1 8404   6.986   5.516   3.438 -1.4060  1.2826  1.5691
 2321SOL    HW2 8405   6.940   5.378   3.483 -0.2803  0.5391  0.5025
 2322SOL     OW 8406   6.451   3.795   4.313 -0.5455 -0.5489 -0.0088
 2322SOL    HW1 8407   6.357   3.815   4.309 -0.9880 -2.5218 -0.4580
 2322SOL    HW2 8408   6.475   3.810   4.404 -0.9593  1.2913 -0.1670
 2323SOL     OW 8409   7.362   2.874   4.947 -0.1850 -0.0830  0.1663
 2323SOL    HW1 8410   7.455   2.867   4.926  0.4339 -0.1056  2.6443
 2323SOL    HW2 8411   7.354   2.835   5.034 -2.1379  1.7536  0.8962
 2324SOL     OW 8412   4.305   5.312   9.858 -0.3022  0.3726  0.2412
 2324SOL    HW1 8413   4.399   5.323   9.869 -0.2064 -1.0508  1.1404
 2324SOL    HW2 8414   4.280   5.249   9.926 -1.9058  0.7281  0.0240
 2325SOL     OW 8415   5.496   2.914  11.016 -0.0238 -0.1520  0.2697
 2325SOL    HW1 8416   5.456   2.871  10.940 -0.4951  0.8731 -0.0814
 2325SOL    HW2 8417   5.553   2.847  11.054 -0.0054 -0.7792 -0.8129
 2326SOL     OW 8418   2.817   6.613   7.868 -0.2363  0.0461  0.0858
 2326SOL    HW1 8419   2.877   6.683   7.841 -0.6990  0.0495 -0.9557
 2326SOL    HW2 8420   2.730   6.647   7.849 -0.5347 -0.3483  0.6948
 2327SOL     OW 8421   7.915   4.063   8.700  0.1081 -0.0692  0.1317
 2327SOL    HW1 8422   8.007   4.040   8.686 -0.0567 -1.2181  0.7323
 2327SOL    HW2 8423   7.887   4.105   8.619  0.7183 -1.2563 -0.7190
 2328SOL     OW 8424   1.629   0.654   1.226  0.2930  0.7126  0.3828
 2328SOL    HW1 8425   1.721   0.658   1.251  0.3973  2.2796 -0.1442
 2328SOL    HW2 8426   1.630   0.623   1.136  0.2307 -0.1410  0.6662
 2329SOL     OW 8427   7.724   2.284   3.204  0.2679 -0.3398  0.0930
 2329SOL    HW1 8428   7.649   2.279   3.264  1.7274 -0.2046  2.0484
 2329SOL    HW2 8429   7.766   2.198   3.210  0.1539 -0.4973 -1.1658
 2330SOL     OW 8430   3.964   3.211   9.553 -0.4119  0.2935  0.2369
 2330SOL    HW1 8431   4.052   3.179   9.532 -0.3778  0.1060  0.6603
 2330SOL    HW2 8432   3.944   3.173   9.638  0.0915  2.3373  1.3199
 2331SOL     OW 8433   4.548   3.742   4.783 -0.0455  0.5286 -0.4343
 2331SOL    HW1 8434   4.638   3.768   4.804 -0.2869  0.7667  0.3447
 2331SOL    HW2 8435   4.538   3.763   4.690  1.3104 -1.2791 -1.0481
 2332SOL     OW 8436   1.686   3.177   9.475 -0.0104 -0.4733 -0.5404
 2332SOL    HW1 8437   1.743   3.239   9.521 -0.1213 -0.9133  0.2118
 2332SOL    HW2 8438   1.746   3.120   9.427  0.3566 -2.0517  1.6330
 2333SOL     OW 8439   4.328   4.411   9.077  0.3275 -0.0102  0.4121
 2333SOL    HW1 8440   4.397   4.354   9.043 -0.6478 -1.2900  0.4911
 2333SOL    HW2 8441   4.321   4.482   9.013  0.9412 -0.4790 -0.1882
 2334SOL     OW 8442   1.206   2.173   6.420  0.4149 -0.4921 -0.4104
 2334SOL    HW1 8443   1.237   2.251   6.466 -0.2422 -1.1357  1.1968
 2334SOL    HW2 8444   1.123   2.199   6.381 -0.4940 -0.6997  1.2618
 2335SOL     OW 8445   3.146   1.372   2.907 -0.2823  0.1356  0.1146
 2335SOL    HW1 8446   3.182   1.382   2.819 -1.4857  0.7654 -0.3269
 2335SOL    HW2 8447   3.194   1.297   2.944  0.9417  0.4889 -0.6894
 2336SOL     OW 8448   2.370   6.018   2.822  0.0853 -0.1697 -0.1518
 2336SOL    HW1 8449   2.407   5.933   2.848  1.9463  0.3528 -0.8653
 2336SOL    HW2 8450   2.422   6.044   2.746 -0.1196  1.8244  0.3255
 2337SOL     OW 8451   5.088   0.823   0.612  0.4659 -0.6874  0.0120
 2337SOL    HW1 8452   5.057   0.875   0.686  0.8815 -1.2657  0.5958
 2337SOL    HW2 8453   5.023   0.754   0.602  0.9944 -1.2739  0.5609
 2338SOL     OW 8454   0.027   1.341   8.747  0.2178  0.4582 -0.8195
 2338SOL    HW1 8455  -0.068   1.345   8.731 -0.1084 -1.4691  0.2827
 2338SOL    HW2 8456   0.047   1.421   8.795 -0.7608  1.1303 -1.5001
 2339SOL     OW 8457   0.859   0.597  10.979  0.6073  0.6412  0.0786
 2339SOL    HW1 8458   0.766   0.614  10.968  0.2562 -0.8317  0.5427
 2339SOL    HW2 8459   0.879   0.629  11.067  0.4216  0.4789  0.1797
 2340SOL     OW 8460   4.215   1.693   1.112 -0.1061  0.3725 -0.2319
 2340SOL    HW1 8461   4.272   1.746   1.168 -0.5994 -0.5662  1.2468
 2340SOL    HW2 8462   4.127   1.712   1.143 -0.2270 -3.0356  2.1521
 2341SOL     OW 8463   4.609   2.626   1.521 -0.3728  0.2649  0.1958
 2341SOL    HW1 8464   4.578   2.657   1.606  1.7182 -0.1483  1.1773
 2341SOL    HW2 8465   4.681   2.567   1.542 -2.0656 -2.6986 -1.7392
 2342SOL     OW 8466   6.255   5.111   8.004 -0.1465 -0.0353 -0.4744
 2342SOL    HW1 8467   6.194   5.160   8.059  1.6429  1.7126  0.1060
 2342SOL    HW2 8468   6.309   5.178   7.962  0.9018 -1.4561 -1.5247
 2343SOL     OW 8469   2.652   4.473   8.258  0.2611 -0.3644 -0.4205
 2343SOL    HW1 8470   2.646   4.416   8.335 -0.4732 -0.0153 -0.2125
 2343SOL    HW2 8471   2.715   4.540   8.284 -1.6794  1.0807  0.7736
 2344SOL     OW 8472   5.369   3.547   6.511 -0.1559  0.3909 -0.5579
 2344SOL    HW1 8473   5.415   3.589   6.438 -0.9745  2.1619 -0.1225
 2344SOL    HW2 8474   5.288   3.515   6.472 -1.0198  2.1466 -0.3270
 2345SOL     OW 8475   3.293   5.057   2.075  0.1741 -0.2390 -0.2351
 2345SOL    HW1 8476   3.309   4.983   2.017 -2.6047  0.6545 -2.3131
 2345SOL    HW2 8477   3.320   5.025   2.162  0.1672 -3.2417 -1.2276
 2346SOL     OW 8478   4.792   6.207   4.447 -0.0917 -0.1081 -0.0952
 2346SOL    HW1 8479   4.814   6.185   4.537 -2.0202 -3.2999 -0.2440
 2346SOL    HW2 8480   4.872   6.190   4.397  0.0171 -1.6770  0.5862
 2347SOL     OW 8481   2.110   1.467   6.367 -0.0507 -0.1160  0.4851
 2347SOL    HW1 8482   2.065   1.500   6.445 -0.1078  1.3565 -0.1573
 2347SOL    HW2 8483   2.040   1.432   6.312 -0.5729  2.7723 -0.8128
 2348SOL     OW 8484   6.367   7.122  10.560  0.1464  0.5681 -0.1735
 2348SOL    HW1 8485   6.319   7.054  10.512 -0.6234  0.8913  0.1122
 2348SOL    HW2 8486   6.430   7.155  10.497  0.8597 -0.7248 -0.1741
 2349SOL     OW 8487   7.310   3.297  10.291  0.3379  0.0660 -0.0832
 2349SOL    HW1 8488   7.346   3.386  10.290  0.2756  0.1259  1.2622
 2349SOL    HW2 8489   7.221   3.308  10.325  0.7481 -0.6328  1.2880
 2350SOL     OW 8490   2.604   1.785  10.587 -0.3289  0.0253 -0.4447
 2350SOL    HW1 8491   2.574   1.696  10.606 -0.2386 -0.3259 -1.8336
 2350SOL    HW2 8492   2.525   1.832  10.559  0.0378 -0.3764 -2.2715
 2351SOL     OW 8493   5.625   6.272  12.276 -0.6319 -0.1775  0.0931
 2351SOL    HW1 8494   5.688   6.314  12.334 -1.0204  0.7447 -0.1351
 2351SOL    HW2 8495   5.651   6.180  12.275  0.3927  0.0996  0.3954
 2352SOL     OW 8496   2.709   4.165   4.155  0.0942 -0.0398  0.1719
 2352SOL    HW1 8497   2.618   4.137   4.151  0.2086 -0.4645  0.4262
 2352SOL    HW2 8498   2.726   4.176   4.249 -0.9311  4.2356  0.0875
 2353SOL     OW 8499   2.218   5.090   0.534  0.1041  0.2330  0.5114
 2353SOL    HW1 8500   2.145   5.032   0.513  0.0700  0.4046  0.1390
 2353SOL    HW2 8501   2.201   5.169   0.482 -0.4341  1.0214  1.8267
 2354SOL     OW 8502   6.012   5.111   7.113 -0.0718 -0.3916  0.1264
 2354SOL    HW1 8503   6.068   5.158   7.175  0.7718 -1.4118  0.1801
 2354SOL    HW2 8504   6.032   5.018   7.129  0.6539 -0.6694 -2.0856
 2355SOL     OW 8505   3.435   5.377   2.250 -0.2523 -0.0332  0.4319
 2355SOL    HW1 8506   3.474   5.333   2.325  0.0114  1.2023  1.0529
 2355SOL    HW2 8507   3.503   5.374   2.183 -0.1584 -0.3756  0.5403
 2356SOL     OW 8508   7.678   0.447   5.528 -0.3063 -0.1918 -0.0670
 2356SOL    HW1 8509   7.747   0.496   5.574 -0.7578  0.6127 -0.2367
 2356SOL    HW2 8510   7.671   0.365   5.577  0.3091 -0.0043  0.3538
 2357SOL     OW 8511   6.513   2.250   9.059  0.5099  0.0677  0.0831
 2357SOL    HW1 8512   6.550   2.214   9.140  2.8592 -1.0387 -1.3555
 2357SOL    HW2 8513   6.542   2.341   9.058  0.6848  0.0173  0.3606
 2358SOL     OW 8514   2.967   5.612  11.404  0.0742 -0.5434  0.5163
 2358SOL    HW1 8515   2.950   5.585  11.494  1.1546 -0.4644  0.7598
 2358SOL    HW2 8516   3.053   5.576  11.383  0.6540  0.9532  0.1491
 2359SOL     OW 8517   2.762   1.737   3.448  0.3647 -0.2855  0.0567
 2359SOL    HW1 8518   2.779   1.764   3.358  0.4482 -1.2391 -0.2274
 2359SOL    HW2 8519   2.772   1.642   3.446 -0.8609 -0.4550  0.7925
 2360SOL     OW 8520   3.225   3.081   0.859  0.3753 -0.2271  0.1467
 2360SOL    HW1 8521   3.220   3.176   0.846 -1.6263 -0.3603 -0.4576
 2360SOL    HW2 8522   3.191   3.067   0.947  0.4391 -0.3855  0.1457
 2361SOL     OW 8523   0.259   3.811   0.756  0.4060 -0.4448 -0.3176
 2361SOL    HW1 8524   0.296   3.723   0.751 -2.5341 -1.8602  0.8455
 2361SOL    HW2 8525   0.164   3.799   0.750 -0.1864  2.5486  0.8936
 2362SOL     OW 8526   7.649   5.353   3.822  0.4046 -0.0427  0.1857
 2362SOL    HW1 8527   7.636   5.403   3.741 -1.5159  0.0012  0.4823
 2362SOL    HW2 8528   7.733   5.385   3.856  0.4471  1.1447 -0.9327
 2363SOL     OW 8529   4.399   6.032  10.307 -0.0162 -0.1942  0.2139
 2363SOL    HW1 8530   4.366   5.963  10.364  1.6824 -0.3305  1.0914
 2363SOL    HW2 8531   4.471   6.072  10.356 -0.7816  2.0817 -0.3548
 2364SOL     OW 8532   2.016   6.587   3.718 -0.2787  0.1825 -0.1662
 2364SOL    HW1 8533   2.109   6.601   3.736 -0.8987  1.1461  2.9260
 2364SOL    HW2 8534   2.001   6.634   3.635  1.6504  1.4570  0.1172
 2365SOL     OW 8535   0.408   1.727   3.924  0.3049 -0.9239  0.3383
 2365SOL    HW1 8536   0.460   1.648   3.940  0.6025 -1.0624 -1.1688
 2365SOL    HW2 8537   0.471   1.790   3.889 -0.2725 -0.6196 -0.1561
 2366SOL     OW 8538   3.915   2.945   0.334  0.3467 -0.4512  0.5325
 2366SOL    HW1 8539   3.825   2.968   0.357  0.8948  1.2976  1.0817
 2366SOL    HW2 8540   3.946   2.892   0.407  0.6300  1.3063  1.7448
 2367SOL     OW 8541   4.898   5.757   1.150  0.2568 -0.3360  0.6857
 2367SOL    HW1 8542   4.957   5.832   1.151  1.2862 -1.1063  0.2109
 2367SOL    HW2 8543   4.857   5.757   1.236  1.4611 -0.1630  1.2870
 2368SOL     OW 8544   4.663   6.690   6.912  0.0832 -0.1241 -0.2458
 2368SOL    HW1 8545   4.574   6.656   6.924  0.9247 -2.5604 -0.3977
 2368SOL    HW2 8546   4.664   6.771   6.962 -2.0011 -0.4319  0.4061
 2369SOL     OW 8547   3.171   4.485  10.426  0.1252  0.0434  0.3532
 2369SOL    HW1 8548   3.211   4.434  10.497  0.9392 -0.4385 -0.4325
 2369SOL    HW2 8549   3.122   4.421  10.375  0.0276  0.2891  0.1363
 2370SOL     OW 8550   7.930   6.685   8.886 -0.3101 -0.5779 -0.1993
 2370SOL    HW1 8551   7.997   6.653   8.945 -0.1269  0.1922  0.0143
 2370SOL    HW2 8552   7.967   6.763   8.846 -1.7544  0.9513  1.3081
 2371SOL     OW 8553   6.352   6.857  11.711 -0.0499  0.0279 -1.0274
 2371SOL    HW1 8554   6.284   6.796  11.682  0.2034 -0.4999 -0.5367
 2371SOL    HW2 8555   6.358   6.921  11.641 -1.9046  0.7878 -0.5503
 2372SOL     OW 8556   2.907   5.439   1.001  0.1629  0.8241  0.5986
 2372SOL    HW1 8557   2.936   5.369   0.943 -0.3580  0.5383  0.6750
 2372SOL    HW2 8558   2.821   5.465   0.967  0.2452  1.2596  0.7139
 2373SOL     OW 8559   3.148   3.145   4.408 -0.2037  0.0283  0.6572
 2373SOL    HW1 8560   3.186   3.118   4.324  1.1845 -1.0726  1.5800
 2373SOL    HW2 8561   3.064   3.185   4.385  0.4743  0.4492 -1.3046
 2374SOL     OW 8562   7.420   0.760   6.870 -0.5465 -0.2840 -0.1478
 2374SOL    HW1 8563   7.429   0.856   6.864 -0.8370 -0.1413  1.3923
 2374SOL    HW2 8564   7.360   0.746   6.942 -0.8634 -1.6429 -0.6502
 2375SOL     OW 8565   7.286   3.227   0.093  0.5036 -0.3285 -0.1088
 2375SOL    HW1 8566   7.237   3.265   0.166 -0.3819 -0.0366 -0.8345
 2375SOL    HW2 8567   7.376   3.258   0.106  0.2836  0.0359  0.6361
 2376SOL     OW 8568   6.012   7.831   4.025 -0.2024 -0.2624 -0.4152
 2376SOL    HW1 8569   6.094   7.795   4.059 -0.2785  0.9059  1.1153
 2376SOL    HW2 8570   5.986   7.770   3.956  0.5669 -2.1410  0.8674
 2377SOL     OW 8571   2.723   5.353   0.494 -0.3309 -0.0591  0.6432
 2377SOL    HW1 8572   2.708   5.262   0.518  1.5352 -0.3483  0.8193
 2377SOL    HW2 8573   2.694   5.358   0.402 -0.8030 -0.7130  0.7456
 2378SOL     OW 8574   6.015   2.808   4.033  0.2040  0.2569  0.2329
 2378SOL    HW1 8575   6.040   2.845   3.948  1.2098 -1.7329 -0.3908
 2378SOL    HW2 8576   5.920   2.818   4.036  0.1125  0.0565 -1.3080
 2379SOL     OW 8577   4.833   7.228   9.525 -0.0929 -0.2034 -0.0321
 2379SOL    HW1 8578   4.844   7.323   9.518  0.7178 -0.1019  1.9723
 2379SOL    HW2 8579   4.739   7.215   9.533 -0.1913  0.4459 -0.0375
 2380SOL     OW 8580   3.612   1.995  10.178  0.2555 -0.4904 -0.0829
 2380SOL    HW1 8581   3.647   2.017  10.092  2.5356 -1.5995  0.4923
 2380SOL    HW2 8582   3.684   2.013  10.239 -1.5977  1.1619  1.7571
 2381SOL     OW 8583   0.894   0.346   0.845  0.3012 -0.1253  0.2816
 2381SOL    HW1 8584   0.972   0.341   0.900 -0.1173  1.8394  1.1167
 2381SOL    HW2 8585   0.824   0.371   0.905 -0.7391 -0.5941 -0.6927
 2382SOL     OW 8586   1.365   0.444   7.551 -0.0120 -0.2611  0.3429
 2382SOL    HW1 8587   1.339   0.367   7.500  0.4176  0.3150 -0.7786
 2382SOL    HW2 8588   1.388   0.409   7.637 -0.3682 -1.3152  0.0226
 2383SOL     OW 8589   3.393   2.103   5.075 -0.4798  0.0885  0.5073
 2383SOL    HW1 8590   3.469   2.055   5.106 -0.5105  0.3003  0.9146
 2383SOL    HW2 8591   3.338   2.037   5.033 -0.0784 -0.0669  0.2248
 2384SOL     OW 8592   1.047   0.923   0.712 -0.1096 -0.0413  0.2587
 2384SOL    HW1 8593   1.050   1.018   0.728 -1.0580  0.0437 -0.0305
 2384SOL    HW2 8594   1.071   0.885   0.796  3.0007  0.4395 -0.3037
 2385SOL     OW 8595   6.347   1.579   7.164  0.2037  0.2555 -0.1347
 2385SOL    HW1 8596   6.323   1.524   7.238 -1.0934  1.4672  0.3854
 2385SOL    HW2 8597   6.355   1.519   7.090 -0.0929 -0.7625  0.6513
 2386SOL     OW 8598   5.628   2.245   7.695  0.0192 -0.6151 -0.0588
 2386SOL    HW1 8599   5.636   2.225   7.788  0.4010 -1.3306 -0.2365
 2386SOL    HW2 8600   5.566   2.318   7.691  1.5480  0.8178  0.9119
 2387SOL     OW 8601   6.659   7.357  11.796  0.4037 -0.0572  0.1941
 2387SOL    HW1 8602   6.568   7.384  11.780  0.1775 -0.8788  0.0131
 2387SOL    HW2 8603   6.691   7.419  11.861 -1.0671 -1.1209  2.0529
 2388SOL     OW 8604   0.078   3.073  11.110 -0.6832  0.5952  0.1031
 2388SOL    HW1 8605   0.079   3.067  11.015 -1.3522 -0.4644  0.1374
 2388SOL    HW2 8606   0.003   3.020  11.136  0.8089 -1.0895  1.3155
 2389SOL     OW 8607   7.092   1.017   4.290  0.2708 -0.0394  0.0456
 2389SOL    HW1 8608   7.011   1.019   4.340 -2.4322 -4.5613 -3.3371
 2389SOL    HW2 8609   7.152   0.967   4.345 -1.1509 -1.2450  0.5746
 2390SOL     OW 8610   7.646   2.329  12.076 -0.4653 -0.7484  0.0621
 2390SOL    HW1 8611   7.738   2.324  12.104 -0.5805  0.8882  0.8362
 2390SOL    HW2 8612   7.599   2.277  12.140 -0.2780 -0.1269  0.7127
 2391SOL     OW 8613   2.282   0.916   2.963 -0.2730 -0.3452 -0.4505
 2391SOL    HW1 8614   2.232   0.940   3.041  1.0879  0.5347  0.2000
 2391SOL    HW2 8615   2.345   0.850   2.994  0.6547  0.4253 -0.6419
 2392SOL     OW 8616   1.061   0.805  10.639 -0.1619 -0.0683  0.1047
 2392SOL    HW1 8617   1.031   0.861  10.711 -0.5823 -0.6258  0.3707
 2392SOL    HW2 8618   1.005   0.830  10.565 -0.7610 -0.5390  0.3829
 2393SOL     OW 8619   5.941   0.602   8.744 -0.3471  0.2275 -0.2572
 2393SOL    HW1 8620   5.898   0.537   8.799  1.5687 -0.0489  0.9851
 2393SOL    HW2 8621   5.898   0.685   8.767 -1.9920 -0.3733 -1.0075
 2394SOL     OW 8622   6.944   2.049  11.672 -0.1870 -0.1390  0.1792
 2394SOL    HW1 8623   6.994   2.107  11.730 -0.1807 -0.4929  0.5269
 2394SOL    HW2 8624   6.996   2.046  11.592 -0.4328  0.7256 -0.0248
 2395SOL     OW 8625   2.855   1.039  10.632 -0.4810  0.2105 -0.0862
 2395SOL    HW1 8626   2.943   1.004  10.618  0.6965  2.5664  0.8935
 2395SOL    HW2 8627   2.832   1.080  10.548 -0.6983 -0.4763 -0.3682
 2396SOL     OW 8628   5.228   5.301   8.410 -0.5187 -0.9281 -0.0168
 2396SOL    HW1 8629   5.288   5.260   8.347  0.5189  1.9503 -1.0449
 2396SOL    HW2 8630   5.192   5.227   8.460  1.2120 -3.0472 -1.6970
 2397SOL     OW 8631   5.204   4.375   4.203  0.1348 -0.6094 -0.4075
 2397SOL    HW1 8632   5.185   4.360   4.110  0.0227 -0.1132 -0.4662
 2397SOL    HW2 8633   5.275   4.314   4.222  1.2610  0.3954 -1.2379
 2398SOL     OW 8634   6.880   1.098   8.539 -0.0188 -0.7408  0.6678
 2398SOL    HW1 8635   6.947   1.078   8.473  0.9172  0.2746  1.2774
 2398SOL    HW2 8636   6.819   1.024   8.534 -0.2740 -0.4330 -1.6853
 2399SOL     OW 8637   6.143   0.353   5.210 -0.1641  0.2376  0.7007
 2399SOL    HW1 8638   6.174   0.406   5.284 -0.4781 -0.1330  1.1035
 2399SOL    HW2 8639   6.150   0.263   5.241  0.2819  0.0476  0.0487
 2400SOL     OW 8640   2.394   1.035   4.061 -0.1093 -0.3173 -0.1287
 2400SOL    HW1 8641   2.342   1.065   4.136 -0.1941 -1.0280  0.1004
 2400SOL    HW2 8642   2.485   1.047   4.090 -0.1412 -0.3171 -0.0283
 2401SOL     OW 8643   3.370   7.841   9.845 -0.2788 -0.0628 -0.2427
 2401SOL    HW1 8644   3.381   7.901   9.772  1.1192  1.4401  1.1041
 2401SOL    HW2 8645   3.289   7.868   9.888  0.8841  1.6849  0.9879
 2402SOL     OW 8646   7.649   1.400   4.913  0.1403  0.1861  0.3021
 2402SOL    HW1 8647   7.625   1.432   4.825  1.3860 -1.6555 -0.7747
 2402SOL    HW2 8648   7.623   1.309   4.913  0.2744  0.1351  1.8305
 2403SOL     OW 8649   3.207   1.287   4.216  0.5227 -0.1759 -0.0409
 2403SOL    HW1 8650   3.254   1.353   4.166 -1.6166  0.0410 -1.9436
 2403SOL    HW2 8651   3.219   1.205   4.167 -1.3145 -0.0335 -0.8241
 2404SOL     OW 8652   0.602   1.932   9.287  0.1554  0.4494 -0.2617
 2404SOL    HW1 8653   0.599   2.025   9.266  0.9395  0.0608 -2.3770
 2404SOL    HW2 8654   0.678   1.922   9.345 -0.3953  1.2153  0.6008
 2405SOL     OW 8655   6.295   5.185   2.208 -0.1460  0.8156  0.0593
 2405SOL    HW1 8656   6.297   5.276   2.236 -0.0984  0.9422 -0.3508
 2405SOL    HW2 8657   6.256   5.138   2.281  0.7988  1.0090  0.7032
 2406SOL     OW 8658   5.271   7.513  10.726 -0.5267  0.3436  0.1314
 2406SOL    HW1 8659   5.271   7.559  10.642 -0.9759  0.2987  0.1071
 2406SOL    HW2 8660   5.205   7.444  10.716  1.4027 -1.5255 -0.4948
 2407SOL     OW 8661   5.406   5.776  10.282  0.5958 -0.7875  0.0045
 2407SOL    HW1 8662   5.369   5.782  10.194  1.5048 -1.4863 -0.4380
 2407SOL    HW2 8663   5.427   5.683  10.293 -1.6508 -1.1805  1.8702
 2408SOL     OW 8664   2.567   5.161   0.319  0.0531  0.2983 -0.4494
 2408SOL    HW1 8665   2.649   5.112   0.317  0.0649  0.3295 -0.8089
 2408SOL    HW2 8666   2.532   5.146   0.406  0.4521  0.3033 -0.2852
 2409SOL     OW 8667   5.057   4.119   4.621 -0.1291  0.0785  0.1349
 2409SOL    HW1 8668   5.127   4.087   4.678  0.5877  0.0930 -0.7142
 2409SOL    HW2 8669   5.100   4.134   4.537 -0.4192  3.1325  0.4107
 2410SOL     OW 8670   6.937   3.846  10.509 -0.0275 -0.0526  0.1724
 2410SOL    HW1 8671   6.935   3.752  10.526  1.3498 -0.0897  0.2496
 2410SOL    HW2 8672   7.021   3.875  10.544 -0.5251  1.2524  0.3473
 2411SOL     OW 8673   7.495   1.328   6.858 -0.0247  0.3212  0.4410
 2411SOL    HW1 8674   7.404   1.324   6.885  0.0523 -0.2280  0.6456
 2411SOL    HW2 8675   7.527   1.411   6.892  0.0729 -0.3515  2.0934
 2412SOL     OW 8676   5.635   7.225  10.455  0.2992 -0.9536  0.2000
 2412SOL    HW1 8677   5.593   7.141  10.433  1.1893 -1.7369  1.3635
 2412SOL    HW2 8678   5.726   7.213  10.429 -0.1769  0.9067 -2.7592
 2413SOL     OW 8679   1.944   3.754  10.456  0.4182  0.0467  0.3787
 2413SOL    HW1 8680   1.948   3.848  10.477 -0.2183  0.3650 -0.8618
 2413SOL    HW2 8681   2.035   3.724  10.463  0.7326  0.9069  0.1068
 2414SOL     OW 8682   2.965   7.897   3.953 -0.0850 -0.0956  0.1549
 2414SOL    HW1 8683   2.898   7.964   3.966 -1.7695 -1.7403  0.4879
 2414SOL    HW2 8684   3.037   7.942   3.910 -1.0875  1.9359  0.5087
 2415SOL     OW 8685   4.784   2.769   3.823  0.2749  0.7521  0.0843
 2415SOL    HW1 8686   4.731   2.761   3.903 -1.8230 -1.2050 -1.3658
 2415SOL    HW2 8687   4.724   2.745   3.752  2.6187  0.3499 -1.8985
 2416SOL     OW 8688   4.306   4.831   6.273 -0.1610  0.4615  0.3611
 2416SOL    HW1 8689   4.308   4.827   6.178  1.5475 -0.3138  0.3882
 2416SOL    HW2 8690   4.300   4.924   6.294 -1.0968  0.6077 -0.4790
 2417SOL     OW 8691   6.493   3.629   2.254 -0.0022 -0.3374  0.0316
 2417SOL    HW1 8692   6.457   3.559   2.309  0.5574  1.3331  2.6630
 2417SOL    HW2 8693   6.559   3.585   2.200  0.7279 -1.8094  2.0014
 2418SOL     OW 8694   7.113   3.363   9.301 -0.4199  0.3450 -0.1932
 2418SOL    HW1 8695   7.175   3.362   9.228 -0.3107 -0.6937 -0.0992
 2418SOL    HW2 8696   7.139   3.438   9.354  1.2501 -0.5110  0.2581
 2419SOL     OW 8697   1.786   5.027   7.036  0.2664  0.5063  0.2486
 2419SOL    HW1 8698   1.813   5.077   6.959 -1.3584 -0.3516 -0.9478
 2419SOL    HW2 8699   1.708   5.073   7.067 -0.0834 -0.1468  0.3380
 2420SOL     OW 8700   1.778   1.809   8.940  0.6784 -0.4160 -0.7534
 2420SOL    HW1 8701   1.739   1.722   8.936 -0.0930 -0.1920  1.0879
 2420SOL    HW2 8702   1.712   1.866   8.900  1.1083 -0.6277 -1.7960
 2421SOL     OW 8703   2.269   7.290  10.796 -0.6316  0.1574  0.7700
 2421SOL    HW1 8704   2.297   7.259  10.881  0.9828  1.1508  0.6412
 2421SOL    HW2 8705   2.262   7.211  10.742  1.4884 -0.2272  0.9603
 2422SOL     OW 8706   1.691   3.892   8.686 -0.5063  0.3400 -0.0294
 2422SOL    HW1 8707   1.735   3.932   8.761 -0.1119  1.4960 -0.8317
 2422SOL    HW2 8708   1.599   3.918   8.696 -0.8265 -1.0960  1.0283
 2423SOL     OW 8709   1.021   5.399   0.175 -0.0201  0.4364 -0.2278
 2423SOL    HW1 8710   1.072   5.382   0.096 -1.9595 -1.5928 -1.1282
 2423SOL    HW2 8711   1.027   5.317   0.225 -1.5628  0.5059  0.1049
 2424SOL     OW 8712   3.041   5.022   6.621 -0.0523 -0.3508 -0.2264
 2424SOL    HW1 8713   2.971   5.077   6.656  2.1420  2.6921 -0.2417
 2424SOL    HW2 8714   3.086   5.078   6.557  1.8679 -2.4764 -0.8761
 2425SOL     OW 8715   7.671   4.006   0.261 -0.1200  0.2721 -0.2234
 2425SOL    HW1 8716   7.701   4.089   0.224  2.5614 -0.6416 -0.3412
 2425SOL    HW2 8717   7.668   4.020   0.355 -0.2782  0.6603 -0.2854
 2426SOL     OW 8718   1.277   1.872   7.881 -0.4761 -0.4452  0.6681
 2426SOL    HW1 8719   1.254   1.949   7.828  1.4249 -0.7688 -0.7436
 2426SOL    HW2 8720   1.340   1.905   7.945 -0.3459 -0.6425  0.6434
 2427SOL     OW 8721   0.103   2.320  11.364  0.1947  0.6063 -0.0971
 2427SOL    HW1 8722   0.179   2.318  11.421 -1.5524 -2.7601  2.4598
 2427SOL    HW2 8723   0.045   2.385  11.404  0.0444  0.1569  0.4172
 2428SOL     OW 8724   5.724   7.831  10.593 -0.1955 -0.4741  0.0270
 2428SOL    HW1 8725   5.773   7.849  10.673  0.1863  0.3645 -0.3792
 2428SOL    HW2 8726   5.708   7.737  10.595  1.2861 -0.7554  0.2614
 2429SOL     OW 8727   3.198   2.544   0.132 -0.2533  0.0989 -0.1598
 2429SOL    HW1 8728   3.161   2.492   0.061  2.2875 -0.3886 -1.1952
 2429SOL    HW2 8729   3.252   2.483   0.182  0.2250  1.0589  0.5248
 2430SOL     OW 8730   2.713   1.728  11.450 -0.0518 -0.4347 -0.2161
 2430SOL    HW1 8731   2.743   1.800  11.505 -1.1757 -1.4395  1.8505
 2430SOL    HW2 8732   2.768   1.654  11.475  0.5717 -0.5401 -1.7515
 2431SOL     OW 8733   4.351   4.224  10.094  0.3591 -0.0728 -0.0254
 2431SOL    HW1 8734   4.288   4.212  10.023  2.0933  2.4735 -2.1764
 2431SOL    HW2 8735   4.356   4.319  10.106  1.9036 -0.3288  1.8338
 2432SOL     OW 8736   1.935   3.342   1.960 -0.6284  0.1966  0.1006
 2432SOL    HW1 8737   1.948   3.249   1.939 -1.1068 -0.2002  1.5000
 2432SOL    HW2 8738   2.020   3.382   1.940 -0.0889 -0.7214  0.4532
 2433SOL     OW 8739   6.927   6.141   3.077  0.3081  0.5500  0.4218
 2433SOL    HW1 8740   6.953   6.052   3.052 -1.5130  0.5691 -1.8609
 2433SOL    HW2 8741   6.857   6.128   3.141 -0.1257  0.3018 -0.0921
 2434SOL     OW 8742   3.026   0.836   8.633  0.1868 -0.2433 -0.1459
 2434SOL    HW1 8743   3.066   0.863   8.550 -1.5312  2.1124 -0.3081
 2434SOL    HW2 8744   3.084   0.874   8.699  0.2577 -0.0472 -0.3163
 2435SOL     OW 8745   5.013   6.453   9.276 -1.0342  0.2275  0.2957
 2435SOL    HW1 8746   4.935   6.451   9.221 -0.9720  1.2544  0.1503
 2435SOL    HW2 8747   4.979   6.467   9.365 -1.0570 -0.1170  0.3430
 2436SOL     OW 8748   2.492   7.234   6.395  0.4051 -0.3893  0.6075
 2436SOL    HW1 8749   2.398   7.220   6.387  0.4523 -0.1892 -0.4671
 2436SOL    HW2 8750   2.528   7.206   6.311  1.0337  1.7484  0.1178
 2437SOL     OW 8751   2.152   5.838   6.937  0.9001  0.2071 -0.4266
 2437SOL    HW1 8752   2.185   5.796   7.016  1.4015  0.9898 -0.2136
 2437SOL    HW2 8753   2.131   5.927   6.964  1.1947  0.5160 -1.2078
 2438SOL     OW 8754   5.562   0.122   7.169 -0.7154 -0.2874  0.0775
 2438SOL    HW1 8755   5.561   0.210   7.132 -0.0186 -0.2584  0.1124
 2438SOL    HW2 8756   5.469   0.098   7.178 -0.9094  0.4786  0.1675
 2439SOL     OW 8757   2.429   0.856   2.178  0.1555 -0.0907 -0.6882
 2439SOL    HW1 8758   2.460   0.855   2.088  0.5897 -0.4946 -0.5324
 2439SOL    HW2 8759   2.508   0.850   2.231 -0.1467 -0.5562 -0.2866
 2440SOL     OW 8760   0.277   0.072  11.463  0.0436  0.7150  0.4061
 2440SOL    HW1 8761   0.364   0.093  11.430 -0.6976  0.4055 -1.8990
 2440SOL    HW2 8762   0.279  -0.022  11.480  0.2795  0.7911  0.8263
 2441SOL     OW 8763   2.013   5.631   3.665  0.2426 -0.3858  0.6116
 2441SOL    HW1 8764   1.973   5.588   3.741 -0.9647 -0.1405  0.1349
 2441SOL    HW2 8765   2.057   5.560   3.618  0.9759 -0.5469  1.4970
 2442SOL     OW 8766   4.439   5.682   6.461  0.4169  0.4203  0.1945
 2442SOL    HW1 8767   4.345   5.691   6.445  0.1913  1.4446  1.8972
 2442SOL    HW2 8768   4.476   5.664   6.374 -1.1102  2.0680 -0.8712
 2443SOL     OW 8769   1.808   0.444   5.133 -0.0642 -0.1687 -0.2668
 2443SOL    HW1 8770   1.771   0.366   5.172 -1.7738  0.1520 -1.1144
 2443SOL    HW2 8771   1.762   0.517   5.176 -2.0530  0.1876 -2.7430
 2444SOL     OW 8772   5.843   7.072   7.022 -0.2594  0.2609 -0.8493
 2444SOL    HW1 8773   5.924   7.056   6.974  0.5082  0.6348  0.2902
 2444SOL    HW2 8774   5.871   7.113   7.104 -1.6148  0.5829 -0.5210
 2445SOL     OW 8775   5.143   5.085  11.589 -0.3289 -0.3891 -0.6067
 2445SOL    HW1 8776   5.084   5.122  11.655  0.7246 -0.4713  0.4142
 2445SOL    HW2 8777   5.086   5.063  11.515 -1.5776 -0.5096  0.3605
 2446SOL     OW 8778   3.777   4.636   0.461  0.1481  0.7545 -0.0046
 2446SOL    HW1 8779   3.783   4.645   0.366 -2.7436  0.7661 -0.2825
 2446SOL    HW2 8780   3.753   4.724   0.492 -0.5314  0.4056  0.5083
 2447SOL     OW 8781   4.904   2.421   7.455 -0.4286 -0.2380 -0.1196
 2447SOL    HW1 8782   4.960   2.427   7.533 -1.3896  0.4182  0.5452
 2447SOL    HW2 8783   4.950   2.473   7.389  1.5112 -2.5365 -0.7515
 2448SOL     OW 8784   2.165   2.050   0.480  0.0638 -0.3702  0.5848
 2448SOL    HW1 8785   2.123   2.018   0.559 -0.4254 -0.6052  0.2344
 2448SOL    HW2 8786   2.203   2.135   0.505  0.1122 -0.5495  1.1254
 2449SOL     OW 8787   5.554   3.376   7.535  0.3403  0.1174  0.0093
 2449SOL    HW1 8788   5.525   3.358   7.446  0.7225  0.3984 -0.1739
 2449SOL    HW2 8789   5.522   3.302   7.586 -2.4662  1.3349  0.2186
 2450SOL     OW 8790   3.126   4.787   6.300 -0.1390 -0.0551  0.2855
 2450SOL    HW1 8791   3.137   4.746   6.386  0.1883 -0.6102 -0.0093
 2450SOL    HW2 8792   3.032   4.796   6.289 -0.1988 -0.3242  0.5501
 2451SOL     OW 8793   6.661   5.436   0.252 -0.1386  0.9989 -0.0785
 2451SOL    HW1 8794   6.689   5.416   0.163  0.4809 -0.1918  0.3651
 2451SOL    HW2 8795   6.567   5.454   0.244 -0.2778  0.0297 -0.8512
 2452SOL     OW 8796   7.859   5.684   1.819 -0.0954 -0.4927 -0.0882
 2452SOL    HW1 8797   7.819   5.755   1.869  0.1686 -0.5564  0.2132
 2452SOL    HW2 8798   7.940   5.722   1.784  1.1776 -1.2754  1.8815
 2453SOL     OW 8799   5.448   4.375   9.497  0.0839  0.1975 -0.4879
 2453SOL    HW1 8800   5.542   4.358   9.490  0.4701  1.8711  0.1611
 2453SOL    HW2 8801   5.407   4.289   9.488  1.7399 -0.7332  0.4539
 2454SOL     OW 8802   4.716   5.574  12.433 -0.4192 -0.6108  0.5660
 2454SOL    HW1 8803   4.798   5.608  12.468 -1.1058  0.8211  0.8734
 2454SOL    HW2 8804   4.665   5.550  12.511 -0.0355 -2.1979  0.3577
 2455SOL     OW 8805   3.921   7.803   0.667 -0.8197  0.2833  0.2960
 2455SOL    HW1 8806   3.841   7.786   0.619 -0.6692 -1.4486  0.5895
 2455SOL    HW2 8807   3.894   7.805   0.759 -0.6469  0.4682  0.3430
 2456SOL     OW 8808   7.451   0.318   9.189  0.4145  0.5551  0.3918
 2456SOL    HW1 8809   7.496   0.239   9.219 -1.0562  0.5577  2.8634
 2456SOL    HW2 8810   7.509   0.355   9.123  1.2130 -2.4876 -0.7887
 2457SOL     OW 8811   1.201   3.386   5.453 -0.7994  0.0028 -0.7010
 2457SOL    HW1 8812   1.290   3.355   5.439 -0.4580  0.6293  0.0151
 2457SOL    HW2 8813   1.152   3.353   5.378  0.2568  0.5595 -1.6641
 2458SOL     OW 8814   5.662   1.506   1.865  0.8573 -0.3224  0.0520
 2458SOL    HW1 8815   5.568   1.510   1.845  0.9284 -0.9274 -0.4390
 2458SOL    HW2 8816   5.677   1.414   1.889  1.1611 -0.0399  0.9837
 2459SOL     OW 8817   3.521   0.385   0.428 -0.2119  0.3427 -0.3523
 2459SOL    HW1 8818   3.583   0.448   0.463  0.5381  0.0791 -1.1741
 2459SOL    HW2 8819   3.492   0.335   0.505 -0.0382  1.0029  0.1508
 2460SOL     OW 8820   5.682   0.172   1.347 -0.2268 -0.1136 -0.3663
 2460SOL    HW1 8821   5.588   0.156   1.345 -0.1813 -0.7027  0.8174
 2460SOL    HW2 8822   5.690   0.265   1.365 -0.5967 -0.1530  0.0188
 2461SOL     OW 8823   3.122   0.517   1.721  0.7715 -0.1169 -0.1760
 2461SOL    HW1 8824   3.200   0.561   1.688  2.5975 -1.6121  1.8927
 2461SOL    HW2 8825   3.111   0.441   1.663  0.9244  0.0249 -0.3908
 2462SOL     OW 8826   0.114   6.422   9.904  0.1565  0.9946 -0.0102
 2462SOL    HW1 8827   0.112   6.503   9.956 -0.4905  1.0004 -0.0273
 2462SOL    HW2 8828   0.023   6.392   9.904 -0.0113  1.3865 -1.7341
 2463SOL     OW 8829   6.877   6.134   4.663 -0.0544  0.4903 -0.5884
 2463SOL    HW1 8830   6.786   6.103   4.669  0.1986 -0.4786 -1.4162
 2463SOL    HW2 8831   6.922   6.092   4.735 -0.2891  1.1274 -0.0562
 2464SOL     OW 8832   4.061   7.026   2.749 -0.0125  0.1276 -0.2468
 2464SOL    HW1 8833   4.032   7.001   2.837  0.5477  2.1818  0.5915
 2464SOL    HW2 8834   3.987   7.076   2.713  0.2721  0.4481 -0.3938
 2465SOL     OW 8835   3.834   7.055   2.169 -0.9509 -0.1739  0.2575
 2465SOL    HW1 8836   3.749   7.024   2.202 -0.4220 -0.5391  1.3365
 2465SOL    HW2 8837   3.814   7.137   2.124 -2.0124 -0.7654 -0.3863
 2466SOL     OW 8838   7.449   4.677   9.728  0.0591  0.1274 -0.0891
 2466SOL    HW1 8839   7.505   4.754   9.728  0.9347 -0.4792  1.3425
 2466SOL    HW2 8840   7.360   4.711   9.720  0.4904  1.2208 -0.3119
 2467SOL     OW 8841   2.293   0.328   5.644 -0.0007 -0.5461 -0.0659
 2467SOL    HW1 8842   2.204   0.341   5.677  0.2556  0.3626  0.3090
 2467SOL    HW2 8843   2.341   0.288   5.718  0.3318  0.5997  0.3601
 2468SOL     OW 8844   6.715   4.232   8.895 -0.1372  0.2609 -0.2003
 2468SOL    HW1 8845   6.712   4.234   8.991 -0.6523 -0.8182 -0.1763
 2468SOL    HW2 8846   6.807   4.214   8.874  0.2864  1.9811  0.0279
 2469SOL     OW 8847   0.221   1.673  11.349  0.5242  0.5063 -0.3875
 2469SOL    HW1 8848   0.275   1.717  11.283 -0.3195  1.9281 -0.1625
 2469SOL    HW2 8849   0.267   1.688  11.432 -0.1563  1.6907 -0.2004
 2470SOL     OW 8850   2.144   3.357   2.836 -0.5912  0.2337 -0.3981
 2470SOL    HW1 8851   2.207   3.429   2.843  1.4122 -1.4956  0.7396
 2470SOL    HW2 8852   2.142   3.337   2.742 -0.3596  1.0906 -0.5926
 2471SOL     OW 8853   5.687   3.050   0.059 -0.6099 -0.1166  0.3120
 2471SOL    HW1 8854   5.697   3.040   0.153  0.7185  0.6679  0.2872
 2471SOL    HW2 8855   5.704   3.143   0.043 -0.6899 -0.2649 -0.7209
 2472SOL     OW 8856   2.521   7.459   7.717 -0.3098  0.3320 -0.4163
 2472SOL    HW1 8857   2.531   7.397   7.645  2.1036  1.5355 -1.2039
 2472SOL    HW2 8858   2.549   7.543   7.681 -0.4181  1.2634  1.5232
 2473SOL     OW 8859   1.641   6.471   4.414  0.1741 -0.2275 -0.2954
 2473SOL    HW1 8860   1.689   6.552   4.397  1.4017 -0.4702  1.6679
 2473SOL    HW2 8861   1.568   6.499   4.470 -0.1913 -0.3011 -0.7300
 2474SOL     OW 8862   2.240   0.239   8.795  0.7710  0.7571 -0.1818
 2474SOL    HW1 8863   2.284   0.232   8.710 -1.3703  1.9186 -1.4705
 2474SOL    HW2 8864   2.147   0.228   8.775  0.2426  0.3990  2.1370
 2475SOL     OW 8865   4.241   3.618   6.181  0.1977  0.7981 -0.3768
 2475SOL    HW1 8866   4.235   3.570   6.099  0.0821  1.5775 -0.8357
 2475SOL    HW2 8867   4.185   3.569   6.241  1.3376 -0.5484 -0.3577
 2476SOL     OW 8868   2.691   6.414   4.078 -0.1296  0.1096 -0.4775
 2476SOL    HW1 8869   2.709   6.465   3.999 -0.0607 -0.2327 -0.6896
 2476SOL    HW2 8870   2.777   6.388   4.111 -0.1847 -1.9947 -1.8056
 2477SOL     OW 8871   3.114   7.329   5.591 -0.5554 -0.2537 -0.1431
 2477SOL    HW1 8872   3.197   7.375   5.576  0.5801 -2.4103 -0.8871
 2477SOL    HW2 8873   3.087   7.355   5.679  0.1814  1.5498 -0.4183
 2478SOL     OW 8874   7.106   5.948  11.311 -0.5082 -0.1756 -0.5513
 2478SOL    HW1 8875   7.044   5.913  11.247 -0.4160 -0.5451 -0.4373
 2478SOL    HW2 8876   7.161   5.874  11.335  0.1324  0.2008 -0.8225
 2479SOL     OW 8877   7.607   3.396   5.879  0.5138  0.4752 -0.0033
 2479SOL    HW1 8878   7.554   3.317   5.867  0.6098  0.5059 -0.7271
 2479SOL    HW2 8879   7.690   3.375   5.836  0.6140  0.8894 -0.0169
 2480SOL     OW 8880   6.551   6.289  12.114  0.2244 -0.1619  0.6416
 2480SOL    HW1 8881   6.522   6.326  12.197 -1.3295  1.8852 -0.7268
 2480SOL    HW2 8882   6.491   6.216  12.098  2.0362 -2.2246  2.3558
 2481SOL     OW 8883   4.398   6.629   6.982  0.0998  0.0843 -0.1733
 2481SOL    HW1 8884   4.390   6.618   7.077 -2.0086 -0.9379 -0.4076
 2481SOL    HW2 8885   4.343   6.704   6.962  1.0083  0.6677 -0.5484
 2482SOL     OW 8886   3.015   5.356   1.401  0.0019  0.2954  0.0867
 2482SOL    HW1 8887   2.930   5.342   1.360  0.7743 -0.3891 -1.3309
 2482SOL    HW2 8888   3.079   5.324   1.338  1.3295  0.7001  1.1585
 2483SOL     OW 8889   5.923   5.077   6.568  0.0257  0.5142  0.0948
 2483SOL    HW1 8890   5.956   5.073   6.478  0.9129 -2.5207  0.4431
 2483SOL    HW2 8891   5.990   5.125   6.617  1.6503 -1.4135 -0.1342
 2484SOL     OW 8892   0.247   3.075   4.996  0.3828 -0.7301 -0.0724
 2484SOL    HW1 8893   0.342   3.065   5.000  0.4799 -0.8251 -1.7147
 2484SOL    HW2 8894   0.232   3.169   5.012  0.6054 -0.9508  1.5940
 2485SOL     OW 8895   1.168   2.259   9.122  0.2450  0.4265 -0.1894
 2485SOL    HW1 8896   1.090   2.205   9.130 -0.5135  1.5210  0.0918
 2485SOL    HW2 8897   1.180   2.297   9.209  0.2952  1.3065 -0.5659
 2486SOL     OW 8898   3.521   0.666   2.147 -0.3373 -0.7519 -0.2851
 2486SOL    HW1 8899   3.510   0.574   2.123  1.4147 -1.0160 -0.1946
 2486SOL    HW2 8900   3.443   0.686   2.200 -0.8063 -2.1357 -0.4042
 2487SOL     OW 8901   7.573   2.980  12.222 -0.3510 -0.1342  0.2580
 2487SOL    HW1 8902   7.494   2.978  12.167 -1.7761  0.9944  2.1284
 2487SOL    HW2 8903   7.579   3.071  12.251 -0.0282 -0.7996  2.4201
 2488SOL     OW 8904   4.672   5.317   9.305 -0.4749  0.4225  0.5845
 2488SOL    HW1 8905   4.704   5.388   9.361  1.9099 -1.7111  2.1592
 2488SOL    HW2 8906   4.586   5.295   9.341 -0.1878  0.9475  1.6270
 2489SOL     OW 8907   5.831   2.813  11.186 -0.0757  0.1599 -0.2468
 2489SOL    HW1 8908   5.744   2.794  11.152 -0.6088  0.4595  0.8869
 2489SOL    HW2 8909   5.815   2.862  11.267  1.1885  1.9578 -1.0412
 2490SOL     OW 8910   0.529   3.573   4.530  0.8062 -0.1708  0.9720
 2490SOL    HW1 8911   0.495   3.515   4.462  0.2899  2.0961 -0.8278
 2490SOL    HW2 8912   0.582   3.515   4.586  0.5098 -2.3070 -0.7978
 2491SOL     OW 8913   7.542   7.979  11.677 -0.2479 -0.2651 -0.2779
 2491SOL    HW1 8914   7.463   8.031  11.662  0.0738  0.7473  1.3073
 2491SOL    HW2 8915   7.511   7.889  11.685 -1.4283  0.2439  1.4206
 2492SOL     OW 8916   5.747   2.479   9.733 -0.7549  0.2302 -0.1958
 2492SOL    HW1 8917   5.669   2.483   9.678 -1.0467  1.0048  0.2678
 2492SOL    HW2 8918   5.803   2.549   9.699 -0.8318  0.5499  0.3320
 2493SOL     OW 8919   3.543   5.877   3.056  0.0835 -0.1001  0.2403
 2493SOL    HW1 8920   3.612   5.812   3.070  1.9632  1.6365 -0.5032
 2493SOL    HW2 8921   3.533   5.919   3.141  2.3610  1.8310 -0.3513
 2494SOL     OW 8922   3.610   1.311   0.168 -0.1818 -0.1138 -0.4861
 2494SOL    HW1 8923   3.584   1.390   0.216  1.9913 -0.0484  0.6972
 2494SOL    HW2 8924   3.595   1.334   0.076 -0.9528  1.1295 -0.0883
 2495SOL     OW 8925   3.641   0.002   5.543  0.0762 -0.0393  0.0380
 2495SOL    HW1 8926   3.729   0.031   5.568  1.0519 -0.9285 -2.1336
 2495SOL    HW2 8927   3.628  -0.080   5.591 -0.1841  0.7892  1.4384
 2496SOL     OW 8928   5.013   3.929   6.908 -0.2669  0.1903 -0.2052
 2496SOL    HW1 8929   4.981   3.843   6.936  1.6357 -0.5836 -0.2987
 2496SOL    HW2 8930   4.944   3.989   6.934 -2.6776 -1.5589 -2.0307
 2497SOL     OW 8931   3.063   7.981   7.776  0.4665 -0.2055  0.0510
 2497SOL    HW1 8932   3.129   8.003   7.842  0.6305 -0.2099 -0.1108
 2497SOL    HW2 8933   3.051   7.886   7.784  0.3336 -0.1742  0.2163
 2498SOL     OW 8934   6.949   1.318   5.380 -0.3285  0.2288  0.6125
 2498SOL    HW1 8935   6.867   1.304   5.334 -0.6361 -1.1219  1.4882
 2498SOL    HW2 8936   7.017   1.294   5.317 -0.6091  1.1885 -0.0588
 2499SOL     OW 8937   2.554   5.712   6.175 -0.5888 -0.0414  0.1480
 2499SOL    HW1 8938   2.529   5.620   6.169 -1.5320  0.1893  0.3229
 2499SOL    HW2 8939   2.480   5.754   6.219  0.7783  0.4433  2.0743
 2500SOL     OW 8940   5.223   3.107   1.923  0.6392  0.5291 -0.0109
 2500SOL    HW1 8941   5.156   3.072   1.864  1.0393 -0.7830  0.2758
 2500SOL    HW2 8942   5.239   3.196   1.891  0.6459 -0.0412 -1.6984
 2501SOL     OW 8943   4.873   6.056   5.937  0.6920  0.5845  0.7561
 2501SOL    HW1 8944   4.877   5.964   5.961  0.5334  0.3466 -0.0770
 2501SOL    HW2 8945   4.819   6.097   6.004  1.4805  0.2449  1.6133
 2502SOL     OW 8946   1.389   6.398   8.584  0.5223  0.0869  0.1839
 2502SOL    HW1 8947   1.345   6.342   8.647  1.1629 -1.1225 -0.3982
 2502SOL    HW2 8948   1.352   6.485   8.599  0.9300 -0.0725  2.4621
 2503SOL     OW 8949   3.810   0.725   7.025  0.3580  0.1064 -0.4423
 2503SOL    HW1 8950   3.899   0.691   7.014  0.7012  0.5125  0.9537
 2503SOL    HW2 8951   3.822   0.812   7.061 -0.6294 -0.5848  1.6822
 2504SOL     OW 8952   4.684   2.833  11.111  0.7369 -0.1644 -0.6466
 2504SOL    HW1 8953   4.780   2.831  11.117  0.6742  0.5031  0.9386
 2504SOL    HW2 8954   4.657   2.746  11.141  0.8003  0.1092  0.2179
 2505SOL     OW 8955   7.331   4.340   9.225  0.6964  0.0835 -0.2701
 2505SOL    HW1 8956   7.406   4.285   9.203 -0.7110 -1.9581 -0.2724
 2505SOL    HW2 8957   7.314   4.322   9.317 -0.4377 -0.3793 -0.5460
 2506SOL     OW 8958   5.548   7.275   7.188 -0.1793 -0.3809  0.6737
 2506SOL    HW1 8959   5.545   7.221   7.109  1.3390 -0.4977  0.6696
 2506SOL    HW2 8960   5.526   7.363   7.157 -1.9657 -0.8316  0.5620
 2507SOL     OW 8961   6.725   6.612   4.932 -0.3802  0.1802  0.3242
 2507SOL    HW1 8962   6.645   6.664   4.929  0.7318  1.9516 -0.5878
 2507SOL    HW2 8963   6.788   6.662   4.880  0.9944 -1.7517  0.0122
 2508SOL     OW 8964   3.554   6.108   0.209 -0.4002 -0.0802 -0.0682
 2508SOL    HW1 8965   3.537   6.117   0.116 -0.0200 -0.6498 -0.1993
 2508SOL    HW2 8966   3.485   6.050   0.241  0.0854 -0.7606 -0.2141
 2509SOL     OW 8967   2.770   5.468   6.853  0.4045 -0.3925  0.0734
 2509SOL    HW1 8968   2.746   5.548   6.807  1.0905  0.3307  0.9314
 2509SOL    HW2 8969   2.690   5.439   6.896  0.0879 -0.3309 -0.4674
 2510SOL     OW 8970   1.076   1.545  10.798 -0.0166 -0.4830 -0.3505
 2510SOL    HW1 8971   1.084   1.484  10.725  1.5937 -0.6514 -0.0582
 2510SOL    HW2 8972   1.021   1.499  10.861  0.2699 -1.1810 -0.5990
 2511SOL     OW 8973   1.942   6.367   8.214  0.2282 -0.2162 -0.0768
 2511SOL    HW1 8974   2.016   6.366   8.275  0.1607 -2.4188  0.0433
 2511SOL    HW2 8975   1.942   6.280   8.175 -1.8492 -0.0071 -0.6590
 2512SOL     OW 8976   1.391   5.138   8.224 -0.0469  0.0452  0.8159
 2512SOL    HW1 8977   1.393   5.234   8.229 -1.2660  0.1368 -0.0841
 2512SOL    HW2 8978   1.474   5.114   8.183  0.2191  0.7223  0.9445
 2513SOL     OW 8979   6.691   7.842   5.555 -0.3516 -0.3738  0.1230
 2513SOL    HW1 8980   6.674   7.910   5.490 -0.7862 -0.4047  0.1970
 2513SOL    HW2 8981   6.636   7.865   5.630  0.9663  0.2615  0.9228
 2514SOL     OW 8982   5.824   2.752   6.215  0.3164  0.2220 -0.8738
 2514SOL    HW1 8983   5.891   2.698   6.256 -0.4389  0.8137  1.3323
 2514SOL    HW2 8984   5.785   2.696   6.148  1.6857 -0.7981 -0.8575
 2515SOL     OW 8985   5.093   0.307   8.755  0.7474  0.8540  0.2171
 2515SOL    HW1 8986   5.078   0.322   8.848 -0.0423  0.9429  0.0862
 2515SOL    HW2 8987   5.146   0.228   8.751  1.2881  1.1898  0.7625
 2516SOL     OW 8988   6.593   3.392   7.181 -0.0353  0.1061  0.3523
 2516SOL    HW1 8989   6.511   3.343   7.188  0.1945 -0.3860 -0.2420
 2516SOL    HW2 8990   6.655   3.341   7.235  0.0181  0.1655  0.3467
 2517SOL     OW 8991   6.777   2.875   2.406 -0.4368  0.2101  0.0034
 2517SOL    HW1 8992   6.770   2.817   2.331 -0.1899 -1.1251  0.9846
 2517SOL    HW2 8993   6.687   2.903   2.424 -0.6524 -0.4630 -0.0167
 2518SOL     OW 8994   2.198   2.308   9.123 -0.1956  0.3212  0.3967
 2518SOL    HW1 8995   2.150   2.389   9.106  0.2242  0.5040  0.0736
 2518SOL    HW2 8996   2.245   2.289   9.042 -0.5841 -0.4515  0.3435
 2519SOL     OW 8997   5.020   0.964   2.415  0.1946  0.3064 -0.2259
 2519SOL    HW1 8998   4.933   0.924   2.407 -0.6492  1.4953  1.8676
 2519SOL    HW2 8999   5.045   0.949   2.506  1.2981  1.6616 -0.2640
 2520SOL     OW 9000   4.035   7.440   7.412 -0.3222 -0.1531  0.3504
 2520SOL    HW1 9001   4.102   7.500   7.443 -0.5733 -0.0446  0.6914
 2520SOL    HW2 9002   4.081   7.384   7.348  0.0144  0.1118  0.3552
 2521SOL     OW 9003   7.522   4.940   0.422 -0.2208  0.5133 -0.6368
 2521SOL    HW1 9004   7.570   4.954   0.504 -0.8543  1.7667 -0.4515
 2521SOL    HW2 9005   7.467   4.863   0.439 -1.5414  1.6865  0.7211
 2522SOL     OW 9006   0.334   1.936   0.615 -0.1857  0.3097 -0.2691
 2522SOL    HW1 9007   0.413   1.892   0.647 -1.5843 -2.6031 -0.4801
 2522SOL    HW2 9008   0.320   2.007   0.678  2.4477  0.8058 -0.1225
 2523SOL     OW 9009   4.986   1.329   5.084  0.2695  0.4350  0.3823
 2523SOL    HW1 9010   4.924   1.286   5.143 -0.5086  0.7876 -0.1717
 2523SOL    HW2 9011   4.948   1.415   5.067  0.5423  0.3761 -0.5529
 2524SOL     OW 9012   3.969   6.758   0.089 -0.1386 -0.3762 -0.2373
 2524SOL    HW1 9013   3.941   6.850   0.095 -0.6447 -0.5906  1.2548
 2524SOL    HW2 9014   3.887   6.709   0.081  0.1435 -0.6929 -1.2432
 2525SOL     OW 9015   2.555   4.697   5.763  0.1346  0.8569 -0.8290
 2525SOL    HW1 9016   2.621   4.690   5.832 -0.7780  0.4103  0.0166
 2525SOL    HW2 9017   2.589   4.643   5.692 -0.8143 -2.1831  0.8348
 2526SOL     OW 9018   2.587   3.748   9.364 -0.0953  0.5369 -0.3689
 2526SOL    HW1 9019   2.501   3.791   9.371 -0.5342  0.3624 -3.2818
 2526SOL    HW2 9020   2.567   3.661   9.330  1.0385 -0.9871  2.5691
 2527SOL     OW 9021   5.796   6.656  10.856 -0.0612  0.3856  0.2577
 2527SOL    HW1 9022   5.750   6.605  10.790  0.0287  1.0029 -0.2950
 2527SOL    HW2 9023   5.735   6.663  10.929 -0.1780 -0.2636  0.2246
 2528SOL     OW 9024   2.398   7.163   1.060  0.2807 -0.0434  0.3802
 2528SOL    HW1 9025   2.384   7.219   0.983 -1.1279 -1.7564 -0.7066
 2528SOL    HW2 9026   2.492   7.165   1.074  0.5864  0.3254 -1.4320
 2529SOL     OW 9027   3.085   2.981   2.068 -0.2400  0.1773 -0.1000
 2529SOL    HW1 9028   3.083   3.005   1.975  0.9493 -2.9601 -1.0770
 2529SOL    HW2 9029   3.168   2.935   2.078 -0.6658 -0.1488  2.3906
 2530SOL     OW 9030   4.320   2.323   4.721 -0.0226 -0.2811 -0.5861
 2530SOL    HW1 9031   4.377   2.383   4.673 -0.2625  1.3525  1.0557
 2530SOL    HW2 9032   4.328   2.240   4.674  0.4964  0.9415 -2.8201
 2531SOL     OW 9033   0.083   0.686   0.181 -0.1039 -0.0362 -0.1549
 2531SOL    HW1 9034   0.018   0.638   0.130 -0.0362  0.2596 -0.5175
 2531SOL    HW2 9035   0.043   0.694   0.268 -0.0738 -0.8344 -0.0620
 2532SOL     OW 9036   6.702   5.401   7.619  0.7710 -0.5160 -0.2651
 2532SOL    HW1 9037   6.725   5.459   7.545  0.9401 -1.4042 -0.9191
 2532SOL    HW2 9038   6.691   5.461   7.693 -0.0183  0.4634 -1.1401
 2533SOL     OW 9039   6.250   6.030   8.518  0.2328 -0.2957  0.0636
 2533SOL    HW1 9040   6.327   5.993   8.474  1.4655 -0.1149  1.9481
 2533SOL    HW2 9041   6.232   6.111   8.471  0.0320 -1.2435 -1.5515
 2534SOL     OW 9042   0.402   1.966   9.822  0.1413  0.1883  0.4492
 2534SOL    HW1 9043   0.410   1.915   9.902 -0.3481 -0.0323  0.3596
 2534SOL    HW2 9044   0.346   2.040   9.846 -0.0119  0.1181  0.3080
 2535SOL     OW 9045   4.394   3.674   3.509  0.2668 -0.0819  0.2667
 2535SOL    HW1 9046   4.481   3.636   3.514  0.6024  0.6868  0.3627
 2535SOL    HW2 9047   4.344   3.628   3.577  0.4856 -0.7897 -0.0458
 2536SOL     OW 9048   6.161   0.432  11.622  0.0492 -0.4311 -0.0379
 2536SOL    HW1 9049   6.167   0.507  11.563 -1.7090 -1.0458 -1.0981
 2536SOL    HW2 9050   6.249   0.397  11.627  0.5212  0.5679 -1.0677
 2537SOL     OW 9051   4.002   5.316   8.131 -0.6405  0.4288  1.0011
 2537SOL    HW1 9052   4.051   5.253   8.079 -0.6018  2.6638 -1.8832
 2537SOL    HW2 9053   3.938   5.262   8.179  1.3044 -2.0201  1.0440
 2538SOL     OW 9054   3.141   7.331  11.578 -0.4147 -0.0436  0.2601
 2538SOL    HW1 9055   3.177   7.365  11.496  1.4314 -0.1247  0.9754
 2538SOL    HW2 9056   3.135   7.408  11.635 -0.1743 -0.2391  0.5512
 2539SOL     OW 9057   6.378   3.240   7.167 -0.4838 -0.2219  0.0603
 2539SOL    HW1 9058   6.349   3.205   7.083 -1.6807  0.5462  0.1448
 2539SOL    HW2 9059   6.307   3.219   7.228  0.0275 -0.0773  0.7219
 2540SOL     OW 9060   1.228   2.739   8.268  0.4862  0.1714 -0.3547
 2540SOL    HW1 9061   1.237   2.650   8.302  0.9781  0.5237  0.4869
 2540SOL    HW2 9062   1.249   2.731   8.175 -0.0947 -0.6906 -0.4280
 2541SOL     OW 9063   7.287   6.330   0.861  0.1487 -0.2098 -0.3728
 2541SOL    HW1 9064   7.322   6.413   0.891 -1.0285  0.8302 -1.7260
 2541SOL    HW2 9065   7.258   6.347   0.771 -1.6724 -1.5836 -0.1111
 2542SOL     OW 9066   0.367   0.933  11.037 -0.1156 -0.3625 -0.4502
 2542SOL    HW1 9067   0.365   0.964  11.127 -1.8526 -0.1605 -0.5255
 2542SOL    HW2 9068   0.312   0.854  11.038 -0.4300 -0.1651 -1.3930
 2543SOL     OW 9069   2.347   5.332  10.351 -0.4667 -0.5176  0.2649
 2543SOL    HW1 9070   2.313   5.414  10.388  3.1670  1.6167 -0.5809
 2543SOL    HW2 9071   2.362   5.276  10.427 -1.7973  0.0935  1.0098
 2544SOL     OW 9072   3.676   5.521   3.402  0.0491  0.0361  0.1920
 2544SOL    HW1 9073   3.759   5.562   3.377 -0.2147  0.1368 -0.5237
 2544SOL    HW2 9074   3.700   5.432   3.428  0.3227 -0.0931 -0.4842
 2545SOL     OW 9075   1.333   2.587   0.159  0.1697 -0.3649 -0.0538
 2545SOL    HW1 9076   1.273   2.653   0.123  0.5139  0.2911  0.5453
 2545SOL    HW2 9077   1.319   2.591   0.254  0.6083 -0.7530  0.0315
 2546SOL     OW 9078   7.711   6.645   9.688 -0.3512  0.2210  0.0115
 2546SOL    HW1 9079   7.618   6.654   9.711 -0.3915  1.5242 -0.5623
 2546SOL    HW2 9080   7.746   6.584   9.753 -1.9381 -1.5654 -0.7344
 2547SOL     OW 9081   2.594   6.561   1.324  0.3152 -0.0840  0.3331
 2547SOL    HW1 9082   2.556   6.566   1.236  0.3226 -0.3435  0.3129
 2547SOL    HW2 9083   2.543   6.492   1.368  0.4040 -0.0540  0.4841
 2548SOL     OW 9084   2.983   3.808   5.235 -0.2820 -0.2904  0.4756
 2548SOL    HW1 9085   2.987   3.876   5.302  2.9876 -0.4582  0.6131
 2548SOL    HW2 9086   2.971   3.856   5.153 -2.2779  0.0610  0.9294
 2549SOL     OW 9087   6.079   0.662   8.491 -0.2015  0.9580  0.0193
 2549SOL    HW1 9088   6.049   0.617   8.570  1.6410 -1.5662 -0.5778
 2549SOL    HW2 9089   6.012   0.643   8.426  1.0764 -2.2835 -0.5667
 2550SOL     OW 9090   6.521   3.800  11.986 -0.3619  0.2905 -0.2143
 2550SOL    HW1 9091   6.611   3.768  11.981 -0.6070 -0.3789 -0.4112
 2550SOL    HW2 9092   6.467   3.728  11.954 -0.8764  1.1796 -1.4291
 2551SOL     OW 9093   0.326   0.184   3.676  0.3496 -0.0312  0.1397
 2551SOL    HW1 9094   0.303   0.277   3.685  0.7256  0.1532 -0.7441
 2551SOL    HW2 9095   0.422   0.184   3.673  0.3583 -0.4770  0.3696
 2552SOL     OW 9096   2.207   2.483   0.510  0.7089 -0.1865 -0.0139
 2552SOL    HW1 9097   2.233   2.397   0.543  0.4464  0.2580  1.4404
 2552SOL    HW2 9098   2.289   2.529   0.493  0.8674 -0.1813  0.7288
 2553SOL     OW 9099   6.082   1.594   5.263  0.1372  0.1708  0.3495
 2553SOL    HW1 9100   6.024   1.611   5.337 -0.8240  0.0541 -0.3524
 2553SOL    HW2 9101   6.027   1.609   5.186  1.1354  0.3510 -0.3409
 2554SOL     OW 9102   0.394   5.315   5.028  0.7549  0.5697 -0.3358
 2554SOL    HW1 9103   0.344   5.244   5.067  0.5404  1.3199  0.8004
 2554SOL    HW2 9104   0.461   5.336   5.094  0.8168  1.4176 -0.6588
 2555SOL     OW 9105   7.211   6.119  10.033  0.3504  0.0826 -0.3664
 2555SOL    HW1 9106   7.228   6.151   9.945 -1.6536 -0.7692 -1.1106
 2555SOL    HW2 9107   7.199   6.198  10.085 -0.4445  0.5936 -1.2925
 2556SOL     OW 9108   6.998   5.179   2.423 -0.1731  0.4705  0.4098
 2556SOL    HW1 9109   7.079   5.198   2.375  0.8939 -1.1460  1.4684
 2556SOL    HW2 9110   6.934   5.158   2.356  0.3538  1.4928 -0.4405
 2557SOL     OW 9111   0.703   1.873   1.306 -0.2729  0.0067  0.0642
 2557SOL    HW1 9112   0.710   1.780   1.284  0.0607 -0.3447  1.5841
 2557SOL    HW2 9113   0.610   1.892   1.297 -0.1697 -0.0917 -1.6244
 2558SOL     OW 9114   1.995   3.849  10.129  0.0860  0.8047  0.2993
 2558SOL    HW1 9115   2.042   3.766  10.131  2.6932  2.1325 -0.6996
 2558SOL    HW2 9116   1.924   3.835  10.066 -0.4172 -1.0405  1.2192
 2559SOL     OW 9117   0.663   4.617   9.537  0.0314 -0.2466  0.0214
 2559SOL    HW1 9118   0.671   4.558   9.462  0.0488 -1.2682  0.8020
 2559SOL    HW2 9119   0.744   4.603   9.586 -0.6124 -0.6795  0.9845
 2560SOL     OW 9120   2.457   1.577   5.357 -0.6007  0.9788 -0.8687
 2560SOL    HW1 9121   2.520   1.640   5.322 -0.3497  1.7024  0.7929
 2560SOL    HW2 9122   2.424   1.618   5.437 -0.0129 -1.2139  0.6049
 2561SOL     OW 9123   0.788   7.778   2.653 -0.0194 -0.2442  0.3031
 2561SOL    HW1 9124   0.778   7.814   2.741 -0.6352  0.1496  0.0802
 2561SOL    HW2 9125   0.712   7.720   2.642  1.0755 -1.8339  0.7449
 2562SOL     OW 9126   2.207   6.163  11.957  0.4001 -0.1200 -0.2411
 2562SOL    HW1 9127   2.183   6.251  11.985  1.4483 -0.1507  0.8334
 2562SOL    HW2 9128   2.273   6.177  11.889  0.6856 -0.0645  0.0424
 2563SOL     OW 9129   1.975   5.699   5.189 -0.3381 -0.3217  0.2214
 2563SOL    HW1 9130   1.995   5.665   5.276  1.7474  2.3809  0.9622
 2563SOL    HW2 9131   2.032   5.650   5.130  0.5268 -0.1149  0.8535
 2564SOL     OW 9132   3.194   1.170   9.062 -0.5743  0.7343  0.1135
 2564SOL    HW1 9133   3.183   1.242   9.000 -2.1337  2.1494  1.9232
 2564SOL    HW2 9134   3.105   1.141   9.080 -0.0795 -0.2893  0.9731
 2565SOL     OW 9135   2.991   4.046   4.068  0.5573  0.0872 -0.2879
 2565SOL    HW1 9136   3.013   3.953   4.063 -0.2731 -0.0820 -1.0671
 2565SOL    HW2 9137   2.913   4.049   4.123  0.5135  0.3015 -0.3624
 2566SOL     OW 9138   1.724   4.981   6.070  0.1321  0.6067 -0.1130
 2566SOL    HW1 9139   1.631   4.997   6.053  0.5634  2.1209 -1.2879
 2566SOL    HW2 9140   1.734   4.994   6.164 -0.6080  1.8241 -0.1878
 2567SOL     OW 9141   5.476   5.997  11.409  0.1252  0.1005 -0.3527
 2567SOL    HW1 9142   5.525   5.961  11.335 -0.6924 -0.8542 -0.4523
 2567SOL    HW2 9143   5.385   5.972  11.392 -0.1082  0.0921  0.8449
 2568SOL     OW 9144   0.236   7.620   9.218 -0.1046  0.4478  0.0007
 2568SOL    HW1 9145   0.234   7.556   9.147  0.8254  0.4267 -0.0144
 2568SOL    HW2 9146   0.229   7.567   9.298  1.0826  0.2767  0.0055
 2569SOL     OW 9147   6.388   5.057   5.689 -0.0612  0.3002  1.0017
 2569SOL    HW1 9148   6.310   5.088   5.645 -1.1011 -0.5675  2.1757
 2569SOL    HW2 9149   6.402   4.969   5.656 -0.3886 -0.0602  1.8042
 2570SOL     OW 9150   6.307   4.291   5.998 -0.0455  0.3348 -0.2467
 2570SOL    HW1 9151   6.369   4.304   6.069  0.9824 -1.2626 -0.7830
 2570SOL    HW2 9152   6.221   4.303   6.039  0.5147 -0.5192  1.2766
 2571SOL     OW 9153   6.540   2.984   4.612 -0.2580  0.3992  0.5030
 2571SOL    HW1 9154   6.586   2.953   4.690 -0.2208  0.0028  0.3273
 2571SOL    HW2 9155   6.579   3.069   4.594  0.6661 -0.0762  0.1536
 2572SOL     OW 9156   6.135   6.885   5.520 -0.0527 -0.0487  0.2590
 2572SOL    HW1 9157   6.205   6.824   5.496 -0.2206  0.5423 -1.9630
 2572SOL    HW2 9158   6.175   6.941   5.586  1.6075  0.1973 -0.8628
 2573SOL     OW 9159   5.057   4.350   0.145 -0.2606  0.2942 -0.7220
 2573SOL    HW1 9160   5.152   4.356   0.142 -0.1380 -0.3659  0.7974
 2573SOL    HW2 9161   5.030   4.425   0.198 -0.6647  0.8294 -1.6504
 2574SOL     OW 9162   7.575   4.586  11.315 -0.5089  0.1974 -0.6131
 2574SOL    HW1 9163   7.580   4.637  11.395  0.9116 -0.7923 -0.0245
 2574SOL    HW2 9164   7.647   4.523  11.322 -0.7658 -0.3558 -2.3572
 2575SOL     OW 9165   5.856   0.395   9.590 -0.3228  0.0142 -0.2168
 2575SOL    HW1 9166   5.881   0.438   9.508 -0.8595  1.0611  0.1491
 2575SOL    HW2 9167   5.884   0.456   9.658 -2.6335  0.6170  0.2668
 2576SOL     OW 9168   5.358   4.536   3.803  0.4617 -0.5384  0.2166
 2576SOL    HW1 9169   5.453   4.535   3.813  0.6318 -2.2294 -1.1530
 2576SOL    HW2 9170   5.329   4.451   3.835 -0.9518  0.9151  3.1205
 2577SOL     OW 9171   2.742   1.363   2.731  0.6319 -0.1756  0.1348
 2577SOL    HW1 9172   2.708   1.274   2.746  0.0296 -0.2787 -1.5554
 2577SOL    HW2 9173   2.831   1.350   2.699  0.8283 -0.1149  0.6440
 2578SOL     OW 9174   2.859   7.846   4.520 -0.7338 -0.9280  0.4529
 2578SOL    HW1 9175   2.930   7.806   4.469 -0.3212 -0.7339  0.8718
 2578SOL    HW2 9176   2.888   7.841   4.611 -1.1903 -0.7113  0.6147
 2579SOL     OW 9177   5.958   3.596   4.199  0.4656  0.3408 -0.1387
 2579SOL    HW1 9178   5.910   3.642   4.130 -0.6335 -0.0913  0.3043
 2579SOL    HW2 9179   6.018   3.538   4.153  0.4941  0.8210 -0.7135
 2580SOL     OW 9180   5.001   5.483   9.708  0.1425 -0.6080  0.1898
 2580SOL    HW1 9181   4.942   5.479   9.633 -0.8918 -1.3928  1.0149
 2580SOL    HW2 9182   5.087   5.463   9.671 -0.1492  0.2083 -0.9722
 2581SOL     OW 9183   7.853   6.003   6.899 -0.4591  0.3539  0.0383
 2581SOL    HW1 9184   7.784   5.938   6.910 -0.0414 -0.0563  0.2741
 2581SOL    HW2 9185   7.931   5.962   6.937 -0.6826  1.8660  2.3589
 2582SOL     OW 9186   6.545   6.186   3.403  0.5605  0.2420  0.2496
 2582SOL    HW1 9187   6.500   6.133   3.337  1.3542 -0.5655  0.3419
 2582SOL    HW2 9188   6.491   6.265   3.411  0.2296  0.1637 -1.0558
 2583SOL     OW 9189   4.041   0.811   6.646 -0.3847  0.7759  0.1738
 2583SOL    HW1 9190   4.082   0.842   6.727 -1.0783 -1.0924  1.3007
 2583SOL    HW2 9191   4.113   0.771   6.597 -0.3533 -0.2150  0.9874
 2584SOL     OW 9192   3.034   1.779   3.816  0.3185  0.2074  0.4314
 2584SOL    HW1 9193   3.013   1.705   3.873  1.1319  0.4038  1.0151
 2584SOL    HW2 9194   3.091   1.741   3.748 -0.6969 -0.0377 -0.3050
 2585SOL     OW 9195   7.350   3.815  12.268  0.2717  0.0866 -0.1776
 2585SOL    HW1 9196   7.330   3.880  12.335 -0.1493  2.6467 -2.6053
 2585SOL    HW2 9197   7.439   3.836  12.240  0.5581 -1.1334 -0.2449
 2586SOL     OW 9198   0.385   1.569   8.306  0.4500 -0.4795 -0.2577
 2586SOL    HW1 9199   0.427   1.646   8.343  0.2101 -0.9222  0.9898
 2586SOL    HW2 9200   0.454   1.502   8.305 -0.2593 -1.3919  2.3629
 2587SOL     OW 9201   3.775   5.658   0.723 -0.5938 -0.2040  0.1212
 2587SOL    HW1 9202   3.859   5.683   0.686 -0.3146 -2.0210 -0.5926
 2587SOL    HW2 9203   3.734   5.740   0.749  2.2137  0.6155  2.3486
 2588SOL     OW 9204   6.649   7.490   0.754  0.5096 -0.1584  0.2514
 2588SOL    HW1 9205   6.600   7.490   0.672 -1.0286  0.7432  1.1293
 2588SOL    HW2 9206   6.583   7.498   0.822  1.7737 -0.5360  1.5797
 2589SOL     OW 9207   1.718   1.489   8.300 -0.2781  0.3727 -0.1314
 2589SOL    HW1 9208   1.668   1.428   8.246  0.9416 -1.6688  0.9207
 2589SOL    HW2 9209   1.663   1.567   8.305 -0.6225  0.6008 -4.0097
 2590SOL     OW 9210   4.482   0.280  10.755 -0.0547  0.0343 -0.4491
 2590SOL    HW1 9211   4.480   0.232  10.838 -1.3089 -0.7959 -0.9325
 2590SOL    HW2 9212   4.576   0.292  10.737  0.2260  1.2757  1.6418
 2591SOL     OW 9213   5.356   6.329   1.922 -0.1036  0.0882 -0.3223
 2591SOL    HW1 9214   5.269   6.289   1.934 -0.1606  0.0473 -0.8515
 2591SOL    HW2 9215   5.416   6.255   1.927 -0.0471  0.1859  0.5998
 2592SOL     OW 9216   5.699   3.856   4.834 -0.1700 -0.0790  0.4961
 2592SOL    HW1 9217   5.675   3.829   4.745 -1.1381 -0.8763  0.9700
 2592SOL    HW2 9218   5.760   3.788   4.864 -1.5431 -1.0645  1.1966
 2593SOL     OW 9219   2.291   1.948   1.214  0.9810 -0.6383  0.0669
 2593SOL    HW1 9220   2.304   1.892   1.137 -0.1691  0.8006 -1.2188
 2593SOL    HW2 9221   2.231   1.898   1.270  1.2498 -1.3830 -0.2937
 2594SOL     OW 9222   2.296   7.302   4.456  1.0688 -0.5224  0.4136
 2594SOL    HW1 9223   2.361   7.280   4.522  0.7366  0.4564  1.0896
 2594SOL    HW2 9224   2.257   7.384   4.487  2.4132  1.2028 -2.0572
 2595SOL     OW 9225   5.458   6.911   7.702  0.3222 -0.1753 -0.2418
 2595SOL    HW1 9226   5.399   6.967   7.651 -0.8162 -0.8588  0.2621
 2595SOL    HW2 9227   5.537   6.963   7.714 -0.8909  1.5756  0.6775
 2596SOL     OW 9228   3.597   4.993  10.673  0.4720 -0.1364 -0.1182
 2596SOL    HW1 9229   3.666   5.022  10.732  0.3817 -0.3574  0.0972
 2596SOL    HW2 9230   3.587   5.065  10.611  0.1080  0.3917  0.5380
 2597SOL     OW 9231   6.055   2.891   1.214 -0.4207  0.2937  0.3727
 2597SOL    HW1 9232   6.031   2.949   1.141  0.0812  0.6861  0.5069
 2597SOL    HW2 9233   6.151   2.889   1.212 -0.4433 -1.0650 -0.0306
 2598SOL     OW 9234   5.576   1.524   8.676 -0.4904 -0.2199  0.5441
 2598SOL    HW1 9235   5.566   1.429   8.677 -0.6892 -0.2021  0.4387
 2598SOL    HW2 9236   5.541   1.551   8.591  2.0534 -0.3087 -0.6172
 2599SOL     OW 9237   0.246   5.360   9.443  0.2164  0.0488 -0.1020
 2599SOL    HW1 9238   0.289   5.436   9.482 -1.2448  0.2539  1.2591
 2599SOL    HW2 9239   0.287   5.284   9.485  2.1144 -0.0044 -1.9234
 2600SOL     OW 9240   1.693   2.930   9.679  0.0691  0.4431 -0.5010
 2600SOL    HW1 9241   1.652   2.960   9.597  0.6641  1.6658 -0.3804
 2600SOL    HW2 9242   1.778   2.896   9.651 -0.2017 -0.2255 -0.5194
 2601SOL     OW 9243   5.709   4.660   9.051 -0.1250  0.5597 -0.5271
 2601SOL    HW1 9244   5.785   4.605   9.033  0.0916  0.6420  0.1088
 2601SOL    HW2 9245   5.714   4.730   8.987 -1.1120 -0.8229 -2.2171
 2602SOL     OW 9246   0.997   0.655   0.179  0.2306 -0.3730 -0.2116
 2602SOL    HW1 9247   1.066   0.589   0.179 -0.1673 -0.7952  0.1090
 2602SOL    HW2 9248   0.927   0.617   0.233  0.9165  1.2442  1.9824
 2603SOL     OW 9249   4.224   5.914   9.710  0.3424  0.1986  1.2689
 2603SOL    HW1 9250   4.188   5.827   9.691 -0.5062  0.3826  1.9785
 2603SOL    HW2 9251   4.212   5.924   9.805  0.9149  0.8807  1.2732
 2604SOL     OW 9252   4.580   4.306   3.626  0.0109 -0.0412  0.1642
 2604SOL    HW1 9253   4.541   4.225   3.658  2.6217 -1.9214 -1.1060
 2604SOL    HW2 9254   4.505   4.362   3.607 -1.9222 -2.3087  0.6319
 2605SOL     OW 9255   6.336   1.829   8.818  0.0278  0.2543 -0.3992
 2605SOL    HW1 9256   6.247   1.857   8.842  0.0171 -0.5010  0.5046
 2605SOL    HW2 9257   6.322   1.765   8.749 -0.4081 -2.1905  1.7779
 2606SOL     OW 9258   5.499   5.006   9.397  0.6284  0.5852  0.0004
 2606SOL    HW1 9259   5.425   5.005   9.457  0.6456  0.4761  0.0204
 2606SOL    HW2 9260   5.497   4.920   9.354  0.0226  1.0277 -0.8829
 2607SOL     OW 9261   5.011   3.634   4.518  0.4213  0.1401  0.2338
 2607SOL    HW1 9262   4.929   3.684   4.514  0.0577 -0.4974 -0.5229
 2607SOL    HW2 9263   4.989   3.548   4.482  0.9155 -0.7663  1.9518
 2608SOL     OW 9264   6.959   0.919   2.176  0.3376  0.2250 -0.5309
 2608SOL    HW1 9265   6.963   1.014   2.166  0.4039  0.3032  0.1924
 2608SOL    HW2 9266   6.865   0.899   2.178  0.2913  0.0502 -2.5745
 2609SOL     OW 9267   2.282   1.472  10.506 -0.0419  0.5045  0.0910
 2609SOL    HW1 9268   2.201   1.429  10.478  0.3534  0.8433 -1.7016
 2609SOL    HW2 9269   2.268   1.565  10.488  0.0378  0.8394  1.6164
 2610SOL     OW 9270   3.017   0.019   3.309 -0.4905 -0.5758  0.2917
 2610SOL    HW1 9271   3.088   0.025   3.373  0.6712 -1.3543 -0.8538
 2610SOL    HW2 9272   2.990  -0.073   3.312 -1.6329 -0.2372  0.8774
 2611SOL     OW 9273   2.563   7.697  11.950  0.4527 -0.5771 -0.4646
 2611SOL    HW1 9274   2.533   7.708  12.040  0.9924  1.4602 -0.4952
 2611SOL    HW2 9275   2.483   7.698  11.898  0.1091 -2.1058 -0.0291
 2612SOL     OW 9276   3.845   7.628   4.186  0.1646 -0.0854  0.3486
 2612SOL    HW1 9277   3.849   7.566   4.259  2.5976  0.3992  0.6933
 2612SOL    HW2 9278   3.897   7.703   4.215 -1.3673  1.4691 -0.7084
 2613SOL     OW 9279   2.265   2.262   0.650 -0.3183  0.3999  0.3492
 2613SOL    HW1 9280   2.250   2.226   0.737 -1.7492  1.9191  0.7997
 2613SOL    HW2 9281   2.346   2.221   0.620 -0.8896 -1.7481  1.5153
 2614SOL     OW 9282   7.891   6.087   8.621 -0.0693 -0.4824 -0.0776
 2614SOL    HW1 9283   7.846   6.016   8.667  0.4602 -0.1578  0.9925
 2614SOL    HW2 9284   7.835   6.163   8.636  0.9628 -0.0013  1.5622
 2615SOL     OW 9285   7.790   4.623   8.804  0.0385 -0.0565 -0.0475
 2615SOL    HW1 9286   7.850   4.686   8.764  2.3954 -1.3780  1.2041
 2615SOL    HW2 9287   7.710   4.673   8.821  0.2714  1.4883 -2.8482
 2616SOL     OW 9288   5.802   4.167   8.354 -0.0765 -0.1034 -0.3664
 2616SOL    HW1 9289   5.845   4.251   8.340 -1.2003  0.4993 -0.3039
 2616SOL    HW2 9290   5.873   4.103   8.353  0.9611  0.9776  0.9219
 2617SOL     OW 9291   2.746   5.746   6.717  0.4106  0.0634  0.4408
 2617SOL    HW1 9292   2.748   5.837   6.747  0.8124  0.7643 -1.5877
 2617SOL    HW2 9293   2.824   5.737   6.663 -0.2082 -1.1721 -0.2756
 2618SOL     OW 9294   6.797   0.867   0.812 -0.0220  0.0346 -0.2860
 2618SOL    HW1 9295   6.734   0.845   0.744  2.0664 -0.5515 -2.1723
 2618SOL    HW2 9296   6.780   0.959   0.831 -1.0309  0.0658 -1.2176
 2619SOL     OW 9297   7.953   1.394  11.642  0.4368  0.4714 -0.9017
 2619SOL    HW1 9298   7.864   1.373  11.668  1.7854 -1.8907  2.5564
 2619SOL    HW2 9299   7.967   1.483  11.673  0.1437 -0.2389  1.4776
 2620SOL     OW 9300   5.363   7.607  12.427  0.0392 -0.4778 -0.2276
 2620SOL    HW1 9301   5.278   7.594  12.384 -0.6236  2.6079 -0.0850
 2620SOL    HW2 9302   5.416   7.653  12.361  0.8403 -0.4363  0.4347
 2621SOL     OW 9303   6.784   3.925   5.601 -0.3631 -0.3455 -0.9135
 2621SOL    HW1 9304   6.702   3.950   5.644 -0.1635 -1.1993  0.0091
 2621SOL    HW2 9305   6.821   3.858   5.659  0.6579 -0.4445 -1.6669
 2622SOL     OW 9306   1.154   3.678   3.963  0.2196 -0.4016  0.0587
 2622SOL    HW1 9307   1.238   3.697   3.922  0.5350  0.2314  0.9859
 2622SOL    HW2 9308   1.122   3.763   3.993 -1.1053 -0.5166 -0.9133
 2623SOL     OW 9309   1.898   2.960   8.580  0.1095  0.3337 -0.8391
 2623SOL    HW1 9310   1.941   2.887   8.535 -1.0043 -1.8282  1.3838
 2623SOL    HW2 9311   1.805   2.942   8.571 -0.1623  0.9649  0.5476
 2624SOL     OW 9312   2.655   5.308   5.125 -0.5716  0.4156 -0.0705
 2624SOL    HW1 9313   2.633   5.261   5.205  0.4912 -0.5523 -0.3139
 2624SOL    HW2 9314   2.592   5.380   5.121 -0.8316  0.3088  1.4630
 2625SOL     OW 9315   4.661   3.281   5.117  0.2121  0.0792 -0.0901
 2625SOL    HW1 9316   4.572   3.284   5.152  0.3623  1.1374  0.2443
 2625SOL    HW2 9317   4.717   3.289   5.194  0.5557  1.4045 -0.4527
 2626SOL     OW 9318   2.713   2.121   9.322 -0.4056  0.0380  0.4486
 2626SOL    HW1 9319   2.770   2.094   9.394  0.4407 -1.5368 -0.7443
 2626SOL    HW2 9320   2.728   2.055   9.254 -1.1103  1.5026 -1.1989
 2627SOL     OW 9321   2.290   1.279   1.459  0.0792  0.0982 -0.2356
 2627SOL    HW1 9322   2.305   1.284   1.365 -2.1911 -0.4513 -0.6856
 2627SOL    HW2 9323   2.369   1.317   1.498  1.2559 -0.0594 -2.3220
 2628SOL     OW 9324   4.725   7.760  10.626 -0.4505  0.4472 -0.6255
 2628SOL    HW1 9325   4.672   7.707  10.686  0.4769  0.7077  0.4704
 2628SOL    HW2 9326   4.754   7.834  10.680  1.5424 -0.0240 -0.9690
 2629SOL     OW 9327   6.371   4.324   7.289 -0.6529  0.2520  0.2879
 2629SOL    HW1 9328   6.462   4.345   7.265  0.0620  0.2831  2.6797
 2629SOL    HW2 9329   6.362   4.361   7.377 -2.9351  0.0218  0.1894
 2630SOL     OW 9330   7.832   7.361   4.979  0.2291 -0.8590  0.1080
 2630SOL    HW1 9331   7.841   7.363   5.074  2.2757 -0.2257 -0.0443
 2630SOL    HW2 9332   7.840   7.268   4.956  0.9498 -0.9007  0.4898
 2631SOL     OW 9333   4.262   2.043   4.539 -0.3206  0.1862  0.1003
 2631SOL    HW1 9334   4.330   2.091   4.492 -1.4268  0.0199 -1.7657
 2631SOL    HW2 9335   4.291   1.952   4.536 -1.4677 -0.1652 -2.3816
 2632SOL     OW 9336   0.446   5.041   8.595  0.3613 -0.2016 -0.2396
 2632SOL    HW1 9337   0.532   5.045   8.555  0.4304 -0.0246 -0.0761
 2632SOL    HW2 9338   0.454   5.095   8.674  0.1821 -0.4153 -0.0750
 2633SOL     OW 9339   3.768   0.612  10.036  0.1637  0.7382 -0.0896
 2633SOL    HW1 9340   3.773   0.583   9.945 -1.4491  1.7688 -0.5481
 2633SOL    HW2 9341   3.701   0.556  10.075  1.7117 -0.5509  0.8604
 2634SOL     OW 9342   2.876   2.457   2.277  0.2896 -0.2561  0.3951
 2634SOL    HW1 9343   2.935   2.418   2.212 -0.7911 -1.6976  0.2151
 2634SOL    HW2 9344   2.809   2.502   2.226  0.2417 -0.1591  0.5422
 2635SOL     OW 9345   1.736   4.260   4.438  0.1219 -0.0758  0.4720
 2635SOL    HW1 9346   1.790   4.187   4.406 -0.7453 -0.3690 -0.3595
 2635SOL    HW2 9347   1.701   4.229   4.521 -1.0550 -1.0577 -0.3440
 2636SOL     OW 9348   2.646   0.711   6.347 -0.0778 -0.4498  0.1323
 2636SOL    HW1 9349   2.612   0.786   6.395  0.6923  0.2085 -0.3269
 2636SOL    HW2 9350   2.593   0.637   6.377 -1.1876  0.3572  0.2172
 2637SOL     OW 9351   3.425   3.868  11.442  0.4225  0.3368  0.1770
 2637SOL    HW1 9352   3.476   3.791  11.417  1.5410  0.5484  1.6642
 2637SOL    HW2 9353   3.396   3.849  11.531  1.1143  1.7939  0.7507
 2638SOL     OW 9354   0.489   0.773   8.641 -0.0157 -0.4140 -0.3550
 2638SOL    HW1 9355   0.434   0.791   8.564 -1.0527  1.4571  0.7553
 2638SOL    HW2 9356   0.507   0.859   8.679  0.5672 -1.2676  1.4221
 2639SOL     OW 9357   0.140   5.130   6.853 -0.3658 -0.4565  0.1553
 2639SOL    HW1 9358   0.051   5.161   6.834 -0.0264 -0.1246 -0.9825
 2639SOL    HW2 9359   0.195   5.207   6.841  0.1782 -0.8720 -0.0606
 2640SOL     OW 9360   0.121   6.650  10.390  0.5181  0.0752  0.4143
 2640SOL    HW1 9361   0.205   6.665  10.346  1.0144  0.9784  1.6106
 2640SOL    HW2 9362   0.074   6.733  10.381  0.6629  0.3120  1.6103
 2641SOL     OW 9363   4.763   4.867  12.002  0.0024 -0.0103 -0.2170
 2641SOL    HW1 9364   4.745   4.803  12.071  1.9872 -2.3105 -1.6626
 2641SOL    HW2 9365   4.855   4.852  11.979 -0.1830  1.6521 -2.3601
 2642SOL     OW 9366   4.164   2.108   7.323  0.1216  0.2400 -0.1292
 2642SOL    HW1 9367   4.095   2.155   7.369 -0.8266 -0.4817 -0.7749
 2642SOL    HW2 9368   4.237   2.169   7.319 -0.6707  1.2153  0.0777
 2643SOL     OW 9369   0.801   1.237  10.055 -0.0175 -0.1281 -0.0526
 2643SOL    HW1 9370   0.731   1.185  10.015  0.1856 -1.0274  0.7247
 2643SOL    HW2 9371   0.846   1.176  10.114 -0.1290  1.0757  1.3325
 2644SOL     OW 9372   3.598   7.036   5.160 -0.3106  0.1279 -0.1260
 2644SOL    HW1 9373   3.542   7.049   5.084 -1.1249 -0.0083  0.4342
 2644SOL    HW2 9374   3.667   6.978   5.129 -0.3239  0.5168 -0.9010
 2645SOL     OW 9375   1.809   5.769   7.475 -0.6300  0.1293 -0.3469
 2645SOL    HW1 9376   1.761   5.784   7.394 -0.6296 -0.5280 -0.4752
 2645SOL    HW2 9377   1.859   5.689   7.459 -0.1241  0.3515  0.0724
 2646SOL     OW 9378   1.510   1.746   5.904 -0.0800  0.0037  0.0477
 2646SOL    HW1 9379   1.526   1.750   5.809  0.0444 -0.0893  0.0649
 2646SOL    HW2 9380   1.520   1.836   5.934  0.9473 -0.1377  0.1476
 2647SOL     OW 9381   0.475   0.030  10.467 -0.3674 -0.2072 -0.0403
 2647SOL    HW1 9382   0.392   0.058  10.429 -0.0687  0.0944 -0.4831
 2647SOL    HW2 9383   0.542   0.071  10.411  0.0883  0.4919  0.9814
 2648SOL     OW 9384   6.265   3.872   9.788 -0.3022 -0.4359  0.0747
 2648SOL    HW1 9385   6.270   3.939   9.857  0.2586  0.7601 -1.0833
 2648SOL    HW2 9386   6.334   3.810   9.811  0.1938  0.2008  0.3610
 2649SOL     OW 9387   0.029   2.378   1.560 -0.0476 -0.2127  0.0551
 2649SOL    HW1 9388   0.047   2.382   1.466 -1.2944  0.0205 -0.1975
 2649SOL    HW2 9389  -0.027   2.302   1.570 -0.0387 -0.1515  0.5916
 2650SOL     OW 9390   7.533   6.235   3.398 -0.0437 -0.3796 -0.0531
 2650SOL    HW1 9391   7.536   6.284   3.481  2.5632  0.2709 -0.4549
 2650SOL    HW2 9392   7.621   6.243   3.362 -0.2741 -3.1635 -1.4831
 2651SOL     OW 9393   2.178   5.290  12.452 -0.1835  0.6202  0.9076
 2651SOL    HW1 9394   2.154   5.200  12.430  0.1036  0.6537  0.4509
 2651SOL    HW2 9395   2.254   5.281  12.510  0.9702  0.5941 -0.5450
 2652SOL     OW 9396   4.994   7.369   0.046  0.0640  0.5365 -1.1060
 2652SOL    HW1 9397   4.941   7.320   0.109  0.9885  1.0908  0.1406
 2652SOL    HW2 9398   4.931   7.429   0.004 -0.4795  0.5215 -0.3398
 2653SOL     OW 9399   7.264   1.241   7.034 -0.3568  0.1127  0.5252
 2653SOL    HW1 9400   7.212   1.165   7.059  0.3518 -0.9928 -1.1602
 2653SOL    HW2 9401   7.207   1.316   7.048 -1.2418 -0.7643  1.7780
 2654SOL     OW 9402   4.182   5.169   3.411  0.1746 -0.2680 -0.1153
 2654SOL    HW1 9403   4.123   5.215   3.471 -0.2613 -1.0892  0.1031
 2654SOL    HW2 9404   4.269   5.201   3.434 -0.1359  0.6316 -0.1391
 2655SOL     OW 9405   1.332   1.575   8.220  0.7783  0.6127  0.1374
 2655SOL    HW1 9406   1.371   1.623   8.147  1.9761  0.1632  0.4631
 2655SOL    HW2 9407   1.361   1.623   8.298 -1.3571  1.7277  0.3358
 2656SOL     OW 9408   7.100   4.096   5.145  0.0098 -0.7036  0.3664
 2656SOL    HW1 9409   7.031   4.156   5.172 -0.1699 -1.5289  1.8706
 2656SOL    HW2 9410   7.167   4.152   5.105  0.0662  0.5979  2.1644
 2657SOL     OW 9411   3.875   3.281   2.145 -0.3989 -0.3610  0.1895
 2657SOL    HW1 9412   3.780   3.278   2.155 -0.3562 -3.2042  0.5523
 2657SOL    HW2 9413   3.892   3.251   2.056  0.1548  0.2629  0.0776
 2658SOL     OW 9414   6.586   6.985   4.062  0.5921  0.2682  0.3554
 2658SOL    HW1 9415   6.676   6.965   4.088  0.2643 -0.9675  0.6264
 2658SOL    HW2 9416   6.535   6.911   4.096 -0.1831 -0.2458 -1.7636
 2659SOL     OW 9417   4.941   7.160   2.015 -0.2209 -0.5141  0.4817
 2659SOL    HW1 9418   4.931   7.109   2.095 -0.5443  0.2141  0.9171
 2659SOL    HW2 9419   5.029   7.140   1.984 -0.8643 -2.5181 -0.2098
 2660SOL     OW 9420   7.096   5.747   6.095  0.2095 -0.0263 -1.3550
 2660SOL    HW1 9421   7.127   5.716   6.180  1.1807  1.7752 -1.0009
 2660SOL    HW2 9422   7.010   5.707   6.084 -0.5427  0.7837  1.1128
 2661SOL     OW 9423   6.087   1.432   1.311 -0.1279  0.1376 -0.0936
 2661SOL    HW1 9424   6.172   1.403   1.279 -0.4457 -1.6272  0.4932
 2661SOL    HW2 9425   6.058   1.360   1.368 -1.8164  0.8848  0.0520
 2662SOL     OW 9426   2.500   2.323   8.655 -0.7087 -0.0246  0.1774
 2662SOL    HW1 9427   2.477   2.307   8.746 -0.8828  0.7542  0.2754
 2662SOL    HW2 9428   2.425   2.291   8.605 -0.8364  0.0226  0.3388
 2663SOL     OW 9429   1.611   3.884   5.272  0.4952 -0.0802  0.4075
 2663SOL    HW1 9430   1.563   3.817   5.223  1.0716 -1.2686  1.4000
 2663SOL    HW2 9431   1.556   3.962   5.266 -1.9843 -1.5579  2.0485
 2664SOL     OW 9432   5.359   7.453   6.701 -0.3738 -0.0784 -0.4025
 2664SOL    HW1 9433   5.358   7.548   6.684 -0.0517 -0.2178 -1.2840
 2664SOL    HW2 9434   5.452   7.431   6.705 -0.4437 -0.2304  0.6428
 2665SOL     OW 9435   6.074   4.309   2.065  0.4668  0.2684  0.3133
 2665SOL    HW1 9436   6.093   4.223   2.027 -0.5615  0.3235 -0.3867
 2665SOL    HW2 9437   6.070   4.293   2.160  3.1020  0.1348  0.4590
 2666SOL     OW 9438   2.156   3.239   0.740 -0.0647  0.3627  0.4152
 2666SOL    HW1 9439   2.075   3.230   0.789 -0.4978 -0.9037 -0.4952
 2666SOL    HW2 9440   2.195   3.320   0.773 -0.7803  0.0322  2.1777
 2667SOL     OW 9441   1.221   2.116   8.044  0.0111  0.4145 -0.3534
 2667SOL    HW1 9442   1.306   2.075   8.063 -0.1920 -0.8989 -2.0131
 2667SOL    HW2 9443   1.243   2.206   8.020  0.8676  0.2896 -0.0848
 2668SOL     OW 9444   4.782   2.213   2.677  0.6258  0.3378 -0.0958
 2668SOL    HW1 9445   4.860   2.261   2.647  0.8081 -0.5049 -1.0241
 2668SOL    HW2 9446   4.799   2.196   2.770  1.2771  0.6879 -0.1422
 2669SOL     OW 9447   4.963   6.358   0.911 -0.5088  0.1854  0.0811
 2669SOL    HW1 9448   4.926   6.298   0.977  0.0883 -0.1611  0.1086
 2669SOL    HW2 9449   4.905   6.434   0.912 -1.0495 -0.2258  0.3321
 2670SOL     OW 9450   3.184   2.176   9.423  0.0561 -0.2542  0.1559
 2670SOL    HW1 9451   3.098   2.209   9.397  0.5543  0.4502 -0.6628
 2670SOL    HW2 9452   3.242   2.201   9.351  0.8181 -1.3165  0.3809
 2671SOL     OW 9453   7.957   4.116   1.251  0.1422 -0.0448  0.1586
 2671SOL    HW1 9454   8.046   4.094   1.224  0.6651  2.0552 -0.0318
 2671SOL    HW2 9455   7.947   4.075   1.337  1.4465  0.0307  0.3660
 2672SOL     OW 9456   1.736   2.719   9.903  0.2487 -0.0351 -0.2299
 2672SOL    HW1 9457   1.708   2.732   9.812  0.6560  1.9352 -0.1203
 2672SOL    HW2 9458   1.831   2.710   9.898  0.2901  0.2497  0.0025
 2673SOL     OW 9459   3.788   4.450  10.161 -0.4419 -0.5234  0.1070
 2673SOL    HW1 9460   3.711   4.447  10.104 -0.6287 -0.6885  0.3682
 2673SOL    HW2 9461   3.797   4.361  10.193 -1.5503 -0.0401  1.9522
 2674SOL     OW 9462   2.844   4.126  12.438  0.2578 -0.4136 -0.6277
 2674SOL    HW1 9463   2.754   4.158  12.446  0.5856  0.6767 -1.0705
 2674SOL    HW2 9464   2.836   4.038  12.402 -0.7244 -1.2450  1.4703
 2675SOL     OW 9465   4.252   5.337   5.130 -0.5975  0.1243 -0.0819
 2675SOL    HW1 9466   4.186   5.381   5.183 -0.4000 -1.3487  1.4974
 2675SOL    HW2 9467   4.213   5.252   5.108  0.1432 -0.1146 -0.5197
 2676SOL     OW 9468   4.696   1.537   4.989  0.6427  0.3188 -0.6458
 2676SOL    HW1 9469   4.716   1.535   5.082  2.0798 -0.8438 -0.9411
 2676SOL    HW2 9470   4.615   1.486   4.980  0.7828 -0.0001 -0.1026
 2677SOL     OW 9471   5.665   2.505   6.044 -0.1576  0.1324  0.2624
 2677SOL    HW1 9472   5.626   2.420   6.021 -0.7121  0.2234  0.8196
 2677SOL    HW2 9473   5.685   2.546   5.960 -1.1286  0.0063 -0.0477
 2678SOL     OW 9474   7.280   7.685   2.948 -0.0983 -0.0215 -0.1315
 2678SOL    HW1 9475   7.334   7.761   2.967 -0.0329 -0.1298  0.1095
 2678SOL    HW2 9476   7.203   7.721   2.903  0.0553  0.1570 -0.2535
 2679SOL     OW 9477   2.270   0.981   5.842  0.1999 -0.1270 -0.0346
 2679SOL    HW1 9478   2.270   0.927   5.763  1.6677 -1.2045  0.6532
 2679SOL    HW2 9479   2.205   0.940   5.899  0.0148 -0.0676 -0.1983
 2680SOL     OW 9480   2.595   3.048   0.564 -0.5017 -0.0473 -0.0291
 2680SOL    HW1 9481   2.686   3.024   0.581 -0.8418 -1.5346 -0.2179
 2680SOL    HW2 9482   2.545   2.971   0.588 -1.7061  0.6800 -0.1389
 2681SOL     OW 9483   3.750   2.217   0.437 -0.0646  0.0403  0.4255
 2681SOL    HW1 9484   3.793   2.277   0.499  0.3701 -1.9160  2.1538
 2681SOL    HW2 9485   3.781   2.245   0.351  2.1313  0.7428  1.3598
 2682SOL     OW 9486   2.182   2.200  12.086 -0.0021  0.1058 -1.2364
 2682SOL    HW1 9487   2.098   2.208  12.130  0.4718 -1.9256  0.1578
 2682SOL    HW2 9488   2.241   2.258  12.135 -0.0286 -0.3078 -0.7223
 2683SOL     OW 9489   3.929   3.661   5.066  0.0120  0.3581 -0.1135
 2683SOL    HW1 9490   3.983   3.601   5.016  0.5301  0.1843  0.6243
 2683SOL    HW2 9491   3.840   3.644   5.037  0.2470 -0.1369 -0.5581
 2684SOL     OW 9492   6.890   0.360   3.195 -0.1822 -0.0902 -0.4017
 2684SOL    HW1 9493   6.928   0.402   3.272  1.2143 -0.0463 -1.0687
 2684SOL    HW2 9494   6.874   0.269   3.222  2.0984 -0.6104 -0.5546
 2685SOL     OW 9495   4.164   1.773  11.634 -0.2244 -0.0105  0.4205
 2685SOL    HW1 9496   4.252   1.751  11.665 -0.1564  0.2985  0.4515
 2685SOL    HW2 9497   4.113   1.693  11.647  0.5678 -0.9035 -1.6169
 2686SOL     OW 9498   0.064   7.364   6.466  0.3797 -0.2302 -0.1654
 2686SOL    HW1 9499   0.058   7.357   6.371  0.8190 -0.3100 -0.1894
 2686SOL    HW2 9500   0.023   7.284   6.499  2.1611 -1.2841 -0.3501
 2687SOL     OW 9501   0.148   5.863   2.699 -0.1827  0.3133  0.0173
 2687SOL    HW1 9502   0.211   5.813   2.649  0.6061  1.1044  0.1936
 2687SOL    HW2 9503   0.095   5.908   2.633 -1.6615 -1.6092 -0.1750
 2688SOL     OW 9504   3.456   3.145   5.984  0.2429 -0.1449  0.7870
 2688SOL    HW1 9505   3.388   3.168   5.920  0.7656  0.4437  0.4246
 2688SOL    HW2 9506   3.466   3.224   6.037  0.2551 -0.4219  1.1950
 2689SOL     OW 9507   1.809   4.811   7.775 -0.7877 -0.0912  0.2053
 2689SOL    HW1 9508   1.766   4.853   7.849 -1.6123 -0.1739 -0.2055
 2689SOL    HW2 9509   1.800   4.717   7.792 -1.1219 -0.1133 -0.0625
 2690SOL     OW 9510   5.470   2.006  11.728 -0.7831  0.1661  0.4676
 2690SOL    HW1 9511   5.527   1.986  11.654  0.9724  0.6029  1.6343
 2690SOL    HW2 9512   5.432   2.091  11.706 -1.2043 -0.2412 -0.4349
 2691SOL     OW 9513   7.201   4.444   7.989  0.4732  0.4348  0.8257
 2691SOL    HW1 9514   7.172   4.382   8.056  1.3904  0.2781  1.0867
 2691SOL    HW2 9515   7.294   4.428   7.979  0.4911  0.9482  0.0159
 2692SOL     OW 9516   6.492   7.399  10.157  0.5351  0.5049 -0.0424
 2692SOL    HW1 9517   6.510   7.345  10.233  0.1476  0.2119 -0.1513
 2692SOL    HW2 9518   6.401   7.427  10.168  0.2503 -0.1060 -0.7270
 2693SOL     OW 9519   0.429   1.432   3.124  0.0002  0.4268  0.2230
 2693SOL    HW1 9520   0.400   1.480   3.047 -0.8772 -0.6601 -0.1456
 2693SOL    HW2 9521   0.525   1.430   3.116 -0.0995 -0.1120 -1.1380
 2694SOL     OW 9522   6.856   1.478   0.610  0.5954 -0.2787  0.1149
 2694SOL    HW1 9523   6.923   1.542   0.586  1.8572 -0.6706  2.3960
 2694SOL    HW2 9524   6.775   1.530   0.616  1.5829  1.1725  1.8928
 2695SOL     OW 9525   5.547   1.684   5.721  0.1842  0.0634  0.1068
 2695SOL    HW1 9526   5.576   1.606   5.769  1.1996 -0.7178 -1.6348
 2695SOL    HW2 9527   5.621   1.744   5.726  0.6138 -0.3321 -1.0364
 2696SOL     OW 9528   0.714   2.636   9.319  0.5529 -0.4151 -0.2258
 2696SOL    HW1 9529   0.691   2.602   9.406 -0.1334 -0.2470 -0.3316
 2696SOL    HW2 9530   0.640   2.693   9.296  0.7492 -0.4244 -0.9010
 2697SOL     OW 9531   5.483   0.607   3.458  0.5061  0.4897  0.0078
 2697SOL    HW1 9532   5.490   0.702   3.471 -1.2777  0.5820  0.4836
 2697SOL    HW2 9533   5.525   0.591   3.373  0.6956  1.7068 -0.1470
 2698SOL     OW 9534   2.921   2.412  11.727 -0.3808 -0.0405 -0.0369
 2698SOL    HW1 9535   2.985   2.346  11.704 -0.0842 -0.0151  0.6697
 2698SOL    HW2 9536   2.965   2.466  11.793 -0.3615  1.2932 -1.0981
 2699SOL     OW 9537   6.944   0.479   2.374 -0.0023  1.0191 -0.0073
 2699SOL    HW1 9538   6.911   0.413   2.435  0.6622  0.8740  0.2029
 2699SOL    HW2 9539   6.878   0.549   2.377 -0.4189  0.6258  0.2077
 2700SOL     OW 9540   6.608   6.302   1.871 -0.0156  0.1660 -0.0977
 2700SOL    HW1 9541   6.662   6.240   1.920 -0.1718 -0.7216 -1.0036
 2700SOL    HW2 9542   6.669   6.343   1.809 -0.0849  0.2433 -0.1151
 2701SOL     OW 9543   1.819   7.211   8.422 -0.1632 -0.4843  0.3482
 2701SOL    HW1 9544   1.731   7.249   8.411  0.4851  0.9145 -0.3064
 2701SOL    HW2 9545   1.805   7.131   8.472 -1.7709 -0.0782  0.5973
 2702SOL     OW 9546   3.873   0.955   7.141  0.7807  0.5349  0.3438
 2702SOL    HW1 9547   3.789   1.001   7.135 -0.1641 -1.2110 -1.1491
 2702SOL    HW2 9548   3.923   0.986   7.066  0.1088 -0.7957 -0.7164
 2703SOL     OW 9549   6.647   1.436   7.173 -0.0394 -0.0820 -0.1497
 2703SOL    HW1 9550   6.701   1.502   7.217 -2.2280  2.0842 -0.5042
 2703SOL    HW2 9551   6.613   1.381   7.244  1.5488 -0.6957  0.1778
 2704SOL     OW 9552   4.911   2.898   9.900  0.1153 -0.6029 -0.3774
 2704SOL    HW1 9553   4.905   2.886   9.805 -0.5069  1.9146 -0.7304
 2704SOL    HW2 9554   4.882   2.989   9.914  1.0921 -0.6168  2.1181
 2705SOL     OW 9555   7.916   6.998   3.184 -0.2732  0.5421  0.0799
 2705SOL    HW1 9556   7.833   6.952   3.167 -0.1618  0.1810  0.5021
 2705SOL    HW2 9557   7.904   7.037   3.270 -0.3346  1.2473 -0.2389
 2706SOL     OW 9558   5.197   1.199   2.917  0.3715 -0.4486  0.0112
 2706SOL    HW1 9559   5.218   1.288   2.886 -1.4269 -0.0927 -0.3162
 2706SOL    HW2 9560   5.278   1.150   2.905  1.1087  0.8956 -0.7952
 2707SOL     OW 9561   7.735   4.331   9.715  0.0960 -0.1664 -0.1044
 2707SOL    HW1 9562   7.771   4.406   9.762 -0.6836  0.7202 -0.8689
 2707SOL    HW2 9563   7.641   4.349   9.710 -0.1123 -1.2268 -0.2549
 2708SOL     OW 9564   6.054   2.972   3.842  0.3325 -0.5328  0.1250
 2708SOL    HW1 9565   6.029   2.990   3.751 -1.0391  0.3940  0.6486
 2708SOL    HW2 9566   6.129   3.030   3.857  0.9112 -1.0852 -0.5651
 2709SOL     OW 9567   5.579   0.761   4.254  0.2476  0.7099 -0.3747
 2709SOL    HW1 9568   5.611   0.828   4.315  0.9590 -0.0724  0.1416
 2709SOL    HW2 9569   5.584   0.680   4.303 -2.8083  0.5223 -0.1842
 2710SOL     OW 9570   6.262   1.925   7.346  0.1784 -0.3137 -0.3490
 2710SOL    HW1 9571   6.215   1.997   7.305 -0.1763 -0.0589  0.4825
 2710SOL    HW2 9572   6.278   1.955   7.436  0.6393 -0.9896 -0.1962
 2711SOL     OW 9573   7.232   6.912   3.982  0.1676 -0.5609  0.1786
 2711SOL    HW1 9574   7.224   7.007   3.983  0.4524 -0.4998 -1.3842
 2711SOL    HW2 9575   7.262   6.890   4.070  3.6359  1.1260 -0.3887
 2712SOL     OW 9576   5.746   3.813   7.799  0.2024 -0.3762 -0.3517
 2712SOL    HW1 9577   5.670   3.800   7.856 -1.5251 -0.3588 -2.5189
 2712SOL    HW2 9578   5.736   3.903   7.767  1.3325 -0.2769 -0.4623
 2713SOL     OW 9579   5.995   4.427   4.592  0.8504 -0.9433 -0.4452
 2713SOL    HW1 9580   6.004   4.333   4.573  0.6374 -0.8707 -0.9096
 2713SOL    HW2 9581   6.080   4.464   4.569  1.1431 -1.1174  0.3305
 2714SOL     OW 9582   0.217   5.721   2.132  1.0103  0.0435 -0.2796
 2714SOL    HW1 9583   0.238   5.785   2.064  0.6596  0.2853 -0.1625
 2714SOL    HW2 9584   0.155   5.766   2.190 -0.0756 -0.7322 -0.7852
 2715SOL     OW 9585   3.310   2.538   4.362  0.5257 -0.5157 -0.2873
 2715SOL    HW1 9586   3.337   2.625   4.391  1.1768 -0.7127 -0.2906
 2715SOL    HW2 9587   3.242   2.554   4.296  0.4388 -0.0218 -0.0830
 2716SOL     OW 9588   7.186   2.750   7.712  0.2755 -0.3117  0.0303
 2716SOL    HW1 9589   7.145   2.664   7.699  0.3686 -0.2743 -0.5482
 2716SOL    HW2 9590   7.114   2.812   7.702  0.1753 -0.3265  0.6183
 2717SOL     OW 9591   0.304   6.255   1.630  0.8513  0.2359  0.0197
 2717SOL    HW1 9592   0.383   6.290   1.672  0.6792  0.8519 -0.1536
 2717SOL    HW2 9593   0.329   6.242   1.538  0.6551  0.7630 -0.1124
 2718SOL     OW 9594   0.176   0.211  11.751 -0.0494  0.5649 -0.5588
 2718SOL    HW1 9595   0.173   0.140  11.816  2.0262  0.4550 -0.5044
 2718SOL    HW2 9596   0.085   0.229  11.731 -0.6723 -1.9880 -0.4083
 2719SOL     OW 9597   3.503   7.417   3.818  0.4240 -0.6074 -0.3972
 2719SOL    HW1 9598   3.557   7.440   3.893  1.6927 -1.6413 -0.9464
 2719SOL    HW2 9599   3.538   7.469   3.746  0.0923 -0.6096 -0.5622
 2720SOL     OW 9600   3.453   4.120   3.126 -0.5523  0.3102 -0.3355
 2720SOL    HW1 9601   3.468   4.062   3.052  1.0002 -0.9173  0.8730
 2720SOL    HW2 9602   3.458   4.062   3.203  1.2056  2.0217  0.9326
 2721SOL     OW 9603   6.349   7.192   3.149  0.2276 -0.0081  0.3425
 2721SOL    HW1 9604   6.276   7.130   3.155  1.7431 -1.7730  2.7713
 2721SOL    HW2 9605   6.336   7.251   3.224  1.5695 -0.7549  1.2041
 2722SOL     OW 9606   7.270   2.460   6.735  0.0644 -0.0002 -0.1264
 2722SOL    HW1 9607   7.341   2.449   6.798 -0.6024 -1.4108  0.4158
 2722SOL    HW2 9608   7.307   2.518   6.668  1.5868 -0.3695  0.3406
 2723SOL     OW 9609   6.197   4.649  11.209  0.4094 -0.2758 -0.2434
 2723SOL    HW1 9610   6.213   4.595  11.286 -1.1011  0.7376  0.8306
 2723SOL    HW2 9611   6.138   4.597  11.155  0.4377 -0.4597 -0.0958
 2724SOL     OW 9612   1.289   0.016   5.390 -0.1822  0.3671  0.1716
 2724SOL    HW1 9613   1.346   0.040   5.318 -0.7462 -2.1946 -1.2617
 2724SOL    HW2 9614   1.311   0.077   5.460  1.0886  2.3195 -1.7982
 2725SOL     OW 9615   7.002   7.592  10.779  0.1156 -0.1793 -0.3079
 2725SOL    HW1 9616   7.095   7.601  10.758  0.5229 -1.3159  0.8903
 2725SOL    HW2 9617   6.993   7.629  10.867 -0.9751  1.7270 -1.1647
 2726SOL     OW 9618   1.425   3.175   0.388  0.4297  0.4052 -0.2721
 2726SOL    HW1 9619   1.420   3.240   0.458 -0.3979 -1.0727  1.1076
 2726SOL    HW2 9620   1.447   3.093   0.433 -0.9642 -0.7546 -1.6048
 2727SOL     OW 9621   5.959   2.416   9.914 -0.6462  0.2837  0.0476
 2727SOL    HW1 9622   6.012   2.345   9.877 -0.3732 -0.0549  1.0497
 2727SOL    HW2 9623   5.872   2.402   9.879 -0.2642  0.3610 -0.9743
 2728SOL     OW 9624   7.537   2.074   4.786  0.3661 -0.0867  0.0468
 2728SOL    HW1 9625   7.598   2.011   4.748 -1.1148 -0.8389 -1.1891
 2728SOL    HW2 9626   7.560   2.157   4.744  0.2513 -0.4612 -0.7882
 2729SOL     OW 9627   1.745   4.018  10.311  0.5000 -0.2824  0.1027
 2729SOL    HW1 9628   1.735   4.017  10.216  2.1987 -2.4660 -0.1268
 2729SOL    HW2 9629   1.691   3.945  10.341  0.8493 -0.3029  0.6838
 2730SOL     OW 9630   0.188   5.495   8.142 -0.4407  0.0960  0.1703
 2730SOL    HW1 9631   0.128   5.473   8.071  0.3730 -0.3608 -0.3986
 2730SOL    HW2 9632   0.212   5.411   8.181  0.2227  0.2281  0.0583
 2731SOL     OW 9633   2.994   5.180  11.302  0.2446 -0.0057  0.1060
 2731SOL    HW1 9634   2.948   5.113  11.252  0.8478  0.0764 -0.5794
 2731SOL    HW2 9635   3.076   5.193  11.254 -0.7719  2.8437 -1.1019
 2732SOL     OW 9636   0.879   2.340   0.254 -0.0590  0.5319  0.2390
 2732SOL    HW1 9637   0.876   2.385   0.170 -1.5434  0.2429  0.1244
 2732SOL    HW2 9638   0.913   2.406   0.315  1.3644  0.6358 -0.6158
 2733SOL     OW 9639   2.810   3.034   9.223 -0.0296  0.2221  0.0490
 2733SOL    HW1 9640   2.735   3.012   9.278  0.1570 -1.4141 -0.2985
 2733SOL    HW2 9641   2.870   3.080   9.281  0.0979 -1.3438  1.2147
 2734SOL     OW 9642   1.818   1.034   4.090 -0.1113  0.4335 -0.1816
 2734SOL    HW1 9643   1.797   0.967   4.155  1.4244  0.4061  0.3309
 2734SOL    HW2 9644   1.743   1.093   4.091 -0.9176 -0.5666  0.2783
 2735SOL     OW 9645   7.139   4.668   9.140 -0.2984 -0.1073 -0.6843
 2735SOL    HW1 9646   7.095   4.585   9.156  2.1761 -2.1226 -3.1943
 2735SOL    HW2 9647   7.185   4.688   9.221 -1.6056 -0.6931  0.2291
 2736SOL     OW 9648   3.135   3.195   7.907  0.3177  0.3610 -0.5904
 2736SOL    HW1 9649   3.181   3.255   7.965  0.0316 -1.0125  1.1587
 2736SOL    HW2 9650   3.045   3.227   7.905 -0.0699 -0.5164  1.1508
 2737SOL     OW 9651   3.841   7.197  10.989 -0.2807 -0.3440 -0.5429
 2737SOL    HW1 9652   3.817   7.107  11.008 -0.2027 -0.5287 -1.2849
 2737SOL    HW2 9653   3.822   7.245  11.070  2.6778 -1.5522  1.0272
 2738SOL     OW 9654   1.587   1.444  11.951  0.3441  0.1323  0.0674
 2738SOL    HW1 9655   1.539   1.448  11.869  1.1569  1.1636 -0.3789
 2738SOL    HW2 9656   1.522   1.417  12.016 -0.6127  0.5963 -0.6747
 2739SOL     OW 9657   7.327   5.216   7.737 -0.0997  0.6985  0.1468
 2739SOL    HW1 9658   7.234   5.202   7.722 -0.1932  0.0323  1.2817
 2739SOL    HW2 9659   7.369   5.194   7.653 -0.7424 -1.2090  0.2998
 2740SOL     OW 9660   7.941   6.725   1.499  0.2125  0.0755  0.0838
 2740SOL    HW1 9661   7.962   6.631   1.501  4.7121  0.8354  1.3247
 2740SOL    HW2 9662   7.883   6.738   1.574  0.9222 -1.5123  0.9603
 2741SOL     OW 9663   2.055   0.322   2.782  0.0827 -0.4890 -0.1488
 2741SOL    HW1 9664   2.017   0.402   2.818 -0.7944 -0.0089 -2.0236
 2741SOL    HW2 9665   2.040   0.328   2.688  4.3493 -0.5286 -1.0526
 2742SOL     OW 9666   6.986   5.483  10.252  0.1316 -0.1202  0.0189
 2742SOL    HW1 9667   6.958   5.427  10.180  1.5419 -1.4900  0.4720
 2742SOL    HW2 9668   6.933   5.562  10.243 -1.9585 -1.5075 -0.6279
 2743SOL     OW 9669   4.807   0.167  11.043 -0.1440 -0.2413  0.4614
 2743SOL    HW1 9670   4.809   0.121  11.127  0.9354 -1.6809 -0.3039
 2743SOL    HW2 9671   4.850   0.251  11.061  0.1594 -0.5719  1.3231
 2744SOL     OW 9672   0.262   1.072  11.627 -0.0527  0.2447  0.1264
 2744SOL    HW1 9673   0.240   1.043  11.539 -1.6891  0.5978  0.3972
 2744SOL    HW2 9674   0.237   0.999  11.683  1.4888 -0.2013  0.2827
 2745SOL     OW 9675   2.322   5.979   8.480 -0.2929 -0.3979 -0.7564
 2745SOL    HW1 9676   2.387   5.927   8.527 -1.2704 -0.7911  0.2051
 2745SOL    HW2 9677   2.302   5.928   8.402  0.6366 -0.2050 -1.1369
 2746SOL     OW 9678   0.872   4.128   2.564  0.0969  0.3957  0.4360
 2746SOL    HW1 9679   0.820   4.059   2.606 -1.2016  1.2095  0.2174
 2746SOL    HW2 9680   0.930   4.081   2.504 -1.3002 -0.4635 -0.2669
 2747SOL     OW 9681   5.565   4.041   0.537  0.0163  0.5673 -0.1865
 2747SOL    HW1 9682   5.618   4.052   0.616  0.8717  0.1077 -0.6776
 2747SOL    HW2 9683   5.502   4.113   0.539  0.4556  0.9322  0.5797
 2748SOL     OW 9684   4.266   7.271   6.138  0.1496  0.0610 -0.0863
 2748SOL    HW1 9685   4.194   7.209   6.125 -0.9605  1.5195 -1.2336
 2748SOL    HW2 9686   4.322   7.260   6.062  0.7443 -0.5099  0.4166
 2749SOL     OW 9687   1.219   0.257  11.789 -0.2010 -0.4454  0.4776
 2749SOL    HW1 9688   1.287   0.203  11.751 -0.9960 -1.0949 -0.0411
 2749SOL    HW2 9689   1.236   0.255  11.883  0.0053 -1.2783  0.4266
 2750SOL     OW 9690   0.601   7.289   1.671  0.0885 -0.1380  0.0409
 2750SOL    HW1 9691   0.663   7.361   1.670  0.1819 -0.1450  2.1018
 2750SOL    HW2 9692   0.518   7.328   1.700  0.1428 -0.8281  1.1843
 2751SOL     OW 9693   7.543   0.198  11.144 -0.4224  0.4219 -0.2164
 2751SOL    HW1 9694   7.523   0.246  11.063 -0.0219  0.6274 -0.1932
 2751SOL    HW2 9695   7.578   0.264  11.203  0.4328  0.0415 -0.2910
 2752SOL     OW 9696   1.985   7.665  11.145 -0.3695 -0.0022  0.2963
 2752SOL    HW1 9697   2.003   7.658  11.238 -0.2154  1.0000  0.3467
 2752SOL    HW2 9698   2.068   7.641  11.103  0.0218  1.0255  0.4567
 2753SOL     OW 9699   6.446   7.094   2.796 -0.3560 -0.2790  0.0381
 2753SOL    HW1 9700   6.441   7.167   2.857 -0.8973  0.0130 -0.3443
 2753SOL    HW2 9701   6.397   7.123   2.719  0.6621 -0.4848 -0.7069
 2754SOL     OW 9702   3.573   1.427  10.219 -0.3648  0.3404  0.4531
 2754SOL    HW1 9703   3.486   1.445  10.184 -0.2124 -1.4075 -0.9943
 2754SOL    HW2 9704   3.623   1.396  10.144  0.3740 -2.4183  1.9599
 2755SOL     OW 9705   7.754   3.181   4.592  0.0329  0.3492 -0.9736
 2755SOL    HW1 9706   7.783   3.255   4.538  1.6700  0.2216 -0.3451
 2755SOL    HW2 9707   7.789   3.104   4.548 -0.2737  0.0821 -0.7569
 2756SOL     OW 9708   4.786   2.685   1.919  0.1774  0.3512 -0.5472
 2756SOL    HW1 9709   4.771   2.614   1.981  0.4516  0.9417  0.2066
 2756SOL    HW2 9710   4.809   2.641   1.837  2.7556 -0.4326  0.4988
 2757SOL     OW 9711   1.731   5.817  11.464  0.1236 -0.0889  0.2810
 2757SOL    HW1 9712   1.664   5.761  11.502  0.0115  0.7093  1.3085
 2757SOL    HW2 9713   1.682   5.889  11.425  0.3555  0.3913  0.8567
 2758SOL     OW 9714   7.142   3.879   4.639  0.3163 -0.3219  0.1203
 2758SOL    HW1 9715   7.104   3.791   4.634 -0.2581 -0.2217  2.0276
 2758SOL    HW2 9716   7.223   3.867   4.687 -0.3476  0.3371  1.4487
 2759SOL     OW 9717   5.069   1.587   9.566 -0.8219  0.2225  0.0811
 2759SOL    HW1 9718   5.067   1.675   9.603  0.5469  0.8272 -1.1513
 2759SOL    HW2 9719   5.029   1.596   9.480  0.2626 -0.0947 -0.4848
 2760SOL     OW 9720   7.788   3.749   7.344  0.2407  0.0152 -0.3165
 2760SOL    HW1 9721   7.734   3.673   7.366 -0.3523  1.2805  3.2151
 2760SOL    HW2 9722   7.726   3.816   7.317  0.3901  0.3233  0.0901
 2761SOL     OW 9723   3.741   3.133   8.945 -0.1684 -0.5089  0.1024
 2761SOL    HW1 9724   3.815   3.162   8.999 -0.6592  0.5239  0.2557
 2761SOL    HW2 9725   3.725   3.043   8.972 -0.5127  0.0383  1.8459
 2762SOL     OW 9726   6.533   0.012   6.060 -0.1498 -0.1113  0.3802
 2762SOL    HW1 9727   6.458  -0.019   6.009 -0.1393  1.9966 -1.0195
 2762SOL    HW2 9728   6.593  -0.062   6.061 -0.1506 -0.2840 -2.7513
 2763SOL     OW 9729   2.205   7.239   2.844 -0.0226  0.2326 -0.5604
 2763SOL    HW1 9730   2.301   7.233   2.840 -0.0619  0.3917 -2.9935
 2763SOL    HW2 9731   2.187   7.333   2.840 -0.2825  0.2075 -0.0122
 2764SOL     OW 9732   1.571   6.204   7.134  0.2383  0.7040  0.5807
 2764SOL    HW1 9733   1.611   6.257   7.203 -0.0535  1.5612  0.1036
 2764SOL    HW2 9734   1.500   6.259   7.100 -0.4151 -0.2011  0.4288
 2765SOL     OW 9735   0.176   2.825   0.799 -0.3638 -0.6727  0.2482
 2765SOL    HW1 9736   0.131   2.810   0.717 -0.0398 -3.5707  0.4861
 2765SOL    HW2 9737   0.251   2.880   0.776  0.0418 -1.9002 -1.5149
 2766SOL     OW 9738   0.717   7.937   2.413  0.1911  0.3280 -0.1676
 2766SOL    HW1 9739   0.746   7.900   2.496 -0.9674 -0.4044 -0.0664
 2766SOL    HW2 9740   0.636   7.984   2.435 -0.2669 -0.0940 -0.9210
 2767SOL     OW 9741   1.461   1.614   4.140  0.1042 -0.1074 -0.5374
 2767SOL    HW1 9742   1.394   1.548   4.124  0.5016 -0.9946  1.2373
 2767SOL    HW2 9743   1.461   1.668   4.061 -2.4477 -0.2764 -0.7225
 2768SOL     OW 9744   5.859   0.311  12.249  0.1284  0.0797 -0.1135
 2768SOL    HW1 9745   5.829   0.278  12.334  0.8512  0.0827  0.1528
 2768SOL    HW2 9746   5.830   0.402  12.248  0.4499  0.1918  0.3029
 2769SOL     OW 9747   1.093   7.065   3.550 -0.1008  0.3360  0.8404
 2769SOL    HW1 9748   1.169   7.118   3.573 -1.2576  1.4306  2.3217
 2769SOL    HW2 9749   1.023   7.128   3.535 -0.8259 -0.6617 -0.2443
 2770SOL     OW 9750   3.530   4.246  11.313  0.0181 -0.4554 -0.0383
 2770SOL    HW1 9751   3.572   4.218  11.394 -0.0074  0.1183  0.1773
 2770SOL    HW2 9752   3.584   4.208  11.244  0.8578  0.2104  0.2335
 2771SOL     OW 9753   2.271   6.128   7.234  0.2959  0.3111  0.1112
 2771SOL    HW1 9754   2.222   6.195   7.281 -2.6939 -0.4794 -1.6234
 2771SOL    HW2 9755   2.268   6.156   7.142  0.4691 -1.2949 -0.4182
 2772SOL     OW 9756   1.306   1.332   1.397 -0.0360 -0.2281  0.4774
 2772SOL    HW1 9757   1.284   1.415   1.441  0.5228  0.4124 -0.4259
 2772SOL    HW2 9758   1.397   1.317   1.420  0.6599  0.7677 -1.4176
 2773SOL     OW 9759   7.129   1.179   9.485  0.0113  0.2466  0.2833
 2773SOL    HW1 9760   7.097   1.243   9.549  0.6260  0.8452  0.0096
 2773SOL    HW2 9761   7.176   1.114   9.537  0.1782  0.5243  0.4831
 2774SOL     OW 9762   4.050   5.145   2.064  0.2782  0.0379  0.0526
 2774SOL    HW1 9763   4.115   5.139   1.994  1.0452  0.6970  0.6925
 2774SOL    HW2 9764   3.980   5.198   2.027  0.6641  0.3555 -0.2367
 2775SOL     OW 9765   1.434   6.174   7.529  0.1728  0.0476 -0.7432
 2775SOL    HW1 9766   1.502   6.229   7.567  0.3023 -0.2421 -0.5484
 2775SOL    HW2 9767   1.352   6.220   7.545  0.0687 -0.6746  1.0525
 2776SOL     OW 9768   4.735   7.288   4.670 -0.0270  0.0707 -0.0292
 2776SOL    HW1 9769   4.662   7.315   4.614 -0.2356  2.9212  1.4003
 2776SOL    HW2 9770   4.813   7.323   4.627  0.2424 -1.0097 -0.4233
 2777SOL     OW 9771   1.083   6.681   5.244 -0.0824  0.2296 -0.3061
 2777SOL    HW1 9772   1.150   6.725   5.192 -0.9754  0.3272 -1.4226
 2777SOL    HW2 9773   1.043   6.750   5.296  0.2572  0.2829 -0.1169
 2778SOL     OW 9774   7.514   7.926   2.291 -0.2260 -0.0616  0.1072
 2778SOL    HW1 9775   7.577   7.991   2.323  0.0510 -0.5138  0.5004
 2778SOL    HW2 9776   7.568   7.850   2.269 -0.5793 -0.2628 -0.0666
 2779SOL     OW 9777   3.485   5.955  11.909 -0.0087  0.2082 -0.2194
 2779SOL    HW1 9778   3.568   5.978  11.951  0.6601 -0.8666 -0.8947
 2779SOL    HW2 9779   3.418   5.979  11.973  0.9776 -1.7005  1.6865
 2780SOL     OW 9780   6.066   1.612   0.884 -0.4250  0.0559  0.4212
 2780SOL    HW1 9781   5.983   1.645   0.918 -0.3313  1.7045 -0.8144
 2780SOL    HW2 9782   6.132   1.668   0.925  0.0888 -1.1703  1.3065
 2781SOL     OW 9783   4.154   7.048   2.101 -0.9321 -0.1729  0.3661
 2781SOL    HW1 9784   4.233   7.101   2.105 -0.5396 -0.8401  2.7029
 2781SOL    HW2 9785   4.095   7.096   2.043  1.4919 -0.1646 -2.3141
 2782SOL     OW 9786   3.094   4.513   3.133  0.0800  0.0899 -0.0614
 2782SOL    HW1 9787   3.121   4.443   3.073  0.2053  0.7751 -0.8266
 2782SOL    HW2 9788   3.009   4.541   3.100 -0.4502 -0.3885  0.8622
 2783SOL     OW 9789   0.773   7.708   0.173 -0.0067  0.3432  0.2976
 2783SOL    HW1 9790   0.705   7.680   0.111 -0.3981 -0.8013  1.2083
 2783SOL    HW2 9791   0.778   7.803   0.161 -0.8766  0.2867 -0.6809
 2784SOL     OW 9792   1.885   2.346   5.566  0.5228  0.0803 -0.4919
 2784SOL    HW1 9793   1.975   2.357   5.596  0.5552  0.2532 -0.6466
 2784SOL    HW2 9794   1.892   2.342   5.470  0.2824  1.0184 -0.5655
 2785SOL     OW 9795   1.985   4.790   5.124  0.0938 -0.2216  0.0570
 2785SOL    HW1 9796   1.901   4.778   5.169 -0.1859  0.1694 -0.3444
 2785SOL    HW2 9797   1.963   4.785   5.031  0.2678  1.2422 -0.0996
 2786SOL     OW 9798   5.780   4.139   5.418 -0.8047  0.4758 -0.1591
 2786SOL    HW1 9799   5.789   4.105   5.329 -0.7431 -0.1146  0.0684
 2786SOL    HW2 9800   5.751   4.229   5.407  2.3502  1.5488 -0.8861
 2787SOL     OW 9801   7.188   6.841   8.546  0.4025 -0.0796 -0.6726
 2787SOL    HW1 9802   7.277   6.833   8.511  0.1877  0.6351 -1.4101
 2787SOL    HW2 9803   7.187   6.924   8.592 -0.2300  0.5462 -1.7667
 2788SOL     OW 9804   2.883   1.537  11.584  0.1001  0.1619 -0.1994
 2788SOL    HW1 9805   2.962   1.575  11.546 -0.8873  1.5470 -0.9347
 2788SOL    HW2 9806   2.907   1.445  11.600  1.3346  0.1148 -1.9446
 2789SOL     OW 9807   7.038   6.738   5.315  0.0067  0.2945  0.0448
 2789SOL    HW1 9808   7.085   6.665   5.276  1.8307  1.8842 -0.8899
 2789SOL    HW2 9809   7.052   6.728   5.409  1.7471  0.3916 -0.1867
 2790SOL     OW 9810   2.100   1.931   5.633  0.3459  0.4386 -0.0500
 2790SOL    HW1 9811   2.141   1.989   5.698  0.8377 -0.6478  0.6439
 2790SOL    HW2 9812   2.009   1.924   5.663  0.5875 -0.1163  0.5910
 2791SOL     OW 9813   3.592   7.499   3.568 -0.2287  0.3118  0.2543
 2791SOL    HW1 9814   3.529   7.442   3.523  1.5341 -1.0410 -0.6069
 2791SOL    HW2 9815   3.592   7.580   3.517 -0.4049 -0.1236 -0.4506
 2792SOL     OW 9816   5.769   3.725  11.164 -0.0880 -0.1924 -0.3343
 2792SOL    HW1 9817   5.858   3.706  11.134  0.1383  2.0331 -1.2563
 2792SOL    HW2 9818   5.714   3.659  11.122  0.9616 -0.7454 -0.8713
 2793SOL     OW 9819   4.088   5.561   8.163 -0.7808 -0.5378 -0.2813
 2793SOL    HW1 9820   4.043   5.482   8.132 -1.5010 -0.2344 -0.0481
 2793SOL    HW2 9821   4.157   5.528   8.221 -0.2788 -1.0428 -1.1459
 2794SOL     OW 9822   7.708   2.290  12.420 -0.8227 -0.2587  0.1461
 2794SOL    HW1 9823   7.791   2.335  12.435 -1.7089  1.0330  1.4391
 2794SOL    HW2 9824   7.646   2.360  12.398 -1.1273 -1.4193 -3.2185
 2795SOL     OW 9825   1.417   4.823  10.868  0.5100  0.1492  0.6662
 2795SOL    HW1 9826   1.386   4.847  10.955 -1.9776  0.6827 -0.2852
 2795SOL    HW2 9827   1.421   4.727  10.870 -2.1070 -0.0491  0.6679
 2796SOL     OW 9828   5.331   2.084   2.370  0.0789 -0.6766  0.2585
 2796SOL    HW1 9829   5.254   2.075   2.314 -0.8261  0.0947  1.3174
 2796SOL    HW2 9830   5.404   2.052   2.317 -1.1219 -2.5843 -0.3640
 2797SOL     OW 9831   0.682   2.592   1.517 -0.3303 -0.0978 -0.2117
 2797SOL    HW1 9832   0.761   2.614   1.565  0.3116 -0.6051 -1.0047
 2797SOL    HW2 9833   0.681   2.653   1.443 -0.7298 -0.0319 -0.1545
 2798SOL     OW 9834   7.919   7.122   6.557  0.6033 -0.6390 -0.0115
 2798SOL    HW1 9835   7.897   7.137   6.649  0.3758 -0.1309 -0.1418
 2798SOL    HW2 9836   7.835   7.127   6.511  0.7637 -0.4850 -0.2950
 2799SOL     OW 9837   7.527   1.658   2.253  0.5118  0.1936 -0.0193
 2799SOL    HW1 9838   7.475   1.629   2.329  0.8604 -1.5163 -0.3979
 2799SOL    HW2 9839   7.527   1.754   2.260  0.6208  0.0953  2.1930
 2800SOL     OW 9840   4.333   4.418  11.136 -0.6089  0.0069  0.2375
 2800SOL    HW1 9841   4.370   4.344  11.087 -0.8960 -0.1162  0.2032
 2800SOL    HW2 9842   4.400   4.439  11.201  0.0719  0.6009 -0.6181
 2801SOL     OW 9843   5.542   4.532   2.386 -0.3919  0.0764 -0.0068
 2801SOL    HW1 9844   5.494   4.454   2.413  0.2513  0.3078  1.9401
 2801SOL    HW2 9845   5.620   4.533   2.441  0.5215  1.1410 -1.2607
 2802SOL     OW 9846   6.654   5.366   3.227  0.3737 -0.3790 -0.1058
 2802SOL    HW1 9847   6.749   5.371   3.242  0.1388  0.4839  1.3493
 2802SOL    HW2 9848   6.623   5.306   3.295 -0.2315  0.0909  0.0358
 2803SOL     OW 9849   0.251   7.545   8.528  0.1563 -0.0561  0.3565
 2803SOL    HW1 9850   0.316   7.554   8.599  1.0868  0.3214 -0.5224
 2803SOL    HW2 9851   0.202   7.627   8.531 -0.3526 -0.3734  1.0741
 2804SOL     OW 9852   0.206   0.929  11.845 -0.2206 -0.0878  0.7044
 2804SOL    HW1 9853   0.134   0.931  11.909 -0.5267  1.4570  0.3438
 2804SOL    HW2 9854   0.283   0.953  11.895 -0.7724  3.1453  0.1911
 2805SOL     OW 9855   1.089   2.584  12.371  0.5279  0.4756  0.4527
 2805SOL    HW1 9856   1.105   2.618  12.283 -2.0381 -0.8165 -0.6217
 2805SOL    HW2 9857   1.070   2.661  12.424 -1.3160  1.1086 -1.0007
 2806SOL     OW 9858   3.192   4.289  11.154  0.3659 -0.0817 -0.4272
 2806SOL    HW1 9859   3.162   4.235  11.227 -0.6330  0.6946 -0.2424
 2806SOL    HW2 9860   3.174   4.236  11.076  0.6572 -0.5675 -0.1677
 2807SOL     OW 9861   5.179   7.848  11.060  0.0924 -0.5246  0.0154
 2807SOL    HW1 9862   5.242   7.783  11.030  0.5676 -1.1175  2.1343
 2807SOL    HW2 9863   5.179   7.840  11.155 -2.0929  0.4928  0.1776
 2808SOL     OW 9864   5.370   5.323   0.793 -0.2935  0.0084  0.1848
 2808SOL    HW1 9865   5.350   5.347   0.883 -1.0061  0.6108 -0.1252
 2808SOL    HW2 9866   5.285   5.311   0.751 -0.0155  1.0054 -0.7365
 2809SOL     OW 9867   3.894   4.447   1.343 -0.4839 -1.0521  0.2311
 2809SOL    HW1 9868   3.920   4.385   1.411 -2.1219 -1.9532  0.0859
 2809SOL    HW2 9869   3.908   4.533   1.382 -0.6130 -1.5483  1.3970
 2810SOL     OW 9870   2.233   7.870   8.706 -0.0014 -0.1860  0.6260
 2810SOL    HW1 9871   2.327   7.891   8.699  0.0439 -0.2158  1.0912
 2810SOL    HW2 9872   2.211   7.833   8.621  0.2793  0.3320  0.3224
 2811SOL     OW 9873   1.425   2.468   4.495 -0.1308 -0.0580  0.9176
 2811SOL    HW1 9874   1.381   2.483   4.579 -1.8246  0.2499  0.0211
 2811SOL    HW2 9875   1.416   2.551   4.448 -0.8450 -0.7770 -0.2748
 2812SOL     OW 9876   6.369   5.943   4.471  0.0921  0.2903 -0.1618
 2812SOL    HW1 9877   6.351   5.986   4.387 -0.0325  1.7742  0.5852
 2812SOL    HW2 9878   6.286   5.948   4.518  0.7377  1.5568  0.9073
 2813SOL     OW 9879   2.767   4.092   6.506  0.4294 -0.0874  0.3147
 2813SOL    HW1 9880   2.787   4.095   6.413 -1.4256 -3.1841 -0.3496
 2813SOL    HW2 9881   2.841   4.046   6.545  1.3442  1.4613  0.5042
 2814SOL     OW 9882   0.142   5.114   8.672 -0.3579  0.2544 -0.5372
 2814SOL    HW1 9883   0.184   5.127   8.757 -1.8635  0.4238  0.2133
 2814SOL    HW2 9884   0.092   5.033   8.681 -2.8009  1.6997 -0.2497
 2815SOL     OW 9885   1.210   4.673   3.474 -0.8520  0.3980 -0.0842
 2815SOL    HW1 9886   1.146   4.606   3.497  0.4911 -0.9006  0.0102
 2815SOL    HW2 9887   1.288   4.624   3.448 -0.1426  1.9162 -0.9706
 2816SOL     OW 9888   5.018   2.923   3.963 -0.1656  0.0811 -0.5588
 2816SOL    HW1 9889   4.945   2.931   4.025 -0.6062  0.4631 -1.1071
 2816SOL    HW2 9890   5.090   2.969   4.005 -0.5292  0.5353 -0.4214
 2817SOL     OW 9891   0.615   0.686  12.360  0.5984 -0.2104 -0.2377
 2817SOL    HW1 9892   0.553   0.687  12.288  1.9024  0.7321 -1.4170
 2817SOL    HW2 9893   0.648   0.776  12.365  2.0274 -0.7159  0.1771
 2818SOL     OW 9894   0.595   5.029   2.750  0.7389 -0.0561  0.1992
 2818SOL    HW1 9895   0.543   5.104   2.779  0.3456  0.5314 -1.9076
 2818SOL    HW2 9896   0.538   4.953   2.763 -1.7590  0.7701 -4.1188
 2819SOL     OW 9897   2.459   7.771   3.621  0.8010  0.1395 -0.0228
 2819SOL    HW1 9898   2.407   7.757   3.542  1.2891  0.0071 -0.3247
 2819SOL    HW2 9899   2.516   7.845   3.599  1.1210 -0.0663  0.1105
 2820SOL     OW 9900   3.105   2.805  12.001 -0.2060  0.1280  0.1875
 2820SOL    HW1 9901   3.126   2.874  11.939 -2.9354  2.3893  1.5448
 2820SOL    HW2 9902   3.190   2.778  12.037  1.2382  0.2223 -2.8514
 2821SOL     OW 9903   0.346   7.596   6.949  0.2180  0.7402  0.4548
 2821SOL    HW1 9904   0.283   7.528   6.925  0.8594  1.4109 -3.8439
 2821SOL    HW2 9905   0.419   7.548   6.989  0.0038 -0.9803 -1.0830
 2822SOL     OW 9906   4.612   1.504   7.774 -0.2639  0.1540 -0.3605
 2822SOL    HW1 9907   4.613   1.591   7.813 -1.3738 -0.9542  2.4170
 2822SOL    HW2 9908   4.583   1.518   7.684 -0.0804  2.6703 -0.0889
 2823SOL     OW 9909   7.664   4.624   5.210 -0.5031 -0.0232  0.3124
 2823SOL    HW1 9910   7.619   4.707   5.224  0.6865  0.8946 -1.0605
 2823SOL    HW2 9911   7.609   4.578   5.146 -0.1468  0.5571 -0.4153
 2824SOL     OW 9912   3.605   2.756   2.507  0.4847  0.5156 -0.3543
 2824SOL    HW1 9913   3.613   2.672   2.552  0.4822  0.2511 -0.8418
 2824SOL    HW2 9914   3.669   2.813   2.551  1.0664  0.0247 -0.5531
 2825SOL     OW 9915   2.040   5.200   9.466  0.2235  0.0888 -0.3406
 2825SOL    HW1 9916   2.054   5.294   9.451  0.1876  0.0998 -0.3035
 2825SOL    HW2 9917   2.092   5.157   9.398  0.6583  0.1228 -0.0309
 2826SOL     OW 9918   7.377   3.442   2.696 -0.0782  0.5199  0.0136
 2826SOL    HW1 9919   7.358   3.516   2.754  0.7235 -1.5287  3.1211
 2826SOL    HW2 9920   7.291   3.406   2.674 -0.4215  1.6694 -0.6013
 2827SOL     OW 9921   5.146   4.693   1.374 -0.2965 -0.1421 -0.9470
 2827SOL    HW1 9922   5.087   4.706   1.300 -1.7326 -1.6192 -0.1258
 2827SOL    HW2 9923   5.098   4.727   1.450  1.2929  1.6782 -0.6669
 2828SOL     OW 9924   4.680   4.958   7.597  0.4004 -0.4388 -0.4998
 2828SOL    HW1 9925   4.589   4.987   7.591 -0.4754 -2.4386  1.6521
 2828SOL    HW2 9926   4.730   5.030   7.559 -1.9887  1.1469 -0.9090
 2829SOL     OW 9927   1.205   0.260   0.451 -0.2736 -0.2139 -0.6210
 2829SOL    HW1 9928   1.260   0.278   0.527 -0.1835 -1.0752 -0.4717
 2829SOL    HW2 9929   1.263   0.217   0.389 -0.6303 -0.6045 -0.6913
 2830SOL     OW 9930   4.108   5.440  11.488  0.0270 -0.3584 -0.1809
 2830SOL    HW1 9931   4.091   5.475  11.401 -1.6097 -0.6822 -0.0245
 2830SOL    HW2 9932   4.022   5.439  11.531  0.7704 -0.3299  1.3935
 2831SOL     OW 9933   1.369   5.492   6.276 -0.1914 -0.3489  0.0370
 2831SOL    HW1 9934   1.443   5.552   6.263 -0.7039  0.0456 -1.1888
 2831SOL    HW2 9935   1.318   5.499   6.195  0.3262 -3.2652 -0.6625
 2832SOL     OW 9936   7.700   3.833   0.524  0.0419 -0.2203 -0.4358
 2832SOL    HW1 9937   7.778   3.877   0.559 -0.7078 -0.1268  1.1758
 2832SOL    HW2 9938   7.634   3.843   0.592 -0.7988 -2.0148 -0.9424
 2833SOL     OW 9939   1.121   3.326   0.801  0.7984 -0.0932  0.0712
 2833SOL    HW1 9940   1.103   3.329   0.707  0.2030  0.4104  0.1984
 2833SOL    HW2 9941   1.197   3.383   0.813  0.2989  0.5939  0.0224
 2834SOL     OW 9942   1.787   7.332  10.720 -0.1344  0.1872 -0.1863
 2834SOL    HW1 9943   1.741   7.405  10.679  0.9963  0.6883 -0.5978
 2834SOL    HW2 9944   1.869   7.370  10.751  0.9798 -1.1074 -1.3955
 2835SOL     OW 9945   3.337   6.984   3.266 -0.1294  0.3395 -0.3910
 2835SOL    HW1 9946   3.406   6.937   3.314 -0.8681 -0.2510  0.1129
 2835SOL    HW2 9947   3.377   7.004   3.182  0.6428 -0.0592 -0.1331
 2836SOL     OW 9948   7.513   5.364  10.497 -0.1062 -0.1572  0.0007
 2836SOL    HW1 9949   7.578   5.431  10.478  0.0906 -0.2900  0.1974
 2836SOL    HW2 9950   7.536   5.291  10.440 -1.5297  0.6620 -1.7155
 2837SOL     OW 9951   4.685   5.618   7.267  0.2514 -0.6531 -0.2285
 2837SOL    HW1 9952   4.654   5.616   7.357  1.0988  0.4199  0.1050
 2837SOL    HW2 9953   4.612   5.654   7.217  0.2137 -0.0820  0.2301
 2838SOL     OW 9954   7.096   0.300   8.277 -0.3219 -0.1030 -0.2689
 2838SOL    HW1 9955   7.166   0.260   8.328 -0.1548 -1.6621 -1.6678
 2838SOL    HW2 9956   7.018   0.292   8.332  0.5832  1.9903  1.4659
 2839SOL     OW 9957   5.713   2.869   3.618 -0.4645 -0.3446  0.3431
 2839SOL    HW1 9958   5.797   2.860   3.572 -1.7176  0.3622 -2.2655
 2839SOL    HW2 9959   5.670   2.784   3.605 -0.9167 -0.0672  0.0253
 2840SOL     OW 9960   7.513   2.141   4.136  0.1605 -0.2565  0.2128
 2840SOL    HW1 9961   7.480   2.210   4.079 -1.7093 -0.8570  0.5149
 2840SOL    HW2 9962   7.602   2.124   4.103 -1.2317 -1.5129 -3.4724
 2841SOL     OW 9963   1.519   3.572   9.447 -0.1237  0.6163 -0.1570
 2841SOL    HW1 9964   1.452   3.640   9.456 -0.0391  0.6904 -0.0880
 2841SOL    HW2 9965   1.514   3.522   9.528 -0.4586  0.2908 -0.3688
 2842SOL     OW 9966   0.239   6.182  12.267  0.6090 -0.6712  0.7608
 2842SOL    HW1 9967   0.314   6.238  12.245  0.0384 -0.3234 -0.4063
 2842SOL    HW2 9968   0.163   6.239  12.255  0.1884 -0.4174  3.8811
 2843SOL     OW 9969   7.837   4.861  10.795 -0.4132  0.0530 -0.2083
 2843SOL    HW1 9970   7.754   4.813  10.799 -1.5212  1.9570  1.4062
 2843SOL    HW2 9971   7.868   4.863  10.886  0.5829  0.7531 -0.5448
 2844SOL     OW 9972   6.087   5.586   0.863 -0.2846  0.0374 -0.0030
 2844SOL    HW1 9973   6.087   5.527   0.938  0.3502 -1.5470 -1.2060
 2844SOL    HW2 9974   6.001   5.628   0.866 -0.6772 -0.7937  0.9777
 2845SOL     OW 9975   7.732   6.475   0.524 -0.5278  0.2606 -0.1567
 2845SOL    HW1 9976   7.693   6.436   0.602  1.8126  0.0611  0.9880
 2845SOL    HW2 9977   7.776   6.402   0.480 -1.8255  0.3678 -1.7397
 2846SOL     OW 9978   7.174   1.471   4.319  0.0324  0.1759 -0.0161
 2846SOL    HW1 9979   7.171   1.474   4.224  0.2455  0.1482 -0.0256
 2846SOL    HW2 9980   7.111   1.403   4.343  1.3259 -1.1779 -0.2473
 2847SOL     OW 9981   3.856   5.105   7.966  0.0198  0.3076 -0.5711
 2847SOL    HW1 9982   3.779   5.049   7.977  0.5833 -0.5959 -1.0488
 2847SOL    HW2 9983   3.929   5.052   7.998  0.4098  1.3000  0.2447
 2848SOL     OW 9984   6.101   3.418   4.507  0.1133  0.5497  0.7732
 2848SOL    HW1 9985   6.039   3.356   4.545  0.1679  0.1972  0.2922
 2848SOL    HW2 9986   6.050   3.498   4.494 -1.1004 -0.5744 -2.3121
 2849SOL     OW 9987   3.018   1.280   6.160  0.0694  0.2964 -0.2410
 2849SOL    HW1 9988   2.945   1.342   6.157  1.1190  1.6810  1.1978
 2849SOL    HW2 9989   3.015   1.244   6.249  0.1626 -0.8987 -0.7038
 2850SOL     OW 9990   5.554   3.024   3.794 -0.5596 -0.3963  0.0583
 2850SOL    HW1 9991   5.622   2.991   3.735 -0.8810 -0.3572 -0.3391
 2850SOL    HW2 9992   5.482   2.961   3.785 -0.6331 -0.3593  0.3684
 2851SOL     OW 9993   3.005   6.206   6.938 -0.4271 -0.2164  0.4362
 2851SOL    HW1 9994   2.980   6.190   7.029 -1.6055  1.4934  0.4631
 2851SOL    HW2 9995   3.100   6.202   6.938 -0.4298 -0.9517  1.5865
 2852SOL     OW 9996   7.247   3.608   0.358  0.0745  0.0279 -0.0347
 2852SOL    HW1 9997   7.324   3.648   0.399  0.7692 -0.6978 -0.5980
 2852SOL    HW2 9998   7.173   3.652   0.400  0.7707  0.1256  1.1621
 2853SOL     OW 9999   4.527   0.767   9.633 -0.2744 -0.0568 -0.2995
 2853SOL    HW110000   4.498   0.676   9.623 -0.4828  0.0422 -0.6384
 2853SOL    HW210001   4.514   0.787   9.725  0.3118 -0.5527 -0.1036
 2854SOL     OW10002   1.267   3.368   2.408 -0.5352 -0.3314  0.2785
 2854SOL    HW110003   1.256   3.319   2.327 -0.5336  0.2991 -0.1106
 2854SOL    HW210004   1.199   3.435   2.405  0.9253  1.1828 -0.3279
 2855SOL     OW10005   1.058   7.663  12.221  0.0724  0.2961 -0.0428
 2855SOL    HW110006   1.015   7.584  12.253 -2.3674 -0.6473 -4.7247
 2855SOL    HW210007   0.996   7.734  12.238 -1.1704 -0.1845 -2.2504
 2856SOL     OW10008   4.926   5.569   7.134  0.0428 -0.1587 -0.2200
 2856SOL    HW110009   4.926   5.648   7.080  0.3093  0.5929  0.8362
 2856SOL    HW210010   4.835   5.558   7.161  0.1608  0.3971  0.4541
 2857SOL     OW10011   4.367   2.139   0.525 -0.4827  0.2283 -0.1504
 2857SOL    HW110012   4.446   2.089   0.505 -1.1293 -0.8488 -0.1323
 2857SOL    HW210013   4.340   2.107   0.611 -0.1472  1.6502  0.5133
 2858SOL     OW10014   4.011   2.325   3.430  0.0694  0.6484 -0.3834
 2858SOL    HW110015   4.046   2.295   3.514  2.0119  0.1332 -1.2974
 2858SOL    HW210016   3.956   2.400   3.452 -0.7162 -0.4046  1.4706
 2859SOL     OW10017   7.336   2.196   3.538  0.6539  0.9066  0.3428
 2859SOL    HW110018   7.264   2.138   3.516  2.2674 -2.2264  2.5858
 2859SOL    HW210019   7.302   2.252   3.608  0.0270  0.2671  0.5578
 2860SOL     OW10020   6.841   1.226  10.718 -0.8921  0.1422 -0.6368
 2860SOL    HW110021   6.831   1.209  10.624 -1.7376  1.6880 -0.8730
 2860SOL    HW210022   6.764   1.279  10.740 -0.5186  0.1007  0.8648
 2861SOL     OW10023   3.970   1.806   0.902  0.6545 -0.4707 -0.0582
 2861SOL    HW110024   3.958   1.813   0.996 -0.8087 -1.7028 -0.1211
 2861SOL    HW210025   3.898   1.857   0.865  0.1917 -1.4218 -0.4935
 2862SOL     OW10026   5.819   5.200  10.079 -0.6785  0.5996 -0.7713
 2862SOL    HW110027   5.850   5.157  10.159  0.1900  1.2933 -0.7154
 2862SOL    HW210028   5.830   5.293  10.097  0.6095  0.7482 -2.1047
 2863SOL     OW10029   2.884   7.307   3.079  0.7577  0.0114 -0.2480
 2863SOL    HW110030   2.947   7.240   3.106  1.0813  1.2238  2.3975
 2863SOL    HW210031   2.801   7.260   3.069  1.0639 -0.8755  1.1444
 2864SOL     OW10032   1.901   5.340   1.901  0.5456 -0.1301  0.0626
 2864SOL    HW110033   1.972   5.404   1.897  1.4896 -0.9330  2.2411
 2864SOL    HW210034   1.935   5.263   1.855  0.5358 -0.0346 -0.1037
 2865SOL     OW10035   7.078   2.395   2.295 -0.0696  0.3384 -0.6945
 2865SOL    HW110036   6.984   2.378   2.285 -0.0865  0.1090 -0.1594
 2865SOL    HW210037   7.097   2.374   2.386  0.2342  1.6452 -0.4374
 2866SOL     OW10038   7.854   7.656   1.480  0.4860  0.1165 -0.1020
 2866SOL    HW110039   7.908   7.716   1.532  2.2678 -1.3936 -0.0838
 2866SOL    HW210040   7.766   7.692   1.485  1.5316  2.9960 -0.5161
 2867SOL     OW10041   7.668   1.686   1.524 -0.5126  0.0559 -0.3399
 2867SOL    HW110042   7.724   1.731   1.587  0.3939 -0.5401 -0.6966
 2867SOL    HW210043   7.647   1.602   1.566 -0.5026 -0.0448 -0.5347
 2868SOL     OW10044   3.408   5.882   1.318 -0.3045  0.1715  0.3444
 2868SOL    HW110045   3.376   5.918   1.235 -0.0626 -0.0789  0.1381
 2868SOL    HW210046   3.387   5.788   1.313  0.4154  0.0038  0.2160
 2869SOL     OW10047   7.406   4.193   4.279  0.2533  0.6538  0.6776
 2869SOL    HW110048   7.360   4.246   4.214 -0.9772 -0.0814  0.9103
 2869SOL    HW210049   7.358   4.209   4.360 -1.3551 -2.1236  0.4181
 2870SOL     OW10050   4.264   6.003   7.267  0.3215 -0.0180  0.4477
 2870SOL    HW110051   4.210   6.065   7.315  0.9779 -0.0332  1.2342
 2870SOL    HW210052   4.266   5.925   7.323 -0.0287 -0.5525 -0.2597
 2871SOL     OW10053   0.149   6.268  11.930  0.5139 -0.1440  0.2819
 2871SOL    HW110054   0.202   6.346  11.946 -0.5907  0.6905 -0.0267
 2871SOL    HW210055   0.159   6.250  11.837 -0.9172  0.9241 -0.1041
 2872SOL     OW10056   1.420   6.138   9.693 -0.2045  0.0048  0.2212
 2872SOL    HW110057   1.487   6.204   9.682 -1.6111  1.3637 -0.6278
 2872SOL    HW210058   1.345   6.171   9.643 -0.5056 -2.9258 -1.5191
 2873SOL     OW10059   5.693   4.855   2.402 -0.4318 -0.5028  0.6997
 2873SOL    HW110060   5.639   4.816   2.470  0.4821 -0.3071  1.5601
 2873SOL    HW210061   5.772   4.885   2.448  0.5818 -1.1225 -0.5860
 2874SOL     OW10062   7.562   7.824   5.225 -0.0712  0.0219 -1.1254
 2874SOL    HW110063   7.525   7.862   5.146  0.0706  0.5776 -0.9318
 2874SOL    HW210064   7.652   7.801   5.201  0.3912  1.3800 -0.7766
 2875SOL     OW10065   5.165   7.447   5.464  0.0233  0.0680 -0.2280
 2875SOL    HW110066   5.178   7.504   5.540  0.1596  0.7882 -0.7725
 2875SOL    HW210067   5.073   7.458   5.441 -0.9314 -2.6827  1.7835
 2876SOL     OW10068   6.633   1.122   7.643  0.3207  0.2319 -0.0434
 2876SOL    HW110069   6.707   1.099   7.699  0.8376  0.4066 -0.6428
 2876SOL    HW210070   6.585   1.041   7.631 -1.0728  0.5860  2.4529
 2877SOL     OW10071   5.355   6.690   8.863 -0.1555 -0.0543 -0.0679
 2877SOL    HW110072   5.432   6.746   8.870  0.2903 -0.6509 -0.1125
 2877SOL    HW210073   5.381   6.621   8.802 -1.1881  0.4854 -1.1457
 2878SOL     OW10074   5.666   3.917   3.337  0.1239 -0.2809 -0.1335
 2878SOL    HW110075   5.657   4.007   3.368  1.7463  0.0008 -0.4042
 2878SOL    HW210076   5.760   3.902   3.333 -0.0969 -2.4505  1.1959
 2879SOL     OW10077   1.752   4.558   0.831  0.3993 -0.4774  1.1071
 2879SOL    HW110078   1.680   4.610   0.796 -0.7305 -1.3093  2.1038
 2879SOL    HW210079   1.782   4.504   0.757  1.6951  1.5996  0.0121
 2880SOL     OW10080   5.007   4.554   0.312  0.0489  0.1947 -0.3112
 2880SOL    HW110081   4.988   4.608   0.235  2.7077  2.1921  0.2645
 2880SOL    HW210082   4.959   4.596   0.383 -3.1707 -2.1885 -0.8329
 2881SOL     OW10083   5.577   7.940  11.220 -0.0083 -0.0475  0.1587
 2881SOL    HW110084   5.573   7.964  11.312  0.5344 -1.4418  0.5627
 2881SOL    HW210085   5.544   7.850  11.217 -0.3292  0.0872 -1.0619
 2882SOL     OW10086   3.732   5.556   0.448  0.1555 -0.5525 -0.6622
 2882SOL    HW110087   3.716   5.592   0.535 -3.2435  0.3404 -1.5352
 2882SOL    HW210088   3.700   5.622   0.387 -2.7996 -3.2836 -2.4104
 2883SOL     OW10089   6.575   4.136  10.786  0.6424  0.4062  0.4333
 2883SOL    HW110090   6.515   4.097  10.723  0.3868  0.5762  0.5676
 2883SOL    HW210091   6.609   4.062  10.836 -0.2667  0.3947  1.0649
 2884SOL     OW10092   6.450   6.293   5.861 -0.3483  0.5072  0.1341
 2884SOL    HW110093   6.490   6.375   5.833 -0.2363  0.2109 -0.6237
 2884SOL    HW210094   6.495   6.226   5.809 -0.5212 -0.0176  0.6519
 2885SOL     OW10095   5.316   0.505   6.426  0.0617  0.5506  0.3239
 2885SOL    HW110096   5.319   0.540   6.515 -2.4354 -0.6649  0.9800
 2885SOL    HW210097   5.272   0.573   6.375 -0.8930  0.1847  0.6387
 2886SOL     OW10098   5.028   5.724   3.110 -0.2135  0.8712 -0.5418
 2886SOL    HW110099   4.943   5.686   3.089 -1.4482  2.6457  0.9839
 2886SOL    HW210100   5.046   5.784   3.037 -0.1811  0.3563 -0.9577
 2887SOL     OW10101   4.230   3.217   5.192  0.1653 -0.0639  0.1143
 2887SOL    HW110102   4.306   3.215   5.250 -1.0085 -1.4044  1.7290
 2887SOL    HW210103   4.188   3.301   5.211  0.0848 -0.2594  0.8301
 2888SOL     OW10104   5.207   0.282   1.480 -0.1060 -0.6685 -0.4448
 2888SOL    HW110105   5.143   0.308   1.546 -0.1531 -0.2039 -0.6682
 2888SOL    HW210106   5.167   0.306   1.396  0.9258  0.9349 -0.5230
 2889SOL     OW10107   5.368   1.130  11.811  0.0552 -0.3270 -0.1599
 2889SOL    HW110108   5.400   1.196  11.750 -0.6465  0.8511  0.7137
 2889SOL    HW210109   5.433   1.060  11.807  1.9537  1.3141  0.4479
 2890SOL     OW10110   7.661   7.157  10.534 -0.3113 -0.3900 -0.1172
 2890SOL    HW110111   7.605   7.112  10.470  0.1529  0.0098 -0.8194
 2890SOL    HW210112   7.624   7.133  10.619 -1.7493  0.1271 -0.5669
 2891SOL     OW10113   6.482   4.316  10.474  0.2902 -0.7035  0.1876
 2891SOL    HW110114   6.404   4.262  10.482  0.3780 -0.9660 -0.5993
 2891SOL    HW210115   6.545   4.261  10.427 -0.0480  0.4686 -1.7649
 2892SOL     OW10116   2.963   6.240   0.586  0.6376 -0.4895  0.7526
 2892SOL    HW110117   2.930   6.160   0.546 -0.6413  0.1848  0.4020
 2892SOL    HW210118   2.921   6.245   0.671 -0.0836  0.2974  0.3701
 2893SOL     OW10119   7.886   5.148  11.080 -0.2885 -0.3003  0.0295
 2893SOL    HW110120   7.791   5.159  11.081 -0.3168 -0.3323 -0.8759
 2893SOL    HW210121   7.914   5.166  11.170 -1.0248  0.8285  0.0509
 2894SOL     OW10122   0.528   1.932   2.770 -0.1375  0.0784 -0.3926
 2894SOL    HW110123   0.432   1.925   2.765 -0.0383 -3.4915  0.2336
 2894SOL    HW210124   0.555   1.948   2.680 -1.2859  0.1730 -0.7438
 2895SOL     OW10125   4.712   1.745   7.888  0.5083  0.1134 -0.4051
 2895SOL    HW110126   4.767   1.799   7.831  0.6977  2.7116  2.0068
 2895SOL    HW210127   4.629   1.793   7.892  0.8932  0.6911  2.3295
 2896SOL     OW10128   6.868   1.921   4.225 -0.0144  0.0012  0.0695
 2896SOL    HW110129   6.901   1.878   4.304  0.8505 -1.5981 -1.0868
 2896SOL    HW210130   6.931   1.992   4.208 -0.8764  1.1347  1.4329
 2897SOL     OW10131   6.910   0.290   1.851 -0.0542 -0.6724 -0.0087
 2897SOL    HW110132   7.003   0.299   1.871 -0.2134 -0.5250  0.6766
 2897SOL    HW210133   6.906   0.223   1.783  0.6251 -0.0578 -0.6833
 2898SOL     OW10134   0.434   5.039   5.556  0.0487  0.1590  0.0926
 2898SOL    HW110135   0.431   5.021   5.650 -1.9358 -0.6876 -0.0990
 2898SOL    HW210136   0.457   5.132   5.550 -1.8208  0.7650  1.5093
 2899SOL     OW10137   3.987   7.591   3.763  0.1122 -0.3182  0.1905
 2899SOL    HW110138   3.961   7.537   3.838 -0.1465  0.5103  0.7147
 2899SOL    HW210139   3.951   7.547   3.687 -0.1781 -0.8274  0.6230
 2900SOL     OW10140   6.465   4.838   0.993 -0.1881  0.1193  0.8981
 2900SOL    HW110141   6.473   4.750   1.029  0.4573 -0.4043 -0.4533
 2900SOL    HW210142   6.393   4.832   0.930 -0.8456  0.8424  1.5468
 2901SOL     OW10143   5.491   4.244   7.064  0.6599 -0.3602 -0.0682
 2901SOL    HW110144   5.409   4.196   7.062 -0.2309  1.1286 -2.6210
 2901SOL    HW210145   5.488   4.302   6.989  2.9594  1.6103  1.2056
 2902SOL     OW10146   3.988   4.538   4.283 -0.4487 -0.4369 -0.3687
 2902SOL    HW110147   3.925   4.478   4.324 -0.5253  0.8928  1.5478
 2902SOL    HW210148   4.073   4.505   4.310 -0.3974 -0.8106 -0.9600
 2903SOL     OW10149   5.366   7.150   0.204 -0.0531  0.1160  0.2128
 2903SOL    HW110150   5.454   7.185   0.191 -0.4587  1.2148  0.3456
 2903SOL    HW210151   5.325   7.210   0.267 -1.2447  0.2166 -0.6329
 2904SOL     OW10152   7.328   0.130   1.648 -0.2176 -0.2175 -0.1125
 2904SOL    HW110153   7.251   0.078   1.670  0.4041 -1.2098 -0.2195
 2904SOL    HW210154   7.314   0.156   1.556 -0.6456  0.0182  0.0170
 2905SOL     OW10155   6.392   4.562   1.309  0.2679  0.1632 -0.5959
 2905SOL    HW110156   6.415   4.595   1.396 -0.4676 -0.3924 -0.1821
 2905SOL    HW210157   6.325   4.496   1.325 -1.2605  1.3515 -1.7161
 2906SOL     OW10158   2.062   7.687   1.823  0.1922  0.7269  0.2368
 2906SOL    HW110159   2.025   7.730   1.900 -1.2094  0.8515 -0.4760
 2906SOL    HW210160   2.101   7.606   1.857  0.5035  1.2669  1.2014
 2907SOL     OW10161   3.643   2.870   0.052 -0.4551 -0.3461  0.3061
 2907SOL    HW110162   3.562   2.820   0.063 -0.4845 -0.0125  1.8880
 2907SOL    HW210163   3.617   2.961   0.068  0.3468 -0.3222  1.7236
 2908SOL     OW10164   7.806   5.112   5.638  0.5246 -0.6125 -0.1354
 2908SOL    HW110165   7.874   5.089   5.575  0.8255  2.0209 -0.9157
 2908SOL    HW210166   7.844   5.184   5.688 -1.7426  1.2067 -0.8476
 2909SOL     OW10167   2.156   4.577   7.242 -0.2171  0.2156  0.1707
 2909SOL    HW110168   2.093   4.505   7.247  1.2484 -1.0927  0.3050
 2909SOL    HW210169   2.200   4.566   7.158  0.7154  0.3438  0.6246
 2910SOL     OW10170   4.600   2.880   9.747 -1.3027  0.7040 -0.0859
 2910SOL    HW110171   4.514   2.910   9.775 -0.7826  3.6410 -1.1619
 2910SOL    HW210172   4.627   2.945   9.681  1.7301 -0.0770  0.2235
 2911SOL     OW10173   3.629   0.394  10.123  0.4299 -0.0373  0.3041
 2911SOL    HW110174   3.570   0.354  10.060  0.4977 -0.1363  0.3044
 2911SOL    HW210175   3.583   0.390  10.207  1.3145 -2.1098  0.7638
 2912SOL     OW10176   1.410   4.721   8.357 -0.3214  0.1537 -0.0585
 2912SOL    HW110177   1.478   4.658   8.334  0.6977  0.9097  0.8143
 2912SOL    HW210178   1.369   4.743   8.273 -1.3924 -2.3961 -0.2717
 2913SOL     OW10179   7.915   7.113   2.874 -0.6979  0.1991 -0.1325
 2913SOL    HW110180   7.903   7.024   2.841 -0.2150 -0.5188  1.5405
 2913SOL    HW210181   7.925   7.102   2.968 -1.5951  2.1196  0.2301
 2914SOL     OW10182   1.567   3.912   1.377 -0.1418 -0.0907  0.2813
 2914SOL    HW110183   1.565   3.837   1.436  0.7455  0.4846  1.0885
 2914SOL    HW210184   1.544   3.987   1.432 -0.0489  0.3655 -0.2810
 2915SOL     OW10185   0.358   2.690   0.295  0.6243 -0.0446  0.2098
 2915SOL    HW110186   0.317   2.714   0.378 -0.2306  1.2936 -0.5489
 2915SOL    HW210187   0.367   2.595   0.299 -2.9767 -0.5233  0.3030
 2916SOL     OW10188   3.023   5.605   9.167 -0.0354  0.2994  0.2854
 2916SOL    HW110189   3.044   5.525   9.117 -0.7514  1.2167 -1.5650
 2916SOL    HW210190   2.931   5.621   9.149 -0.1944  0.9318  1.5813
 2917SOL     OW10191   7.824   4.020   4.479  0.7700 -0.5461 -0.1150
 2917SOL    HW110192   7.760   4.024   4.409  0.4695  1.3838  0.2193
 2917SOL    HW210193   7.904   4.057   4.442  0.1028  2.2739  0.9829
 2918SOL     OW10194   1.706   5.482   1.422 -0.1355 -0.3252  0.1921
 2918SOL    HW110195   1.670   5.527   1.346 -0.3352 -0.1539  0.3898
 2918SOL    HW210196   1.634   5.478   1.485  0.7964  2.1553  1.5672
 2919SOL     OW10197   0.873   2.747   7.587  0.5396  0.3376  0.8169
 2919SOL    HW110198   0.960   2.737   7.550 -0.1916  0.6377 -1.0804
 2919SOL    HW210199   0.823   2.674   7.553 -1.2455  2.7471 -2.2958
 2920SOL     OW10200   6.151   4.010   2.243 -0.2252 -0.2427 -0.6753
 2920SOL    HW110201   6.211   3.939   2.266  0.5370  0.2482 -1.0932
 2920SOL    HW210202   6.076   3.998   2.300 -1.0224 -2.5814 -2.0729
 2921SOL     OW10203   3.226   5.606   6.007  0.2408  0.1233 -0.5553
 2921SOL    HW110204   3.271   5.594   5.923  1.2523  1.1823 -0.1980
 2921SOL    HW210205   3.290   5.653   6.062 -0.7496  0.2942  0.4882
 2922SOL     OW10206   3.846   1.945   6.797  0.2324 -0.5198 -0.1902
 2922SOL    HW110207   3.851   1.850   6.786 -1.5060 -0.6331 -0.2389
 2922SOL    HW210208   3.862   1.959   6.890 -1.8562 -1.1135  0.3107
 2923SOL     OW10209   0.646   7.339  10.740 -0.2523  0.7554  0.1675
 2923SOL    HW110210   0.729   7.315  10.698 -0.7582  1.3953 -1.2511
 2923SOL    HW210211   0.672   7.386  10.819  0.7484  0.9981 -0.2919
 2924SOL     OW10212   6.796   5.704   8.018 -0.1417  0.1390 -0.2543
 2924SOL    HW110213   6.891   5.698   8.017 -0.1717 -0.4858  0.2603
 2924SOL    HW210214   6.775   5.768   7.949  0.6721  0.7388  0.0435
 2925SOL     OW10215   3.286   6.739   4.336 -0.2336  0.5465  0.3698
 2925SOL    HW110216   3.212   6.800   4.339  0.5131  1.4811  0.2942
 2925SOL    HW210217   3.358   6.790   4.299 -0.1910 -1.0501 -1.9291
 2926SOL     OW10218   5.223   2.925   5.498  0.3976 -0.6280  0.0618
 2926SOL    HW110219   5.310   2.898   5.470  0.8883 -0.2395  1.1557
 2926SOL    HW210220   5.204   2.870   5.574  0.1299  0.0120  0.4646
 2927SOL     OW10221   1.812   5.528   0.443 -0.0392 -0.1089  0.3994
 2927SOL    HW110222   1.868   5.461   0.403 -0.2747 -0.5022  0.7219
 2927SOL    HW210223   1.790   5.492   0.529 -0.4293  0.2434  0.4479
 2928SOL     OW10224   2.596   4.480   4.694 -0.6455 -0.0613 -0.2525
 2928SOL    HW110225   2.597   4.417   4.767 -3.8146 -0.4724 -0.4198
 2928SOL    HW210226   2.649   4.553   4.725  0.0333 -1.2300  1.4984
 2929SOL     OW10227   3.965   0.328  12.130 -0.1258 -0.6038 -0.3452
 2929SOL    HW110228   4.056   0.301  12.114 -0.1889 -0.5802 -0.7618
 2929SOL    HW210229   3.928   0.260  12.185  0.2184 -0.4882  0.0369
 2930SOL     OW10230   6.726   0.268   3.811 -0.5099  0.1129  0.3361
 2930SOL    HW110231   6.820   0.253   3.820 -0.2723  1.7752  0.8817
 2930SOL    HW210232   6.687   0.181   3.822  1.1212 -1.2607 -3.2660
 2931SOL     OW10233   1.897   0.461   9.590 -0.3488 -0.5206  0.5207
 2931SOL    HW110234   1.855   0.510   9.519 -1.7515 -1.5404  0.6054
 2931SOL    HW210235   1.987   0.446   9.559 -0.8655 -0.7483 -0.9513
 2932SOL     OW10236   1.147   0.594   4.950 -0.2364  0.5861 -0.2730
 2932SOL    HW110237   1.227   0.638   4.920  0.2095  0.2056  0.3295
 2932SOL    HW210238   1.124   0.535   4.878  1.2961 -0.9368  0.3948
 2933SOL     OW10239   0.535   6.240   4.732  0.4453 -0.0950  0.3055
 2933SOL    HW110240   0.464   6.208   4.787 -0.7082 -0.5006 -1.3236
 2933SOL    HW210241   0.491   6.271   4.652  1.9921  0.8547 -0.2319
 2934SOL     OW10242   4.730   2.881  10.831  0.4457 -0.3243 -0.5588
 2934SOL    HW110243   4.678   2.805  10.858 -1.5046  1.4426  1.0992
 2934SOL    HW210244   4.686   2.913  10.752  0.3634 -0.0662 -0.4068
 2935SOL     OW10245   0.342   2.597   3.622 -0.5190  0.3398  0.3769
 2935SOL    HW110246   0.356   2.658   3.695  0.5984  0.3642  0.1700
 2935SOL    HW210247   0.325   2.512   3.664  1.5228  0.0446  0.7256
 2936SOL     OW10248   5.164   7.274   9.206  0.1719  0.3848  0.5683
 2936SOL    HW110249   5.074   7.292   9.232  0.5124 -0.3241  2.3419
 2936SOL    HW210250   5.199   7.218   9.276  1.7069 -0.1189 -0.5440
 2937SOL     OW10251   1.121   1.445   9.684  0.6489  0.5419 -0.0030
 2937SOL    HW110252   1.065   1.445   9.762  1.9356 -1.1455  0.9956
 2937SOL    HW210253   1.071   1.397   9.618 -0.1043  1.2457  0.0482
 2938SOL     OW10254   2.578   5.850  11.452 -0.2390 -0.0961  0.3945
 2938SOL    HW110255   2.496   5.803  11.467  0.4716 -0.6712  2.9491
 2938SOL    HW210256   2.550   5.940  11.431 -1.5330 -0.1689  1.6523
 2939SOL     OW10257   2.240   5.530  10.537  0.0330 -0.6485  0.1169
 2939SOL    HW110258   2.214   5.590  10.607 -0.3146  0.1726 -0.6943
 2939SOL    HW210259   2.194   5.563  10.459 -0.2291 -2.0283 -0.3276
 2940SOL     OW10260   4.648   4.421   7.092 -0.0546  0.1045  0.2339
 2940SOL    HW110261   4.644   4.386   7.181 -2.8376 -0.3448  0.0250
 2940SOL    HW210262   4.612   4.351   7.037 -1.5310  1.5867 -0.7718
 2941SOL     OW10263   0.071   3.662   6.385 -0.5437 -0.1433  0.0942
 2941SOL    HW110264   0.034   3.575   6.399  0.4098 -0.5504  0.1608
 2941SOL    HW210265   0.145   3.648   6.326  0.3787  0.4338  1.0718
 2942SOL     OW10266   5.623   1.543   7.495  0.2055  0.0376 -0.1138
 2942SOL    HW110267   5.715   1.519   7.509  0.6045  1.2874 -0.5265
 2942SOL    HW210268   5.609   1.619   7.551 -0.9015 -0.7828  0.7698
 2943SOL     OW10269   5.944   5.735   1.621  0.3016  0.4219  0.2852
 2943SOL    HW110270   5.914   5.786   1.545  0.3191  0.3781  0.2491
 2943SOL    HW210271   5.937   5.796   1.695  0.8830  0.6673  0.1467
 2944SOL     OW10272   7.732   4.173   4.694 -0.2408  0.2369  0.4250
 2944SOL    HW110273   7.776   4.122   4.762 -0.9150 -1.7490 -0.5483
 2944SOL    HW210274   7.745   4.122   4.614 -1.0627  1.5670 -0.6070
 2945SOL     OW10275   0.022   0.784   0.720  0.9003  0.1590 -0.3840
 2945SOL    HW110276  -0.005   0.727   0.792 -0.6992  1.4528  0.1024
 2945SOL    HW210277  -0.050   0.780   0.657  0.6223  1.7679 -0.2267
 2946SOL     OW10278   3.876   3.727   3.595 -0.3813 -0.0515  0.5230
 2946SOL    HW110279   3.817   3.702   3.524 -0.9084  1.5353  0.3487
 2946SOL    HW210280   3.822   3.782   3.652  0.9365  1.5986  0.2657
 2947SOL     OW10281   6.528   3.510  12.121  0.0736  0.1806  0.0126
 2947SOL    HW110282   6.438   3.512  12.153 -0.5082 -0.0029 -1.5403
 2947SOL    HW210283   6.528   3.445  12.051  0.7192  2.1458 -1.9405
 2948SOL     OW10284   2.206   7.103   5.010 -0.0609 -0.5796 -0.0267
 2948SOL    HW110285   2.114   7.099   4.982  0.1098 -1.7909 -0.4744
 2948SOL    HW210286   2.218   7.025   5.064  0.7528 -0.5241 -0.1153
 2949SOL     OW10287   5.906   2.488   3.216  0.1095  0.6326  0.2901
 2949SOL    HW110288   5.871   2.419   3.272 -0.0372 -0.2335 -0.8355
 2949SOL    HW210289   6.001   2.475   3.218  0.0755  0.3090 -0.0097
 2950SOL     OW10290   4.863   6.404   7.200  0.3092 -0.3100  0.6309
 2950SOL    HW110291   4.927   6.431   7.135  0.3314  0.6106  1.0185
 2950SOL    HW210292   4.866   6.308   7.199  0.3876 -0.3045 -0.6261
 2951SOL     OW10293   2.234   6.434   7.700 -0.3571  0.4316  0.1263
 2951SOL    HW110294   2.311   6.399   7.745 -1.4393 -1.2542  0.7655
 2951SOL    HW210295   2.255   6.425   7.607  0.1277 -0.2157  0.2919
 2952SOL     OW10296   1.138   1.445   0.857 -0.4827  0.1102  0.6245
 2952SOL    HW110297   1.155   1.455   0.764 -1.6228 -1.1629  0.2347
 2952SOL    HW210298   1.159   1.530   0.896  1.2374  0.2634 -0.5817
 2953SOL     OW10299   7.740   7.579   2.703  0.1659  0.1153 -0.0310
 2953SOL    HW110300   7.800   7.521   2.751  1.3778  0.7178 -0.7715
 2953SOL    HW210301   7.658   7.531   2.700  0.3692 -0.4280  1.6626
 2954SOL     OW10302   7.255   2.384   7.175  0.2370 -0.6130 -0.3488
 2954SOL    HW110303   7.230   2.427   7.257  0.7711  0.3994 -0.6939
 2954SOL    HW210304   7.227   2.293   7.186  0.4393 -0.5304  1.0116
 2955SOL     OW10305   0.003   5.858   2.207 -0.4724  0.1862  0.8893
 2955SOL    HW110306  -0.079   5.815   2.186  0.6132 -1.5256 -0.0157
 2955SOL    HW210307   0.013   5.926   2.140 -0.1428 -1.0202 -0.3176
 2956SOL     OW10308   2.288   2.125   2.100  0.1323 -0.3197 -0.6095
 2956SOL    HW110309   2.216   2.189   2.098  1.6658  1.6443  1.4777
 2956SOL    HW210310   2.265   2.065   2.171  1.0804  1.1166  0.9889
 2957SOL     OW10311   5.910   6.447   6.828 -0.2940 -0.1787 -0.0115
 2957SOL    HW110312   5.883   6.358   6.806  1.6862 -0.6513 -0.8134
 2957SOL    HW210313   5.920   6.446   6.923  1.9206 -1.5870 -0.1692
 2958SOL     OW10314   5.194   7.333   4.460  0.4374 -0.5673  0.3963
 2958SOL    HW110315   5.210   7.420   4.497  1.6334 -0.0899 -1.1432
 2958SOL    HW210316   5.274   7.312   4.412 -0.3483 -1.9391 -0.3718
 2959SOL     OW10317   2.946   4.012  12.105 -0.2430  0.0491 -0.5065
 2959SOL    HW110318   2.919   4.094  12.149  0.7812  0.4666 -0.6421
 2959SOL    HW210319   3.041   4.011  12.113 -0.3016 -1.5503  0.2121
 2960SOL     OW10320   2.836   3.506   8.789  0.1411  0.5326 -0.3577
 2960SOL    HW110321   2.761   3.474   8.838  0.4226  0.3542 -0.0420
 2960SOL    HW210322   2.804   3.585   8.745 -0.2876  0.3369 -0.3932
 2961SOL     OW10323   1.816   2.581   6.401  0.1601 -0.4381 -0.4198
 2961SOL    HW110324   1.812   2.604   6.494 -0.8337  2.2456 -1.0268
 2961SOL    HW210325   1.908   2.596   6.377 -0.3296  3.0107 -0.6737
 2962SOL     OW10326   6.891   1.756   1.565 -0.1640 -0.7943 -0.1975
 2962SOL    HW110327   6.901   1.840   1.609 -2.6731 -0.3202 -0.3985
 2962SOL    HW210328   6.916   1.773   1.474  0.8762 -0.6994  0.0932
 2963SOL     OW10329   4.592   6.597   6.478 -0.0103  0.1666 -0.1489
 2963SOL    HW110330   4.666   6.638   6.523  0.6495 -0.9550 -0.1756
 2963SOL    HW210331   4.536   6.564   6.548  0.5745 -0.8035 -0.1180
 2964SOL     OW10332   2.433   1.054   1.131  0.5251  0.7651  0.1344
 2964SOL    HW110333   2.358   0.995   1.141  0.9774  0.4262  1.7246
 2964SOL    HW210334   2.464   1.070   1.220  1.9595  1.4214 -0.4465
 2965SOL     OW10335   2.835   1.506   3.170 -0.2142  0.0439 -0.1787
 2965SOL    HW110336   2.801   1.418   3.156 -1.3850  0.6379 -1.2371
 2965SOL    HW210337   2.858   1.509   3.263  1.1450 -1.7950 -0.3937
 2966SOL     OW10338   2.829   4.990   7.750 -0.0287  0.1941 -0.1164
 2966SOL    HW110339   2.878   4.992   7.668 -1.5354  1.8184 -1.0303
 2966SOL    HW210340   2.744   4.954   7.727 -0.7474  1.3963  0.5256
 2967SOL     OW10341   1.043   6.023   7.112 -0.0881  0.0667 -0.3426
 2967SOL    HW110342   1.112   6.061   7.058  1.9113 -0.8691  1.3944
 2967SOL    HW210343   0.978   5.991   7.049  1.9031 -0.5810 -2.2044
 2968SOL     OW10344   1.963   2.147   9.220 -0.1687  0.5575  1.1743
 2968SOL    HW110345   2.015   2.102   9.286 -0.0315  1.2011  1.5034
 2968SOL    HW210346   1.997   2.236   9.218  1.2366  0.0521 -1.2105
 2969SOL     OW10347   5.098   2.474   4.647  0.0917  0.1331  0.1858
 2969SOL    HW110348   5.182   2.482   4.603  0.3309  1.2276  0.8092
 2969SOL    HW210349   5.037   2.523   4.591 -0.3911 -1.5288 -0.8280
 2970SOL     OW10350   1.552   0.984   7.370 -0.2519 -0.1478  0.3707
 2970SOL    HW110351   1.640   1.020   7.368 -0.7156  0.9851 -0.8720
 2970SOL    HW210352   1.502   1.045   7.425 -0.5734 -0.0237 -0.0555
 2971SOL     OW10353   1.559   6.966   6.604  0.2329 -0.0665 -0.1049
 2971SOL    HW110354   1.616   7.030   6.647 -0.6124  0.7188 -0.1285
 2971SOL    HW210355   1.497   7.020   6.554 -1.2073 -0.8748  0.7734
 2972SOL     OW10356   4.635   1.425   0.017  1.1943 -0.3438  0.7977
 2972SOL    HW110357   4.709   1.414   0.076  2.6514  1.9455 -0.4781
 2972SOL    HW210358   4.646   1.512  -0.021 -3.4034  1.1486  2.1970
 2973SOL     OW10359   4.584   6.121   0.967 -0.5130  0.4907  0.0618
 2973SOL    HW110360   4.598   6.026   0.965  0.4776  0.6205  0.2758
 2973SOL    HW210361   4.600   6.149   0.877  1.0164  0.6818  0.3735
 2974SOL     OW10362   4.032   3.045   3.858 -0.5291 -0.3996 -1.2202
 2974SOL    HW110363   3.978   3.007   3.789 -1.3514 -0.5796 -0.4961
 2974SOL    HW210364   4.063   2.971   3.909  0.7305 -0.3265 -1.8400
 2975SOL     OW10365   6.351   3.442  11.425 -0.6560  0.2239 -0.5341
 2975SOL    HW110366   6.402   3.366  11.451 -2.0038 -1.3657 -2.2082
 2975SOL    HW210367   6.387   3.467  11.340 -1.1969  0.4844 -0.6939
 2976SOL     OW10368   7.779   3.546   8.385  0.6095 -0.0982  0.5620
 2976SOL    HW110369   7.686   3.561   8.399  0.6783  0.1458  0.7714
 2976SOL    HW210370   7.821   3.583   8.463  0.9279  0.3821  0.1682
 2977SOL     OW10371   7.509   4.002   3.957 -0.9284 -0.5232 -0.2234
 2977SOL    HW110372   7.585   3.949   3.979 -0.7137 -0.2043 -0.1963
 2977SOL    HW210373   7.541   4.091   3.955 -1.3109 -0.3808 -0.1693
 2978SOL     OW10374   3.455   3.766   0.786 -0.2811  0.4251  0.2431
 2978SOL    HW110375   3.550   3.782   0.778 -0.4859  0.9324 -1.6056
 2978SOL    HW210376   3.448   3.673   0.808  0.6253  0.0674 -0.8894
 2979SOL     OW10377   3.774   5.558  12.020  0.0656  0.2643  0.1545
 2979SOL    HW110378   3.865   5.534  12.003 -0.3297 -2.2027  1.1109
 2979SOL    HW210379   3.751   5.616  11.947  2.3485  0.9232 -0.1244
 2980SOL     OW10380   3.236   5.081   9.922  0.4820 -0.1587 -0.2607
 2980SOL    HW110381   3.190   5.156   9.882  0.6680 -0.0629 -0.2958
 2980SOL    HW210382   3.288   5.120   9.992 -1.9070 -0.6173  1.9247
 2981SOL     OW10383   2.114   3.370   0.220  0.0761  0.0707 -0.3524
 2981SOL    HW110384   2.086   3.300   0.278 -0.8096 -0.1547 -1.0368
 2981SOL    HW210385   2.123   3.446   0.278 -1.1548 -0.0563  0.0249
 2982SOL     OW10386   0.393   0.009  10.717 -0.3076  0.3319  1.0293
 2982SOL    HW110387   0.477   0.016  10.762  0.4113  0.0170 -0.2367
 2982SOL    HW210388   0.414   0.017  10.624 -1.5387 -0.8649  0.6168
 2983SOL     OW10389   3.383   2.953   1.453 -0.1255  0.4348 -0.5098
 2983SOL    HW110390   3.411   3.044   1.461 -1.3950  0.6965  1.8202
 2983SOL    HW210391   3.295   2.952   1.491 -0.4666 -1.6125 -1.2666
 2984SOL     OW10392   7.139   5.502   6.947  0.2035  0.1417 -0.2340
 2984SOL    HW110393   7.144   5.517   6.852  0.4199  1.4669 -0.0325
 2984SOL    HW210394   7.085   5.423   6.956 -0.5604  0.5034 -1.4174
 2985SOL     OW10395   5.182   6.301   5.338 -0.3021 -0.7072  0.2238
 2985SOL    HW110396   5.138   6.382   5.315 -1.9843 -1.7525 -0.3948
 2985SOL    HW210397   5.112   6.237   5.349  1.0164 -2.3718 -0.4628
 2986SOL     OW10398   5.296   6.225   8.721  0.6825 -0.0160  0.3219
 2986SOL    HW110399   5.209   6.195   8.693  0.5783  0.1585  0.4528
 2986SOL    HW210400   5.331   6.153   8.774  1.3184 -0.7894 -1.1066
 2987SOL     OW10401   7.270   1.197   4.610  0.2901 -0.4224 -0.4462
 2987SOL    HW110402   7.338   1.257   4.580  0.1760 -0.1512 -0.1715
 2987SOL    HW210403   7.263   1.132   4.541 -0.4136  0.5488 -1.3331
 2988SOL     OW10404   3.559   3.220  11.147  0.0645  0.2686  0.3534
 2988SOL    HW110405   3.588   3.297  11.098 -0.4963  0.3837  0.2018
 2988SOL    HW210406   3.637   3.192  11.195  0.1768  1.1498  0.7068
 2989SOL     OW10407   1.416   6.342   1.928  0.0698  0.0735 -0.6468
 2989SOL    HW110408   1.339   6.291   1.952 -0.3482  0.7714 -0.4590
 2989SOL    HW210409   1.470   6.342   2.008  0.7797 -1.2983 -1.1037
 2990SOL     OW10410   1.466   6.442   6.763 -0.0097 -0.2355 -0.0648
 2990SOL    HW110411   1.474   6.483   6.676  1.6129 -0.4610 -0.0526
 2990SOL    HW210412   1.555   6.440   6.796 -0.7943  1.6584  2.4855
 2991SOL     OW10413   6.212   5.614   4.650  0.4984 -0.3565  0.3757
 2991SOL    HW110414   6.163   5.535   4.627  0.8666  0.1205 -2.4766
 2991SOL    HW210415   6.158   5.686   4.617  1.6726  0.3488 -0.0784
 2992SOL     OW10416   7.766   3.054   0.810 -0.1492  0.8230  0.2233
 2992SOL    HW110417   7.726   2.987   0.865  0.5202  0.0395 -0.2264
 2992SOL    HW210418   7.827   3.099   0.868 -0.6233  1.0794  0.5349
 2993SOL     OW10419   1.244   7.477   1.713  0.1819 -0.7382 -0.4274
 2993SOL    HW110420   1.253   7.394   1.667  0.6552 -0.2416 -1.2567
 2993SOL    HW210421   1.220   7.453   1.802 -0.2363 -1.7390 -0.7970
 2994SOL     OW10422   2.366   1.390   0.505 -0.0817 -0.6214 -0.6780
 2994SOL    HW110423   2.387   1.304   0.539  0.7895 -0.2998 -0.3779
 2994SOL    HW210424   2.419   1.398   0.425  0.0958 -0.2382 -0.5245
 2995SOL     OW10425   4.438   4.879   2.159 -0.2097 -0.3182 -0.0986
 2995SOL    HW110426   4.446   4.924   2.074 -1.7374  2.7749  1.2503
 2995SOL    HW210427   4.344   4.865   2.169  0.0681 -1.7694  0.5850
 2996SOL     OW10428   1.242   7.860   7.376  0.6424  0.0656 -0.4628
 2996SOL    HW110429   1.205   7.941   7.341 -0.3351 -0.6791 -1.2051
 2996SOL    HW210430   1.166   7.810   7.405  1.2075 -0.7692 -0.4084
 2997SOL     OW10431   5.433   1.035   5.116  0.1009 -0.2678  0.0365
 2997SOL    HW110432   5.478   1.119   5.130  1.5934 -0.8683 -0.9348
 2997SOL    HW210433   5.469   0.977   5.183 -0.9437 -0.1485  0.7175
 2998SOL     OW10434   3.514   2.612   7.020  0.1227  0.2534 -0.2912
 2998SOL    HW110435   3.425   2.628   6.988 -0.4075  0.0351  1.0149
 2998SOL    HW210436   3.507   2.532   7.072  1.2433 -0.1687 -0.7519
 2999SOL     OW10437   0.938   2.705   6.623 -0.4727  0.2897 -0.0921
 2999SOL    HW110438   0.973   2.696   6.712  1.5741  1.1973 -0.7377
 2999SOL    HW210439   0.996   2.768   6.581 -0.7289 -0.9107 -2.4048
 3000SOL     OW10440   6.910   1.953  10.860  0.0470  0.2848  0.1516
 3000SOL    HW110441   6.902   1.858  10.860 -0.0111  0.2843 -0.6097
 3000SOL    HW210442   6.880   1.980  10.773 -0.3750  1.0357  0.5195
 3001SOL     OW10443   4.662   7.712   3.396 -0.2215 -0.2605  0.0799
 3001SOL    HW110444   4.659   7.658   3.318  2.0480 -1.4640  0.7350
 3001SOL    HW210445   4.654   7.802   3.363  0.6593 -0.7353 -1.5381
 3002SOL     OW10446   2.522   7.220   9.194 -0.0393 -0.2606  0.3139
 3002SOL    HW110447   2.561   7.185   9.114 -0.7828  1.8200 -1.0280
 3002SOL    HW210448   2.520   7.145   9.254  0.9985 -1.7565 -1.4124
 3003SOL     OW10449   3.276   4.667   6.561 -0.5955 -0.0902  0.1797
 3003SOL    HW110450   3.291   4.583   6.518 -1.2105  0.3640 -0.9801
 3003SOL    HW210451   3.349   4.676   6.622  0.4453 -0.6827 -0.9197
 3004SOL     OW10452   5.016   0.515  10.551 -0.1014 -0.1520  0.3430
 3004SOL    HW110453   5.038   0.426  10.525 -1.2699 -0.9678  1.9711
 3004SOL    HW210454   4.932   0.532  10.508 -0.2340 -0.1229  0.6095
 3005SOL     OW10455   5.575   2.252   3.008  0.3661 -0.1550 -0.0844
 3005SOL    HW110456   5.650   2.213   2.962  1.2551  0.9735  0.3626
 3005SOL    HW210457   5.578   2.213   3.095  0.3400 -0.2267 -0.1154
 3006SOL     OW10458   7.602   3.803   6.845  0.2652 -0.0695 -0.0902
 3006SOL    HW110459   7.557   3.824   6.927 -0.4357 -0.0965 -0.4575
 3006SOL    HW210460   7.694   3.791   6.870  0.2759  1.1432  0.4817
 3007SOL     OW10461   1.599   0.535   1.574  0.3939  0.7448  0.4940
 3007SOL    HW110462   1.631   0.460   1.525 -0.8793  0.5457 -0.0604
 3007SOL    HW210463   1.624   0.517   1.665  2.2599  0.8446  0.0592
 3008SOL     OW10464   1.677   6.278   4.987 -0.0429 -0.3324 -0.8228
 3008SOL    HW110465   1.718   6.306   5.069 -2.9711  0.9764  0.3305
 3008SOL    HW210466   1.656   6.185   5.002  0.3375 -0.3709 -0.5058
 3009SOL     OW10467   5.876   2.144   1.176  0.3847 -0.4220  0.2578
 3009SOL    HW110468   5.919   2.229   1.166 -0.3793  0.1933  1.8203
 3009SOL    HW210469   5.835   2.148   1.262 -1.1620 -1.7110 -0.3622
 3010SOL     OW10470   6.395   2.073   7.860 -0.5017  0.1452 -0.0982
 3010SOL    HW110471   6.391   2.059   7.955  1.1431 -1.1355 -0.1685
 3010SOL    HW210472   6.306   2.061   7.829 -1.4233  2.2546  1.4599
 3011SOL     OW10473   4.721   4.783   5.046 -0.1283 -0.0961 -0.5679
 3011SOL    HW110474   4.747   4.736   4.966 -1.1092  1.3494 -1.7842
 3011SOL    HW210475   4.799   4.779   5.102  0.1157 -2.3692 -0.9695
 3012SOL     OW10476   2.652   2.159   2.914  0.6985  0.2887 -0.6498
 3012SOL    HW110477   2.646   2.065   2.932 -1.3928  0.2092 -1.5383
 3012SOL    HW210478   2.734   2.168   2.865  0.6656 -1.1427 -1.0079
 3013SOL     OW10479   1.762   3.002   1.604 -0.2345  0.5937 -0.5119
 3013SOL    HW110480   1.763   2.929   1.541  1.0860  0.0541  0.0975
 3013SOL    HW210481   1.792   2.963   1.686 -1.2915  1.4399  0.2936
 3014SOL     OW10482   3.593   3.769   5.773  0.0772 -0.1860 -0.3852
 3014SOL    HW110483   3.600   3.841   5.711  1.1152  1.2698  1.3205
 3014SOL    HW210484   3.564   3.810   5.854  1.4426 -1.5307  0.8532
 3015SOL     OW10485   5.660   5.702   8.856  0.2926  0.7631 -0.5195
 3015SOL    HW110486   5.739   5.671   8.899 -0.7929 -1.3539  0.0904
 3015SOL    HW210487   5.664   5.797   8.863  1.1434  0.6008  2.4963
 3016SOL     OW10488   0.240   7.150   7.044  0.0039 -0.7022 -0.4449
 3016SOL    HW110489   0.263   7.153   6.951 -0.2034  0.1977 -0.4678
 3016SOL    HW210490   0.189   7.229   7.059  1.0780 -0.2021  0.7134
 3017SOL     OW10491   7.036   0.825   8.543  0.3751  0.0262 -0.1400
 3017SOL    HW110492   7.071   0.896   8.596  2.0165 -0.4522 -0.5246
 3017SOL    HW210493   7.074   0.839   8.456 -0.3168 -0.5795 -0.5516
 3018SOL     OW10494   7.234   6.107  11.509 -0.0030  0.0722  0.5045
 3018SOL    HW110495   7.254   6.045  11.579 -0.8077  0.5159  1.1425
 3018SOL    HW210496   7.188   6.055  11.443  0.7412 -0.3420  0.2967
 3019SOL     OW10497   5.160   7.161   5.476 -0.0835  0.1785 -0.0292
 3019SOL    HW110498   5.084   7.165   5.534 -1.8146 -0.7492 -2.0925
 3019SOL    HW210499   5.180   7.253   5.456 -2.1395  0.4319 -1.1816
 3020SOL     OW10500   6.413   1.372   7.855 -0.0776 -0.1881 -0.3101
 3020SOL    HW110501   6.447   1.315   7.923 -1.8207 -1.5772 -0.5255
 3020SOL    HW210502   6.489   1.392   7.800  0.8404 -1.2017  0.5493
 3021SOL     OW10503   7.572   0.328  11.563 -0.3883  0.2351  0.3206
 3021SOL    HW110504   7.549   0.279  11.643  4.3914 -1.8020  0.8352
 3021SOL    HW210505   7.567   0.420  11.589  0.0905 -0.3458  2.7453
 3022SOL     OW10506   2.983   2.526   5.170 -0.4340 -0.4095  0.3230
 3022SOL    HW110507   3.072   2.536   5.203 -0.3653 -1.1482  0.3741
 3022SOL    HW210508   2.993   2.475   5.089 -0.7805 -0.2132  0.1544
 3023SOL     OW10509   2.224   0.008   8.244 -0.2969  0.5662  0.1671
 3023SOL    HW110510   2.229  -0.076   8.290 -0.7773  1.1780  1.3970
 3023SOL    HW210511   2.251  -0.012   8.155  1.9410 -0.4449  0.9870
 3024SOL     OW10512   5.951   0.620   5.575 -0.0972  0.1150 -0.0133
 3024SOL    HW110513   5.887   0.601   5.644  1.7922 -2.3505  1.2451
 3024SOL    HW210514   5.913   0.581   5.496 -0.6668 -0.2788  0.4406
 3025SOL     OW10515   6.430   4.536   9.759  0.5314  0.2373  0.3582
 3025SOL    HW110516   6.462   4.536   9.669  0.2107  0.2134  0.2398
 3025SOL    HW210517   6.485   4.474   9.806 -0.2076 -0.8375 -0.1580
 3026SOL     OW10518   4.059   0.189   0.745 -0.0481  0.0812  0.2586
 3026SOL    HW110519   3.971   0.164   0.717 -0.0810  0.4583  0.0109
 3026SOL    HW210520   4.048   0.215   0.837  0.2648 -2.2328  1.0025
 3027SOL     OW10521   1.553   4.214   2.967  0.0723 -0.0236 -0.3820
 3027SOL    HW110522   1.582   4.132   2.926  3.0446 -0.8336  2.8568
 3027SOL    HW210523   1.633   4.267   2.972 -1.3625  2.2867 -0.5210
 3028SOL     OW10524   5.558   3.102   4.420 -0.2784  0.0729  0.0798
 3028SOL    HW110525   5.650   3.114   4.397 -0.2239  0.4345  0.4766
 3028SOL    HW210526   5.544   3.007   4.416  0.3810 -0.0725  1.0289
 3029SOL     OW10527   3.533   2.141   1.391  0.6360 -0.4781 -0.4051
 3029SOL    HW110528   3.445   2.172   1.371  0.6521  0.5059  0.9473
 3029SOL    HW210529   3.558   2.090   1.314 -0.9014 -0.3412 -1.0346
 3030SOL     OW10530   1.960   3.518   7.989  0.8002  0.0940  0.5652
 3030SOL    HW110531   1.962   3.522   7.894 -1.5713  1.4815  0.5014
 3030SOL    HW210532   1.948   3.425   8.009  1.7755 -0.2647 -0.4551
 3031SOL     OW10533   4.328   2.832   2.725 -0.0468 -0.4937  0.0037
 3031SOL    HW110534   4.260   2.868   2.782 -1.2144 -1.7580 -0.5411
 3031SOL    HW210535   4.298   2.853   2.637  0.0789 -1.3718 -0.2548
 3032SOL     OW10536   0.337   5.202   0.332  0.3633 -0.2903  0.1948
 3032SOL    HW110537   0.375   5.261   0.266 -0.8317  2.0432  1.4768
 3032SOL    HW210538   0.266   5.157   0.286  0.2609  0.4736 -0.4169
 3033SOL     OW10539   5.069   0.941   9.979  0.6626 -0.3965  0.1092
 3033SOL    HW110540   4.976   0.961   9.978  0.8405  0.6336 -1.9440
 3033SOL    HW210541   5.109   1.014  10.026  0.4356 -0.9453  1.1752
 3034SOL     OW10542   3.639   6.158   0.890 -0.0500  0.7473  0.2458
 3034SOL    HW110543   3.560   6.170   0.838  1.6421  1.5999 -2.3344
 3034SOL    HW210544   3.616   6.091   0.955 -2.6776  0.5863 -0.7519
 3035SOL     OW10545   2.595   2.640   1.061  0.1659 -0.0121  0.1215
 3035SOL    HW110546   2.621   2.570   1.002  0.4730 -0.8617  1.2387
 3035SOL    HW210547   2.603   2.720   1.008  0.0285 -0.7844 -1.0931
 3036SOL     OW10548   6.012   1.524   3.152 -0.0269  0.2976 -0.6712
 3036SOL    HW110549   5.952   1.594   3.125  0.2164  0.3442 -1.0978
 3036SOL    HW210550   6.040   1.549   3.240  3.1322  2.8428 -2.2162
 3037SOL     OW10551   6.930   7.572   6.361 -0.1080  0.3476  0.2993
 3037SOL    HW110552   7.005   7.535   6.314 -0.4936 -1.6574  1.1663
 3037SOL    HW210553   6.854   7.546   6.309 -0.3590  0.4803  0.5996
 3038SOL     OW10554   2.479   6.024   0.595  0.1862  0.1440 -0.3123
 3038SOL    HW110555   2.437   6.004   0.679  0.2020  0.1638 -0.2998
 3038SOL    HW210556   2.408   6.060   0.542  0.6601  2.2877  0.4437
 3039SOL     OW10557   5.173   3.117   2.361 -0.5824 -0.2699 -0.1077
 3039SOL    HW110558   5.218   3.094   2.443 -0.8891 -0.7220 -0.0611
 3039SOL    HW210559   5.236   3.093   2.293  0.0937  1.0808  0.0207
 3040SOL     OW10560   4.028   1.988   9.189  0.0203 -0.2717  0.1039
 3040SOL    HW110561   4.121   1.993   9.169  0.0299 -1.8741 -0.3808
 3040SOL    HW210562   4.024   1.939   9.271 -0.4100 -0.7271 -0.1817
 3041SOL     OW10563   3.514   6.314   9.365  0.0382  0.0708  0.7975
 3041SOL    HW110564   3.596   6.323   9.316 -0.2023 -0.2477  0.3245
 3041SOL    HW210565   3.448   6.297   9.298 -0.8586  2.6161  0.9319
 3042SOL     OW10566   1.439   0.279  12.067 -0.2941 -0.6016  0.0318
 3042SOL    HW110567   1.485   0.313  11.990 -0.3848 -2.8216 -1.0912
 3042SOL    HW210568   1.347   0.300  12.051 -0.3403 -1.2508 -0.6077
 3043SOL     OW10569   7.880   2.472   2.257 -0.3401 -0.3575  0.5953
 3043SOL    HW110570   7.922   2.555   2.237  0.4910 -0.9446 -0.1456
 3043SOL    HW210571   7.786   2.492   2.255 -0.1808  0.3834 -0.3948
 3044SOL     OW10572   7.542   5.874   5.474 -0.4693  0.0662  0.4646
 3044SOL    HW110573   7.562   5.807   5.409 -0.9801 -0.6304  1.0126
 3044SOL    HW210574   7.451   5.897   5.459 -0.4201  0.3313  0.5577
 3045SOL     OW10575   6.953   5.884   1.334  0.2251 -0.8906  0.4211
 3045SOL    HW110576   6.954   5.823   1.408  1.0103 -1.4659 -0.0485
 3045SOL    HW210577   6.915   5.833   1.262 -1.4668 -0.0296  0.6586
 3046SOL     OW10578   1.803   1.263   6.986  0.0687  0.8154  0.0191
 3046SOL    HW110579   1.757   1.338   6.949 -1.0215  0.5754  0.8227
 3046SOL    HW210580   1.837   1.294   7.070 -0.5215  0.3832  0.4265
 3047SOL     OW10581   5.001   5.427   6.118  0.5156 -0.1185 -0.0751
 3047SOL    HW110582   5.089   5.390   6.122  1.1368  1.0590 -1.8292
 3047SOL    HW210583   4.998   5.490   6.191 -0.2332 -2.7266  2.3372
 3048SOL     OW10584   1.981   6.100   9.643 -0.4564  0.0006 -0.0815
 3048SOL    HW110585   1.982   6.037   9.716  0.8905  0.7217  0.5681
 3048SOL    HW210586   1.889   6.110   9.621 -0.8999 -0.2271  1.5520
 3049SOL     OW10587   0.816   4.523   0.896 -0.3686  0.0577 -1.0107
 3049SOL    HW110588   0.850   4.436   0.876  0.5384  0.1189  0.1734
 3049SOL    HW210589   0.756   4.542   0.824  1.0049 -0.6574 -2.4028
 3050SOL     OW10590   0.057   6.291   2.705  0.9490 -0.0789  0.0242
 3050SOL    HW110591   0.079   6.292   2.798  1.4496 -1.8375 -0.0317
 3050SOL    HW210592   0.132   6.248   2.663  1.2048  1.6231 -1.3528
 3051SOL     OW10593   3.710   5.177   9.259 -0.0983  0.0328 -0.2937
 3051SOL    HW110594   3.635   5.214   9.305  0.3893  2.5309 -1.3542
 3051SOL    HW210595   3.686   5.182   9.166  0.1721 -2.0775 -0.5431
 3052SOL     OW10596   1.532   6.641   9.152 -0.0278  0.1107 -0.1318
 3052SOL    HW110597   1.524   6.726   9.196 -0.5344 -0.3400  0.6825
 3052SOL    HW210598   1.553   6.662   9.062 -2.0757  1.1907 -0.4158
 3053SOL     OW10599   3.928   0.985   2.555 -0.1883  0.2662 -0.1934
 3053SOL    HW110600   3.876   1.022   2.484  0.9196  3.5721  0.5466
 3053SOL    HW210601   3.867   0.927   2.602 -2.8732  2.8434 -0.1948
 3054SOL     OW10602   5.624   5.075   8.729 -0.2573  0.1422 -0.2490
 3054SOL    HW110603   5.668   5.155   8.759  2.0446 -0.3044 -2.2397
 3054SOL    HW210604   5.546   5.108   8.683 -1.6465  0.9711  2.4171
 3055SOL     OW10605   7.926   6.499   6.542  0.3405 -0.0563 -0.5180
 3055SOL    HW110606   7.897   6.577   6.589  1.5910  0.7837 -1.0584
 3055SOL    HW210607   7.997   6.531   6.486 -0.7517 -1.0830 -2.6131
 3056SOL     OW10608   7.102   0.294   7.395  0.5496  0.3976 -0.3897
 3056SOL    HW110609   7.159   0.318   7.468  0.2153  2.1987 -0.6811
 3056SOL    HW210610   7.069   0.207   7.418  1.3868  0.4162  1.0030
 3057SOL     OW10611   3.787   2.700   0.951 -0.0903 -0.2223  0.1649
 3057SOL    HW110612   3.855   2.637   0.925  0.2680 -0.0215  0.5959
 3057SOL    HW210613   3.728   2.650   1.006 -1.4045 -0.9076 -1.7763
 3058SOL     OW10614   0.453   5.752   3.373  0.7798 -0.4470 -0.7435
 3058SOL    HW110615   0.505   5.790   3.443 -0.1779  0.6630 -0.6142
 3058SOL    HW210616   0.372   5.724   3.416  0.7586 -1.0468 -1.1612
 3059SOL     OW10617   0.732   0.350   6.223  0.2313 -0.3523 -0.3661
 3059SOL    HW110618   0.709   0.407   6.151  0.5804 -0.2203 -0.3749
 3059SOL    HW210619   0.816   0.383   6.255 -0.3260  0.1366  0.6622
 3060SOL     OW10620   7.272   2.930  11.706 -0.0275 -0.9776 -0.2197
 3060SOL    HW110621   7.251   2.883  11.625 -0.0222 -1.4972  0.0768
 3060SOL    HW210622   7.357   2.896  11.733 -0.3486 -1.3365  0.3823
 3061SOL     OW10623   4.955   2.185   4.559  0.2376 -0.2002  0.5191
 3061SOL    HW110624   4.973   2.268   4.515 -1.3684  0.2020  0.5521
 3061SOL    HW210625   5.023   2.178   4.626  1.5478  0.1222 -0.7281
 3062SOL     OW10626   1.926   2.066   3.576 -0.1410 -0.5753 -0.0086
 3062SOL    HW110627   1.835   2.086   3.598 -0.3404 -0.8577 -0.5587
 3062SOL    HW210628   1.946   2.123   3.502  0.3989  0.0836  0.6287
 3063SOL     OW10629   4.284   3.598   9.148 -0.4719 -0.5205  0.1247
 3063SOL    HW110630   4.221   3.604   9.219 -1.0717 -1.0419 -0.3586
 3063SOL    HW210631   4.316   3.508   9.152 -1.0182 -0.7578 -0.6888
 3064SOL     OW10632   6.256   5.028   9.882  0.2103  0.5608  0.5608
 3064SOL    HW110633   6.301   4.955   9.840 -0.9912 -0.4301  0.9452
 3064SOL    HW210634   6.203   4.988   9.950 -0.5836  1.7839  0.6964
 3065SOL     OW10635   7.616   6.382  10.131 -0.3589 -0.2488 -0.0910
 3065SOL    HW110636   7.637   6.407  10.221 -0.5182 -0.3993 -0.0106
 3065SOL    HW210637   7.569   6.457  10.095  3.7178  1.8716 -1.5964
 3066SOL     OW10638   2.571   4.325  12.242  0.2587 -0.0290 -0.7456
 3066SOL    HW110639   2.492   4.363  12.204  1.6804  2.0987 -1.7481
 3066SOL    HW210640   2.631   4.398  12.250  2.6298 -1.8027 -1.2776
 3067SOL     OW10641   0.615   5.201   7.808 -0.5958 -0.0276  0.3084
 3067SOL    HW110642   0.709   5.186   7.821 -0.6084 -0.0105  0.4194
 3067SOL    HW210643   0.584   5.120   7.767 -0.0907  0.8509 -1.9578
 3068SOL     OW10644   4.935   7.887   6.062 -0.2907 -0.5566 -0.4346
 3068SOL    HW110645   4.992   7.921   6.131 -1.0690 -0.4283  0.1589
 3068SOL    HW210646   4.991   7.882   5.985  0.0650  1.3083 -0.3368
 3069SOL     OW10647   1.344   4.005   9.668  0.4926 -0.3600  0.6580
 3069SOL    HW110648   1.409   4.028   9.734  0.6060  0.5847  0.2318
 3069SOL    HW210649   1.320   4.088   9.628  0.5483 -0.9272 -0.6019
 3070SOL     OW10650   0.361   7.939  10.051 -0.2064  0.1005  0.4424
 3070SOL    HW110651   0.275   7.921  10.015 -0.6334 -0.3852  1.6708
 3070SOL    HW210652   0.393   7.854  10.082 -0.4073  0.6719  2.3469
 3071SOL     OW10653   4.515   7.915   3.083  0.5008  0.0476  0.0160
 3071SOL    HW110654   4.501   7.820   3.078 -0.9250  0.2753 -0.9088
 3071SOL    HW210655   4.605   7.924   3.114  0.1589 -1.6002  1.6833
 3072SOL     OW10656   4.683   3.848   8.773 -0.3799 -0.0757 -0.6369
 3072SOL    HW110657   4.778   3.840   8.757 -0.2387 -2.6099  0.9512
 3072SOL    HW210658   4.676   3.871   8.865 -1.3555  1.3938 -1.0396
 3073SOL     OW10659   4.143   6.956   1.649  0.2559 -0.1215  0.1068
 3073SOL    HW110660   4.230   6.921   1.629  0.4542 -0.4140  1.3902
 3073SOL    HW210661   4.099   6.961   1.565  1.5873  0.2222 -0.5960
 3074SOL     OW10662   0.338   6.426   2.282 -0.6450  0.5038 -0.1991
 3074SOL    HW110663   0.384   6.352   2.321 -1.5483 -0.6447 -1.1850
 3074SOL    HW210664   0.314   6.482   2.356  0.5124  0.0803  0.5151
 3075SOL     OW10665   1.007   6.032   8.580  0.5073  0.0064  0.0267
 3075SOL    HW110666   1.093   5.991   8.575  0.2940 -0.3939 -0.4531
 3075SOL    HW210667   0.953   5.982   8.519  0.1897  0.8774 -0.4217
 3076SOL     OW10668   4.842   1.623  11.887 -0.0332 -0.1750 -0.0852
 3076SOL    HW110669   4.916   1.647  11.832 -0.4698 -0.3130 -0.7558
 3076SOL    HW210670   4.864   1.656  11.974  0.3515  0.6942 -0.4993
 3077SOL     OW10671   0.721   6.705  10.170 -0.2520 -0.7400  0.8698
 3077SOL    HW110672   0.800   6.741  10.212 -0.1418 -0.0398  0.1065
 3077SOL    HW210673   0.750   6.684  10.081 -0.5655 -1.8726  1.0261
 3078SOL     OW10674   6.690   1.121   3.732  0.3021  0.2105 -0.6479
 3078SOL    HW110675   6.762   1.073   3.775  0.0088  0.8430  0.5870
 3078SOL    HW210676   6.683   1.080   3.646  1.2523 -0.7662 -0.2924
 3079SOL     OW10677   7.926   1.380   0.675 -0.2072 -0.3477  0.5612
 3079SOL    HW110678   7.875   1.336   0.607 -0.2138  0.2992  0.1402
 3079SOL    HW210679   7.888   1.468   0.681 -1.5668 -1.0066  2.8386
 3080SOL     OW10680   2.966   7.588   2.284  0.2293  0.1393 -0.3445
 3080SOL    HW110681   2.897   7.542   2.330  0.2394  0.8983  0.4433
 3080SOL    HW210682   2.930   7.675   2.265  0.1194 -0.2280 -2.0294
 3081SOL     OW10683   4.154   0.650  11.969 -0.2921 -0.2380  0.4332
 3081SOL    HW110684   4.137   0.693  12.052 -1.5007 -0.1214  0.1559
 3081SOL    HW210685   4.239   0.607  11.980 -0.0104  0.5311  1.3995
 3082SOL     OW10686   4.388   5.437   2.686 -0.0093  0.2638 -0.3724
 3082SOL    HW110687   4.405   5.344   2.668  0.5297  0.6945 -2.3671
 3082SOL    HW210688   4.319   5.436   2.752 -0.2654 -1.5546 -0.6047
 3083SOL     OW10689   5.949   3.004  11.038 -0.2586  0.6284  0.2788
 3083SOL    HW110690   5.925   2.939  11.105 -1.6348 -0.3387 -1.0976
 3083SOL    HW210691   5.870   3.016  10.986  0.4092  2.3233 -0.4359
 3084SOL     OW10692   3.064   0.906   1.291  0.0714 -0.1745 -0.5809
 3084SOL    HW110693   2.989   0.955   1.259  0.3196 -0.1510 -1.1383
 3084SOL    HW210694   3.115   0.885   1.212 -0.5371 -2.2010 -0.4880
 3085SOL     OW10695   3.062   7.429   9.373  0.4460 -0.5115  0.1776
 3085SOL    HW110696   3.140   7.401   9.421 -0.4341 -0.7686  1.5037
 3085SOL    HW210697   3.000   7.454   9.441 -0.7077 -0.5021 -0.8484
 3086SOL     OW10698   6.669   6.443   8.366 -0.4845  0.0753  0.2507
 3086SOL    HW110699   6.719   6.474   8.290 -1.0307 -0.3976 -0.3075
 3086SOL    HW210700   6.578   6.468   8.347 -0.3904  1.7459  1.6695
 3087SOL     OW10701   2.890   0.262   3.361 -0.3180  0.0165  0.4067
 3087SOL    HW110702   2.926   0.174   3.357 -1.7934 -0.6243  0.5668
 3087SOL    HW210703   2.807   0.252   3.407 -2.0077  0.9310 -2.1944
 3088SOL     OW10704   6.855   1.744   6.174 -0.4884  0.2878  0.1050
 3088SOL    HW110705   6.778   1.728   6.229 -0.2289  1.0681  0.7175
 3088SOL    HW210706   6.930   1.721   6.229 -0.2606  0.0371 -0.3049
 3089SOL     OW10707   7.115   7.030   6.131  0.7094  0.1006  0.1632
 3089SOL    HW110708   7.129   7.082   6.210  0.2298  0.3001  0.1185
 3089SOL    HW210709   7.176   7.067   6.067  0.9587  0.0653  0.3783
 3090SOL     OW10710   0.239   5.656   5.718 -0.7271 -0.0700 -1.0429
 3090SOL    HW110711   0.180   5.719   5.678 -0.7540 -0.2571 -1.3005
 3090SOL    HW210712   0.212   5.652   5.809  0.8804  2.1986 -0.3619
 3091SOL     OW10713   0.333   6.237   7.025 -0.0393  0.2921 -0.3956
 3091SOL    HW110714   0.252   6.193   7.051 -0.3489  2.0672  1.9491
 3091SOL    HW210715   0.306   6.300   6.958 -0.5430  0.5588  0.0504
 3092SOL     OW10716   6.444   5.673   6.135  0.4268  0.3790 -0.1055
 3092SOL    HW110717   6.382   5.646   6.203  0.6388 -0.1792 -0.1293
 3092SOL    HW210718   6.527   5.685   6.181  0.1105  2.0900  0.1060
 3093SOL     OW10719   4.223   2.721   4.202  0.1014  0.2079 -0.3969
 3093SOL    HW110720   4.219   2.713   4.297 -1.6618 -0.6077 -0.5077
 3093SOL    HW210721   4.292   2.661   4.175 -0.6725 -1.0051  0.2504
 3094SOL     OW10722   4.501   6.774   3.564  0.2018 -0.4973  0.0909
 3094SOL    HW110723   4.517   6.859   3.605  0.1780 -0.8631  0.8779
 3094SOL    HW210724   4.461   6.722   3.633 -1.1013 -0.7201 -0.7904
 3095SOL     OW10725   2.893   6.741   9.600  0.8133  0.3478  0.4294
 3095SOL    HW110726   2.976   6.747   9.552  0.2989  0.2526 -0.4925
 3095SOL    HW210727   2.860   6.654   9.580 -0.3450  0.9967 -0.6360
 3096SOL     OW10728   1.142   6.767   4.662 -0.4259 -0.2823 -0.1010
 3096SOL    HW110729   1.154   6.862   4.668 -0.8542  0.0731 -3.2015
 3096SOL    HW210730   1.068   6.756   4.602  0.5993 -2.5477 -1.0768
 3097SOL     OW10731   0.071   6.238   3.366  0.4692  0.7765  0.5071
 3097SOL    HW110732   0.121   6.297   3.309  1.5626 -1.5288 -1.1152
 3097SOL    HW210733   0.119   6.237   3.449  1.5195  0.7994 -0.0769
 3098SOL     OW10734   0.520   7.528   9.066 -0.1065 -0.6679  0.6328
 3098SOL    HW110735   0.615   7.528   9.079 -0.0624 -1.4101  0.3838
 3098SOL    HW210736   0.486   7.583   9.136  0.6641  1.4946 -0.5989
 3099SOL     OW10737   7.208   5.901   3.459  0.4731  0.4609 -0.3866
 3099SOL    HW110738   7.233   5.952   3.382 -0.1447  1.8037  0.2708
 3099SOL    HW210739   7.280   5.915   3.521  1.3500 -1.2527 -0.9775
 3100SOL     OW10740   5.220   5.749   0.843 -0.1771  0.2679 -0.2625
 3100SOL    HW110741   5.262   5.759   0.928  0.1239  0.5200 -0.4383
 3100SOL    HW210742   5.234   5.832   0.799 -1.3145  0.5466 -0.1389
 3101SOL     OW10743   6.246   7.838   8.403 -0.2894  0.1255  0.2677
 3101SOL    HW110744   6.221   7.899   8.472  1.3404  0.4319  0.6143
 3101SOL    HW210745   6.177   7.848   8.336 -1.4704  0.3742  1.4782
 3102SOL     OW10746   0.294   5.796   0.876 -0.1586  0.4792  0.0712
 3102SOL    HW110747   0.223   5.860   0.887 -0.3661  0.3092 -0.2668
 3102SOL    HW210748   0.253   5.723   0.828  0.9672  1.6232 -2.8230
 3103SOL     OW10749   3.701   7.260   5.823 -0.5555 -0.9158  0.3707
 3103SOL    HW110750   3.685   7.170   5.796  3.2964 -1.6414 -0.1098
 3103SOL    HW210751   3.732   7.304   5.744 -1.3115  0.5609  0.8547
 3104SOL     OW10752   0.833   5.158   4.118 -0.0318 -0.3324 -0.1552
 3104SOL    HW110753   0.751   5.110   4.115 -0.2640  0.0884 -2.2825
 3104SOL    HW210754   0.855   5.174   4.026  1.2749  1.5058  0.4092
 3105SOL     OW10755   0.145   5.166   2.143 -0.0799  0.1661  1.1567
 3105SOL    HW110756   0.052   5.143   2.147 -0.4794  1.2630 -0.7393
 3105SOL    HW210757   0.149   5.259   2.166  0.2742  0.6240 -0.6279
 3106SOL     OW10758   3.224   0.372   6.722  0.0655  0.2945 -0.5738
 3106SOL    HW110759   3.294   0.388   6.659  0.8039  0.7864  0.3517
 3106SOL    HW210760   3.199   0.459   6.753 -2.0707  0.2772 -2.0385
 3107SOL     OW10761   4.177   5.617   6.463 -0.0530 -0.1674  0.4929
 3107SOL    HW110762   4.202   5.541   6.516 -0.6968 -0.4043  0.4721
 3107SOL    HW210763   4.139   5.679   6.526  0.8976  0.3376  0.5797
 3108SOL     OW10764   7.020   6.986   6.771 -0.3222 -0.1321 -0.2792
 3108SOL    HW110765   7.013   7.042   6.694  0.4759  0.7823  0.2903
 3108SOL    HW210766   7.011   6.897   6.737  0.6265  0.2198 -1.5150
 3109SOL     OW10767   6.112   5.349   7.821 -0.2571 -0.0049 -0.5808
 3109SOL    HW110768   6.109   5.334   7.726  1.1251  0.8765 -0.7963
 3109SOL    HW210769   6.197   5.390   7.836 -1.2341  1.6625  0.7857
 3110SOL     OW10770   0.816   7.473  10.513  0.5619  0.6667 -0.1937
 3110SOL    HW110771   0.836   7.516  10.429  0.0685 -0.3504 -0.8566
 3110SOL    HW210772   0.804   7.381  10.490  0.4601  0.3624  1.0163
 3111SOL     OW10773   2.338   4.401   7.355 -0.2671  0.0539  0.2924
 3111SOL    HW110774   2.377   4.478   7.397  1.4927 -0.5175 -0.1956
 3111SOL    HW210775   2.246   4.424   7.342  0.5230  2.6875 -1.2719
 3112SOL     OW10776   6.129   2.807   9.392 -0.4795 -0.0595  0.2564
 3112SOL    HW110777   6.132   2.713   9.377  1.6477 -0.1099  0.6991
 3112SOL    HW210778   6.149   2.846   9.306 -2.9137  0.0945 -0.3173
 3113SOL     OW10779   5.498   3.948   4.600  0.4515 -0.1832 -0.0762
 3113SOL    HW110780   5.574   4.006   4.595  0.5261 -0.2707  0.0336
 3113SOL    HW210781   5.524   3.870   4.551  0.6362 -0.4359  0.4082
 3114SOL     OW10782   0.977   6.323   8.566 -0.5253  0.1398 -0.5203
 3114SOL    HW110783   1.044   6.366   8.618 -0.9437  1.3098 -0.9172
 3114SOL    HW210784   1.025   6.276   8.498  0.0037 -1.1129  0.6719
 3115SOL     OW10785   1.567   2.715   1.160 -0.4116 -0.4208 -0.0880
 3115SOL    HW110786   1.546   2.643   1.100 -0.8369 -0.8921  0.6084
 3115SOL    HW210787   1.520   2.694   1.241  1.1071 -0.4301  0.8413
 3116SOL     OW10788   4.940   4.881   6.538  0.3448 -0.4313 -0.8545
 3116SOL    HW110789   4.871   4.859   6.476  0.3439 -0.6848 -0.7631
 3116SOL    HW210790   4.926   4.822   6.612  0.0528  0.1957 -0.4011
 3117SOL     OW10791   4.708   6.440   2.003 -0.4527  0.0292 -0.0628
 3117SOL    HW110792   4.693   6.388   1.924  1.6604 -0.2208 -0.3588
 3117SOL    HW210793   4.803   6.454   2.005 -0.4114 -0.1724  2.5881
 3118SOL     OW10794   0.586   6.401   3.715  0.8901  0.4045  0.5239
 3118SOL    HW110795   0.579   6.482   3.664 -0.8607 -0.1052 -0.1021
 3118SOL    HW210796   0.593   6.430   3.805  1.5931  1.2753  0.1992
 3119SOL     OW10797   7.822   4.987   6.520  0.2872  0.1828  0.1571
 3119SOL    HW110798   7.903   5.031   6.494  0.8276 -0.3767  0.8430
 3119SOL    HW210799   7.849   4.922   6.585 -0.4899 -1.1893 -0.8310
 3120SOL     OW10800   3.519   2.021   9.209 -0.1135 -0.2487 -0.2331
 3120SOL    HW110801   3.548   2.068   9.287  2.1544 -1.0876 -0.5080
 3120SOL    HW210802   3.470   1.946   9.242 -3.4694  1.8927  0.2203
 3121SOL     OW10803   6.240   6.054   2.229 -0.3715 -0.2554  0.4742
 3121SOL    HW110804   6.146   6.045   2.245 -0.1817 -0.1578  1.7369
 3121SOL    HW210805   6.247   6.062   2.134 -1.6773  0.1686  0.3869
 3122SOL     OW10806   4.104   0.997   5.373 -0.0208 -0.0944  0.2487
 3122SOL    HW110807   4.118   1.044   5.290  0.6443  1.5839  1.2440
 3122SOL    HW210808   4.024   0.947   5.359 -1.2024  1.9084 -0.7074
 3123SOL     OW10809   6.752   2.619   1.012 -0.0347 -0.7391 -0.1063
 3123SOL    HW110810   6.791   2.671   0.942  0.9272  0.0114  0.9449
 3123SOL    HW210811   6.826   2.587   1.063 -0.7195  1.1399  2.2498
 3124SOL     OW10812   5.537   4.756   1.917  0.0657 -0.2051  0.8796
 3124SOL    HW110813   5.624   4.792   1.896  0.4954 -2.3603 -1.5585
 3124SOL    HW210814   5.554   4.688   1.982  0.2857 -0.8484  0.1637
 3125SOL     OW10815   7.170   4.562   9.740 -0.2245  0.2952 -0.6136
 3125SOL    HW110816   7.078   4.556   9.716 -0.2403  0.4923 -0.6017
 3125SOL    HW210817   7.177   4.507   9.819 -0.3839  0.4819 -0.4672
 3126SOL     OW10818   1.151   0.595   9.445 -0.5267  0.6124 -0.5730
 3126SOL    HW110819   1.059   0.574   9.430 -0.6363  1.0223 -0.4834
 3126SOL    HW210820   1.149   0.679   9.492 -0.1067  0.6524 -0.6260
 3127SOL     OW10821   4.549   1.718   9.409 -0.2978 -0.2365 -0.3760
 3127SOL    HW110822   4.522   1.629   9.387  2.2991 -0.4598 -3.3463
 3127SOL    HW210823   4.617   1.707   9.476 -1.6578 -0.2148  1.0790
 3128SOL     OW10824   6.903   2.152   3.576 -0.1908  0.1487 -0.8234
 3128SOL    HW110825   6.850   2.083   3.537 -0.6709 -1.1110  1.8107
 3128SOL    HW210826   6.992   2.117   3.576 -0.1711  0.1983 -0.8914
 3129SOL     OW10827   5.078   2.881  10.433 -0.1976  0.2746  0.3480
 3129SOL    HW110828   5.068   2.794  10.471  0.7939 -0.0281 -0.0497
 3129SOL    HW210829   5.054   2.869  10.341 -2.9579  1.0801  0.8753
 3130SOL     OW10830   5.353   7.813   2.921 -0.5083 -0.0609  0.3519
 3130SOL    HW110831   5.260   7.794   2.930 -0.3338 -0.9058  0.4020
 3130SOL    HW210832   5.366   7.895   2.970 -0.9791 -0.6316  1.4592
 3131SOL     OW10833   6.019   3.261   0.163 -0.5798  0.1522  0.0205
 3131SOL    HW110834   6.024   3.350   0.198 -0.3750  0.2774 -0.3193
 3131SOL    HW210835   6.099   3.219   0.194 -1.2111 -0.2605  1.1129
 3132SOL     OW10836   5.119   0.770   8.886  0.7186 -0.3001  0.0862
 3132SOL    HW110837   5.125   0.776   8.791 -0.0922 -0.4542  0.0103
 3132SOL    HW210838   5.089   0.857   8.913  1.1878 -0.1827  0.2214
 3133SOL     OW10839   3.690   1.389   1.681 -0.1496 -0.1825  0.9281
 3133SOL    HW110840   3.630   1.432   1.743  0.4723  2.1275  0.0369
 3133SOL    HW210841   3.776   1.426   1.702  0.5782 -1.5956  0.5654
 3134SOL     OW10842   6.760   6.590   3.413  0.8609 -0.5208 -0.1766
 3134SOL    HW110843   6.739   6.525   3.346  2.6147 -1.0774 -0.2335
 3134SOL    HW210844   6.839   6.633   3.380  1.1687 -0.1068  1.0555
 3135SOL     OW10845   5.563   2.136   0.723  0.6462  0.0306 -0.3225
 3135SOL    HW110846   5.609   2.169   0.800  1.6308 -1.2392 -0.3340
 3135SOL    HW210847   5.474   2.117   0.754  0.2527  1.9314 -0.1500
 3136SOL     OW10848   0.694   4.847  11.253 -0.0812 -0.0045  0.2391
 3136SOL    HW110849   0.674   4.854  11.347 -0.7459  0.3947  0.0760
 3136SOL    HW210850   0.652   4.923  11.214 -0.9700 -0.8772 -0.5640
 3137SOL     OW10851   1.669   0.267  10.747 -0.0233  0.6465 -0.1545
 3137SOL    HW110852   1.684   0.355  10.711 -1.5153  0.4020 -1.4830
 3137SOL    HW210853   1.734   0.212  10.703 -0.6774  0.6794 -1.2155
 3138SOL     OW10854   3.515   4.460   6.373  0.2692 -0.1527  0.4361
 3138SOL    HW110855   3.585   4.525   6.370  0.4177 -0.3287  0.0338
 3138SOL    HW210856   3.484   4.463   6.464  1.1079 -0.4031  0.7403
 3139SOL     OW10857   6.614   1.948  10.409 -0.1303  0.6540  0.1736
 3139SOL    HW110858   6.536   1.893  10.405  0.6039 -0.4103  0.3008
 3139SOL    HW210859   6.604   2.009  10.335 -1.7322  1.4448  0.9913
 3140SOL     OW10860   0.798   0.366   0.183  0.3346 -0.4582 -0.5849
 3140SOL    HW110861   0.722   0.407   0.224 -0.4556 -1.5852 -0.8689
 3140SOL    HW210862   0.863   0.358   0.253  0.1440  0.3920 -0.3077
 3141SOL     OW10863   5.184   7.294   6.925  0.2496 -0.1529  0.2211
 3141SOL    HW110864   5.275   7.324   6.922 -0.5230  2.2616 -0.9950
 3141SOL    HW210865   5.168   7.276   7.017  1.3785  1.4063  0.7645
 3142SOL     OW10866   6.439   4.564   9.214 -0.2271 -0.4983 -0.2552
 3142SOL    HW110867   6.418   4.656   9.202 -3.2819 -0.9396  0.8153
 3142SOL    HW210868   6.512   4.548   9.155 -1.4600  1.9577 -2.6640
 3143SOL     OW10869   1.716   7.095   0.831  0.2152  0.6643  0.6749
 3143SOL    HW110870   1.710   7.062   0.741  2.5804 -2.3529  1.4649
 3143SOL    HW210871   1.795   7.150   0.831 -0.2808  1.3961  0.7543
 3144SOL     OW10872   2.978   5.797   6.337 -0.2592  0.0965 -0.0053
 3144SOL    HW110873   2.991   5.802   6.432 -2.3565 -0.1257  0.3380
 3144SOL    HW210874   2.914   5.727   6.326 -1.7652  1.6045 -1.3655
 3145SOL     OW10875   6.019   5.339  11.904 -0.1058  0.2566  0.5066
 3145SOL    HW110876   6.058   5.426  11.894  0.5942 -0.1248 -0.1414
 3145SOL    HW210877   6.052   5.307  11.987 -0.6149  0.7237  0.9021
 3146SOL     OW10878   7.233   5.372   1.981 -0.0612 -0.0115  0.3053
 3146SOL    HW110879   7.270   5.428   1.913 -0.9144  0.2548  0.0410
 3146SOL    HW210880   7.174   5.430   2.029 -0.6028 -0.5685  0.3147
 3147SOL     OW10881   3.755   4.761  12.175  0.1575  0.1378  0.4174
 3147SOL    HW110882   3.748   4.833  12.112 -0.1372 -0.0107  0.2736
 3147SOL    HW210883   3.760   4.682  12.120  1.8049  0.1342  0.5429
 3148SOL     OW10884   1.302   6.489  11.108 -0.7853  0.4643 -0.9420
 3148SOL    HW110885   1.233   6.487  11.174 -0.4923 -1.6259 -0.6099
 3148SOL    HW210886   1.383   6.494  11.158 -0.6149  0.3713 -1.2047
 3149SOL     OW10887   0.372   7.084   0.284  0.6106  0.0759  0.1768
 3149SOL    HW110888   0.401   7.118   0.369 -1.1105  0.8849  0.4811
 3149SOL    HW210889   0.276   7.086   0.289  0.4122  1.8967 -2.4441
 3150SOL     OW10890   3.284   6.012   2.295  0.2483  0.8994  0.0508
 3150SOL    HW110891   3.311   6.040   2.208  0.5221 -0.5444 -0.3490
 3150SOL    HW210892   3.353   5.951   2.323  0.0372  1.1613  1.1709
 3151SOL     OW10893   4.227   0.996   7.817 -0.3341  0.2028  0.1618
 3151SOL    HW110894   4.270   0.961   7.739  0.2018  0.4595  0.3363
 3151SOL    HW210895   4.169   0.926   7.846  1.0678 -0.7511  0.7834
 3152SOL     OW10896   3.825   3.780   5.357  0.1559 -0.3692 -0.0934
 3152SOL    HW110897   3.870   3.741   5.282  1.0647 -1.2208  0.8429
 3152SOL    HW210898   3.867   3.865   5.369  1.0422 -0.8371  0.3014
 3153SOL     OW10899   1.787   0.721   6.560 -0.1324 -0.0854 -0.5723
 3153SOL    HW110900   1.703   0.706   6.605  1.1876 -2.9142  1.2612
 3153SOL    HW210901   1.846   0.749   6.629  0.6475  1.1885 -1.7118
 3154SOL     OW10902   5.939   2.400   1.101  0.6650 -0.4649  0.0498
 3154SOL    HW110903   5.849   2.425   1.082  0.9010  0.3660 -0.0082
 3154SOL    HW210904   5.959   2.443   1.184  1.1481 -0.2877 -0.1541
 3155SOL     OW10905   1.033   2.661   1.419  0.2350 -0.0325 -0.0716
 3155SOL    HW110906   1.014   2.721   1.347  0.0415  1.7198  1.3670
 3155SOL    HW210907   1.126   2.642   1.411  0.5363  1.2911  0.0047
 3156SOL     OW10908   7.837   7.915   3.029 -0.0845  0.0071 -0.6048
 3156SOL    HW110909   7.913   7.858   3.040  0.7378  1.1587 -0.0381
 3156SOL    HW210910   7.786   7.874   2.959  1.4430 -0.4125 -1.5294
 3157SOL     OW10911   7.399   0.389   2.219 -0.1426  0.1519  0.5600
 3157SOL    HW110912   7.387   0.315   2.277  0.3246 -0.3527  0.0340
 3157SOL    HW210913   7.492   0.411   2.227 -0.0695  0.0693  0.0079
 3158SOL     OW10914   7.701   6.539   8.352  0.0653 -0.6065  0.1611
 3158SOL    HW110915   7.726   6.592   8.427  0.5381 -0.2732 -0.2194
 3158SOL    HW210916   7.784   6.522   8.306 -0.3494  0.2602 -0.9647
 3159SOL     OW10917   2.763   1.996   9.086  0.1180 -0.4247  0.3239
 3159SOL    HW110918   2.827   1.928   9.109  0.9308 -0.5065 -1.9563
 3159SOL    HW210919   2.816   2.075   9.075 -0.1361 -0.4752 -1.5032
 3160SOL     OW10920   0.696   7.466  10.991 -0.3397  0.3185 -0.2978
 3160SOL    HW110921   0.662   7.381  11.019 -2.6240  0.4380 -2.3365
 3160SOL    HW210922   0.765   7.487  11.054 -0.1987 -2.6857  0.6776
 3161SOL     OW10923   5.626   2.304  11.739  0.8199  0.2559 -0.4152
 3161SOL    HW110924   5.625   2.397  11.762  1.1612  0.2340 -0.3007
 3161SOL    HW210925   5.537   2.285  11.708  1.0160  0.8522 -1.3727
 3162SOL     OW10926   5.906   4.973   2.545  0.5338 -0.5183  0.6261
 3162SOL    HW110927   5.973   4.915   2.581  1.0031  0.9517  2.2736
 3162SOL    HW210928   5.852   4.997   2.621 -0.1230  0.5526 -0.1485
 3163SOL     OW10929   6.300   7.409   3.362  0.0087  0.3721 -0.1177
 3163SOL    HW110930   6.317   7.368   3.447  0.3559  0.1801 -0.2783
 3163SOL    HW210931   6.221   7.366   3.330 -2.2394  2.8298  1.6574
 3164SOL     OW10932   1.219   4.868   2.821 -0.5829  0.1386  0.1195
 3164SOL    HW110933   1.141   4.921   2.839 -0.3611  1.0765 -1.4867
 3164SOL    HW210934   1.196   4.818   2.743  0.0692 -0.3338  0.2219
 3165SOL     OW10935   0.583   7.983  11.852  0.0590  0.5363  0.4206
 3165SOL    HW110936   0.518   7.965  11.783 -0.0466  1.6871  0.1981
 3165SOL    HW210937   0.536   7.966  11.934 -0.3361  0.7665  0.2455
 3166SOL     OW10938   2.394   0.414   8.367  0.0407 -0.5316  0.1318
 3166SOL    HW110939   2.453   0.488   8.352 -3.1834  2.0527 -1.1205
 3166SOL    HW210940   2.393   0.366   8.284 -0.4605  0.1607 -0.2792
 3167SOL     OW10941   0.863   4.279   1.510  0.1152  0.2468 -0.2318
 3167SOL    HW110942   0.880   4.199   1.560 -0.5792  1.1151  1.4882
 3167SOL    HW210943   0.949   4.314   1.488  0.4214 -0.6495 -0.4968
 3168SOL     OW10944   6.699   5.166   0.434 -0.1006  0.2306  0.1257
 3168SOL    HW110945   6.767   5.213   0.386  0.0103  1.4200  1.3793
 3168SOL    HW210946   6.715   5.187   0.526 -2.6143  1.2430  0.4359
 3169SOL     OW10947   6.375   1.277   1.641  0.0397 -0.0797  0.2932
 3169SOL    HW110948   6.334   1.360   1.616 -0.1371 -0.0758  0.5887
 3169SOL    HW210949   6.398   1.236   1.558  1.0958  0.7489  0.1474
 3170SOL     OW10950   7.512   5.448  10.946  0.7268  0.0384 -1.0817
 3170SOL    HW110951   7.460   5.495  10.881  0.8034  0.6225 -0.7214
 3170SOL    HW210952   7.484   5.357  10.937 -3.0051  0.7363  1.5263
 3171SOL     OW10953   5.950   3.786   6.988 -0.5659  0.0617  0.0971
 3171SOL    HW110954   5.937   3.726   7.062  0.0066 -1.7481 -1.1931
 3171SOL    HW210955   5.968   3.728   6.914  0.8056  1.8866 -1.0622
 3172SOL     OW10956   1.496   5.423  12.245  0.3585 -0.1696  0.5467
 3172SOL    HW110957   1.549   5.394  12.319  1.4755 -0.1776 -0.2356
 3172SOL    HW210958   1.427   5.356  12.237  0.7785 -0.6646  0.9977
 3173SOL     OW10959   1.869   4.275   3.822 -0.2525  0.3358 -0.0198
 3173SOL    HW110960   1.931   4.304   3.889  0.2801  0.0917 -0.3968
 3173SOL    HW210961   1.805   4.223   3.870 -0.1352  0.5437  0.3695
 3174SOL     OW10962   4.280   3.224   1.678  0.3940  0.1595  0.3467
 3174SOL    HW110963   4.331   3.235   1.598  1.9822  0.5897  1.3732
 3174SOL    HW210964   4.287   3.308   1.722 -1.1954  0.2030  0.5437
 3175SOL     OW10965   6.505   7.829   4.356 -0.0109  0.4175 -0.1955
 3175SOL    HW110966   6.577   7.784   4.313 -0.1396  0.7378 -0.7540
 3175SOL    HW210967   6.538   7.918   4.372  0.1076  0.2487  0.5572
 3176SOL     OW10968   3.870   0.117   5.359 -0.1846  0.0235  0.0311
 3176SOL    HW110969   3.917   0.058   5.418 -1.6366 -2.3860 -1.0479
 3176SOL    HW210970   3.888   0.082   5.272 -0.3167  1.8209 -0.7521
 3177SOL     OW10971   7.974   0.282   3.446 -0.5805 -0.3833  0.5098
 3177SOL    HW110972   7.898   0.274   3.389  1.6099  0.1953 -2.7978
 3177SOL    HW210973   7.960   0.363   3.494 -2.2167 -0.5103  0.2938
 3178SOL     OW10974   6.348   6.481   4.246 -0.2215 -0.3025  0.5452
 3178SOL    HW110975   6.366   6.423   4.171  0.2503  0.4676  0.0367
 3178SOL    HW210976   6.259   6.513   4.231  0.6000  1.5423 -0.9193
 3179SOL     OW10977   4.119   2.946   5.172  0.3031 -0.3687 -0.4509
 3179SOL    HW110978   4.147   3.036   5.189 -0.0618 -0.5958  1.5769
 3179SOL    HW210979   4.024   2.952   5.159 -0.4561 -0.7804  3.5416
 3180SOL     OW10980   4.309   6.597  11.637 -0.2200 -0.3829 -0.2972
 3180SOL    HW110981   4.358   6.633  11.563 -0.9519  0.5138 -0.3619
 3180SOL    HW210982   4.376   6.565  11.697  0.4519  0.6589 -0.4664
 3181SOL     OW10983   6.993   5.535   2.596  0.0447  1.1961 -0.4998
 3181SOL    HW110984   7.036   5.621   2.593  1.7663  0.5053  1.5723
 3181SOL    HW210985   7.049   5.482   2.653 -0.8237 -1.4062 -1.8690
 3182SOL     OW10986   3.789   3.508  12.285 -0.4677 -0.6911  0.1140
 3182SOL    HW110987   3.859   3.572  12.278 -1.8806  0.9700  0.6589
 3182SOL    HW210988   3.831   3.424  12.263  1.0523  0.6014 -2.3553
 3183SOL     OW10989   7.690   6.139  10.551 -0.2898  0.3393  0.0084
 3183SOL    HW110990   7.765   6.080  10.538 -0.0472  0.5959  0.2149
 3183SOL    HW210991   7.652   6.111  10.634 -1.7140 -1.1648 -1.0937
 3184SOL     OW10992   1.807   5.598   4.617 -0.1373 -0.2302  0.2504
 3184SOL    HW110993   1.778   5.684   4.587 -1.4297 -0.7141  0.0521
 3184SOL    HW210994   1.740   5.538   4.585  1.4153 -1.5047 -0.7693
 3185SOL     OW10995   0.706   6.312   9.094 -0.0474  0.7816  0.0938
 3185SOL    HW110996   0.717   6.407   9.084 -0.2177  0.8043  0.1228
 3185SOL    HW210997   0.613   6.297   9.077 -0.0368  0.6291  0.1710
 3186SOL     OW10998   0.201   7.866   4.629 -0.1695  0.2333  0.4904
 3186SOL    HW110999   0.116   7.823   4.633 -0.5094  0.9103  0.7179
 3186SOL    HW211000   0.181   7.957   4.606  0.5000  0.3736  0.4372
 3187SOL     OW11001   0.976   5.243  10.749 -0.1708  0.2121  0.3890
 3187SOL    HW111002   0.922   5.322  10.753 -0.2328  0.1468  0.9024
 3187SOL    HW211003   1.065   5.274  10.764 -0.1685  0.2118  0.3765
 3188SOL     OW11004   7.656   0.888   0.903 -0.0798 -0.4974  0.6105
 3188SOL    HW111005   7.687   0.907   0.992 -1.1641 -2.0322  1.3624
 3188SOL    HW211006   7.653   0.973   0.860 -1.4759  0.6221  2.7129
 3189SOL     OW11007   3.547   3.979  12.476 -0.1951  0.5285 -0.0845
 3189SOL    HW111008   3.611   3.971  12.547  0.6527  2.4793 -0.5844
 3189SOL    HW211009   3.463   3.995  12.521 -0.0464 -0.3202  0.5173
 3190SOL     OW11010   5.518   6.044   5.983  0.3349 -0.1906 -0.4529
 3190SOL    HW111011   5.584   6.003   6.038 -0.6970  0.9963  1.8124
 3190SOL    HW211012   5.435   6.021   6.025 -0.4753  1.0953 -1.3040
 3191SOL     OW11013   1.558   4.106   4.888 -0.2586 -0.5384  0.1988
 3191SOL    HW111014   1.524   4.030   4.936 -0.6579 -0.2954  0.3081
 3191SOL    HW211015   1.652   4.107   4.907 -0.2737 -0.9294  0.2998
 3192SOL     OW11016   2.850   7.715   5.292  0.1641 -0.2559 -0.3410
 3192SOL    HW111017   2.897   7.796   5.311 -0.9037  0.3216 -0.1114
 3192SOL    HW211018   2.908   7.646   5.325  1.0325  0.4095 -0.4412
 3193SOL     OW11019   3.538   2.606   9.054  0.2736  0.4811  0.0685
 3193SOL    HW111020   3.628   2.576   9.039 -0.0002 -0.4062  0.1182
 3193SOL    HW211021   3.489   2.569   8.981 -0.5820 -1.5876  1.5735
 3194SOL     OW11022   1.702   1.485   0.818 -0.5741  0.0121 -0.1526
 3194SOL    HW111023   1.753   1.514   0.893 -1.0819 -0.6160  0.4480
 3194SOL    HW211024   1.727   1.393   0.807 -1.1691 -0.1441 -0.1960
 3195SOL     OW11025   1.206   1.887  12.178  0.2903 -0.0217 -0.2569
 3195SOL    HW111026   1.139   1.819  12.174  0.3143 -0.0382 -0.3832
 3195SOL    HW211027   1.169   1.959  12.128 -0.6589  0.8717  1.6261
 3196SOL     OW11028   5.098   3.067   6.837 -0.5296 -0.7595 -0.2592
 3196SOL    HW111029   5.172   3.059   6.897  0.4440 -1.1398 -1.4713
 3196SOL    HW211030   5.028   3.105   6.890 -0.0323 -2.0040  1.3618
 3197SOL     OW11031   7.135   3.718   4.118 -0.2578 -0.3204 -0.4023
 3197SOL    HW111032   7.150   3.758   4.032  0.1502 -0.0496 -0.2102
 3197SOL    HW211033   7.174   3.780   4.180 -2.0839  0.3592  0.1255
 3198SOL     OW11034   0.079   0.662   3.828 -0.2995 -0.1168  0.2823
 3198SOL    HW111035   0.164   0.680   3.786 -0.0413  1.0467  1.2310
 3198SOL    HW211036   0.014   0.691   3.764  0.0222 -0.8207 -0.3698
 3199SOL     OW11037   0.601   1.549  12.181 -0.3528  0.1279 -0.3058
 3199SOL    HW111038   0.555   1.473  12.215 -1.4052  0.3911 -1.1062
 3199SOL    HW211039   0.603   1.536  12.086 -1.1297  1.3862 -0.5192
 3200SOL     OW11040   0.726   1.767   0.392 -0.0946 -0.0747  0.0808
 3200SOL    HW111041   0.788   1.744   0.462  0.6548 -2.6797 -1.2943
 3200SOL    HW211042   0.641   1.739   0.426 -0.0050  0.2852  0.6160
 3201SOL     OW11043   0.058   0.320   6.384  0.5899  0.2637  0.2407
 3201SOL    HW111044   0.051   0.415   6.377 -1.1372  0.1834  0.4436
 3201SOL    HW211045   0.057   0.289   6.293  0.8710  0.4116  0.1851
 3202SOL     OW11046   7.155   4.555  11.981 -0.5528  0.8267  0.7349
 3202SOL    HW111047   7.245   4.532  11.961 -0.6480  0.8636  0.2366
 3202SOL    HW211048   7.110   4.471  11.992 -0.1969  0.8100  2.2552
 3203SOL     OW11049   6.314   7.503   6.216  0.0696 -0.0074 -0.2897
 3203SOL    HW111050   6.301   7.471   6.306 -0.7758 -1.2309 -0.8272
 3203SOL    HW211051   6.228   7.531   6.188  0.4456  0.9357 -0.5264
 3204SOL     OW11052   0.009   3.792  10.608  0.0400  0.4966  0.4693
 3204SOL    HW111053  -0.060   3.811  10.672 -0.5183  1.6908 -0.4339
 3204SOL    HW211054   0.085   3.768  10.661 -0.8171 -0.0017  1.5131
 3205SOL     OW11055   7.724   7.061   4.966  0.1551 -0.3897 -0.4505
 3205SOL    HW111056   7.712   6.992   4.901 -2.7210 -0.4583  0.0039
 3205SOL    HW211057   7.649   7.051   5.024  1.2266  1.3395  1.3336
 3206SOL     OW11058   6.439   7.510   9.298 -0.4004  0.4309  0.5946
 3206SOL    HW111059   6.350   7.476   9.291 -0.1975 -0.2388  1.2104
 3206SOL    HW211060   6.485   7.448   9.354  0.6911  0.3023 -0.3897
 3207SOL     OW11061   4.377   1.241  10.302  0.0509 -0.2637  0.2992
 3207SOL    HW111062   4.448   1.183  10.275 -0.9264 -0.3576 -2.3238
 3207SOL    HW211063   4.298   1.187  10.292 -0.7930  1.1953 -1.3347
 3208SOL     OW11064   7.486   7.493   2.742  0.0542  0.8710 -0.2111
 3208SOL    HW111065   7.426   7.552   2.788  0.1124  0.5965  0.2157
 3208SOL    HW211066   7.436   7.464   2.666 -0.8912 -0.4492  0.8679
 3209SOL     OW11067   7.386   0.908   2.159 -0.0906 -0.3909  0.1827
 3209SOL    HW111068   7.407   0.877   2.070 -1.7062 -1.0575 -0.0010
 3209SOL    HW211069   7.468   0.897   2.207  1.2190  1.2389 -1.5226
 3210SOL     OW11070   6.138   5.074   5.083 -0.3009 -1.0965  0.3638
 3210SOL    HW111071   6.156   5.151   5.137  0.0821 -1.4333  0.7244
 3210SOL    HW211072   6.219   5.023   5.086 -0.3407 -1.2143 -0.3752
 3211SOL     OW11073   1.763   0.892   2.106 -0.0691 -0.3704  0.4419
 3211SOL    HW111074   1.691   0.901   2.043  0.1242 -0.8977  0.1432
 3211SOL    HW211075   1.802   0.807   2.086 -0.4702 -0.8862  1.7614
 3212SOL     OW11076   0.185   3.742   4.215 -0.3618 -0.8733  0.2086
 3212SOL    HW111077   0.180   3.797   4.137 -0.1999 -1.3939 -0.1785
 3212SOL    HW211078   0.212   3.801   4.285  0.7862 -0.6376 -0.3954
 3213SOL     OW11079   1.009   1.311   2.512  0.6130  0.3840 -0.1958
 3213SOL    HW111080   0.994   1.217   2.499  0.9410  0.3209 -0.1052
 3213SOL    HW211081   0.952   1.334   2.586  0.7474  0.2000 -0.0359
 3214SOL     OW11082   2.693   6.750   5.804 -0.6433 -0.1730  0.6216
 3214SOL    HW111083   2.627   6.774   5.739  0.9059 -0.1006 -1.0110
 3214SOL    HW211084   2.670   6.661   5.829 -0.6811 -0.6201 -0.8763
 3215SOL     OW11085   1.913   3.462  12.321 -0.1607 -0.1744  0.3424
 3215SOL    HW111086   1.823   3.436  12.300 -0.7364  1.3702  0.7601
 3215SOL    HW211087   1.966   3.420  12.253 -1.2951 -0.3855 -0.4518
 3216SOL     OW11088   6.952   4.546   8.195 -0.3637  0.3834  0.3721
 3216SOL    HW111089   7.038   4.586   8.205 -1.0116  2.4398 -1.5744
 3216SOL    HW211090   6.947   4.482   8.266  1.8997  1.7396  1.8724
 3217SOL     OW11091   2.955   1.743   2.560 -0.1716 -0.1465 -0.4567
 3217SOL    HW111092   3.038   1.695   2.564  0.0889  0.2710 -0.7278
 3217SOL    HW211093   2.975   1.829   2.596 -0.3894  0.0882 -0.8802
 3218SOL     OW11094   6.308   5.705  11.295 -0.1196 -0.2843  0.5447
 3218SOL    HW111095   6.377   5.690  11.231 -2.4026  1.4472 -2.6285
 3218SOL    HW211096   6.310   5.628  11.352  4.2525 -0.3338  0.6565
 3219SOL     OW11097   3.651   1.012  12.263  0.0391  0.4706  0.2486
 3219SOL    HW111098   3.591   1.085  12.246  1.0429  1.4706  0.8503
 3219SOL    HW211099   3.661   0.969  12.178 -2.1865 -0.2832  0.2801
 3220SOL     OW11100   2.033   6.351  12.277  0.3557  0.3017 -0.3506
 3220SOL    HW111101   2.116   6.351  12.231  0.3519  1.8914 -0.4225
 3220SOL    HW211102   1.971   6.311  12.216  0.6846  0.8605 -1.0633
 3221SOL     OW11103   3.815   2.015   0.621 -0.1580 -0.1610 -0.0069
 3221SOL    HW111104   3.852   1.937   0.581  0.8898 -0.0539  0.6993
 3221SOL    HW211105   3.808   2.079   0.550 -2.2783 -1.2751 -0.8898
 3222SOL     OW11106   6.691   7.309   7.974 -0.5812  0.4160  0.7059
 3222SOL    HW111107   6.629   7.237   7.986 -2.0521  1.1321 -1.9222
 3222SOL    HW211108   6.745   7.307   8.054 -0.0715 -3.9621  0.5117
 3223SOL     OW11109   5.182   1.965  11.354  0.3264 -0.0069 -0.7470
 3223SOL    HW111110   5.225   2.051  11.348  0.6127  0.0035  1.0126
 3223SOL    HW211111   5.088   1.985  11.350  0.4092  0.2398 -1.7174
 3224SOL     OW11112   7.794   4.733   9.571  0.0008  0.2568  0.0617
 3224SOL    HW111113   7.882   4.768   9.585  0.6370 -1.6938  1.3884
 3224SOL    HW211114   7.799   4.689   9.487  0.2426  0.2840  0.0609
 3225SOL     OW11115   6.162   4.890   4.064  0.0246  0.0876  0.5864
 3225SOL    HW111116   6.182   4.798   4.044  0.7548  0.2566  0.5143
 3225SOL    HW211117   6.246   4.928   4.090 -0.1715  0.8683  0.1205
 3226SOL     OW11118   3.151   0.096  11.763  0.0284  0.6670 -0.1562
 3226SOL    HW111119   3.184   0.099  11.673 -0.3171 -1.0122 -0.3808
 3226SOL    HW211120   3.060   0.125  11.756 -0.3670 -0.6186 -0.5731
 3227SOL     OW11121   4.810   5.844   1.996 -0.3448 -0.2029  0.0090
 3227SOL    HW111122   4.752   5.798   2.058  1.1636  0.1608  1.7805
 3227SOL    HW211123   4.890   5.860   2.046  1.5409 -1.1537 -2.4884
 3228SOL     OW11124   1.491   1.724   4.944 -0.2273 -0.2290  0.2594
 3228SOL    HW111125   1.511   1.734   4.851 -3.2747 -0.6576 -0.5659
 3228SOL    HW211126   1.498   1.630   4.960 -0.7924 -0.2957  0.1429
 3229SOL     OW11127   7.380   7.151   9.629  0.1640 -0.1514 -0.1485
 3229SOL    HW111128   7.296   7.178   9.593 -0.9345  0.9071  2.8394
 3229SOL    HW211129   7.361   7.068   9.673  1.0112 -0.5436 -0.5116
 3230SOL     OW11130   1.538   3.682   9.166 -0.3368  0.0917 -0.7297
 3230SOL    HW111131   1.509   3.772   9.179 -2.0675 -0.4566 -0.5190
 3230SOL    HW211132   1.617   3.674   9.219  0.7273  1.8869 -1.9172
 3231SOL     OW11133   3.430   2.839   3.817  0.3074  0.1943  0.5198
 3231SOL    HW111134   3.387   2.780   3.879 -1.0290 -0.1275 -0.6615
 3231SOL    HW211135   3.391   2.818   3.733  2.1657  0.5338 -0.4940
 3232SOL     OW11136   6.279   7.165  11.873 -0.3103 -0.2888  0.2989
 3232SOL    HW111137   6.363   7.210  11.862 -0.4149 -0.0116  0.6013
 3232SOL    HW211138   6.217   7.218  11.823 -0.7207  0.7729  1.8631
 3233SOL     OW11139   2.289   1.273   6.225  0.1811 -0.1206 -0.1378
 3233SOL    HW111140   2.247   1.244   6.144 -2.0541 -0.2989  0.9847
 3233SOL    HW211141   2.281   1.369   6.223 -2.5747 -0.2212  1.0848
 3234SOL     OW11142   3.356   4.223   3.530  0.0316  0.5267  0.3628
 3234SOL    HW111143   3.275   4.188   3.492 -0.6722  0.7398  1.6210
 3234SOL    HW211144   3.396   4.148   3.574 -0.1760  0.7271  0.8955
 3235SOL     OW11145   1.636   6.212  12.022 -0.2914 -0.1351 -0.7237
 3235SOL    HW111146   1.566   6.273  11.998  0.5505  0.6775 -1.1849
 3235SOL    HW211147   1.600   6.162  12.094 -0.5162  1.9169  0.6867
 3236SOL     OW11148   5.617   4.732   2.641 -0.0336 -0.4177  0.0140
 3236SOL    HW111149   5.621   4.798   2.710 -1.2894 -0.4155  0.0996
 3236SOL    HW211150   5.566   4.660   2.679 -2.6924  0.4751 -1.5757
 3237SOL     OW11151   2.480   3.490   0.578 -0.0672  0.7091 -0.3432
 3237SOL    HW111152   2.470   3.405   0.535  0.3733 -0.1941  1.2621
 3237SOL    HW211153   2.394   3.507   0.616  0.7147 -0.8160  2.3914
 3238SOL     OW11154   3.337   7.580   9.512  0.3798 -0.4526  0.5795
 3238SOL    HW111155   3.331   7.488   9.490 -0.0146 -0.7559  1.8603
 3238SOL    HW211156   3.428   7.604   9.494  0.5146 -1.1201  0.3565
 3239SOL     OW11157   3.503   3.428   6.006  0.5524  0.4684 -0.2621
 3239SOL    HW111158   3.474   3.437   6.096 -0.3243  0.3067 -0.5254
 3239SOL    HW211159   3.566   3.499   5.994 -0.4484  1.4301  0.0254
 3240SOL     OW11160   2.904   4.883   6.134  0.1631 -0.2686  0.1441
 3240SOL    HW111161   2.872   4.950   6.194  0.0492  0.6268 -0.8984
 3240SOL    HW211162   2.891   4.920   6.047  1.8830 -0.8442 -0.3883
 3241SOL     OW11163   6.183   0.471   9.661  0.2511  0.1000  0.0314
 3241SOL    HW111164   6.101   0.500   9.702 -0.0447 -1.8223  0.9096
 3241SOL    HW211165   6.248   0.473   9.731  0.3528 -0.7540 -0.0267
 3242SOL     OW11166   7.164   3.791   5.506  0.3191  0.0036 -0.0495
 3242SOL    HW111167   7.167   3.811   5.599  2.2381  0.2769 -0.1199
 3242SOL    HW211168   7.216   3.712   5.496  0.0011 -0.1160 -0.8655
 3243SOL     OW11169   7.489   4.835   5.932 -0.2087  0.0042  0.3073
 3243SOL    HW111170   7.455   4.864   6.017 -2.1251  0.7093 -0.6237
 3243SOL    HW211171   7.583   4.851   5.936 -0.5466  1.9383  1.5756
 3244SOL     OW11172   4.968   6.529   8.616 -0.2508  0.4154 -0.0039
 3244SOL    HW111173   5.032   6.509   8.684  1.1998  0.9864 -1.1575
 3244SOL    HW211174   4.893   6.565   8.663  0.1293 -0.5424  1.3978
 3245SOL     OW11175   2.269   5.739  12.062 -0.6623 -0.5272  0.4917
 3245SOL    HW111176   2.318   5.669  12.019 -0.8083  0.1234 -0.7782
 3245SOL    HW211177   2.208   5.770  11.995  0.8701  2.2818  0.2625
 3246SOL     OW11178   6.566   3.744   8.200 -0.3785  0.4169 -0.1957
 3246SOL    HW111179   6.551   3.828   8.157 -2.6883  0.1196 -0.0951
 3246SOL    HW211180   6.653   3.716   8.170 -0.7014  1.5648 -2.3714
 3247SOL     OW11181   0.279   5.088   5.201 -0.3887  0.1296 -0.1932
 3247SOL    HW111182   0.304   5.127   5.285  1.6090  0.4772 -0.9076
 3247SOL    HW211183   0.208   5.144   5.169 -1.2451 -0.0672  1.2767
 3248SOL     OW11184   7.950   0.769   9.685  0.5039 -0.2165  0.2091
 3248SOL    HW111185   7.864   0.727   9.689 -0.4340  1.1450 -2.6712
 3248SOL    HW211186   7.968   0.777   9.591  2.6662  1.7123  0.6999
 3249SOL     OW11187   1.954   6.613   6.123 -0.0458 -0.4112 -0.7026
 3249SOL    HW111188   1.946   6.675   6.195  1.5018  0.2290 -1.0407
 3249SOL    HW211189   1.906   6.536   6.152 -2.3191  1.0321 -0.4026
 3250SOL     OW11190   1.369   1.743  10.575  0.2509  0.1595 -0.5862
 3250SOL    HW111191   1.375   1.806  10.503 -1.5277  1.4860  0.3513
 3250SOL    HW211192   1.275   1.737  10.593  0.6186 -0.5359  1.2923
 3251SOL     OW11193   3.345   7.515   5.657  0.5076  0.0683  0.5169
 3251SOL    HW111194   3.282   7.569   5.704 -1.3357 -1.6039  0.1060
 3251SOL    HW211195   3.396   7.473   5.726 -0.6586 -0.6266  0.9815
 3252SOL     OW11196   7.100   7.057   3.104 -0.1920  0.1997  0.4976
 3252SOL    HW111197   7.034   7.067   3.172  0.1331  1.3360  0.6611
 3252SOL    HW211198   7.168   7.121   3.126  0.0985  0.3284 -0.6895
 3253SOL     OW11199   6.468   1.880   7.160  0.6421  0.0783 -0.0105
 3253SOL    HW111200   6.406   1.906   7.228 -0.2075 -0.8475 -0.4239
 3253SOL    HW211201   6.414   1.845   7.089  1.5672  0.2879 -0.8469
 3254SOL     OW11202   1.619   1.142   7.940 -0.1991 -0.3626 -0.2064
 3254SOL    HW111203   1.612   1.095   7.857 -1.7316  0.8299 -0.8095
 3254SOL    HW211204   1.712   1.145   7.959  0.0956 -1.5852 -1.3236
 3255SOL     OW11205   4.643   3.820   0.855  0.0533  0.6368 -0.0097
 3255SOL    HW111206   4.609   3.731   0.856  0.2722  0.5016 -1.9071
 3255SOL    HW211207   4.731   3.812   0.818  0.0007  1.6564 -0.4056
 3256SOL     OW11208   1.717   1.212  11.554 -0.0550  0.1959 -0.5987
 3256SOL    HW111209   1.686   1.207  11.464 -0.0669  4.1357 -0.9563
 3256SOL    HW211210   1.809   1.236  11.547 -0.2482  1.3188  0.3750
 3257SOL     OW11211   3.578   7.734   8.092 -0.2093  0.7344  0.9113
 3257SOL    HW111212   3.485   7.711   8.085 -0.4933  1.9470  0.5175
 3257SOL    HW211213   3.580   7.813   8.146  0.3113  2.3358 -1.3172
 3258SOL     OW11214   4.993   6.095   5.395 -0.0775 -0.0578 -0.4321
 3258SOL    HW111215   4.937   6.121   5.321  1.5381 -0.0305 -1.7158
 3258SOL    HW211216   4.932   6.073   5.465 -1.7500 -1.6187 -2.2766
 3259SOL     OW11217   7.485   4.695  10.641 -0.2331 -0.0530  0.5722
 3259SOL    HW111218   7.445   4.781  10.648 -0.9166 -0.3715  0.7278
 3259SOL    HW211219   7.423   4.644  10.588 -0.9778 -1.0950  2.3568
 3260SOL     OW11220   2.337   6.714   6.749 -0.3134  0.4808  0.1252
 3260SOL    HW111221   2.262   6.764   6.782 -1.0137 -1.4248  1.6191
 3260SOL    HW211222   2.313   6.691   6.660 -1.8745 -0.6296  0.7763
 3261SOL     OW11223   7.855   1.692   7.353  0.2247 -0.5756 -0.5565
 3261SOL    HW111224   7.871   1.776   7.396 -0.5461 -0.8675  0.3517
 3261SOL    HW211225   7.762   1.692   7.333 -0.0643 -1.7067  0.6143
 3262SOL     OW11226   4.454   0.578  10.088  0.5646  0.2009 -0.6142
 3262SOL    HW111227   4.428   0.487  10.092  1.4394 -0.0237  0.2421
 3262SOL    HW211228   4.462   0.606  10.179  1.0223  0.9156 -0.8591
 3263SOL     OW11229   2.232   7.199   6.373  0.3470  0.1434  0.4532
 3263SOL    HW111230   2.151   7.160   6.339 -0.7883  0.8147  2.2144
 3263SOL    HW211231   2.203   7.277   6.420  2.1122  0.7648  0.5948
 3264SOL     OW11232   0.548   7.101  12.253 -0.6638  0.1574 -0.6121
 3264SOL    HW111233   0.482   7.044  12.214  0.0269 -0.3538 -1.0399
 3264SOL    HW211234   0.543   7.082  12.347 -1.2474  0.2652 -0.6128
 3265SOL     OW11235   7.364   5.411  11.915  0.5961  0.0890  0.0683
 3265SOL    HW111236   7.288   5.363  11.948 -0.1664 -0.2893 -2.0836
 3265SOL    HW211237   7.333   5.501  11.905  0.5242 -0.0012 -0.5231
 3266SOL     OW11238   1.517   5.735   9.313  0.2206 -0.4612  0.6716
 3266SOL    HW111239   1.578   5.798   9.274  0.2286  0.4529  2.0855
 3266SOL    HW211240   1.513   5.760   9.406 -0.7126 -1.8052  1.0186
 3267SOL     OW11241   1.289   4.792   0.998  0.2623  0.0066  0.5709
 3267SOL    HW111242   1.359   4.777   0.935  0.9915  4.1381  0.1430
 3267SOL    HW211243   1.209   4.792   0.945  0.6190  1.1032 -0.0007
 3268SOL     OW11244   7.439   4.794  11.750 -0.2900  0.2311 -0.4299
 3268SOL    HW111245   7.502   4.856  11.786 -1.0155  0.8151 -0.1390
 3268SOL    HW211246   7.370   4.849  11.714  0.0875 -0.3476 -2.1402
 3269SOL     OW11247   4.598   0.676   7.632  0.1669 -0.0940  0.0768
 3269SOL    HW111248   4.550   0.593   7.627  2.6796 -1.8233  1.8824
 3269SOL    HW211249   4.668   0.666   7.567  0.5678  0.5719  0.4012
 3270SOL     OW11250   4.005   0.718   5.243  0.2236  0.0084  0.4676
 3270SOL    HW111251   4.031   0.673   5.323  1.3016 -0.3504 -0.0628
 3270SOL    HW211252   3.977   0.648   5.184  0.8716  0.1215  0.0159
 3271SOL     OW11253   3.352   2.385   5.748  0.5701  0.0943 -0.1789
 3271SOL    HW111254   3.391   2.327   5.683  1.4507 -0.7479  1.0650
 3271SOL    HW211255   3.419   2.451   5.765  0.0967  0.6891 -0.5703
 3272SOL     OW11256   2.375   4.852   9.118  0.1598  0.0732 -0.1689
 3272SOL    HW111257   2.417   4.859   9.033  0.8999 -0.2457  0.1681
 3272SOL    HW211258   2.446   4.837   9.180 -0.2248  1.5323  0.6808
 3273SOL     OW11259   1.894   4.565   4.200  0.0474 -0.9400 -0.3571
 3273SOL    HW111260   1.935   4.484   4.171 -0.5879 -0.9406 -1.2917
 3273SOL    HW211261   1.847   4.542   4.280  1.1065 -1.1389  0.2267
 3274SOL     OW11262   1.469   5.396   1.549 -0.3894  0.0682 -0.0394
 3274SOL    HW111263   1.375   5.395   1.568 -0.2450  0.1698  0.7128
 3274SOL    HW211264   1.511   5.382   1.634  0.2691 -0.8764 -0.5078
 3275SOL     OW11265   5.823   5.142   5.181 -0.1630 -0.1034  1.2080
 3275SOL    HW111266   5.822   5.232   5.214  0.7135  1.7379 -3.0279
 3275SOL    HW211267   5.906   5.107   5.211  0.3366  1.1959  1.4304
 3276SOL     OW11268   0.354   1.686   7.506  0.1888  0.1413  0.3385
 3276SOL    HW111269   0.427   1.707   7.448 -0.3429  1.0760 -0.0072
 3276SOL    HW211270   0.278   1.682   7.449  0.0013 -1.1025  0.6558
 3277SOL     OW11271   5.642   7.455   5.032  0.2659 -0.3138  0.3009
 3277SOL    HW111272   5.619   7.542   5.001 -0.3568 -0.0852  1.3591
 3277SOL    HW211273   5.632   7.460   5.127 -2.8343 -2.3835  0.1917
 3278SOL     OW11274   3.524   3.841   2.494 -0.2788 -0.4821  0.3733
 3278SOL    HW111275   3.574   3.850   2.412 -1.9754 -0.0112 -0.6576
 3278SOL    HW211276   3.514   3.747   2.506 -1.4313 -0.5471 -0.8926
 3279SOL     OW11277   6.033   5.973  12.139 -0.6741 -0.1552 -0.6834
 3279SOL    HW111278   5.967   5.913  12.174  0.1601 -0.5488  0.2778
 3279SOL    HW211279   6.014   5.978  12.045 -1.6213 -0.8163 -0.5386
 3280SOL     OW11280   4.881   6.571  12.329  0.5135  0.1115  0.2843
 3280SOL    HW111281   4.818   6.503  12.352  0.2048  0.7760  1.5122
 3280SOL    HW211282   4.964   6.525  12.319  0.3396 -0.4290  1.2524
 3281SOL     OW11283   1.266   4.349   6.065 -0.0371  0.5721 -0.2589
 3281SOL    HW111284   1.351   4.393   6.063 -0.1710  1.0075  1.7161
 3281SOL    HW211285   1.277   4.278   6.128 -1.0233  0.3948 -0.2730
 3282SOL     OW11286   0.553   4.780   0.366  0.1408 -0.5395  0.1402
 3282SOL    HW111287   0.550   4.752   0.275 -1.0336  2.2611 -0.7875
 3282SOL    HW211288   0.472   4.829   0.379  1.1769  0.7962  2.0974
 3283SOL     OW11289   7.949   5.688   5.342 -0.0853 -0.9281  0.0341
 3283SOL    HW111290   7.874   5.637   5.370  0.6549 -1.4810  1.0868
 3283SOL    HW211291   8.011   5.622   5.309  0.1842 -0.5449 -0.2254
 3284SOL     OW11292   2.712   3.381   1.874  0.3176 -0.0206  0.3578
 3284SOL    HW111293   2.798   3.377   1.832  0.6405  0.8400  0.9257
 3284SOL    HW211294   2.650   3.359   1.804  0.9922 -0.7368 -0.0312
 3285SOL     OW11295   0.630   6.329  11.961  0.3268  0.2665 -0.1737
 3285SOL    HW111296   0.595   6.332  12.050 -0.7673 -2.2217 -0.4374
 3285SOL    HW211297   0.592   6.405  11.918 -2.5235 -0.7214  0.3802
 3286SOL     OW11298   2.297   2.336  10.458 -0.2686  0.2564 -0.3718
 3286SOL    HW111299   2.301   2.400  10.529  1.7078 -0.7528  0.4980
 3286SOL    HW211300   2.259   2.385  10.384  0.2497  2.1431  0.5464
 3287SOL     OW11301   3.153   3.073   8.649  0.2528 -0.6750  0.0117
 3287SOL    HW111302   3.236   3.026   8.650  1.3540  1.1955  0.9293
 3287SOL    HW211303   3.126   3.077   8.741  0.6266  1.1601  0.0766
 3288SOL     OW11304   5.453   2.816   6.887  0.1276 -0.4461 -0.1717
 3288SOL    HW111305   5.513   2.743   6.903 -0.1616 -1.1103 -1.9486
 3288SOL    HW211306   5.435   2.851   6.975  0.6650 -2.1791  0.6739
 3289SOL     OW11307   2.002   2.338   6.192 -0.4382  0.2229  0.9542
 3289SOL    HW111308   1.948   2.338   6.112 -1.7536  0.2344  1.8148
 3289SOL    HW211309   2.043   2.252   6.192  0.3357  0.5746 -0.2245
 3290SOL     OW11310   6.556   5.789   8.562  0.1936 -0.4527 -0.2793
 3290SOL    HW111311   6.568   5.695   8.575 -1.2118 -0.5755  0.3723
 3290SOL    HW211312   6.611   5.830   8.629 -1.8952 -0.9342  1.8548
 3291SOL     OW11313   7.548   2.318   2.979  0.2440  0.1098 -0.3596
 3291SOL    HW111314   7.627   2.306   2.926  0.8500  2.8583 -0.2105
 3291SOL    HW211315   7.579   2.315   3.070  0.0199  0.3211 -0.2752
 3292SOL     OW11316   3.150   2.485   9.135  0.1105  0.0741  0.0368
 3292SOL    HW111317   3.174   2.576   9.148 -2.0086  0.9678 -1.6991
 3292SOL    HW211318   3.229   2.436   9.157  1.3195  2.2957  0.9685
 3293SOL     OW11319   1.442   1.058   9.496 -0.4825 -0.0808 -0.2286
 3293SOL    HW111320   1.356   1.048   9.455 -0.9049  2.1539 -0.0166
 3293SOL    HW211321   1.451   1.153   9.510  1.7483 -0.3269  0.3423
 3294SOL     OW11322   2.216   3.505   6.298 -0.7956 -0.3268  0.4347
 3294SOL    HW111323   2.256   3.460   6.372 -0.0817  1.3004  1.0791
 3294SOL    HW211324   2.248   3.595   6.305 -3.3545  0.6732  0.0761
 3295SOL     OW11325   0.996   0.845  10.358 -0.1434  0.1831  0.3266
 3295SOL    HW111326   1.052   0.782  10.404  0.8707  0.5585 -0.3424
 3295SOL    HW211327   1.013   0.828  10.265  1.2940  2.3665  0.1092
 3296SOL     OW11328   4.636   6.384   9.634 -0.0232 -0.4468 -0.4659
 3296SOL    HW111329   4.545   6.363   9.615 -1.0330  0.9639  2.2330
 3296SOL    HW211330   4.631   6.451   9.702  3.0523 -0.3484 -0.1994
 3297SOL     OW11331   7.711   6.724   4.533 -0.4532  0.0115  0.4236
 3297SOL    HW111332   7.743   6.793   4.591 -0.5995 -0.0140  0.5336
 3297SOL    HW211333   7.787   6.701   4.480 -0.7382  1.2050 -0.5470
 3298SOL     OW11334   7.507   1.897   3.075  0.5659  0.1755 -0.3277
 3298SOL    HW111335   7.510   1.894   2.979  0.6539 -1.1533 -0.2943
 3298SOL    HW211336   7.597   1.878   3.103  0.6491  1.0349  0.0233
 3299SOL     OW11337   5.989   2.680   7.510  0.0440  0.0191 -0.2920
 3299SOL    HW111338   6.062   2.696   7.571 -0.0538  0.7323 -0.3521
 3299SOL    HW211339   5.961   2.590   7.530  1.9956 -0.8973 -1.3949
 3300SOL     OW11340   3.397   2.958   9.828  0.0284 -0.1346  0.1096
 3300SOL    HW111341   3.395   2.870   9.866  0.1447 -0.5572 -0.8379
 3300SOL    HW211342   3.432   3.013   9.898 -2.9376 -0.2470  1.8647
 3301SOL     OW11343   7.281   5.539   1.306  0.0142 -0.0176  0.2675
 3301SOL    HW111344   7.304   5.555   1.397  1.3138 -0.0903 -0.0339
 3301SOL    HW211345   7.323   5.455   1.286  0.6931  0.5457 -0.7188
 3302SOL     OW11346   2.117   7.154   9.248  0.3112 -0.0332 -0.2632
 3302SOL    HW111347   2.047   7.098   9.215  1.8710 -1.9261 -0.5571
 3302SOL    HW211348   2.080   7.196   9.325 -0.8800 -1.6536  0.1048
 3303SOL     OW11349   5.209   0.552   3.471 -0.2943  0.2397  0.2183
 3303SOL    HW111350   5.290   0.603   3.466 -0.9827  1.3860  0.3708
 3303SOL    HW211351   5.238   0.462   3.490  1.0166  0.3082 -1.2504
 3304SOL     OW11352   2.800   3.331   9.894  0.0151  0.6293 -0.2152
 3304SOL    HW111353   2.723   3.361   9.845 -0.7564  0.5985  0.9516
 3304SOL    HW211354   2.867   3.397   9.876 -0.9243  1.7802  0.4170
 3305SOL     OW11355   6.653   2.826  10.677 -0.0338 -0.1387  0.1501
 3305SOL    HW111356   6.657   2.822  10.773  0.0719  0.8258  0.1891
 3305SOL    HW211357   6.660   2.919  10.656  3.1773 -0.5224 -0.9406
 3306SOL     OW11358   1.653   3.593   7.483  0.1488  0.0868  0.1002
 3306SOL    HW111359   1.656   3.498   7.479  0.1941 -0.0477  2.1765
 3306SOL    HW211360   1.608   3.619   7.403 -0.1762 -1.6934 -0.3364
 3307SOL     OW11361   6.626   5.828   3.925 -0.2440 -0.1800 -0.0210
 3307SOL    HW111362   6.650   5.788   3.841 -1.7269  0.7731 -0.9462
 3307SOL    HW211363   6.697   5.889   3.944 -0.1528 -0.0085 -0.8670
 3308SOL     OW11364   6.547   0.549   5.509  0.2126 -0.1530 -0.1723
 3308SOL    HW111365   6.585   0.609   5.445  3.8580  0.9236  2.7120
 3308SOL    HW211366   6.477   0.599   5.550  0.8680  0.8352 -0.2271
 3309SOL     OW11367   1.393   7.493   0.880  0.1072 -0.4386  0.0727
 3309SOL    HW111368   1.373   7.434   0.808  0.7132 -0.7095  0.1168
 3309SOL    HW211369   1.466   7.452   0.925  0.3493  0.2000  0.2803
 3310SOL     OW11370   0.788   3.238   0.623 -0.1236 -0.3001 -0.1504
 3310SOL    HW111371   0.873   3.282   0.638 -0.6764  0.6179  0.4295
 3310SOL    HW211372   0.742   3.296   0.563 -1.2731  0.4992  1.4295
 3311SOL     OW11373   6.763   0.699  12.073  0.0248 -0.2324  0.1893
 3311SOL    HW111374   6.839   0.739  12.032  1.4049 -1.0215  1.8505
 3311SOL    HW211375   6.746   0.620  12.021  0.6001 -0.2612  0.0422
 3312SOL     OW11376   6.588   7.552   2.166 -0.1808 -0.0993  0.5539
 3312SOL    HW111377   6.626   7.464   2.176 -0.7258 -0.3205  0.6971
 3312SOL    HW211378   6.521   7.557   2.234  0.8845  1.0022  1.5874
 3313SOL     OW11379   7.393   0.346   3.904  0.0954  0.7030  0.7508
 3313SOL    HW111380   7.324   0.371   3.842 -0.0621  0.3946  0.8034
 3313SOL    HW211381   7.474   0.378   3.864  0.0584  0.0507  0.1362
 3314SOL     OW11382   5.752   6.244   3.188  0.2830  0.2292 -0.0003
 3314SOL    HW111383   5.729   6.307   3.256 -0.3864  0.2459 -0.2385
 3314SOL    HW211384   5.847   6.253   3.179  0.2799  0.7513  0.4140
 3315SOL     OW11385   0.653   0.313   4.981  0.2772 -0.1802 -0.4574
 3315SOL    HW111386   0.734   0.363   4.966 -0.5880  1.0371 -1.2244
 3315SOL    HW211387   0.604   0.321   4.899 -1.7534  1.2920  0.7984
 3316SOL     OW11388   2.465   0.267   8.602 -0.3240  0.3479 -0.3924
 3316SOL    HW111389   2.499   0.340   8.653 -0.7340  0.7416 -0.6803
 3316SOL    HW211390   2.478   0.292   8.511  1.1189 -0.6918 -0.5052
 3317SOL     OW11391   1.237   6.857   5.119  0.0142 -0.4664  0.0604
 3317SOL    HW111392   1.289   6.908   5.057  1.2637 -1.0193  0.6260
 3317SOL    HW211393   1.149   6.893   5.111  0.2151 -0.2794 -1.7566
 3318SOL     OW11394   2.682   4.585   6.106  0.0922 -0.4658  0.4415
 3318SOL    HW111395   2.723   4.629   6.032  0.2232 -0.8854  0.2638
 3318SOL    HW211396   2.620   4.650   6.140  0.8702  0.1622  0.7005
 3319SOL     OW11397   2.294   2.722   6.681 -0.2045  0.6509 -0.2165
 3319SOL    HW111398   2.370   2.714   6.738 -1.0658  2.8564  1.4045
 3319SOL    HW211399   2.329   2.754   6.598  0.8912 -0.9764 -0.4254
 3320SOL     OW11400   1.802   1.533  12.374  0.2655  0.7170  0.1970
 3320SOL    HW111401   1.892   1.565  12.364  0.4287  0.3161  0.3411
 3320SOL    HW211402   1.811   1.437  12.373 -0.2097  0.6725 -0.2398
 3321SOL     OW11403   2.869   2.158   4.634  0.3995  0.0033 -0.4948
 3321SOL    HW111404   2.816   2.228   4.674  0.6070 -0.3326  0.3845
 3321SOL    HW211405   2.860   2.173   4.540  1.5302  2.0364 -0.3396
 3322SOL     OW11406   0.415   5.974   9.133  0.0416  0.1424 -0.0568
 3322SOL    HW111407   0.391   5.962   9.225  1.6496  2.1553  0.6830
 3322SOL    HW211408   0.486   5.912   9.118 -0.2802 -0.2479  0.0081
 3323SOL     OW11409   0.257   1.371   6.602  0.4242  0.0558  0.1040
 3323SOL    HW111410   0.169   1.332   6.596  0.7028 -0.4709 -0.7250
 3323SOL    HW211411   0.242   1.464   6.584 -0.4970  0.7769  3.8293
 3324SOL     OW11412   1.913   6.245   2.661  0.1231  0.1134  0.0768
 3324SOL    HW111413   1.856   6.281   2.729  1.6659  1.3588  0.7742
 3324SOL    HW211414   2.000   6.280   2.681  1.0778 -1.3908 -1.1861
 3325SOL     OW11415   5.945   1.707  11.302  0.1554  0.2918 -0.6272
 3325SOL    HW111416   6.012   1.680  11.238  0.3278 -0.4010 -0.1650
 3325SOL    HW211417   5.910   1.789  11.267 -1.0030 -0.9459 -2.5393
 3326SOL     OW11418   0.709   5.099   5.172  0.1804  0.3937 -0.7257
 3326SOL    HW111419   0.653   5.042   5.119  0.5297 -0.3306 -0.3335
 3326SOL    HW211420   0.794   5.096   5.128  0.1197  0.8706 -0.8810
 3327SOL     OW11421   6.253   2.546   1.179 -0.1806  0.4159 -0.1317
 3327SOL    HW111422   6.268   2.478   1.114 -0.2761  0.8944 -0.6696
 3327SOL    HW211423   6.331   2.601   1.174  0.6159 -0.5311  1.4238
 3328SOL     OW11424   0.815   3.799   9.610  0.2121  0.4577  0.0259
 3328SOL    HW111425   0.808   3.724   9.551  0.8137  0.2343  0.2377
 3328SOL    HW211426   0.907   3.824   9.608  0.1174  0.8598  0.3717
 3329SOL     OW11427   2.303   4.486   6.100  0.9113 -0.6077 -0.0975
 3329SOL    HW111428   2.361   4.562   6.102 -0.8674  0.8346  0.5802
 3329SOL    HW211429   2.351   4.419   6.052  2.3874  1.0911 -1.1036
 3330SOL     OW11430   2.657   7.081   1.857  0.4481  0.0209 -0.0128
 3330SOL    HW111431   2.748   7.099   1.880  0.6352 -0.1843 -0.5665
 3330SOL    HW211432   2.637   7.142   1.787 -1.3122  3.3108  3.0375
 3331SOL     OW11433   2.052   4.003   2.288 -0.1123 -0.4191 -0.2416
 3331SOL    HW111434   2.042   4.054   2.369  0.2106 -0.8291  0.0634
 3331SOL    HW211435   2.039   4.067   2.218  2.8900  0.7242  0.0724
 3332SOL     OW11436   4.231   6.008   0.426 -0.1023 -0.4700  0.0737
 3332SOL    HW111437   4.268   6.090   0.394 -0.8696 -0.7919 -1.7635
 3332SOL    HW211438   4.305   5.948   0.431  0.0733 -0.3722 -1.0718
 3333SOL     OW11439   5.061   0.166  12.466  0.2536 -0.2835 -0.1639
 3333SOL    HW111440   5.136   0.110  12.445 -0.4910 -1.3959  0.0182
 3333SOL    HW211441   5.044   0.214  12.385 -0.7520 -2.3373 -1.2440
 3334SOL     OW11442   0.860   5.972   6.908  0.7992  1.0474 -0.4171
 3334SOL    HW111443   0.770   5.940   6.901 -0.0508  2.7691  1.6423
 3334SOL    HW211444   0.890   5.977   6.817 -0.9891 -0.0682 -1.1182
 3335SOL     OW11445   1.399   7.474  10.296  0.0010 -0.0927 -0.3705
 3335SOL    HW111446   1.376   7.479  10.203 -1.2695  1.0369 -0.0404
 3335SOL    HW211447   1.438   7.560  10.315 -1.1496  0.2775  0.4443
 3336SOL     OW11448   0.528   2.860   5.509  0.6882  0.1039 -0.3529
 3336SOL    HW111449   0.507   2.873   5.416  0.4987  1.4877 -0.1359
 3336SOL    HW211450   0.519   2.765   5.522 -0.4643  0.0323 -1.4537
 3337SOL     OW11451   2.861   2.982   0.563 -0.0116  0.0424 -0.4102
 3337SOL    HW111452   2.893   2.970   0.473  0.1321  1.1624 -0.5320
 3337SOL    HW211453   2.911   3.057   0.596 -0.9439  0.4262  0.1738
 3338SOL     OW11454   0.486   2.108  11.920 -0.1058 -0.4723 -0.0231
 3338SOL    HW111455   0.451   2.196  11.905 -1.4763 -0.9086  0.3852
 3338SOL    HW211456   0.408   2.052  11.922  0.7747 -1.7605 -0.6773
 3339SOL     OW11457   6.968   7.720   0.673 -0.3416  0.3118  0.2244
 3339SOL    HW111458   6.960   7.667   0.593  0.9641  0.5292 -0.0760
 3339SOL    HW211459   7.060   7.745   0.675 -0.2838  0.0562  1.9659
 3340SOL     OW11460   6.776   2.027   0.443 -0.1699  0.0144 -0.6921
 3340SOL    HW111461   6.710   2.095   0.449 -0.1133  0.0116  0.0964
 3340SOL    HW211462   6.728   1.948   0.420 -0.6075 -0.2057  0.8649
 3341SOL     OW11463   7.029   3.770   9.321  0.3247  0.1530  0.8346
 3341SOL    HW111464   7.000   3.840   9.380 -0.0880  1.2898 -0.6675
 3341SOL    HW211465   7.118   3.750   9.351  0.1060  0.6426  1.8831
 3342SOL     OW11466   7.346   7.061   6.569 -0.4702  0.3063  0.5273
 3342SOL    HW111467   7.374   6.981   6.615  0.6123  0.3745 -0.0018
 3342SOL    HW211468   7.377   7.132   6.624 -0.1723  0.3744  0.2734
 3343SOL     OW11469   1.610   2.434   7.287  0.1633 -0.2821 -0.3716
 3343SOL    HW111470   1.698   2.418   7.253 -0.0767 -1.2602 -0.5410
 3343SOL    HW211471   1.583   2.352   7.327 -0.3380  0.2692  0.4681
 3344SOL     OW11472   4.639   4.680   3.469 -0.2107  0.3875 -0.3945
 3344SOL    HW111473   4.702   4.637   3.410 -1.0640 -0.1224 -0.9575
 3344SOL    HW211474   4.653   4.638   3.554 -0.9428 -0.9675 -0.9066
 3345SOL     OW11475   0.395   2.566  10.781  0.7058 -0.1747  0.3116
 3345SOL    HW111476   0.482   2.606  10.780  0.4311  0.4799  1.5497
 3345SOL    HW211477   0.351   2.605  10.856 -0.2773 -1.3332  0.3683
 3346SOL     OW11478   6.156   0.456   4.697  0.4649 -0.4446 -0.2837
 3346SOL    HW111479   6.199   0.378   4.732 -2.5981 -1.4539  1.6530
 3346SOL    HW211480   6.089   0.423   4.637 -1.0802  0.6091  0.7739
 3347SOL     OW11481   4.328   7.250  10.215 -0.0405 -0.3433 -0.3521
 3347SOL    HW111482   4.421   7.245  10.239 -0.6544 -2.6485  1.9959
 3347SOL    HW211483   4.293   7.319  10.271 -0.0844 -0.7034  0.0640
 3348SOL     OW11484   3.617   0.638   9.226 -0.3344 -0.6721  0.0316
 3348SOL    HW111485   3.586   0.652   9.315  2.2689 -1.4071  1.1540
 3348SOL    HW211486   3.677   0.711   9.210  1.1623 -1.8946 -0.1109
 3349SOL     OW11487   6.871   1.362   1.114  0.0619  0.0307 -0.2696
 3349SOL    HW111488   6.876   1.387   1.022  0.1835 -1.4554 -0.6930
 3349SOL    HW211489   6.960   1.374   1.147 -0.0992  1.0664 -0.2056
 3350SOL     OW11490   6.265   3.751   5.302  0.2761  0.4504  0.1037
 3350SOL    HW111491   6.201   3.753   5.373  1.5775  1.0627  1.2982
 3350SOL    HW211492   6.349   3.734   5.345  1.0361  0.3572 -1.3438
 3351SOL     OW11493   5.302   4.500   1.495  0.4640 -0.4130 -0.0080
 3351SOL    HW111494   5.259   4.585   1.507 -0.6015 -0.8546 -0.5702
 3351SOL    HW211495   5.239   4.448   1.444  1.9233 -0.8941 -1.3698
 3352SOL     OW11496   2.690   7.445   6.323  0.4010 -0.4964 -0.3422
 3352SOL    HW111497   2.755   7.433   6.392  0.2835  1.9322  0.2593
 3352SOL    HW211498   2.615   7.393   6.352  1.0144 -0.9861  0.4158
 3353SOL     OW11499   4.094   1.692   4.058 -0.3382 -0.1410 -0.2466
 3353SOL    HW111500   4.117   1.653   3.973  1.1052 -2.0268  0.9201
 3353SOL    HW211501   4.124   1.628   4.122 -0.5158  1.6706  1.7462
 3354SOL     OW11502   5.820   5.036  10.472 -0.1955 -0.1265  0.4305
 3354SOL    HW111503   5.880   5.010  10.402 -0.8128 -0.2910 -0.0504
 3354SOL    HW211504   5.863   5.110  10.515  1.0518 -1.1722  1.0663
 3355SOL     OW11505   1.822   5.196   0.548 -0.7487 -0.0464  0.3944
 3355SOL    HW111506   1.895   5.205   0.610 -0.2112 -0.1855 -0.2068
 3355SOL    HW211507   1.860   5.152   0.472 -0.9480  1.7688 -0.8114
 3356SOL     OW11508   7.144   2.327   3.179  0.0917  0.7192  0.0285
 3356SOL    HW111509   7.100   2.329   3.264  0.7633  0.6367  0.3804
 3356SOL    HW211510   7.205   2.254   3.185  0.8461  1.3177 -0.1623
 3357SOL     OW11511   0.128   2.097   5.434  0.2384 -0.3936  0.4223
 3357SOL    HW111512   0.142   2.010   5.394  1.5837  0.1007 -0.2635
 3357SOL    HW211513   0.151   2.085   5.526  3.2184 -0.2052 -0.1800
 3358SOL     OW11514   7.329   2.634   6.538  0.0254  0.1535  0.0601
 3358SOL    HW111515   7.356   2.659   6.449 -1.8141  1.4294 -0.1932
 3358SOL    HW211516   7.393   2.677   6.595 -0.0077  1.0926 -0.5872
 3359SOL     OW11517   2.520   6.483   5.171 -0.5724 -0.0239  0.2093
 3359SOL    HW111518   2.528   6.563   5.119  0.9242 -1.0391 -1.2121
 3359SOL    HW211519   2.509   6.514   5.261 -0.2256  1.7741 -0.3207
 3360SOL     OW11520   3.155   5.269   5.285 -0.4164  0.0646 -0.1097
 3360SOL    HW111521   3.072   5.242   5.323 -0.5894 -0.3058 -0.7397
 3360SOL    HW211522   3.154   5.233   5.196 -0.7278  2.2767 -1.0594
 3361SOL     OW11523   7.772   3.880   3.913  0.0547  0.3910  0.0146
 3361SOL    HW111524   7.861   3.889   3.877 -0.6669 -1.3162 -2.4932
 3361SOL    HW211525   7.748   3.789   3.893 -1.7075  0.3569  2.0398
 3362SOL     OW11526   5.789   0.842   2.765 -0.3840 -0.4802  0.2328
 3362SOL    HW111527   5.723   0.886   2.711  0.2469  0.0700 -0.1102
 3362SOL    HW211528   5.837   0.788   2.703  0.1397 -0.0897  0.2938
 3363SOL     OW11529   6.596   5.746   7.650  0.3377 -0.0993  0.1823
 3363SOL    HW111530   6.686   5.714   7.652  0.7016  0.8728  0.1265
 3363SOL    HW211531   6.601   5.827   7.598 -0.6843 -0.3812 -0.3745
 3364SOL     OW11532   7.262   4.371  11.638  0.0757 -0.4395 -0.1914
 3364SOL    HW111533   7.298   4.421  11.711  0.0368  0.2834 -0.6635
 3364SOL    HW211534   7.168   4.386  11.643  0.0130 -0.8780 -0.0324
 3365SOL     OW11535   5.718   3.749  12.323  0.5255  0.3900  0.1246
 3365SOL    HW111536   5.657   3.773  12.392  1.1992 -0.5811  1.0913
 3365SOL    HW211537   5.703   3.813  12.254 -0.5623  1.0338  0.9331
 3366SOL     OW11538   5.791   3.005  12.281  0.1983  0.1362  0.6949
 3366SOL    HW111539   5.758   3.015  12.370  0.8646  1.0293  0.8499
 3366SOL    HW211540   5.886   3.016  12.289  0.3884 -0.9223  0.0410
 3367SOL     OW11541   6.105   1.323   3.542  0.0392  0.4218  0.0175
 3367SOL    HW111542   6.046   1.363   3.478  1.5748  1.6383 -0.6853
 3367SOL    HW211543   6.145   1.397   3.588  0.8763 -0.3740  0.6078
 3368SOL     OW11544   0.488   2.823   9.658 -0.2212  0.3782  0.2224
 3368SOL    HW111545   0.565   2.878   9.641 -1.7897  2.6141 -0.0260
 3368SOL    HW211546   0.504   2.787   9.745  0.6014  1.7318  0.6697
 3369SOL     OW11547   1.162   0.995   6.219 -0.8043  0.3552  0.2154
 3369SOL    HW111548   1.121   1.042   6.291  1.1492  2.2056  0.2038
 3369SOL    HW211549   1.255   0.992   6.241 -0.2944  0.0885 -1.7530
 3370SOL     OW11550   5.321   5.802   7.468  0.3358 -0.2761  0.1002
 3370SOL    HW111551   5.308   5.720   7.516 -2.1294 -0.7000 -1.1592
 3370SOL    HW211552   5.245   5.855   7.489  1.0722  1.0431 -0.4284
 3371SOL     OW11553   5.026   1.925   9.914  0.3299 -0.1333 -0.1054
 3371SOL    HW111554   5.060   2.013   9.901  0.4512 -0.3630 -1.5917
 3371SOL    HW211555   4.947   1.937   9.966  1.5812  0.5980  1.7136
 3372SOL     OW11556   7.588   0.984   5.846  0.7379  0.0869  0.2360
 3372SOL    HW111557   7.644   1.015   5.775  0.0240  0.9017  0.0168
 3372SOL    HW211558   7.648   0.941   5.907  1.7304  1.5864  0.3669
 3373SOL     OW11559   6.916   2.073   2.757 -0.0176 -0.0044 -0.7407
 3373SOL    HW111560   6.921   2.107   2.668  0.5348 -1.2650 -1.2149
 3373SOL    HW211561   6.869   1.990   2.748 -1.5818  0.7062  0.4218
 3374SOL     OW11562   7.131   1.982   3.516 -0.1232  0.2809  0.3099
 3374SOL    HW111563   7.161   1.920   3.582 -0.1103 -0.8945 -0.7741
 3374SOL    HW211564   7.131   1.933   3.434  2.8485  2.4878 -1.2076
 3375SOL     OW11565   4.955   0.399   7.266  0.2288  0.1585 -0.7877
 3375SOL    HW111566   4.934   0.452   7.343  0.4949  1.2594 -1.4466
 3375SOL    HW211567   4.970   0.463   7.196 -2.4447 -0.8452 -2.4357
 3376SOL     OW11568   7.160   2.734  10.649 -0.0659 -0.0831  0.5715
 3376SOL    HW111569   7.087   2.722  10.588  0.3956 -0.0586  0.0078
 3376SOL    HW211570   7.118   2.750  10.733 -0.7145 -0.0792  0.2556
 3377SOL     OW11571   4.116   4.445   6.031  0.4020  0.2666  0.0748
 3377SOL    HW111572   4.146   4.359   6.001  0.5039  0.5522 -0.6717
 3377SOL    HW211573   4.031   4.428   6.073 -0.9310  0.1351 -2.4864
 3378SOL     OW11574   4.286   0.979   2.262  0.1127 -0.1931  0.6043
 3378SOL    HW111575   4.303   0.896   2.305  0.7513 -0.5665 -0.3293
 3378SOL    HW211576   4.192   0.978   2.243 -0.5724  0.7266  3.4506
 3379SOL     OW11577   3.887   6.386   1.017  0.0976 -0.4160  0.3249
 3379SOL    HW111578   3.949   6.440   0.967  0.3169 -0.9335  0.0329
 3379SOL    HW211579   3.886   6.302   0.971 -1.7869 -0.0226 -0.4184
 3380SOL     OW11580   1.597   7.291   6.887  0.2747 -0.4098  0.4232
 3380SOL    HW111581   1.643   7.263   6.807 -1.0819  0.1930 -0.6054
 3380SOL    HW211582   1.560   7.211   6.923 -0.3936 -0.4833 -0.4038
 3381SOL     OW11583   0.399   0.083   4.046  0.1989 -0.5968  0.4247
 3381SOL    HW111584   0.314   0.072   4.004  0.8979  1.3850 -1.7000
 3381SOL    HW211585   0.439  -0.004   4.041 -0.7767 -1.0166 -0.6656
 3382SOL     OW11586   2.694   4.121   3.754  0.4513 -0.3694 -0.4560
 3382SOL    HW111587   2.758   4.052   3.768 -0.5176 -1.5800 -1.6922
 3382SOL    HW211588   2.612   4.075   3.735 -0.6042  1.1263  0.1920
 3383SOL     OW11589   0.264   0.640   7.716 -0.0031 -0.1338  0.1656
 3383SOL    HW111590   0.229   0.639   7.627 -0.8049 -0.9104  0.4759
 3383SOL    HW211591   0.188   0.653   7.772  0.5819  1.0444  0.7209
 3384SOL     OW11592   0.084   0.206   0.349 -0.3620 -0.5278 -0.2920
 3384SOL    HW111593   0.173   0.193   0.319 -0.1755 -0.9365  0.4235
 3384SOL    HW211594   0.082   0.297   0.379 -0.4737 -0.2043 -1.2418
 3385SOL     OW11595   7.921   6.521  11.893  0.2541  0.3558 -0.5511
 3385SOL    HW111596   7.919   6.455  11.823  0.0587  1.4471 -1.6237
 3385SOL    HW211597   7.847   6.579  11.872  1.3606  1.8190 -0.5847
 3386SOL     OW11598   0.809   1.027   7.332 -0.0874 -0.1163 -0.1894
 3386SOL    HW111599   0.872   1.098   7.341  0.4873 -0.4906 -1.0610
 3386SOL    HW211600   0.848   0.968   7.267  0.3740 -2.2286  1.8547
 3387SOL     OW11601   5.610   7.589   8.016 -0.1974  0.2090 -0.6081
 3387SOL    HW111602   5.629   7.501   7.984 -0.8307 -0.1808  0.0647
 3387SOL    HW211603   5.601   7.642   7.937  0.8207 -0.1881 -1.0112
 3388SOL     OW11604   6.984   4.577   0.479 -0.5080  0.2557 -0.2506
 3388SOL    HW111605   7.012   4.668   0.476 -1.0264  0.4208 -0.0766
 3388SOL    HW211606   6.939   4.562   0.396  2.0629 -0.6764 -1.6104
 3389SOL     OW11607   7.934   7.368   8.209  0.2185  0.3202  0.0700
 3389SOL    HW111608   7.935   7.360   8.113 -0.8915  0.1819  0.0567
 3389SOL    HW211609   8.027   7.373   8.233  0.5920 -1.0833 -0.8969
 3390SOL     OW11610   5.355   5.396  11.264  0.3758 -0.1079  0.2499
 3390SOL    HW111611   5.371   5.313  11.307  0.5003 -0.1471  0.1278
 3390SOL    HW211612   5.266   5.389  11.229  0.7656 -0.5969 -0.6858
 3391SOL     OW11613   5.103   5.374   3.958 -0.0743 -0.5055  0.4245
 3391SOL    HW111614   5.038   5.306   3.971 -1.4415  0.9446  1.5827
 3391SOL    HW211615   5.134   5.395   4.047 -0.8245  1.3935  0.2908
 3392SOL     OW11616   5.278   0.086  10.076  0.1274  0.0378 -0.6428
 3392SOL    HW111617   5.324   0.006  10.049  0.1955 -0.0968 -0.1378
 3392SOL    HW211618   5.314   0.154  10.020  1.1472 -0.0147 -0.0840
 3393SOL     OW11619   1.649   0.683   3.416  0.0174 -0.0389  0.3810
 3393SOL    HW111620   1.657   0.712   3.507  1.7274  2.4726 -0.4607
 3393SOL    HW211621   1.709   0.609   3.410 -0.8278 -0.8525  1.4788
 3394SOL     OW11622   6.039   2.021   4.465  0.1317 -0.2105  0.3973
 3394SOL    HW111623   6.121   2.045   4.508 -0.5102  2.3682  0.3367
 3394SOL    HW211624   6.044   2.062   4.379 -1.4767  0.6006  0.6496
 3395SOL     OW11625   3.616   7.613  10.137  0.1413 -0.1724 -0.1178
 3395SOL    HW111626   3.684   7.665  10.180  0.1929 -0.2985 -0.0458
 3395SOL    HW211627   3.648   7.602  10.047 -0.1662  0.4474 -0.3086
 3396SOL     OW11628   2.318   4.141   5.640 -0.1013  0.1998 -0.3759
 3396SOL    HW111629   2.365   4.058   5.640  0.6765  0.6382 -0.4980
 3396SOL    HW211630   2.263   4.138   5.561  0.3901  0.0625 -0.7135
 3397SOL     OW11631   6.412   2.251   1.982 -0.5226 -0.0942  0.3367
 3397SOL    HW111632   6.347   2.304   1.936 -0.7733 -0.8808 -0.2471
 3397SOL    HW211633   6.450   2.195   1.913  0.8299  0.4022  0.6411
 3398SOL     OW11634   7.161   2.942   9.891 -0.3558 -0.3937 -0.0867
 3398SOL    HW111635   7.202   3.022   9.923 -0.6371  0.1847 -1.1375
 3398SOL    HW211636   7.196   2.873   9.948  0.9564  0.2806 -0.0266
 3399SOL     OW11637   7.609   2.627  11.395 -0.0661 -0.2969 -0.0812
 3399SOL    HW111638   7.613   2.632  11.491 -1.6104  0.6873 -0.0237
 3399SOL    HW211639   7.574   2.541  11.376  0.1457 -0.4542  0.2359
 3400SOL     OW11640   2.011   3.841  11.919  0.1522 -1.2087  0.1329
 3400SOL    HW111641   1.968   3.911  11.870  0.5287 -1.8247 -1.1256
 3400SOL    HW211642   2.013   3.872  12.009  0.5264  0.5000 -0.4332
 3401SOL     OW11643   4.413   6.839   4.246 -0.0758  0.2891  0.1152
 3401SOL    HW111644   4.450   6.782   4.179  0.8168 -0.3673  1.1289
 3401SOL    HW211645   4.478   6.909   4.256 -0.8917  1.1977 -0.7109
 3402SOL     OW11646   7.741   2.873  10.238 -0.6976  0.3385 -0.3164
 3402SOL    HW111647   7.773   2.798  10.289 -0.1751  0.3020 -0.6911
 3402SOL    HW211648   7.820   2.911  10.199 -1.1700 -0.1683 -1.8363
 3403SOL     OW11649   0.399   1.308   0.028  0.3256  0.1903 -0.0905
 3403SOL    HW111650   0.418   1.320  -0.065  1.2826  0.4859  0.1340
 3403SOL    HW211651   0.382   1.396   0.061  0.2511  0.1173  0.0686
 3404SOL     OW11652   2.466   1.028  11.447 -0.1287 -0.3717  0.1055
 3404SOL    HW111653   2.484   1.058  11.536  0.0032  0.9097 -0.3231
 3404SOL    HW211654   2.425   0.942  11.457 -2.0330  0.6373  1.5122
 3405SOL     OW11655   0.403   7.618   8.764  0.4979  0.0619  0.1709
 3405SOL    HW111656   0.485   7.582   8.797  2.2211  1.6609 -2.0706
 3405SOL    HW211657   0.416   7.713   8.764 -0.9753  0.3217 -1.1074
 3406SOL     OW11658   0.714   2.373  11.356  0.0049 -0.0975 -0.1376
 3406SOL    HW111659   0.795   2.383  11.407 -0.5116  1.3553  0.4542
 3406SOL    HW211660   0.741   2.390  11.265  0.5410 -0.6484 -0.0888
 3407SOL     OW11661   5.088   4.383   1.395  0.1252 -0.2823 -0.3641
 3407SOL    HW111662   5.050   4.299   1.421 -0.9642  0.5775  0.9628
 3407SOL    HW211663   5.090   4.379   1.299  0.6709 -2.0418 -0.3209
 3408SOL     OW11664   7.863   1.979   8.746 -0.5308 -0.6098  0.7026
 3408SOL    HW111665   7.892   2.031   8.822 -2.5560 -1.8454  2.4258
 3408SOL    HW211666   7.879   1.889   8.772 -0.3118 -1.0260 -0.8098
 3409SOL     OW11667   5.030   3.281  10.590 -0.3397  0.5388 -0.3640
 3409SOL    HW111668   4.953   3.236  10.557 -0.3056 -0.9168  1.3787
 3409SOL    HW211669   5.076   3.312  10.511 -0.8892 -1.6226 -1.6130
 3410SOL     OW11670   1.742   6.367  10.730 -0.0574 -0.3136  0.3513
 3410SOL    HW111671   1.834   6.380  10.707 -0.7253  1.8584 -1.5869
 3410SOL    HW211672   1.730   6.416  10.811  0.2919  0.3959 -0.0128
 3411SOL     OW11673   4.981   7.626  10.241  0.3927  0.0105  0.4905
 3411SOL    HW111674   5.066   7.627  10.197  0.0062 -0.6422 -0.2921
 3411SOL    HW211675   4.980   7.542  10.287  0.7441  0.6320  1.6846
 3412SOL     OW11676   1.530   3.637   0.140 -0.4229 -0.0875  0.1673
 3412SOL    HW111677   1.593   3.591   0.195  0.0692  0.7615  0.3246
 3412SOL    HW211678   1.578   3.659   0.060 -0.9499 -0.7348 -0.3484
 3413SOL     OW11679   6.837   3.472   3.184  0.1144  0.5011  0.3177
 3413SOL    HW111680   6.834   3.530   3.108 -0.8501  0.8595  0.6161
 3413SOL    HW211681   6.749   3.476   3.221  0.0179 -1.1244  0.3712
 3414SOL     OW11682   5.261   1.752   5.247 -0.0762 -0.4817  0.0356
 3414SOL    HW111683   5.235   1.759   5.155 -1.3806 -0.3128  0.3988
 3414SOL    HW211684   5.313   1.671   5.251  0.1611 -0.3868 -0.8702
 3415SOL     OW11685   6.298   3.222   0.411 -0.2480  0.5057 -0.1284
 3415SOL    HW111686   6.247   3.147   0.441  1.0583 -0.3812 -0.0414
 3415SOL    HW211687   6.295   3.216   0.315 -3.2434  2.5308 -0.2673
 3416SOL     OW11688   7.651   0.987   6.758  0.2425  0.4166 -0.0939
 3416SOL    HW111689   7.708   0.925   6.712 -0.3929  1.3737 -2.2890
 3416SOL    HW211690   7.707   1.064   6.772 -0.0480  0.7800 -0.8740
 3417SOL     OW11691   7.152   6.989   7.431 -0.1660  0.3530 -0.2271
 3417SOL    HW111692   7.077   6.954   7.384  0.2443  1.1775 -1.5582
 3417SOL    HW211693   7.221   6.924   7.417 -0.8288 -0.8510  1.7496
 3418SOL     OW11694   6.508   4.328  12.139  0.2074 -0.0950 -0.0386
 3418SOL    HW111695   6.435   4.284  12.094  0.7466 -0.3597 -0.6729
 3418SOL    HW211696   6.517   4.281  12.221  1.1925 -1.6444 -0.9799
 3419SOL     OW11697   2.758   6.125   5.830  0.4881 -0.3693 -0.0038
 3419SOL    HW111698   2.784   6.187   5.761 -0.1438 -0.3762 -0.2536
 3419SOL    HW211699   2.735   6.181   5.904 -1.4502 -0.2000 -0.6807
 3420SOL     OW11700   7.555   0.722   9.069 -0.2993 -0.0919  0.8460
 3420SOL    HW111701   7.566   0.689   8.980 -1.6304  0.9252  0.2671
 3420SOL    HW211702   7.461   0.719   9.085 -0.2078  0.9177  1.7504
 3421SOL     OW11703   3.114   5.630   3.894  0.1649  0.6532  0.9291
 3421SOL    HW111704   3.124   5.571   3.968 -1.1315 -2.1189 -0.9453
 3421SOL    HW211705   3.204   5.652   3.869  0.9850 -3.0036 -0.0154
 3422SOL     OW11706   0.970   0.017   8.332 -0.7584  0.5444  0.1514
 3422SOL    HW111707   1.042  -0.023   8.283 -0.1252  0.3709  1.1956
 3422SOL    HW211708   0.998   0.108   8.347 -1.6723  1.0738 -1.1924
 3423SOL     OW11709   5.829   4.533   0.085  0.3298  0.0887  0.1161
 3423SOL    HW111710   5.764   4.468   0.111 -0.0788  0.6583  0.5386
 3423SOL    HW211711   5.810   4.550  -0.007  0.0624  0.0390  0.1620
 3424SOL     OW11712   6.896   4.021   6.956 -0.5352  0.5972 -0.1589
 3424SOL    HW111713   6.836   4.092   6.981 -0.7210  0.1796  0.5961
 3424SOL    HW211714   6.967   4.026   7.019  0.7720  1.7222 -1.6513
 3425SOL     OW11715   0.668   3.364   3.685  0.2891  0.2632 -0.3445
 3425SOL    HW111716   0.655   3.348   3.591  1.9297  1.4879 -0.8183
 3425SOL    HW211717   0.669   3.460   3.693  0.6008  0.1744  0.8581
 3426SOL     OW11718   2.268   2.047  10.079  0.2113  0.0485 -0.1163
 3426SOL    HW111719   2.324   2.121  10.102  1.9619 -1.1724 -0.2072
 3426SOL    HW211720   2.193   2.053  10.138  1.2365  0.8548  1.1414
 3427SOL     OW11721   2.179   6.087   2.984  0.4571 -0.2149  0.3369
 3427SOL    HW111722   2.219   6.076   2.898  1.1813 -0.3204  0.6768
 3427SOL    HW211723   2.101   6.032   2.982 -0.0705  0.5363 -0.5838
 3428SOL     OW11724   0.671   1.363   4.250  0.0701 -0.0628 -0.0708
 3428SOL    HW111725   0.743   1.350   4.188 -1.2213  0.2038 -1.7075
 3428SOL    HW211726   0.693   1.445   4.294  0.7070  0.0876 -0.6388
 3429SOL     OW11727   2.170   1.088   4.239  0.1489 -0.0637 -0.1147
 3429SOL    HW111728   2.086   1.116   4.276 -0.9301 -1.8553 -1.0599
 3429SOL    HW211729   2.151   1.002   4.199  2.2108 -0.0793 -1.1833
 3430SOL     OW11730   5.551   4.974   5.856  0.0498 -0.5334 -0.0714
 3430SOL    HW111731   5.465   4.964   5.895 -1.4915 -1.1800 -3.2852
 3430SOL    HW211732   5.584   4.885   5.846  1.2792 -0.2867  1.3269
 3431SOL     OW11733   2.972   7.387   4.049 -0.2241  0.1303  0.3618
 3431SOL    HW111734   3.039   7.362   3.985  1.0667  0.9958  1.3151
 3431SOL    HW211735   2.924   7.458   4.007 -0.7993 -0.7213 -0.4661
 3432SOL     OW11736   4.926   6.991   2.223 -0.7420 -0.4294  0.3324
 3432SOL    HW111737   4.915   7.049   2.298  2.4265 -0.3692  0.9127
 3432SOL    HW211738   4.858   6.924   2.234 -1.7954  0.8382  1.9881
 3433SOL     OW11739   5.297   4.287  11.127  0.9450 -0.1654 -0.0372
 3433SOL    HW111740   5.287   4.348  11.200  1.3252 -0.2259  0.0667
 3433SOL    HW211741   5.208   4.263  11.104  0.8029  0.2131  0.1039
 3434SOL     OW11742   1.914   4.313  11.361 -0.0852 -0.2541  0.2315
 3434SOL    HW111743   1.838   4.267  11.396 -0.7108  1.4038  1.2065
 3434SOL    HW211744   1.896   4.406  11.380  1.7181  0.2706 -0.4204
 3435SOL     OW11745   4.838   2.007   2.126 -0.2428 -0.6626 -0.1678
 3435SOL    HW111746   4.837   2.099   2.099  2.3272 -0.4379  0.3035
 3435SOL    HW211747   4.776   2.003   2.199 -1.3135  0.3905 -0.9676
 3436SOL     OW11748   0.572   7.600   9.338 -0.0535  0.2595  0.5405
 3436SOL    HW111749   0.522   7.545   9.399 -0.7363 -0.1703 -0.3703
 3436SOL    HW211750   0.604   7.672   9.392 -1.6162  0.5210  1.1891
 3437SOL     OW11751   3.604   0.622   4.832  0.2982  0.2420  0.1628
 3437SOL    HW111752   3.631   0.597   4.921 -0.0947  1.8371  0.7593
 3437SOL    HW211753   3.683   0.659   4.793  0.3035  0.1265  0.0623
 3438SOL     OW11754   5.806   2.210   6.080  0.7180 -0.5165 -0.0258
 3438SOL    HW111755   5.721   2.224   6.123  1.5647 -1.5356  2.1038
 3438SOL    HW211756   5.870   2.249   6.139  1.9167 -1.4623 -0.6576
 3439SOL     OW11757   7.898   1.261   2.175  0.6206 -0.1950  0.1442
 3439SOL    HW111758   7.884   1.181   2.125  0.3891  0.6821 -1.2666
 3439SOL    HW211759   7.821   1.315   2.155 -0.1557 -0.3156  2.5515
 3440SOL     OW11760   1.694   2.970   9.004 -0.3793 -0.3253  0.0100
 3440SOL    HW111761   1.657   2.885   9.030 -0.2469 -0.6473 -0.8099
 3440SOL    HW211762   1.657   3.032   9.066 -1.2279 -0.8494  0.0516
 3441SOL     OW11763   5.812   5.095  10.885 -0.3044  0.4315 -0.2412
 3441SOL    HW111764   5.786   5.070  10.796  4.0071 -2.4607 -0.9891
 3441SOL    HW211765   5.874   5.167  10.872  1.3286 -0.8449  0.1844
 3442SOL     OW11766   1.833   6.310   3.188 -0.5497 -0.3521 -0.0555
 3442SOL    HW111767   1.842   6.294   3.282  0.0040 -0.0852 -0.0567
 3442SOL    HW211768   1.781   6.237   3.155 -0.0205 -0.9006  0.3200
 3443SOL     OW11769   3.370   4.861  11.113 -0.1413 -0.1819 -0.5345
 3443SOL    HW111770   3.462   4.885  11.105 -0.4670  0.5507 -2.4206
 3443SOL    HW211771   3.333   4.924  11.175  0.3284  0.3644 -0.8120
 3444SOL     OW11772   0.978   7.359   5.487 -0.2285  0.4104  0.2989
 3444SOL    HW111773   0.944   7.397   5.568 -0.5995  1.6772 -0.4139
 3444SOL    HW211774   1.056   7.411   5.467 -0.8967  1.0244 -0.8470
 3445SOL     OW11775   4.077   7.444   2.628 -0.3362  0.0679 -0.0306
 3445SOL    HW111776   4.158   7.410   2.589 -0.2298 -0.7053  0.8349
 3445SOL    HW211777   4.017   7.453   2.553  0.2470 -0.2351 -0.5465
 3446SOL     OW11778   6.470   5.421   0.679 -0.2923 -0.3105  0.3225
 3446SOL    HW111779   6.549   5.426   0.733  1.4400  0.5445 -2.0958
 3446SOL    HW211780   6.445   5.328   0.682  0.6743 -0.5629  1.2790
 3447SOL     OW11781   1.199   2.490   2.952 -0.2116  0.1566 -0.1042
 3447SOL    HW111782   1.208   2.585   2.948 -1.4357  0.2354 -1.9304
 3447SOL    HW211783   1.286   2.456   2.933  0.1921  0.9024  0.3942
 3448SOL     OW11784   2.928   6.449   6.029  0.2055  0.7910 -0.0178
 3448SOL    HW111785   2.915   6.428   6.121  1.0080  0.5187  0.0440
 3448SOL    HW211786   2.871   6.524   6.013 -0.6669  0.2362  0.4476
 3449SOL     OW11787   2.735   4.736   3.506  0.7625  0.3472  0.3366
 3449SOL    HW111788   2.773   4.683   3.436 -1.2972  0.2475 -0.7688
 3449SOL    HW211789   2.756   4.826   3.482 -1.0117  0.4184 -1.1945
 3450SOL     OW11790   4.616   1.188   6.578  0.0692 -0.2797  0.0715
 3450SOL    HW111791   4.707   1.187   6.549  0.3119  0.7918  0.7482
 3450SOL    HW211792   4.610   1.262   6.638 -1.3687 -0.0276 -0.3330
 3451SOL     OW11793   0.303   3.259   4.511  0.2141  0.0358  0.0841
 3451SOL    HW111794   0.375   3.295   4.459 -0.6623 -1.4431 -2.2730
 3451SOL    HW211795   0.240   3.331   4.519  0.8685  0.6156  0.1043
 3452SOL     OW11796   4.043   3.330  11.862  0.4266  0.4532  0.4336
 3452SOL    HW111797   3.957   3.359  11.830 -0.4627  0.6715  2.8040
 3452SOL    HW211798   4.104   3.398  11.833 -0.3741  0.8625 -0.3355
 3453SOL     OW11799   5.191   7.220  12.435  0.1401  0.2899  0.7685
 3453SOL    HW111800   5.181   7.138  12.483  0.8320  1.1549  2.4843
 3453SOL    HW211801   5.127   7.279  12.475 -0.6921  0.4833 -0.7696
 3454SOL     OW11802   1.465   0.828   9.652  0.7643  0.3654  0.1344
 3454SOL    HW111803   1.467   0.911   9.604  2.2006 -0.1926 -0.8450
 3454SOL    HW211804   1.460   0.761   9.584 -0.1188 -0.3810  0.9023
 3455SOL     OW11805   7.764   6.697   6.297  0.6142  0.3575 -0.4291
 3455SOL    HW111806   7.731   6.761   6.361 -2.2559 -0.4322 -0.9678
 3455SOL    HW211807   7.723   6.615   6.323  1.6702 -0.5903 -1.6395
 3456SOL     OW11808   0.173   3.453   5.658  0.1914 -0.8307 -0.3227
 3456SOL    HW111809   0.093   3.435   5.609 -0.7553  2.1358 -0.0760
 3456SOL    HW211810   0.144   3.505   5.733  2.2805 -0.1555  0.0943
 3457SOL     OW11811   0.101   6.338   3.931  0.5372 -0.1804  0.4114
 3457SOL    HW111812   0.113   6.336   4.026  0.5885 -0.9391  0.3967
 3457SOL    HW211813   0.010   6.310   3.918  0.7951 -0.9658  0.2070
 3458SOL     OW11814   6.828   4.720   2.581  0.2496  0.3718  0.3377
 3458SOL    HW111815   6.853   4.739   2.671 -0.8498 -1.5634  1.1219
 3458SOL    HW211816   6.827   4.624   2.577 -3.6729  0.2953 -0.4988
 3459SOL     OW11817   0.823   0.310   7.730 -0.4673 -0.2044  0.1716
 3459SOL    HW111818   0.812   0.297   7.824 -0.9606 -1.0054  0.0168
 3459SOL    HW211819   0.775   0.390   7.711 -0.5698 -0.1694  0.5598
 3460SOL     OW11820   3.785   3.532   1.867  0.6244 -0.1871 -0.1166
 3460SOL    HW111821   3.775   3.624   1.841  1.9036 -0.0534 -0.2310
 3460SOL    HW211822   3.750   3.528   1.956  1.3686  0.6295  0.2318
 3461SOL     OW11823   2.141   7.533  11.871  0.4235 -0.2937 -0.6125
 3461SOL    HW111824   2.053   7.552  11.839  0.0489  0.6328  0.8600
 3461SOL    HW211825   2.128   7.505  11.962  1.3089 -4.1128 -1.4872
 3462SOL     OW11826   1.560   6.869   0.998  0.0237 -0.0260 -0.1094
 3462SOL    HW111827   1.516   6.947   0.964  0.6414 -0.2034 -1.4068
 3462SOL    HW211828   1.572   6.886   1.091  0.2013  1.4460 -0.3768
 3463SOL     OW11829   7.371   5.828   2.661  0.1679 -0.0800 -0.4235
 3463SOL    HW111830   7.451   5.817   2.711  1.7168  1.7024 -2.3488
 3463SOL    HW211831   7.329   5.905   2.699  0.2314 -0.0034 -0.5098
 3464SOL     OW11832   1.215   6.567   3.449 -0.0654 -0.2078  0.2983
 3464SOL    HW111833   1.253   6.486   3.483 -0.3435 -1.1029 -1.4059
 3464SOL    HW211834   1.181   6.612   3.526  0.9806 -1.2317  1.3946
 3465SOL     OW11835   7.937   5.417   5.311  0.0563 -0.0046 -1.1156
 3465SOL    HW111836   8.001   5.367   5.362  0.4759  0.9241 -0.7126
 3465SOL    HW211837   7.872   5.352   5.284 -0.5343 -0.4618  1.1255
 3466SOL     OW11838   7.125   1.346   1.269  0.2198 -0.3807  0.6676
 3466SOL    HW111839   7.059   1.359   1.338  0.5286  1.0964  0.7199
 3466SOL    HW211840   7.204   1.389   1.303  0.3004  0.6301 -0.6935
 3467SOL     OW11841   0.332   6.218   3.878 -0.2890 -0.2343 -0.5324
 3467SOL    HW111842   0.282   6.295   3.904  1.5717  1.1789 -0.8996
 3467SOL    HW211843   0.393   6.203   3.951  0.5505 -0.2545 -1.2195
 3468SOL     OW11844   5.562   0.979   0.853 -0.4418 -0.0397 -0.3909
 3468SOL    HW111845   5.619   1.038   0.903 -0.9178  1.0168 -1.0688
 3468SOL    HW211846   5.623   0.925   0.802  0.0305 -0.7846  0.8940
 3469SOL     OW11847   2.834   4.015   7.502 -0.5786 -0.7960 -0.0110
 3469SOL    HW111848   2.922   3.979   7.488 -0.9547 -1.0304 -2.0912
 3469SOL    HW211849   2.776   3.954   7.457 -1.7728 -0.3359  0.8542
 3470SOL     OW11850   6.714   7.852   7.901 -0.2505 -0.2291  0.2080
 3470SOL    HW111851   6.703   7.770   7.950 -0.5845 -0.9421 -1.0319
 3470SOL    HW211852   6.743   7.915   7.967  1.2241 -1.6237  0.9810
 3471SOL     OW11853   0.059   3.126   6.384  0.2005  0.1171  0.2435
 3471SOL    HW111854   0.153   3.138   6.370  0.4381 -2.3231 -0.6870
 3471SOL    HW211855   0.020   3.146   6.299 -0.3846  2.7315  1.0384
 3472SOL     OW11856   6.186   2.478   6.595 -0.2242  0.1900 -0.3505
 3472SOL    HW111857   6.151   2.471   6.684 -1.0113  0.3987 -0.6324
 3472SOL    HW211858   6.259   2.417   6.592 -1.5982 -1.5328 -0.2351
 3473SOL     OW11859   2.221   2.175   5.032 -0.4071 -0.1176  0.3828
 3473SOL    HW111860   2.157   2.164   5.102 -2.4932 -0.2766 -1.4274
 3473SOL    HW211861   2.268   2.255   5.054 -1.8333  0.4921  1.3644
 3474SOL     OW11862   1.999   4.191   7.029  0.0391 -0.1923  0.7024
 3474SOL    HW111863   1.986   4.160   7.118  3.0328  0.9737  1.6525
 3474SOL    HW211864   1.934   4.261   7.018 -1.8346 -1.7765  1.0964
 3475SOL     OW11865   5.039   2.478   2.332  0.0266  0.1276 -0.4782
 3475SOL    HW111866   5.076   2.422   2.264  1.9876 -0.2350  0.7884
 3475SOL    HW211867   5.089   2.560   2.325 -0.7214  0.6120 -0.3463
 3476SOL     OW11868   6.520   4.313   3.303  0.0401  1.1284 -0.4102
 3476SOL    HW111869   6.605   4.290   3.340  0.5156  0.9505 -1.5752
 3476SOL    HW211870   6.473   4.355   3.375 -0.4414 -2.3008  1.5079
 3477SOL     OW11871   6.912   3.666   5.414  0.4046  0.5448  0.3307
 3477SOL    HW111872   6.898   3.632   5.503  1.1457 -1.7879 -0.3612
 3477SOL    HW211873   7.007   3.674   5.407  0.2729  2.2496  0.2371
 3478SOL     OW11874   2.203   7.292   5.570 -0.1517 -0.2781  0.0627
 3478SOL    HW111875   2.157   7.333   5.643  2.3384 -1.0318  2.2373
 3478SOL    HW211876   2.276   7.351   5.551 -0.4919 -0.3303 -1.5381
 3479SOL     OW11877   6.865   4.931  12.350 -0.5820 -0.1355  0.0159
 3479SOL    HW111878   6.864   5.004  12.412 -1.6565  0.4867 -0.7108
 3479SOL    HW211879   6.806   4.866  12.389  0.3391 -0.6293  0.6389
 3480SOL     OW11880   2.926   5.019  12.053 -0.0436 -0.1775  0.5257
 3480SOL    HW111881   3.017   5.026  12.082 -0.4875  2.7265  1.5978
 3480SOL    HW211882   2.912   4.926  12.037  3.4013 -0.6255 -0.7206
 3481SOL     OW11883   1.949   1.318   8.255 -0.6360  0.5614 -0.2257
 3481SOL    HW111884   1.871   1.373   8.261 -0.7425  0.3458  0.4050
 3481SOL    HW211885   1.953   1.271   8.338 -0.2096  0.0602 -0.5183
 3482SOL     OW11886   0.563   4.190   9.604 -0.4301 -0.2663 -0.0336
 3482SOL    HW111887   0.557   4.286   9.604 -0.4167 -0.2572 -1.0878
 3482SOL    HW211888   0.472   4.161   9.605 -0.5349 -0.2045 -2.6646
 3483SOL     OW11889   5.931   3.797   0.769  0.2860 -0.0352 -0.2457
 3483SOL    HW111890   5.923   3.715   0.818  1.2559  0.0027 -0.0051
 3483SOL    HW211891   5.896   3.777   0.682  2.0138 -1.2145 -0.7256
 3484SOL     OW11892   6.774   4.049   4.157  0.0007 -0.2043  0.1318
 3484SOL    HW111893   6.861   4.025   4.124  0.3326  1.2458 -0.1237
 3484SOL    HW211894   6.733   4.098   4.086 -1.0208 -0.8352  0.2676
 3485SOL     OW11895   0.933   6.307  11.610 -0.0217 -0.5461  0.1678
 3485SOL    HW111896   0.882   6.385  11.634 -0.6708 -1.2798  1.2542
 3485SOL    HW211897   0.884   6.267  11.539  1.2556  0.9651 -1.6725
 3486SOL     OW11898   5.529   5.813   2.317  0.3699 -0.8491 -0.1951
 3486SOL    HW111899   5.442   5.851   2.326  0.3864 -0.6029 -1.0049
 3486SOL    HW211900   5.515   5.719   2.323  0.0463 -0.8107 -0.3680
 3487SOL     OW11901   5.826   7.144  10.065 -0.2981 -0.5891 -0.0652
 3487SOL    HW111902   5.742   7.136  10.020 -0.7886 -0.6767  0.8515
 3487SOL    HW211903   5.803   7.158  10.157  0.6867 -0.1122  0.1175
 3488SOL     OW11904   5.564   2.805   4.425 -0.1101 -0.5674  0.2373
 3488SOL    HW111905   5.588   2.713   4.423  0.0332 -0.7100  3.1837
 3488SOL    HW211906   5.506   2.813   4.501 -2.3786  1.3233 -1.5497
 3489SOL     OW11907   2.203   1.355  11.827 -0.1125 -0.0051  0.9351
 3489SOL    HW111908   2.277   1.393  11.779  0.5069 -0.8371  1.2109
 3489SOL    HW211909   2.221   1.260  11.827 -0.9204 -0.1631  1.4416
 3490SOL     OW11910   5.915   2.943   4.662  0.6478  0.5276 -0.3173
 3490SOL    HW111911   5.881   2.959   4.574 -1.2394 -2.1882 -0.1933
 3490SOL    HW211912   5.887   2.854   4.683  1.4100  0.9187  2.8842
 3491SOL     OW11913   4.868   3.158   6.955  0.3182 -0.4249  0.3327
 3491SOL    HW111914   4.808   3.139   7.026 -0.5540  0.8962 -0.0175
 3491SOL    HW211915   4.820   3.135   6.876 -0.1066  1.4785 -0.0005
 3492SOL     OW11916   7.923   3.253  12.443 -0.1414  0.2760 -0.2231
 3492SOL    HW111917   8.005   3.239  12.491  0.4415  1.0026 -0.9927
 3492SOL    HW211918   7.906   3.347  12.450 -0.5161  0.2490 -0.7113
 3493SOL     OW11919   1.894   7.144   8.157 -0.0248  0.4051  0.1173
 3493SOL    HW111920   1.869   7.150   8.249 -1.0935  0.8794 -0.1860
 3493SOL    HW211921   1.827   7.194   8.111  1.0800  1.0772 -0.8197
 3494SOL     OW11922   4.804   7.629   7.754  0.0196 -0.2517  0.2787
 3494SOL    HW111923   4.777   7.650   7.664  2.4436 -0.0525 -0.4644
 3494SOL    HW211924   4.739   7.565   7.784 -0.4500 -0.8672 -1.8651
 3495SOL     OW11925   6.830   6.392   5.182 -0.5186  0.0862 -0.1855
 3495SOL    HW111926   6.841   6.297   5.194  0.3514  0.2278  0.2480
 3495SOL    HW211927   6.741   6.402   5.149 -1.3850 -0.7459  1.6919
 3496SOL     OW11928   7.848   2.075   5.710 -0.6292  0.1319 -0.6615
 3496SOL    HW111929   7.850   2.170   5.726 -1.7331  0.1991 -0.8374
 3496SOL    HW211930   7.939   2.048   5.717 -0.5777  0.6705  2.5892
 3497SOL     OW11931   4.150   3.741  11.872  0.3809 -0.0034  0.1102
 3497SOL    HW111932   4.180   3.661  11.830 -0.7048 -0.8833  0.9627
 3497SOL    HW211933   4.071   3.766  11.824  1.0632  0.9554 -0.5724
 3498SOL     OW11934   7.876   6.268   6.278 -0.2341 -0.0177 -0.6373
 3498SOL    HW111935   7.866   6.173   6.291 -1.3118  0.0431 -0.9558
 3498SOL    HW211936   7.968   6.285   6.298  0.1143 -1.2229 -1.1409
 3499SOL     OW11937   6.919   0.208   8.790  0.2057  0.1609 -0.0666
 3499SOL    HW111938   6.989   0.261   8.752  0.3198  0.2491  0.2585
 3499SOL    HW211939   6.857   0.273   8.825 -0.3324  0.0930 -0.8674
 3500SOL     OW11940   6.721   1.298   3.236 -0.2264  0.3459 -0.3147
 3500SOL    HW111941   6.739   1.304   3.142  0.9478  0.9853 -0.0699
 3500SOL    HW211942   6.639   1.250   3.241  0.7491 -1.6219 -1.5873
 3501SOL     OW11943   5.378   5.439  10.757  0.2174  0.2240  0.3739
 3501SOL    HW111944   5.339   5.410  10.840 -0.1277 -0.0627  0.1153
 3501SOL    HW211945   5.385   5.359  10.705  0.2169  0.4410  0.0382
 3502SOL     OW11946   7.702   7.700   3.151  0.0906  0.1122 -0.0321
 3502SOL    HW111947   7.782   7.747   3.172  0.6762 -0.4827 -0.8970
 3502SOL    HW211948   7.679   7.730   3.063  0.2980 -0.9745 -0.4638
 3503SOL     OW11949   7.856   1.993   8.467 -0.0167  1.1848 -0.2057
 3503SOL    HW111950   7.949   1.976   8.449 -0.6105 -0.9921 -1.7801
 3503SOL    HW211951   7.847   1.983   8.561  1.3450  1.3598 -0.0435
 3504SOL     OW11952   0.330   6.428   6.778 -1.0145 -0.2798  0.8229
 3504SOL    HW111953   0.392   6.500   6.792 -0.5845 -0.5842  0.4956
 3504SOL    HW211954   0.325   6.419   6.683 -1.0886 -0.6604  0.8616
 3505SOL     OW11955   4.777   1.659   4.034  0.1154 -0.3125  0.1708
 3505SOL    HW111956   4.731   1.617   4.107 -0.2593  0.9293  0.6800
 3505SOL    HW211957   4.870   1.647   4.056  0.0266  1.2744  1.6485
 3506SOL     OW11958   3.024   7.810   3.635  0.9324  0.1667  0.3761
 3506SOL    HW111959   3.090   7.749   3.668  1.8081 -0.1115 -1.7322
 3506SOL    HW211960   3.067   7.856   3.563 -0.5832  1.3838  0.1809
 3507SOL     OW11961   3.372   0.378  10.286 -0.9231 -0.4363  0.1204
 3507SOL    HW111962   3.329   0.293  10.300  0.0114 -0.8082  0.8477
 3507SOL    HW211963   3.306   0.442  10.314 -1.4184 -0.9433  0.1512
 3508SOL     OW11964   2.070   0.300   1.057  0.1551 -0.8855  0.0121
 3508SOL    HW111965   2.099   0.215   1.089 -1.1847 -0.9010  1.2964
 3508SOL    HW211966   2.074   0.357   1.134 -0.0706 -0.0850 -0.5595
 3509SOL     OW11967   6.401   5.999  12.152  0.5923  0.0909 -0.6088
 3509SOL    HW111968   6.346   5.983  12.075 -0.1871 -1.2878  0.1830
 3509SOL    HW211969   6.489   5.975  12.124  0.1086 -1.6985 -0.7343
 3510SOL     OW11970   1.162   6.011   5.730 -0.5793 -0.5360 -0.0844
 3510SOL    HW111971   1.094   6.074   5.753 -0.9871 -0.9913 -0.0275
 3510SOL    HW211972   1.132   5.971   5.649 -0.5207 -0.9450  0.0945
 3511SOL     OW11973   3.433   7.785  11.295 -0.6611  0.2814  0.0894
 3511SOL    HW111974   3.446   7.880  11.292  0.2849  0.1421 -1.4165
 3511SOL    HW211975   3.518   7.749  11.271 -1.0625 -0.9544  0.4607
 3512SOL     OW11976   0.773   7.304   4.854  0.3538  0.5216  0.3411
 3512SOL    HW111977   0.710   7.369   4.824 -0.1130 -0.0128  0.1409
 3512SOL    HW211978   0.752   7.225   4.803 -0.4170 -0.4001  2.0053
 3513SOL     OW11979   6.243   2.812   4.182 -0.9557 -0.4218  0.4340
 3513SOL    HW111980   6.177   2.826   4.115 -1.2459  0.0093  0.8077
 3513SOL    HW211981   6.211   2.859   4.258 -1.3520 -2.1018  1.3500
 3514SOL     OW11982   6.012   1.475   9.345  0.1382 -0.5412  0.0957
 3514SOL    HW111983   6.106   1.483   9.327  0.1932 -0.5760  0.3647
 3514SOL    HW211984   5.982   1.564   9.362 -0.3799 -0.1743 -2.4036
 3515SOL     OW11985   4.221   3.546   2.012 -0.2447  0.0831 -0.7248
 3515SOL    HW111986   4.156   3.540   2.082  1.8157  1.9978  1.5296
 3515SOL    HW211987   4.170   3.570   1.935 -2.2431  1.4684  0.9081
 3516SOL     OW11988   0.142   6.348   6.329 -0.3730  0.1695  1.0094
 3516SOL    HW111989   0.204   6.276   6.337  0.8659  1.2427  1.5379
 3516SOL    HW211990   0.194   6.426   6.350 -1.1316  1.4487 -1.4894
 3517SOL     OW11991   1.185   3.897   5.984  0.2593 -0.0293 -0.0382
 3517SOL    HW111992   1.162   3.810   5.953  0.1815 -1.1066  2.8025
 3517SOL    HW211993   1.102   3.945   5.986 -0.4510 -1.2191  2.1352
 3518SOL     OW11994   7.426   7.272   4.269  0.4080  0.3224  0.2613
 3518SOL    HW111995   7.439   7.282   4.175 -1.5303  0.7572 -0.0032
 3518SOL    HW211996   7.344   7.223   4.277  0.3879  0.5534  1.7026
 3519SOL     OW11997   2.495   1.622  11.554 -0.2352  0.2056 -0.4035
 3519SOL    HW111998   2.431   1.633  11.485 -0.5982 -0.9607 -0.2678
 3519SOL    HW211999   2.571   1.673  11.525 -0.8157  0.6954 -1.0773
 3520SOL     OW12000   0.609   2.675   8.992 -0.0177 -0.1983  0.0995
 3520SOL    HW112001   0.651   2.713   9.069  0.8983 -1.4652  0.2604
 3520SOL    HW212002   0.646   2.724   8.918 -0.3243  0.5087  0.4046
 3521SOL     OW12003   2.658   1.259   3.249  0.5890  0.1755  0.5361
 3521SOL    HW112004   2.579   1.307   3.225  0.8205 -0.9949 -3.2875
 3521SOL    HW212005   2.626   1.175   3.280  0.2610 -0.1522 -0.6319
 3522SOL     OW12006   1.185   2.884  11.941  0.4794  0.0646 -0.0925
 3522SOL    HW112007   1.235   2.948  11.993 -0.4089  1.4142 -0.8476
 3522SOL    HW212008   1.155   2.933  11.865 -1.4349 -0.8780 -0.0005
 3523SOL     OW12009   4.937   5.352   8.179  0.1628  0.2361  0.1500
 3523SOL    HW112010   4.869   5.322   8.240 -1.1859 -1.8531 -2.2051
 3523SOL    HW212011   4.975   5.272   8.144  0.1427  1.2814 -2.4961
 3524SOL     OW12012   2.131   0.229   9.851 -0.0255 -0.1394 -0.3085
 3524SOL    HW112013   2.177   0.195   9.774 -0.7592  0.3087 -0.9695
 3524SOL    HW212014   2.119   0.322   9.832 -0.4855 -0.0872  0.2164
 3525SOL     OW12015   1.180   2.870   2.356  0.7261 -0.1372  0.1297
 3525SOL    HW112016   1.120   2.860   2.431  1.6659  0.1564  0.9395
 3525SOL    HW212017   1.123   2.863   2.279 -0.0739 -1.9865  0.8133
 3526SOL     OW12018   4.002   7.044   9.841 -0.0467  0.0772  0.2601
 3526SOL    HW112019   4.058   7.078   9.911  0.7037  0.7705 -0.6528
 3526SOL    HW212020   3.917   7.030   9.883  0.4380  0.3045  1.3491
 3527SOL     OW12021   7.244   2.821   1.163  0.3815  0.4048 -0.3770
 3527SOL    HW112022   7.170   2.864   1.119  0.6036  1.8970  0.6185
 3527SOL    HW212023   7.314   2.819   1.097  0.9302  3.1885  0.0004
 3528SOL     OW12024   2.890   3.617   3.903 -0.9623  0.3854  0.0435
 3528SOL    HW112025   2.961   3.561   3.872 -0.6724  0.6672  0.1941
 3528SOL    HW212026   2.811   3.580   3.863 -0.8685 -0.5443  0.6653
 3529SOL     OW12027   1.149   0.258   1.240 -0.2187 -0.4768 -0.7223
 3529SOL    HW112028   1.202   0.268   1.319 -2.4169 -0.1388  0.7688
 3529SOL    HW212029   1.205   0.206   1.182  1.1496 -1.4865  1.3529
 3530SOL     OW12030   5.492   6.150   1.226 -0.0224  0.2522 -0.1845
 3530SOL    HW112031   5.504   6.148   1.321  1.6428 -1.7055 -0.3669
 3530SOL    HW212032   5.504   6.242   1.202 -1.4176  0.9512  1.5625
 3531SOL     OW12033   0.629   6.012  10.105  0.3493  0.2141  0.1430
 3531SOL    HW112034   0.605   5.974  10.190 -0.8500  0.5376 -0.0353
 3531SOL    HW212035   0.547   6.042  10.068  1.0210  1.2153 -0.5945
 3532SOL     OW12036   1.583   2.133   7.445  0.2176 -0.1571 -0.4444
 3532SOL    HW112037   1.612   2.212   7.491 -1.2825  0.0537  0.2080
 3532SOL    HW212038   1.616   2.060   7.498  0.5650  0.0495 -0.3777
 3533SOL     OW12039   7.873   6.874   0.041  0.4140  0.2099 -0.1333
 3533SOL    HW112040   7.893   6.817   0.116  0.3216  0.7410  0.3038
 3533SOL    HW212041   7.958   6.908   0.014  0.3772  0.5603  0.1779
 3534SOL     OW12042   6.700   4.942   5.239 -0.4075  0.3750 -0.1830
 3534SOL    HW112043   6.695   4.906   5.327  2.3354  0.4052  0.0798
 3534SOL    HW212044   6.686   4.867   5.181 -2.0878  0.3337  0.2336
 3535SOL     OW12045   5.924   0.370  11.735 -0.2557  0.5964 -0.2373
 3535SOL    HW112046   6.011   0.387  11.698  1.0063  0.3393  2.3705
 3535SOL    HW212047   5.892   0.294  11.686  1.6028 -0.1738 -0.3674
 3536SOL     OW12048   2.227   2.224   4.430  0.1821  0.0057  0.3681
 3536SOL    HW112049   2.272   2.228   4.515 -0.2908 -0.7379  0.6705
 3536SOL    HW212050   2.284   2.171   4.375  0.0474 -0.3062  0.5222
 3537SOL     OW12051   0.972   6.618   3.326 -0.3281 -0.5380 -0.5652
 3537SOL    HW112052   1.061   6.604   3.359 -0.6168 -2.2551 -0.4417
 3537SOL    HW212053   0.967   6.712   3.313  1.3114 -0.3285 -0.0039
 3538SOL     OW12054   4.802   3.015   1.693 -0.5310 -0.6912 -0.1486
 3538SOL    HW112055   4.731   2.960   1.661 -0.0154 -1.4987  0.0507
 3538SOL    HW212056   4.759   3.082   1.746 -1.0475 -2.0220  1.1712
 3539SOL     OW12057   4.536   3.859   9.866 -0.0743 -0.7183  0.2140
 3539SOL    HW112058   4.478   3.797   9.910 -0.8425 -0.2411 -0.0887
 3539SOL    HW212059   4.517   3.943   9.908  0.6195 -0.6046  0.3093
 3540SOL     OW12060   4.600   1.419   8.657  0.0996  0.0472 -0.3265
 3540SOL    HW112061   4.552   1.475   8.595 -1.9621  0.1860  1.2780
 3540SOL    HW212062   4.563   1.332   8.644 -1.9580  0.4377  2.0253
 3541SOL     OW12063   1.874   0.686  10.265 -0.3035  0.7994 -0.2568
 3541SOL    HW112064   1.831   0.770  10.251 -0.8900  0.3895 -1.0079
 3541SOL    HW212065   1.911   0.664  10.180 -1.1538 -0.2430 -0.3696
 3542SOL     OW12066   4.524   2.380  10.570 -0.6290 -0.5097 -0.7186
 3542SOL    HW112067   4.585   2.319  10.612 -1.9250 -0.4240  1.4621
 3542SOL    HW212068   4.580   2.449  10.535  0.5955 -0.4183  1.2299
 3543SOL     OW12069   7.552   7.129  11.422  0.4956 -0.6423 -0.0271
 3543SOL    HW112070   7.637   7.137  11.378  1.8812  2.8874  2.6968
 3543SOL    HW212071   7.505   7.209  11.399 -0.8378 -1.1285  0.8766
 3544SOL     OW12072   4.146   2.551   5.004  0.1931  0.1928  0.0730
 3544SOL    HW112073   4.056   2.573   4.980  0.0287  0.1704  0.6322
 3544SOL    HW212074   4.200   2.597   4.940 -0.2083  0.4773 -0.0680
 3545SOL     OW12075   6.253   3.060   1.748 -0.7220 -0.3892 -0.1102
 3545SOL    HW112076   6.158   3.054   1.747 -0.7153 -2.1132 -3.0876
 3545SOL    HW212077   6.283   2.971   1.770  0.1395 -0.2587 -0.6738
 3546SOL     OW12078   7.856   1.592   3.032  0.5581  0.0676  0.0197
 3546SOL    HW112079   7.765   1.561   3.036 -0.5331  2.8293 -1.0829
 3546SOL    HW212080   7.884   1.572   2.943  0.2316  1.1597 -0.3427
 3547SOL     OW12081   7.886   1.222   9.173 -0.0470  0.0548 -0.4489
 3547SOL    HW112082   7.914   1.175   9.095  1.7129  2.1683 -1.1927
 3547SOL    HW212083   7.799   1.256   9.151  0.2637  0.2877 -1.3310
 3548SOL     OW12084   4.707   4.162   6.684  0.7741 -0.2876  0.3415
 3548SOL    HW112085   4.765   4.162   6.608  1.3199 -0.0297  0.7548
 3548SOL    HW212086   4.682   4.070   6.695  1.5624 -0.4892  0.5031
 3549SOL     OW12087   7.739   6.249   9.453 -0.2265  0.5478 -0.1266
 3549SOL    HW112088   7.734   6.320   9.389  2.4425  0.5810 -0.4327
 3549SOL    HW212089   7.717   6.171   9.403  0.7938  0.7016 -0.8486
 3550SOL     OW12090   3.806   4.004   4.454 -0.1854  0.3700 -0.1676
 3550SOL    HW112091   3.770   4.092   4.444 -1.6047  0.2107  2.4349
 3550SOL    HW212092   3.881   4.015   4.513  0.3196 -0.0336 -0.7236
 3551SOL     OW12093   7.271   3.998   2.529  0.1911 -0.4825 -0.5452
 3551SOL    HW112094   7.181   3.976   2.504  0.7843 -1.4630 -1.9347
 3551SOL    HW212095   7.313   4.024   2.447  0.5871  2.2999  0.4153
 3552SOL     OW12096   2.866   5.603  11.976  0.4267  0.1107  0.1838
 3552SOL    HW112097   2.910   5.599  12.062  0.8185 -2.8642 -0.0369
 3552SOL    HW212098   2.803   5.531  11.979 -0.8605  1.1203 -1.4087
 3553SOL     OW12099   1.219   0.391   3.672 -0.6065  0.2881 -0.0524
 3553SOL    HW112100   1.308   0.405   3.641 -0.4839  0.4331  0.3546
 3553SOL    HW212101   1.209   0.452   3.745 -1.1907  0.5897 -0.3832
 3554SOL     OW12102   4.031   1.130   3.762 -0.2050 -0.4085 -0.0973
 3554SOL    HW112103   4.114   1.117   3.807 -0.5356  0.1436  0.6812
 3554SOL    HW212104   4.054   1.125   3.669  0.2901 -2.7455  0.0818
 3555SOL     OW12105   0.643   6.385   6.471 -0.3915 -0.1751 -0.7225
 3555SOL    HW112106   0.670   6.384   6.380  0.8141 -0.5978 -0.3787
 3555SOL    HW212107   0.555   6.425   6.470 -0.4184 -0.2317 -2.0524
 3556SOL     OW12108   1.372   4.184   3.266  0.4585 -0.0664  0.0484
 3556SOL    HW112109   1.358   4.115   3.331  0.5689  1.0835  1.3425
 3556SOL    HW212110   1.465   4.176   3.244  1.0095  0.9036  1.7538
 3557SOL     OW12111   4.417   0.937   2.779  0.1325  0.2452 -0.8136
 3557SOL    HW112112   4.477   1.004   2.747 -0.1809  1.4799  1.0444
 3557SOL    HW212113   4.345   0.986   2.817  0.4803 -1.0804  1.7136
 3558SOL     OW12114   6.588   1.403  10.794 -0.2506 -0.0327 -0.1529
 3558SOL    HW112115   6.546   1.480  10.832 -2.6499 -1.2380 -0.2091
 3558SOL    HW212116   6.587   1.418  10.700  1.6446  0.9507 -0.0722
 3559SOL     OW12117   1.156   3.172   4.405 -0.0330 -0.1702 -0.3206
 3559SOL    HW112118   1.212   3.140   4.476  0.2983 -0.1705 -0.5797
 3559SOL    HW212119   1.083   3.109   4.402  0.3707 -0.6355 -0.5122
 3560SOL     OW12120   5.654   7.272   5.908 -0.4168 -0.1500 -0.6314
 3560SOL    HW112121   5.575   7.326   5.918  0.4413  0.7765  1.8820
 3560SOL    HW212122   5.647   7.207   5.978  1.2010  0.1846 -0.1328
 3561SOL     OW12123   7.720   0.763   9.945 -0.3744 -0.0075  0.6321
 3561SOL    HW112124   7.742   0.671   9.928  0.1749  0.0511  1.0134
 3561SOL    HW212125   7.706   0.800   9.858  2.7157  0.3614  0.1776
 3562SOL     OW12126   4.123   5.619   4.689  0.2475 -0.3462  0.2696
 3562SOL    HW112127   4.090   5.530   4.703  0.5489 -0.3391  1.0933
 3562SOL    HW212128   4.044   5.671   4.673  0.1217 -0.8648 -0.8463
 3563SOL     OW12129   3.606   2.252   2.529  0.0810 -0.7230 -0.2530
 3563SOL    HW112130   3.554   2.205   2.464  0.1537 -0.4283 -0.5280
 3563SOL    HW212131   3.673   2.298   2.477 -0.2297 -0.0025 -0.0284
 3564SOL     OW12132   6.101   5.101   2.015  0.7444  0.0979  0.5274
 3564SOL    HW112133   6.161   5.146   2.075 -0.2775  1.6430  0.4245
 3564SOL    HW212134   6.018   5.146   2.026 -0.1792 -1.4101 -0.0364
 3565SOL     OW12135   2.849   1.888   6.784 -0.2605  0.0778  0.5630
 3565SOL    HW112136   2.943   1.881   6.803 -0.4790  1.3991  2.3614
 3565SOL    HW212137   2.820   1.797   6.776  1.0908 -0.3583  0.2836
 3566SOL     OW12138   3.713   5.959   8.174  0.5903  0.0329  0.0640
 3566SOL    HW112139   3.807   5.975   8.178  1.1352 -0.4196 -5.0492
 3566SOL    HW212140   3.674   6.046   8.166  0.4973  0.1950  1.8236
 3567SOL     OW12141   5.294   0.658  11.253  0.4850 -0.0874 -0.4406
 3567SOL    HW112142   5.332   0.613  11.177  0.5535 -1.2943  0.2863
 3567SOL    HW212143   5.368   0.673  11.311  0.1677 -0.7562  0.1526
 3568SOL     OW12144   2.705   3.407   9.061 -0.2753 -0.3742  0.1517
 3568SOL    HW112145   2.622   3.361   9.053 -0.7652  0.3360  1.0772
 3568SOL    HW212146   2.771   3.340   9.040 -1.0839 -0.7588 -1.3107
 3569SOL     OW12147   7.322   3.237   5.481 -0.2565 -0.7486  0.2552
 3569SOL    HW112148   7.381   3.227   5.407  2.2040 -0.9443  2.1183
 3569SOL    HW212149   7.319   3.331   5.498 -1.9621 -0.5446 -0.8651
 3570SOL     OW12150   6.404   3.598   3.816  0.0017  0.4734  0.2743
 3570SOL    HW112151   6.466   3.529   3.840  0.1507  0.3664 -0.4009
 3570SOL    HW212152   6.332   3.552   3.773  0.2110  0.7535 -0.3895
 3571SOL     OW12153   3.195   6.529   9.600  0.0034 -0.0314 -0.7396
 3571SOL    HW112154   3.278   6.480   9.597  0.7791  1.2500 -1.4463
 3571SOL    HW212155   3.150   6.496   9.677  1.4059 -0.4147 -0.0485
 3572SOL     OW12156   4.647   3.563  11.372 -0.2717  0.2556  0.2932
 3572SOL    HW112157   4.690   3.479  11.391 -0.2042  0.1573 -0.2701
 3572SOL    HW212158   4.558   3.538  11.349  0.1412  0.1785 -1.3606
 3573SOL     OW12159   0.724   7.923   5.631 -0.5696 -0.6208  0.2003
 3573SOL    HW112160   0.773   7.869   5.570 -0.6752 -2.3753  1.5869
 3573SOL    HW212161   0.766   7.909   5.716 -1.2154  0.7174  0.7907
 3574SOL     OW12162   3.992   0.141  10.778  0.2997  0.0671 -0.2644
 3574SOL    HW112163   4.031   0.225  10.754  1.3758 -0.6546 -1.1324
 3574SOL    HW212164   4.046   0.075  10.734 -0.9361 -1.0587 -0.1850
 3575SOL     OW12165   2.177   0.729   0.861 -0.3931  0.3147  0.2261
 3575SOL    HW112166   2.082   0.723   0.852 -0.3151 -0.5220 -0.1713
 3575SOL    HW212167   2.210   0.706   0.774  0.1500  1.7886  0.0199
 3576SOL     OW12168   3.353   5.156   6.212 -0.5012  0.4153  0.1356
 3576SOL    HW112169   3.416   5.115   6.272 -1.2040 -3.1528 -1.2904
 3576SOL    HW212170   3.389   5.243   6.195  2.5935 -0.4711  1.4443
 3577SOL     OW12171   1.623   7.983   6.137  0.1260  0.7594 -0.2349
 3577SOL    HW112172   1.628   8.065   6.187  0.0987  1.0143 -0.6483
 3577SOL    HW212173   1.643   8.008   6.047 -1.3590  0.5726 -0.6443
 3578SOL     OW12174   3.326   6.690  12.041  0.0566 -0.1450  0.2454
 3578SOL    HW112175   3.295   6.766  12.089 -2.4562 -0.2714 -0.9831
 3578SOL    HW212176   3.311   6.712  11.949  1.9411 -1.0517 -0.3365
 3579SOL     OW12177   2.012   4.103   0.302 -0.0216  0.2909  0.0159
 3579SOL    HW112178   1.964   4.059   0.232 -0.4866  1.6115 -0.5403
 3579SOL    HW212179   2.071   4.163   0.256  1.9582 -1.0521  0.7072
 3580SOL     OW12180   5.474   4.182   2.702 -0.3555  0.0392 -0.0640
 3580SOL    HW112181   5.468   4.221   2.614  0.3911 -2.0214 -1.0846
 3580SOL    HW212182   5.535   4.109   2.692 -0.2267 -0.2433  2.2051
 3581SOL     OW12183   0.520   3.585   2.236  0.0470 -0.2944  0.1502
 3581SOL    HW112184   0.521   3.571   2.142 -2.0656  0.7904 -0.0934
 3581SOL    HW212185   0.588   3.651   2.252  1.5248 -1.6338 -0.3342
 3582SOL     OW12186   1.937   3.379   4.238  0.1895  0.1047  0.3404
 3582SOL    HW112187   1.915   3.342   4.324 -0.5901 -2.1236 -0.7229
 3582SOL    HW212188   1.855   3.417   4.208  0.1141 -0.2885  0.0467
 3583SOL     OW12189   7.450   1.177   2.201 -0.3095 -0.2534 -0.4371
 3583SOL    HW112190   7.422   1.095   2.160 -2.8594  0.8034 -0.9870
 3583SOL    HW212191   7.386   1.242   2.171 -1.2080  1.0223  3.5943
 3584SOL     OW12192   1.601   4.633   6.961 -0.7245  0.0480  0.5523
 3584SOL    HW112193   1.561   4.579   6.893 -1.3408 -0.4993  1.3311
 3584SOL    HW212194   1.598   4.722   6.926 -0.0018 -0.3723 -0.6047
 3585SOL     OW12195   4.788   3.828   3.910 -0.5385  0.0194 -0.0634
 3585SOL    HW112196   4.707   3.828   3.961 -0.3283  1.7403  0.3228
 3585SOL    HW212197   4.792   3.740   3.872 -2.4924 -0.1662  0.0431
 3586SOL     OW12198   2.307   6.611   8.836  0.4705  0.4550 -0.1622
 3586SOL    HW112199   2.292   6.704   8.819 -2.0034  0.1890  0.1599
 3586SOL    HW212200   2.359   6.609   8.917  0.0163  1.5523  0.1683
 3587SOL     OW12201   6.892   7.052   1.012  0.6119  0.0488  0.1860
 3587SOL    HW112202   6.836   6.984   1.051 -1.5710  0.4169 -2.0261
 3587SOL    HW212203   6.958   7.003   0.963  0.7077 -0.4342  0.7848
 3588SOL     OW12204   6.087   6.950   2.633 -0.1305  0.6248  0.1387
 3588SOL    HW112205   6.025   6.992   2.574 -0.1700  0.0692 -0.2280
 3588SOL    HW212206   6.035   6.925   2.709 -0.0466  1.4854  0.4838
 3589SOL     OW12207   6.084   4.557  12.457 -0.5496 -0.6673  0.4976
 3589SOL    HW112208   6.001   4.569  12.503  0.0119 -0.5752  1.5251
 3589SOL    HW212209   6.067   4.489  12.392 -2.0911  1.0901 -1.0316
 3590SOL     OW12210   4.705   7.183   2.835 -0.3342 -0.0229  0.1715
 3590SOL    HW112211   4.769   7.142   2.894 -0.6687 -1.4269 -0.4004
 3590SOL    HW212212   4.622   7.178   2.883 -0.1512  1.2461  0.6580
 3591SOL     OW12213   5.765   4.933   1.918  0.6885 -0.4069 -0.2432
 3591SOL    HW112214   5.769   4.962   2.009 -0.8818  1.0163 -0.5684
 3591SOL    HW212215   5.792   5.010   1.867  2.2111 -1.3912 -0.9933
 3592SOL     OW12216   6.017   5.629  11.136 -0.6492  0.0732  0.3440
 3592SOL    HW112217   6.112   5.638  11.148 -0.3013  0.4143 -2.0845
 3592SOL    HW212218   6.007   5.542  11.095 -1.5221 -0.4404  1.5981
 3593SOL     OW12219   4.334   7.687   9.054  0.0182 -0.0809 -0.2875
 3593SOL    HW112220   4.395   7.760   9.045 -0.7489  0.6713  0.4370
 3593SOL    HW212221   4.390   7.609   9.060  0.8284  0.2563 -2.4237
 3594SOL     OW12222   2.617   2.480   8.480 -0.0963 -0.5199  0.1851
 3594SOL    HW112223   2.676   2.547   8.514  0.5139 -0.6849 -0.5102
 3594SOL    HW212224   2.562   2.456   8.554  0.1597  0.2285  0.6299
 3595SOL     OW12225   5.590   6.609   2.763  0.2917 -0.3369 -0.6720
 3595SOL    HW112226   5.561   6.597   2.853  1.4170 -0.0594 -0.2556
 3595SOL    HW212227   5.525   6.562   2.710 -0.4719 -0.3590  0.2596
 3596SOL     OW12228   0.120   3.677   7.758  0.1053 -0.4344  0.5863
 3596SOL    HW112229   0.141   3.637   7.674  0.2527 -1.2509  0.9938
 3596SOL    HW212230   0.144   3.769   7.748 -1.5916 -0.1026 -0.8559
 3597SOL     OW12231   6.787   6.121  12.420  0.0859 -0.2989  0.0056
 3597SOL    HW112232   6.869   6.132  12.469  0.0680  0.0813 -0.0423
 3597SOL    HW212233   6.779   6.027  12.407 -0.5648 -0.5369  1.8417
 3598SOL     OW12234   6.906   3.038   8.122 -0.3601 -0.1952 -0.1723
 3598SOL    HW112235   6.883   2.955   8.080  1.1662 -0.7334 -0.0245
 3598SOL    HW212236   7.002   3.036   8.129 -0.1689  2.0598 -1.1403
 3599SOL     OW12237   2.914   6.055  10.418 -0.0787 -0.6902  0.1350
 3599SOL    HW112238   2.978   6.005  10.368  0.5076 -0.2366  0.4289
 3599SOL    HW212239   2.901   6.136  10.367 -0.0959 -0.5924  0.2938
 3600SOL     OW12240   6.737   4.428   0.290  0.1169  0.3552  0.8073
 3600SOL    HW112241   6.666   4.365   0.304 -0.0404  0.1420 -0.7884
 3600SOL    HW212242   6.705   4.509   0.329 -0.1655 -0.2300  1.8492
 3601SOL     OW12243   3.051   3.440   9.578 -0.0325  0.0680 -0.1272
 3601SOL    HW112244   2.971   3.418   9.626  0.5332 -1.2959  0.2362
 3601SOL    HW212245   3.110   3.474   9.644  1.1483 -2.8371  0.4919
 3602SOL     OW12246   6.992   3.703   1.811  0.1510 -0.5083  0.1936
 3602SOL    HW112247   6.924   3.668   1.869  0.6266 -0.0366  1.0548
 3602SOL    HW212248   7.047   3.628   1.791  0.4349 -0.5191  0.9978
 3603SOL     OW12249   0.474   6.440  11.502 -0.1210  0.4569  0.0375
 3603SOL    HW112250   0.459   6.347  11.482 -2.9547  0.8322 -0.0586
 3603SOL    HW212251   0.505   6.477  11.419 -0.6182 -0.1031 -0.4131
 3604SOL     OW12252   6.165   0.156  11.021 -0.0596 -0.2218  0.0456
 3604SOL    HW112253   6.157   0.123  10.931  1.7622 -2.3563  0.5956
 3604SOL    HW212254   6.255   0.189  11.026 -1.2532  3.5628  0.0419
 3605SOL     OW12255   0.347   3.534  11.146 -0.3030 -0.0841 -0.0818
 3605SOL    HW112256   0.359   3.608  11.085  1.1336  0.6392  1.0278
 3605SOL    HW212257   0.436   3.509  11.170 -0.8127  0.6060  2.8325
 3606SOL     OW12258   0.308   5.368   5.323 -0.2674 -0.2741 -0.7240
 3606SOL    HW112259   0.308   5.447   5.376 -0.5998 -0.4254 -0.4990
 3606SOL    HW212260   0.400   5.354   5.301  0.2152 -1.5731  1.8348
 3607SOL     OW12261   0.758   6.211   8.771  0.2155  0.3213 -0.3507
 3607SOL    HW112262   0.678   6.203   8.719  0.2412 -0.7328 -0.2466
 3607SOL    HW212263   0.829   6.190   8.711  0.2975 -0.1885 -0.0840
 3608SOL     OW12264   4.324   3.692   3.252  0.2029 -0.4465  0.0567
 3608SOL    HW112265   4.411   3.685   3.215  0.4859 -1.0914  0.8149
 3608SOL    HW212266   4.337   3.683   3.347 -0.7339 -0.9749  0.1493
 3609SOL     OW12267   0.370   4.304  12.364  0.2473 -0.3146 -0.1068
 3609SOL    HW112268   0.289   4.253  12.369  0.7006 -0.9371  1.8377
 3609SOL    HW212269   0.366   4.362  12.440  0.7999  0.9863 -1.0258
 3610SOL     OW12270   0.402   6.128   3.432  0.3147  0.0852 -0.2696
 3610SOL    HW112271   0.395   6.095   3.342 -0.2246  0.0499 -0.2202
 3610SOL    HW212272   0.349   6.068   3.484 -1.1905  1.3427 -0.2754
 3611SOL     OW12273   1.871   1.023   5.429  0.4190 -0.0314 -0.2814
 3611SOL    HW112274   1.820   0.954   5.471 -0.2532 -0.1431 -1.2533
 3611SOL    HW212275   1.938   0.978   5.379 -0.2362 -0.0081 -1.1966
 3612SOL     OW12276   2.624   7.319   0.277  0.4981 -0.0184 -0.3060
 3612SOL    HW112277   2.712   7.292   0.252  0.2540 -0.1018 -1.1231
 3612SOL    HW212278   2.617   7.410   0.246 -0.7503 -0.9829 -3.1648
 3613SOL     OW12279   5.726   0.575  12.177 -0.2058  0.0791  0.4229
 3613SOL    HW112280   5.647   0.629  12.169  0.7051  1.1438 -3.1061
 3613SOL    HW212281   5.731   0.528  12.094  3.1941  0.5189  0.2443
 3614SOL     OW12282   5.451   7.630   5.453 -0.1706  0.2217  0.1563
 3614SOL    HW112283   5.468   7.712   5.499  1.0966 -0.6085  1.2530
 3614SOL    HW212284   5.412   7.573   5.519  0.8818 -0.7081  0.0120
 3615SOL     OW12285   6.900   7.895   4.396 -0.1028 -0.1687 -0.1138
 3615SOL    HW112286   6.910   7.831   4.327 -0.1333  0.4449 -0.6986
 3615SOL    HW212287   6.830   7.860   4.452 -0.5775 -0.3308 -0.7906
 3616SOL     OW12288   0.551   6.058   9.552 -0.4508 -0.2272  0.1294
 3616SOL    HW112289   0.470   6.071   9.504  0.9517  0.1500 -2.2580
 3616SOL    HW212290   0.536   5.977   9.601 -2.2671 -0.1288 -0.1811
 3617SOL     OW12291   2.243   5.157   9.252 -0.0201 -0.2127  0.1164
 3617SOL    HW112292   2.247   5.249   9.226 -4.4808  1.0009  2.5516
 3617SOL    HW212293   2.203   5.112   9.177 -3.0038  1.1259  0.7465
 3618SOL     OW12294   1.516   5.078   3.206 -0.7256 -0.1084  0.2030
 3618SOL    HW112295   1.454   5.131   3.156  0.0793 -0.3950 -1.1406
 3618SOL    HW212296   1.472   5.064   3.290 -2.0170  0.5903 -0.3139
 3619SOL     OW12297   3.160   0.212   2.474  0.1837  0.1833  0.1000
 3619SOL    HW112298   3.169   0.126   2.515  0.2813  0.9269  1.7264
 3619SOL    HW212299   3.250   0.235   2.448  0.0074 -0.6583 -1.4237
 3620SOL     OW12300   7.439   3.181   7.786 -0.3612 -0.0947 -0.2346
 3620SOL    HW112301   7.399   3.179   7.873 -1.5139 -0.4319 -0.7523
 3620SOL    HW212302   7.468   3.272   7.775 -1.4088  0.2808 -0.0080
 3621SOL     OW12303   3.056   1.029   2.734 -0.4498 -0.3643 -0.2836
 3621SOL    HW112304   2.990   1.008   2.667 -1.2350 -0.4547  0.4905
 3621SOL    HW212305   3.101   0.946   2.749 -0.6926 -0.4931 -0.2545
 3622SOL     OW12306   5.756   7.140   1.837  0.0257 -0.0445 -0.1436
 3622SOL    HW112307   5.693   7.191   1.786  0.1683 -0.4368 -0.7119
 3622SOL    HW212308   5.839   7.150   1.790  0.1852 -0.3045  0.0792
 3623SOL     OW12309   1.592   5.409   8.996 -0.3522 -0.2491 -0.0515
 3623SOL    HW112310   1.563   5.451   8.915  0.7846 -0.9040 -0.8270
 3623SOL    HW212311   1.528   5.339   9.011 -0.1198 -0.6518 -0.8558
 3624SOL     OW12312   0.640   6.258   7.773 -0.1242 -0.1503 -0.3313
 3624SOL    HW112313   0.734   6.239   7.768 -0.1153 -0.3405  0.4769
 3624SOL    HW212314   0.619   6.252   7.866 -1.2814 -1.7164 -0.6647
 3625SOL     OW12315   4.464   1.218   3.697  0.7303 -0.0025 -0.1557
 3625SOL    HW112316   4.531   1.263   3.646  1.9201  0.2470  1.5368
 3625SOL    HW212317   4.405   1.287   3.727  0.1769 -0.1183 -0.9469
 3626SOL     OW12318   0.707   3.755   3.275  0.4463  0.0855  0.4567
 3626SOL    HW112319   0.708   3.842   3.236 -0.6236  0.3228  0.9141
 3626SOL    HW212320   0.687   3.696   3.202 -1.2386  0.4940  0.5427
 3627SOL     OW12321   6.257   7.010   6.468 -0.6152 -0.8946  0.0420
 3627SOL    HW112322   6.342   6.972   6.488  1.1857  2.5278 -0.3861
 3627SOL    HW212323   6.197   6.970   6.532  1.7174 -1.9346  1.7043
 3628SOL     OW12324   4.550   0.631   1.012  0.9605 -0.0668  0.1123
 3628SOL    HW112325   4.636   0.591   0.996  0.3408 -0.7066 -2.0302
 3628SOL    HW212326   4.504   0.623   0.928 -0.5368  1.9270  0.6484
 3629SOL     OW12327   5.183   7.076  12.194 -0.5959 -0.3589  0.2418
 3629SOL    HW112328   5.224   6.997  12.230 -0.4275  0.3649  1.7050
 3629SOL    HW212329   5.165   7.130  12.270 -4.3995 -0.6652 -0.2701
 3630SOL     OW12330   7.036   2.698   5.674 -0.4810  0.9179  0.2342
 3630SOL    HW112331   7.032   2.604   5.691 -0.3524  0.6818 -0.9471
 3630SOL    HW212332   7.128   2.721   5.688 -0.1933  0.5511 -0.9642
 3631SOL     OW12333   2.513   6.621   0.801  0.4229  0.1158  0.3177
 3631SOL    HW112334   2.511   6.580   0.887  0.3047 -0.3467  0.1002
 3631SOL    HW212335   2.438   6.584   0.755  1.1050 -0.4878 -0.3548
 3632SOL     OW12336   6.806   1.180   5.641 -0.3743 -0.0571 -0.5016
 3632SOL    HW112337   6.834   1.240   5.573  0.0750  0.5182  0.1742
 3632SOL    HW212338   6.768   1.106   5.594  0.5550  0.0141 -1.3962
 3633SOL     OW12339   0.859   5.483   4.998  0.4233 -0.0074  0.1884
 3633SOL    HW112340   0.765   5.468   5.008  0.3338 -0.1725 -0.8189
 3633SOL    HW212341   0.892   5.488   5.088 -0.4151 -0.7716  0.5534
 3634SOL     OW12342   3.229   6.984   6.017 -0.1327  0.1465 -0.0705
 3634SOL    HW112343   3.212   6.910   5.958  0.5492 -1.1191  1.2743
 3634SOL    HW212344   3.271   6.945   6.093  1.3258  2.0915  0.1875
 3635SOL     OW12345   3.120   7.875   6.146 -0.1790 -0.0978  0.3418
 3635SOL    HW112346   3.201   7.893   6.193  0.5405 -1.2153 -0.4120
 3635SOL    HW212347   3.054   7.929   6.189  0.7066 -0.1263  1.7799
 3636SOL     OW12348   6.247   6.952   0.229  0.5869 -0.4203 -0.0239
 3636SOL    HW112349   6.205   6.868   0.212 -0.9924  0.1335  0.9485
 3636SOL    HW212350   6.251   6.958   0.325  1.6269  0.1692 -0.0879
 3637SOL     OW12351   3.875   1.438   6.425  0.1366  0.7024 -0.1695
 3637SOL    HW112352   3.829   1.485   6.495  2.7483  1.3757  1.2259
 3637SOL    HW212353   3.898   1.505   6.361 -1.2393  0.2700 -1.1664
 3638SOL     OW12354   1.379   5.517   0.319 -0.3419  0.6767 -0.1667
 3638SOL    HW112355   1.418   5.563   0.245  0.6685 -0.1769 -0.1873
 3638SOL    HW212356   1.387   5.579   0.392 -1.2490  1.4809 -0.7302
 3639SOL     OW12357   1.448   7.812  12.290 -0.2570 -0.9676  0.1865
 3639SOL    HW112358   1.364   7.809  12.337 -0.6580  1.8033 -0.1552
 3639SOL    HW212359   1.483   7.899  12.310  2.3485 -1.8705 -0.0707
 3640SOL     OW12360   2.458   6.236   3.988 -0.3958 -0.0720  0.2090
 3640SOL    HW112361   2.527   6.284   4.032 -0.7989 -0.0749  0.8483
 3640SOL    HW212362   2.378   6.257   4.036 -0.4897 -1.8740  0.9265
 3641SOL     OW12363   3.997   6.590  11.026 -0.0956  0.5132 -0.1869
 3641SOL    HW112364   4.080   6.639  11.026 -0.6088  1.4583 -2.1747
 3641SOL    HW212365   3.994   6.548  10.941 -1.8014  0.7318 -0.2638
 3642SOL     OW12366   6.672   6.542   0.633 -0.1097  0.2799 -0.1252
 3642SOL    HW112367   6.685   6.471   0.695 -1.3528  0.3748  0.2646
 3642SOL    HW212368   6.736   6.526   0.564 -0.8861 -1.6851 -0.4398
 3643SOL     OW12369   7.483   4.242   5.719 -0.2278 -0.1704 -0.5566
 3643SOL    HW112370   7.496   4.281   5.633  1.3484  2.3671  0.7081
 3643SOL    HW212371   7.570   4.211   5.744 -0.8280 -1.6153 -0.1502
 3644SOL     OW12372   2.172   4.838   5.624 -0.5179 -0.1666  0.4678
 3644SOL    HW112373   2.100   4.900   5.623  0.0251  0.4780  0.6539
 3644SOL    HW212374   2.156   4.781   5.549 -1.8427 -0.7637  1.1615
 3645SOL     OW12375   5.562   1.325   0.741  0.0693 -0.1967 -0.6149
 3645SOL    HW112376   5.514   1.407   0.734 -0.2043 -0.1010  1.6591
 3645SOL    HW212377   5.510   1.263   0.690 -1.1329  0.4767 -0.2625
 3646SOL     OW12378   0.650   7.550   9.643  0.3739 -0.3429  0.0620
 3646SOL    HW112379   0.582   7.554   9.710  0.2285  0.5041 -0.1233
 3646SOL    HW212380   0.653   7.638   9.606  1.3613 -0.4497 -0.1495
 3647SOL     OW12381   0.609   1.291   7.048  0.1038 -0.1448 -0.2922
 3647SOL    HW112382   0.582   1.356   7.113  0.9019 -0.4441  0.3526
 3647SOL    HW212383   0.533   1.232   7.041 -1.0810  1.4442 -1.7243
 3648SOL     OW12384   7.226   4.155   5.715 -0.1399 -0.8335 -0.2039
 3648SOL    HW112385   7.316   4.172   5.743  0.7741 -0.7908 -2.8292
 3648SOL    HW212386   7.211   4.063   5.735 -0.7337 -0.1247  3.1036
 3649SOL     OW12387   6.593   0.262   4.624 -0.1747 -0.4331  0.3617
 3649SOL    HW112388   6.527   0.315   4.580  2.2300  2.2166 -0.3304
 3649SOL    HW212389   6.595   0.295   4.714  1.3639  0.7389 -0.0800
 3650SOL     OW12390   1.202   5.180   4.620  0.0394  0.2901 -0.6442
 3650SOL    HW112391   1.129   5.184   4.682 -1.3068  1.1499 -2.1979
 3650SOL    HW212392   1.170   5.124   4.549  0.8804  0.7206 -1.3807
 3651SOL     OW12393   3.323   0.152  11.035 -0.7905  0.1252  0.0262
 3651SOL    HW112394   3.317   0.203  10.954 -0.3371 -0.5506 -0.4427
 3651SOL    HW212395   3.290   0.065  11.012  0.1397 -0.3285  0.3300
 3652SOL     OW12396   4.513   5.218   0.727  0.3302  0.6811  0.4602
 3652SOL    HW112397   4.424   5.188   0.709  0.0258  2.0709 -0.5015
 3652SOL    HW212398   4.562   5.138   0.742 -1.0752 -0.1208  1.0540
 3653SOL     OW12399   1.298   0.875   2.899 -0.3897 -0.4733  0.1813
 3653SOL    HW112400   1.369   0.930   2.931  1.1335 -1.9123 -0.5939
 3653SOL    HW212401   1.252   0.848   2.978 -1.5228  2.2345  0.5742
 3654SOL     OW12402   4.128   0.231   0.309  0.0288 -0.0459 -0.1988
 3654SOL    HW112403   4.099   0.169   0.376  2.6408 -0.0387  1.0787
 3654SOL    HW212404   4.155   0.175   0.235  0.2478 -0.2750  0.0531
 3655SOL     OW12405   5.522   0.577   1.396 -0.1013 -0.2503  0.0745
 3655SOL    HW112406   5.567   0.640   1.453  1.4805 -1.3361  0.0826
 3655SOL    HW212407   5.443   0.623   1.368  0.4734  1.3406  0.9209
 3656SOL     OW12408   2.814   3.218   0.972  0.5172  0.3908 -0.7718
 3656SOL    HW112409   2.841   3.308   0.992  0.0417  0.1161  1.3969
 3656SOL    HW212410   2.849   3.166   1.045 -1.2282 -0.7946 -0.7243
 3657SOL     OW12411   3.268   4.087   2.710 -0.6834  0.4445 -0.3727
 3657SOL    HW112412   3.353   4.128   2.694 -0.9585  0.9949 -0.4213
 3657SOL    HW212413   3.264   4.016   2.647 -0.1909  0.3149 -0.2652
 3658SOL     OW12414   6.183   7.040   8.971 -0.3687 -0.1323  0.6189
 3658SOL    HW112415   6.133   7.010   9.047  0.2654 -0.5948  0.8589
 3658SOL    HW212416   6.189   7.135   8.983 -0.1677 -0.2134  1.2219
 3659SOL     OW12417   7.216   6.141  12.104 -0.8850  0.2021 -0.6760
 3659SOL    HW112418   7.186   6.077  12.168  0.4847  1.5776  1.4404
 3659SOL    HW212419   7.163   6.219  12.120  0.6193  1.1217  0.0016
 3660SOL     OW12420   0.725   1.577   4.419  0.3667 -0.4093  0.1553
 3660SOL    HW112421   0.713   1.565   4.513 -0.3503 -2.7477 -0.1584
 3660SOL    HW212422   0.680   1.659   4.399 -0.1184 -0.2603  1.7297
 3661SOL     OW12423   1.495   6.901  11.533  0.9156 -0.1762 -0.5543
 3661SOL    HW112424   1.541   6.861  11.459  0.8981  0.5223 -0.9440
 3661SOL    HW212425   1.533   6.857  11.610  2.0741  0.1983 -0.8815
 3662SOL     OW12426   0.375   7.447   5.006 -0.0347 -0.1643  0.2017
 3662SOL    HW112427   0.347   7.364   4.966 -1.3873  0.5060 -0.3198
 3662SOL    HW212428   0.357   7.513   4.939 -0.1660  0.7041  1.0621
 3663SOL     OW12429   1.162   1.690   2.234 -0.2209 -0.4938  0.1153
 3663SOL    HW112430   1.161   1.602   2.197  1.2687 -0.5632  0.1957
 3663SOL    HW212431   1.135   1.747   2.162 -2.0612 -1.0499  0.2976
 3664SOL     OW12432   7.840   6.854   7.995 -0.3702 -0.1569 -0.3668
 3664SOL    HW112433   7.782   6.878   8.067 -0.4112 -0.2149 -0.3797
 3664SOL    HW212434   7.885   6.935   7.972  0.4707 -0.3702  0.4621
 3665SOL     OW12435   0.259   4.654   1.999  0.0893 -0.1383 -0.1863
 3665SOL    HW112436   0.178   4.603   2.002  1.5540 -2.6339 -0.6815
 3665SOL    HW212437   0.281   4.669   2.091 -1.1598  1.0507 -0.0404
 3666SOL     OW12438   3.563   4.234   9.570 -0.0284  0.2877 -0.1488
 3666SOL    HW112439   3.545   4.141   9.582 -0.9606  0.3730 -0.8298
 3666SOL    HW212440   3.658   4.241   9.580  0.0033 -0.6553  0.3796
 3667SOL     OW12441   5.557   2.410   2.302  0.1404  0.1539 -0.2674
 3667SOL    HW112442   5.533   2.466   2.377 -0.3997  1.0047 -1.0461
 3667SOL    HW212443   5.473   2.393   2.258  0.2449 -1.6025  0.1507
 3668SOL     OW12444   6.606   2.947   0.961 -0.0541 -0.4713 -0.3883
 3668SOL    HW112445   6.546   3.021   0.957  0.0788 -0.3110  0.3749
 3668SOL    HW212446   6.655   2.952   0.879  0.3865  0.6707 -0.0808
 3669SOL     OW12447   6.365   1.454   3.151 -0.0051 -0.0734  0.4671
 3669SOL    HW112448   6.357   1.371   3.198 -0.2471 -0.4248 -0.1907
 3669SOL    HW212449   6.323   1.518   3.208  1.5776 -0.0879  1.7391
 3670SOL     OW12450   5.259   1.409   2.777  0.3637 -0.0589 -0.2764
 3670SOL    HW112451   5.351   1.385   2.767  0.3335 -0.9029  1.1920
 3670SOL    HW212452   5.240   1.462   2.700  1.7998 -0.6933 -1.1121
 3671SOL     OW12453   0.092   4.272   5.685  0.4925 -0.5337  0.2703
 3671SOL    HW112454   0.180   4.272   5.721  0.5589 -0.0555  0.1025
 3671SOL    HW212455   0.101   4.229   5.600  0.7157  0.2805 -0.1219
 3672SOL     OW12456   1.957   6.997   6.679 -0.0282  0.0330  0.3682
 3672SOL    HW112457   1.989   6.961   6.596 -0.1909  0.1951  0.2335
 3672SOL    HW212458   1.977   6.929   6.744 -1.8888 -1.0915 -0.1624
 3673SOL     OW12459   2.184   3.396   4.560  0.0596  0.3154 -0.3048
 3673SOL    HW112460   2.250   3.395   4.630  1.3517 -0.2836 -1.4875
 3673SOL    HW212461   2.176   3.305   4.533 -2.7314  0.0284  1.0621
 3674SOL     OW12462   5.999   2.576   6.386 -0.1697 -0.2102  0.0225
 3674SOL    HW112463   6.092   2.550   6.389 -0.0275  0.2873  0.0311
 3674SOL    HW212464   5.968   2.563   6.476 -0.3847 -1.3498 -0.2036
 3675SOL     OW12465   0.016   6.774   6.207  0.1942  0.5222  0.6338
 3675SOL    HW112466  -0.073   6.747   6.231  0.1021  0.8903  0.7247
 3675SOL    HW212467   0.043   6.833   6.279  0.9364 -0.4546  1.1771
 3676SOL     OW12468   4.421   5.221   7.822  0.0721 -0.6085 -0.1007
 3676SOL    HW112469   4.423   5.171   7.740 -1.3685 -0.9709  0.0554
 3676SOL    HW212470   4.396   5.309   7.795 -1.0654 -0.8915  0.0114
 3677SOL     OW12471   4.201   2.687   4.494  0.1049  0.3283 -0.1876
 3677SOL    HW112472   4.140   2.619   4.522  1.4967 -0.5406  0.9067
 3677SOL    HW212473   4.282   2.639   4.474  0.0307  1.2512 -3.0942
 3678SOL     OW12474   4.409   4.378   5.096  0.0403  0.1224 -0.2270
 3678SOL    HW112475   4.492   4.409   5.133  0.2778 -0.3672 -0.3348
 3678SOL    HW212476   4.428   4.366   5.003  0.0772 -0.7305 -0.1168
 3679SOL     OW12477   2.300   5.572   6.860 -0.3416 -0.1056  0.3452
 3679SOL    HW112478   2.335   5.616   6.782  1.5059 -1.3350  0.4148
 3679SOL    HW212479   2.206   5.564   6.843 -0.7095  3.4181  0.1698
 3680SOL     OW12480   5.113   7.271   7.657  0.6330 -0.1519 -0.3387
 3680SOL    HW112481   5.131   7.179   7.679 -1.6996 -1.0334 -1.6606
 3680SOL    HW212482   5.187   7.298   7.605  0.1999 -2.2119 -2.1837
 3681SOL     OW12483   0.848   2.708  11.152  0.2408 -0.4138  0.1914
 3681SOL    HW112484   0.818   2.715  11.242  0.4744  1.2569  0.1713
 3681SOL    HW212485   0.797   2.774  11.105  2.6579  1.2848 -0.1775
 3682SOL     OW12486   7.545   2.524   1.518  0.1240 -0.0904 -0.8295
 3682SOL    HW112487   7.619   2.583   1.501  0.5924 -1.0365 -2.2809
 3682SOL    HW212488   7.584   2.448   1.562 -0.0282 -0.4397 -1.2907
 3683SOL     OW12489   5.882   2.611   2.413  0.8012  0.9841 -0.0041
 3683SOL    HW112490   5.919   2.673   2.350  0.1243  0.4482 -0.9576
 3683SOL    HW212491   5.832   2.666   2.473  2.4680  1.6384  0.8640
 3684SOL     OW12492   0.373   7.643   4.755  0.0774  0.1913 -0.1788
 3684SOL    HW112493   0.316   7.615   4.683 -0.0494 -0.5525  0.2087
 3684SOL    HW212494   0.322   7.710   4.800  0.0156  0.4140 -0.5697
 3685SOL     OW12495   3.529   3.002   2.089 -0.1806 -0.2314  0.3021
 3685SOL    HW112496   3.580   2.941   2.143  1.9149  0.7527 -0.4625
 3685SOL    HW212497   3.545   3.087   2.129  1.4429  0.5341 -1.7767
 3686SOL     OW12498   5.490   0.729   9.021  0.3061 -0.0308  0.5035
 3686SOL    HW112499   5.455   0.807   9.064 -1.1085  0.5984 -1.5753
 3686SOL    HW212500   5.415   0.669   9.016 -0.1057  0.5444 -2.2685
 3687SOL     OW12501   1.150   3.641   9.420 -0.3205 -0.0157  0.1175
 3687SOL    HW112502   1.213   3.712   9.425 -2.2453  2.1029 -2.4003
 3687SOL    HW212503   1.197   3.569   9.377  1.0654  0.4789  0.7703
 3688SOL     OW12504   3.633   1.006   8.735  0.3341 -0.1391 -0.2484
 3688SOL    HW112505   3.710   1.008   8.679  0.1533  0.5650 -0.4741
 3688SOL    HW212506   3.563   1.042   8.682 -0.4021 -1.7052 -0.3937
 3689SOL     OW12507   6.609   3.409   3.772 -0.3642  0.4505  0.4506
 3689SOL    HW112508   6.638   3.456   3.850  2.6345  0.5703 -0.6011
 3689SOL    HW212509   6.623   3.316   3.793  1.4339  0.5310 -0.2218
 3690SOL     OW12510   4.001   7.009  10.351  0.3034  0.5809  0.7262
 3690SOL    HW112511   4.041   6.992  10.266 -0.5939 -0.1924  0.4366
 3690SOL    HW212512   3.992   7.104  10.355  2.2386  0.7965  0.8567
 3691SOL     OW12513   2.590   2.587  11.257 -0.3328 -0.5034 -0.4439
 3691SOL    HW112514   2.592   2.495  11.283  0.2428 -0.9032 -1.8195
 3691SOL    HW212515   2.681   2.616  11.264 -0.3432 -0.3270 -1.0098
 3692SOL     OW12516   4.523   2.739   6.959 -0.2268 -0.1787  0.2735
 3692SOL    HW112517   4.603   2.785   6.936  0.7026 -0.7295  2.1688
 3692SOL    HW212518   4.460   2.809   6.977  0.1901  0.2890 -0.0535
 3693SOL     OW12519   0.136   2.255   3.563  0.3426  0.1240  0.0037
 3693SOL    HW112520   0.046   2.248   3.596  0.4447  1.8434  0.7746
 3693SOL    HW212521   0.157   2.167   3.532 -1.6422 -0.2928 -0.3193
 3694SOL     OW12522   4.663   7.436   5.876  0.0457  0.4959  0.0343
 3694SOL    HW112523   4.753   7.465   5.860  0.3663 -1.7522 -3.3839
 3694SOL    HW212524   4.670   7.378   5.951  1.5685  0.0455 -0.4087
 3695SOL     OW12525   4.759   7.962   3.237 -0.2561 -0.4371 -0.2482
 3695SOL    HW112526   4.706   8.041   3.237 -0.5147 -0.5962  0.5708
 3695SOL    HW212527   4.817   7.971   3.313  2.1427  0.5105 -2.0379
 3696SOL     OW12528   5.074   6.544   5.298 -0.2430 -0.3576 -0.2011
 3696SOL    HW112529   5.021   6.578   5.370 -0.1253 -1.4098  0.3947
 3696SOL    HW212530   5.142   6.611   5.285  0.8369 -0.9677  1.9036
 3697SOL     OW12531   6.241   3.068   6.530  0.3998  0.4899 -0.3272
 3697SOL    HW112532   6.243   3.011   6.607 -0.5976 -0.9726 -1.3109
 3697SOL    HW212533   6.243   3.157   6.565  2.4909 -0.1023  1.2590
 3698SOL     OW12534   4.498   0.033   2.346  0.0760  0.3497  0.3572
 3698SOL    HW112535   4.500   0.050   2.440 -1.2183  1.1815  0.2514
 3698SOL    HW212536   4.418  -0.017   2.332 -0.3717  1.2575 -0.4522
 3699SOL     OW12537   1.932   1.440  10.726 -0.1851  0.1046 -0.0603
 3699SOL    HW112538   1.996   1.472  10.788  1.5270  0.6604 -1.9956
 3699SOL    HW212539   1.939   1.344  10.731 -0.3288  0.1391  0.8397
 3700SOL     OW12540   0.762   4.769   1.955 -0.0885 -0.4187 -0.9131
 3700SOL    HW112541   0.693   4.811   2.006  1.4686  0.0328  0.9056
 3700SOL    HW212542   0.758   4.812   1.870 -1.0552  0.6630 -0.3485
 3701SOL     OW12543   5.213   5.177   9.338 -0.1804 -0.4658 -0.2286
 3701SOL    HW112544   5.186   5.237   9.268  1.2001  1.2346  0.6042
 3701SOL    HW212545   5.137   5.122   9.354 -2.0067  1.9508 -0.1499
 3702SOL     OW12546   2.262   1.193   9.933  0.4465 -0.2544  0.0376
 3702SOL    HW112547   2.347   1.236   9.943  0.2493  0.2878 -0.5602
 3702SOL    HW212548   2.214   1.216  10.012  0.6483 -0.0781  0.1115
 3703SOL     OW12549   4.602   7.040   4.320 -0.2155 -0.1867 -0.3805
 3703SOL    HW112550   4.687   7.001   4.342 -0.0524 -0.5390 -1.5871
 3703SOL    HW212551   4.575   7.085   4.401  1.7087  1.0326 -0.3537
 3704SOL     OW12552   3.026   0.244   0.628 -0.1589  0.4510 -0.4611
 3704SOL    HW112553   3.078   0.286   0.559  0.0307 -1.3656 -1.5009
 3704SOL    HW212554   2.936   0.251   0.597  0.0603 -2.0405 -1.9910
 3705SOL     OW12555   6.332   1.462   0.083  0.3848 -0.1536  0.3931
 3705SOL    HW112556   6.403   1.408   0.119 -0.0567 -1.7547 -1.0256
 3705SOL    HW212557   6.341   1.454  -0.012 -1.3270  0.1100  0.1819
 3706SOL     OW12558   6.754   3.917   0.665 -0.6678  0.2279  0.0346
 3706SOL    HW112559   6.803   3.839   0.689  1.1236  1.5092  0.6710
 3706SOL    HW212560   6.729   3.902   0.573 -0.5934 -1.1835  0.2269
 3707SOL     OW12561   0.749   7.968   2.906  0.1450 -0.5840  0.2059
 3707SOL    HW112562   0.836   7.967   2.947  0.4233 -1.0207 -0.3835
 3707SOL    HW212563   0.709   8.049   2.937  0.5037 -0.7045  1.0146
 3708SOL     OW12564   7.765   5.599   4.001  0.0847 -0.5172 -0.3459
 3708SOL    HW112565   7.764   5.677   3.945  0.6458  0.3733  0.8340
 3708SOL    HW212566   7.679   5.600   4.045  0.4555  0.0173  0.4000
 3709SOL     OW12567   6.831   0.721   7.903 -0.0521 -0.0666  0.4012
 3709SOL    HW112568   6.761   0.670   7.943  0.3068  0.4535  1.7598
 3709SOL    HW212569   6.907   0.707   7.960  0.5857  0.4213 -0.3011
 3710SOL     OW12570   0.205   1.106   8.973  0.2731 -0.2460  0.1361
 3710SOL    HW112571   0.224   1.152   9.055  3.0726 -1.4760  0.3044
 3710SOL    HW212572   0.215   1.172   8.905 -0.4592  0.4128  0.6477
 3711SOL     OW12573   7.260   3.306   3.433  0.1147 -0.3660 -0.2767
 3711SOL    HW112574   7.209   3.369   3.381  0.7014  0.7614  0.4623
 3711SOL    HW212575   7.335   3.285   3.377 -0.4507 -1.0013 -0.8232
 3712SOL     OW12576   3.624   5.939   5.674  0.8030 -0.3660 -0.2158
 3712SOL    HW112577   3.636   5.873   5.606  1.3043  0.1690 -0.6629
 3712SOL    HW212578   3.623   5.890   5.756  0.8640 -0.9552 -0.5653
 3713SOL     OW12579   1.513   0.475   9.025 -0.0110 -0.3723  0.0614
 3713SOL    HW112580   1.420   0.484   9.047 -0.4045  1.8289 -2.0044
 3713SOL    HW212581   1.513   0.435   8.938  1.0430 -1.2123  0.4342
 3714SOL     OW12582   7.910   7.087   3.456  0.1642  0.1157  0.2939
 3714SOL    HW112583   7.843   7.021   3.475  0.7413 -0.5417  0.0893
 3714SOL    HW212584   7.993   7.044   3.476  0.6310  0.3544 -0.9816
 3715SOL     OW12585   2.386   4.387   0.138  0.2650 -0.1822 -0.4846
 3715SOL    HW112586   2.315   4.340   0.095  1.0978 -4.6191  2.3515
 3715SOL    HW212587   2.362   4.389   0.230  3.0111 -0.2465  0.3160
 3716SOL     OW12588   5.347   2.355   5.803 -0.0501 -0.3401 -0.2997
 3716SOL    HW112589   5.430   2.308   5.805 -0.5448 -1.3735 -1.8566
 3716SOL    HW212590   5.371   2.445   5.778  0.7599 -0.0847  1.2727
 3717SOL     OW12591   6.227   6.604   6.192 -0.5585  0.5587  0.4935
 3717SOL    HW112592   6.247   6.575   6.102  0.4973 -0.2482  0.9665
 3717SOL    HW212593   6.177   6.685   6.180  0.9869  1.3808 -0.8230
 3718SOL     OW12594   3.107   0.183   6.584 -0.0627  0.3045 -0.0270
 3718SOL    HW112595   3.183   0.143   6.542  1.5026  0.7656  2.1513
 3718SOL    HW212596   3.133   0.274   6.599 -2.6927  1.7094 -2.8705
 3719SOL     OW12597   0.615   7.678   8.209  0.1573  0.3288 -0.7417
 3719SOL    HW112598   0.613   7.754   8.268  2.7093 -1.0070  1.2654
 3719SOL    HW212599   0.569   7.609   8.257  2.1166 -0.7267 -0.2608
 3720SOL     OW12600   6.950   6.694   6.721  1.2972  0.1539  0.1402
 3720SOL    HW112601   6.947   6.614   6.774  1.0277 -0.3205 -0.5750
 3720SOL    HW212602   6.858   6.717   6.708  1.3719  0.4943  0.2227
 3721SOL     OW12603   1.573   0.114   2.200  0.1229 -0.0553 -0.3345
 3721SOL    HW112604   1.558   0.171   2.276 -1.2249  0.6010 -1.0632
 3721SOL    HW212605   1.501   0.051   2.203 -0.0692  0.1134 -1.1830
 3722SOL     OW12606   2.390   6.276   3.029  0.0257  0.3039 -0.3912
 3722SOL    HW112607   2.327   6.219   2.986 -0.5729  0.0696  0.7623
 3722SOL    HW212608   2.436   6.220   3.090  1.0885  0.5645 -0.9346
 3723SOL     OW12609   2.722   3.779   6.364 -0.5361  0.0296  0.5463
 3723SOL    HW112610   2.685   3.720   6.298 -0.8290  0.4299  0.3490
 3723SOL    HW212611   2.650   3.837   6.388  0.1383  1.2974 -0.3904
 3724SOL     OW12612   2.139   1.026   6.349 -0.2110 -0.4637 -0.0638
 3724SOL    HW112613   2.152   1.079   6.270 -1.2230 -1.0408 -0.6353
 3724SOL    HW212614   2.095   0.947   6.318  0.8529 -1.4434  0.8488
 3725SOL     OW12615   5.261   7.019   6.878 -0.4648 -0.4475  0.2536
 3725SOL    HW112616   5.168   6.996   6.876 -0.6246  0.1684  0.5254
 3725SOL    HW212617   5.272   7.072   6.957 -0.3101  1.2459 -0.8483
 3726SOL     OW12618   6.589   3.281  11.413 -0.2217  0.2498 -0.6389
 3726SOL    HW112619   6.659   3.220  11.392 -0.4428  0.0397 -0.7662
 3726SOL    HW212620   6.579   3.335  11.335  0.0433  0.5174 -0.4892
 3727SOL     OW12621   6.235   0.484  10.942  0.1064  0.1252  0.7742
 3727SOL    HW112622   6.253   0.466  11.034  0.6648 -2.5102  0.2200
 3727SOL    HW212623   6.250   0.578  10.933 -0.1152  0.4772  3.3799
 3728SOL     OW12624   2.526   5.749   3.948  0.3012 -0.6782 -0.3979
 3728SOL    HW112625   2.602   5.755   4.006  0.0289  1.1458 -0.1667
 3728SOL    HW212626   2.561   5.764   3.861  0.4718 -1.8137 -0.5400
 3729SOL     OW12627   0.428   3.112   8.223 -0.2572 -0.1819 -0.2149
 3729SOL    HW112628   0.352   3.163   8.253 -0.8065 -0.6480 -0.7752
 3729SOL    HW212629   0.430   3.036   8.281 -0.0353 -0.0136 -0.0042
 3730SOL     OW12630   5.648   7.965  11.470 -0.5369 -0.1283 -0.3306
 3730SOL    HW112631   5.724   7.907  11.468 -0.4387 -0.0085 -0.1630
 3730SOL    HW212632   5.585   7.920  11.526  0.1192  0.6129  1.0666
 3731SOL     OW12633   7.084   1.550  10.750  0.0239 -0.2851  0.2509
 3731SOL    HW112634   7.062   1.622  10.691 -1.5359  0.1720  1.3404
 3731SOL    HW212635   7.085   1.473  10.693 -2.1891  0.0333 -0.3111
 3732SOL     OW12636   0.613   5.208   0.883  0.3102  0.3115 -0.1867
 3732SOL    HW112637   0.690   5.220   0.939  1.0122 -0.3069 -1.0044
 3732SOL    HW212638   0.565   5.291   0.891  0.5966  0.3800  1.0063
 3733SOL     OW12639   5.032   2.210   8.468 -0.8270  0.5307 -0.5209
 3733SOL    HW112640   5.013   2.242   8.380 -1.9351 -1.0743 -0.9067
 3733SOL    HW212641   5.123   2.182   8.465 -1.5819 -2.0317 -2.0151
 3734SOL     OW12642   3.186   4.387   8.597 -0.2698 -0.3362 -0.3545
 3734SOL    HW112643   3.119   4.352   8.656 -1.2164 -0.1566 -1.2895
 3734SOL    HW212644   3.268   4.379   8.646 -0.7305 -2.0668  0.2002
 3735SOL     OW12645   5.958   7.478   9.656 -0.1422 -0.3726  0.4241
 3735SOL    HW112646   6.004   7.445   9.579  0.2764  0.5084  0.2937
 3735SOL    HW212647   5.937   7.569   9.635 -0.2004 -0.1806  1.2709
 3736SOL     OW12648   1.533   1.237   0.100  0.0782 -0.0902 -0.6358
 3736SOL    HW112649   1.554   1.329   0.116  1.5530 -0.6037  0.5719
 3736SOL    HW212650   1.604   1.205   0.045  0.8856 -1.0844  0.9248
 3737SOL     OW12651   0.616   3.347   8.239  0.1195  0.2815 -0.2181
 3737SOL    HW112652   0.541   3.295   8.210  0.4141  0.1153 -0.6971
 3737SOL    HW212653   0.692   3.293   8.220  0.2796 -0.5091  2.2792
 3738SOL     OW12654   7.245   6.564   2.361  0.1292  0.0979 -0.5133
 3738SOL    HW112655   7.185   6.597   2.428  0.6385  1.9183 -0.9069
 3738SOL    HW212656   7.331   6.565   2.404  0.0391 -1.7378 -0.2099
 3739SOL     OW12657   0.908   5.981   3.185  0.4881 -0.1053 -0.5189
 3739SOL    HW112658   0.941   5.915   3.125 -0.4482  0.2739 -1.4812
 3739SOL    HW212659   0.813   5.965   3.190  0.4015  0.5163  0.0462
 3740SOL     OW12660   3.753   2.921   1.871 -0.1508  0.0555  0.0498
 3740SOL    HW112661   3.719   2.910   1.960 -0.0040 -0.1573  0.0789
 3740SOL    HW212662   3.675   2.936   1.818 -0.2476  0.0895  0.1994
 3741SOL     OW12663   4.005   0.100   9.736  0.6450 -0.1546  0.0455
 3741SOL    HW112664   3.911   0.090   9.749  0.5113  1.6468  0.6884
 3741SOL    HW212665   4.013   0.164   9.665  1.4090 -0.9532 -0.6136
 3742SOL     OW12666   6.760   7.180   3.551 -0.3255 -0.3885 -0.2064
 3742SOL    HW112667   6.829   7.122   3.585 -0.6111 -0.3969  0.3678
 3742SOL    HW212668   6.705   7.123   3.499 -1.5021 -1.0058  1.6077
 3743SOL     OW12669   5.460   7.658   4.900 -0.1705  0.3277  0.3549
 3743SOL    HW112670   5.409   7.712   4.839 -0.0693  1.0197  0.8624
 3743SOL    HW212671   5.533   7.715   4.926  0.7777 -0.5804 -0.2293
 3744SOL     OW12672   3.693   4.347   9.124  0.1850 -0.0305 -0.8838
 3744SOL    HW112673   3.717   4.418   9.184  1.3348 -1.2029  0.0966
 3744SOL    HW212674   3.603   4.367   9.098 -1.0923 -0.4065  2.7029
 3745SOL     OW12675   2.680   1.627   0.067 -0.2094 -0.3258 -0.0011
 3745SOL    HW112676   2.643   1.546   0.031 -1.0585  0.5213 -1.0509
 3745SOL    HW212677   2.605   1.673   0.105  0.1843  0.2294  0.1093
 3746SOL     OW12678   5.691   3.746   9.575  0.0262 -0.3651 -0.2895
 3746SOL    HW112679   5.697   3.754   9.480  1.6593 -1.7766 -0.3503
 3746SOL    HW212680   5.628   3.675   9.589  0.5716 -0.8704 -0.3639
 3747SOL     OW12681   4.932   4.367   9.828  0.2732 -0.6778  0.1530
 3747SOL    HW112682   4.886   4.286   9.850  0.1213 -0.9144 -0.9702
 3747SOL    HW212683   4.997   4.341   9.763 -0.1848  0.1925 -0.6788
 3748SOL     OW12684   1.912   3.550   9.200 -0.2568 -0.3106  0.0137
 3748SOL    HW112685   1.932   3.468   9.246  0.3406 -0.4272 -0.4249
 3748SOL    HW212686   1.878   3.609   9.267  2.2776  0.1454  1.0098
 3749SOL     OW12687   0.954   0.753   2.376 -0.3025 -0.5757 -0.0443
 3749SOL    HW112688   0.948   0.681   2.313  1.2020 -1.2615  0.5449
 3749SOL    HW212689   0.911   0.719   2.455 -0.2835 -0.5334 -0.0158
 3750SOL     OW12690   5.898   5.330  10.615  0.0653  0.4240  0.1005
 3750SOL    HW112691   5.984   5.321  10.657 -0.7077  0.1356  1.6806
 3750SOL    HW212692   5.849   5.388  10.673 -0.9751  0.1710 -0.5055
 3751SOL     OW12693   4.213   3.642   8.364 -0.8638 -0.2957  0.4661
 3751SOL    HW112694   4.297   3.688   8.358  0.0710 -1.6183  2.3805
 3751SOL    HW212695   4.228   3.559   8.321 -0.8867 -0.8950  1.5770
 3752SOL     OW12696   2.767   0.528   7.612  0.1275  0.5659  0.5338
 3752SOL    HW112697   2.775   0.456   7.549  1.3253  0.4705  0.7789
 3752SOL    HW212698   2.842   0.519   7.670 -0.4899  1.1676  1.4668
 3753SOL     OW12699   4.490   4.005   5.308 -0.4029 -0.3738 -0.1375
 3753SOL    HW112700   4.544   3.951   5.365 -0.0428  0.2553  0.1249
 3753SOL    HW212701   4.549   4.074   5.276 -1.0042  0.2493  0.0562
 3754SOL     OW12702   0.258   4.916   0.788 -0.0724  0.0437 -0.0654
 3754SOL    HW112703   0.331   4.859   0.763 -0.4533  0.0268 -1.1490
 3754SOL    HW212704   0.249   4.902   0.883  2.4553  1.3404  0.4461
 3755SOL     OW12705   5.585   7.746   0.455 -0.4864 -0.4489  0.7348
 3755SOL    HW112706   5.672   7.725   0.488 -0.0648  0.1722  0.0602
 3755SOL    HW212707   5.564   7.677   0.393  0.7995  0.8940 -1.3111
 3756SOL     OW12708   1.355   5.059   0.487 -0.0730  0.5003 -0.7044
 3756SOL    HW112709   1.305   5.046   0.568 -1.2685  1.9128 -1.1794
 3756SOL    HW212710   1.436   5.010   0.501 -0.5988  0.0509  1.0155
 3757SOL     OW12711   7.602   5.227   3.424 -0.2963 -0.5047  0.4424
 3757SOL    HW112712   7.536   5.177   3.472  0.4853 -1.7402  0.2714
 3757SOL    HW212713   7.630   5.169   3.354  0.9846 -0.0218  0.5307
 3758SOL     OW12714   3.479   5.463  10.831  0.0767  0.2230  0.2505
 3758SOL    HW112715   3.503   5.554  10.850 -0.5693  0.9294 -2.0205
 3758SOL    HW212716   3.386   5.467  10.809 -0.0403 -1.0519  0.4638
 3759SOL     OW12717   6.325   1.733   6.802 -0.0332  0.1435 -0.3562
 3759SOL    HW112718   6.291   1.644   6.808  0.9323 -0.1385  1.5620
 3759SOL    HW212719   6.284   1.779   6.875  1.0124  0.7182 -0.1148
 3760SOL     OW12720   4.675   1.507  11.715 -0.1004 -0.6136  0.0640
 3760SOL    HW112721   4.741   1.563  11.756  0.2049 -0.4357 -0.6617
 3760SOL    HW212722   4.654   1.550  11.632 -1.3383 -0.5210  0.3969
 3761SOL     OW12723   6.858   7.249  10.895  0.3243 -0.2508  0.0780
 3761SOL    HW112724   6.871   7.166  10.942  0.2120 -0.4593 -0.2609
 3761SOL    HW212725   6.940   7.263  10.848  0.6426  0.2309  0.7531
 3762SOL     OW12726   0.835   2.879  11.552 -0.0908  0.5815  0.5075
 3762SOL    HW112727   0.765   2.943  11.566 -0.1375  0.9268 -1.1108
 3762SOL    HW212728   0.802   2.825  11.480  0.5700 -0.3683  0.9044
 3763SOL     OW12729   4.159   5.449   2.052  0.1443 -0.0143 -0.0308
 3763SOL    HW112730   4.145   5.420   1.962 -0.5410  1.9698 -0.6098
 3763SOL    HW212731   4.232   5.395   2.084 -0.5089 -1.7092 -1.2822
 3764SOL     OW12732   7.647   4.992  12.391  0.5128  0.1136  0.3281
 3764SOL    HW112733   7.585   5.033  12.331 -0.8019 -1.1899  0.7510
 3764SOL    HW212734   7.694   4.929  12.336  0.2293 -0.1485  0.3865
 3765SOL     OW12735   0.429   3.248   2.521  0.3299  0.8415  0.0576
 3765SOL    HW112736   0.391   3.281   2.439  4.6665  0.7414 -2.3411
 3765SOL    HW212737   0.361   3.195   2.561 -2.1679  1.2128 -3.3192
 3766SOL     OW12738   3.995   0.205   8.932  0.0612  0.0863  0.3606
 3766SOL    HW112739   4.014   0.295   8.905 -1.8134  1.3074  2.6808
 3766SOL    HW212740   3.902   0.194   8.913 -0.3240 -0.4362  2.3127
 3767SOL     OW12741   2.802   6.280   8.040 -0.3645 -0.3935 -0.3975
 3767SOL    HW112742   2.895   6.286   8.020 -0.3112 -0.0778 -0.0550
 3767SOL    HW212743   2.798   6.224   8.118 -0.3299  0.8659  0.5417
 3768SOL     OW12744   6.502   3.112   5.854 -0.5094  0.3106  0.1384
 3768SOL    HW112745   6.545   3.184   5.807 -0.7906 -0.3031 -1.1093
 3768SOL    HW212746   6.499   3.142   5.945  0.9517  1.1236 -0.0369
 3769SOL     OW12747   7.352   5.017  12.074 -0.3335 -0.2487 -0.2688
 3769SOL    HW112748   7.419   4.977  12.018 -0.1465 -1.0624  0.5122
 3769SOL    HW212749   7.280   4.955  12.074 -1.4010  0.9218 -1.6258
 3770SOL     OW12750   3.891   7.152   5.327  0.5014 -0.2599 -0.6676
 3770SOL    HW112751   3.915   7.100   5.250 -1.1562 -2.2033  0.0449
 3770SOL    HW212752   3.888   7.089   5.398 -2.3649  0.5925  0.0970
 3771SOL     OW12753   1.020   7.737   8.796  0.5421  0.4144 -0.2140
 3771SOL    HW112754   1.051   7.791   8.724  0.1041 -0.3314 -0.9859
 3771SOL    HW212755   1.017   7.648   8.760 -0.5793  0.1668  0.4356
 3772SOL     OW12756   5.589   3.051  10.184  0.2742 -0.4338 -0.5732
 3772SOL    HW112757   5.609   3.145  10.188 -0.3729 -0.2962 -0.4674
 3772SOL    HW212758   5.590   3.030  10.091  0.3040 -0.2949 -0.6036
 3773SOL     OW12759   7.966   7.827  11.592  0.2770  0.2387  0.0934
 3773SOL    HW112760   7.919   7.839  11.674 -1.6566  0.2432 -0.9417
 3773SOL    HW212761   7.944   7.904  11.540  1.4440  0.2232 -0.4584
 3774SOL     OW12762   0.807   2.074   8.493  0.2695  0.0054 -0.0088
 3774SOL    HW112763   0.725   2.079   8.444  0.5696  2.4189 -0.4173
 3774SOL    HW212764   0.867   2.027   8.435 -1.1368 -3.2077  0.9340
 3775SOL     OW12765   7.214   0.102   2.086  0.4898  0.2026 -0.7107
 3775SOL    HW112766   7.156   0.149   2.146  0.7490  0.3977 -0.6099
 3775SOL    HW212767   7.158   0.076   2.013 -0.2982 -1.7491  0.5013
 3776SOL     OW12768   7.290   6.187   3.252 -0.0202  0.5367  0.1091
 3776SOL    HW112769   7.375   6.203   3.293  0.0196  0.1778  0.1694
 3776SOL    HW212770   7.232   6.254   3.289 -0.5374 -1.0693  2.3960
 3777SOL     OW12771   4.045   5.058  11.523  0.5250 -0.3791 -0.1724
 3777SOL    HW112772   4.000   5.003  11.458  0.7039 -0.0704 -0.5659
 3777SOL    HW212773   3.977   5.118  11.554  0.4548 -0.4820 -0.1249
 3778SOL     OW12774   0.092   3.089   8.118 -0.0862 -0.3144 -0.3228
 3778SOL    HW112775   0.153   3.017   8.106  1.0876  0.3645  1.1760
 3778SOL    HW212776   0.068   3.116   8.029  1.1584 -1.1206 -0.9249
 3779SOL     OW12777   0.514   6.177   4.078  0.1478 -0.2763  0.4344
 3779SOL    HW112778   0.541   6.098   4.032 -1.4900 -1.0420  0.7089
 3779SOL    HW212779   0.477   6.146   4.160  1.0766  0.9256  1.3519
 3780SOL     OW12780   0.614   2.242  11.079 -0.7231  0.2023  0.4951
 3780SOL    HW112781   0.650   2.327  11.100 -1.1697  0.9057 -1.3814
 3780SOL    HW212782   0.690   2.185  11.067 -0.3126  0.9651 -0.6545
 3781SOL     OW12783   7.432   1.746   9.909  0.1961 -0.2597 -0.1657
 3781SOL    HW112784   7.429   1.738   9.814  0.2556  0.0136 -0.1905
 3781SOL    HW212785   7.428   1.840   9.926  0.6845 -0.2759  0.0791
 3782SOL     OW12786   1.028   2.639   8.009 -0.3735  0.0096  0.3606
 3782SOL    HW112787   0.985   2.640   7.923 -1.9656 -2.1155  1.0502
 3782SOL    HW212788   0.990   2.713   8.056 -2.0483 -0.7725  0.3277
 3783SOL     OW12789   7.502   7.574   1.554  0.0088  0.0801 -0.3802
 3783SOL    HW112790   7.529   7.625   1.478 -0.5014  0.2949 -0.4230
 3783SOL    HW212791   7.406   7.567   1.546 -0.2163  1.2083  0.9076
 3784SOL     OW12792   7.147   6.362   4.471  0.2553  0.1610  0.1886
 3784SOL    HW112793   7.126   6.396   4.384 -0.0321 -1.3442 -0.3668
 3784SOL    HW212794   7.066   6.372   4.521  1.0508  3.1642  1.0765
 3785SOL     OW12795   1.999   6.737   3.467  0.0305  0.4835  0.3255
 3785SOL    HW112796   2.061   6.806   3.490  0.2145  0.2838  0.4328
 3785SOL    HW212797   2.021   6.716   3.376  0.7695 -0.2561  0.6555
 3786SOL     OW12798   4.398   0.538   6.777 -0.0260 -0.1118  0.3231
 3786SOL    HW112799   4.480   0.569   6.739  0.4458  0.5090  1.7520
 3786SOL    HW212800   4.344   0.616   6.785 -0.6228 -0.4552 -0.2551
 3787SOL     OW12801   1.091   0.862  11.431  0.2845 -0.3770 -0.9319
 3787SOL    HW112802   1.089   0.850  11.336  0.1062  2.4243 -1.3683
 3787SOL    HW212803   1.177   0.898  11.449 -0.5768  1.5246 -0.4326
 3788SOL     OW12804   0.260   2.352   1.698  0.0134  0.2067 -0.5100
 3788SOL    HW112805   0.291   2.442   1.687 -1.1423  0.5326 -1.4035
 3788SOL    HW212806   0.169   2.355   1.666 -0.3920 -1.0427  0.4459
 3789SOL     OW12807   6.266   2.565  10.659 -0.5080  0.8035 -1.0244
 3789SOL    HW112808   6.204   2.619  10.609 -1.1534  0.7612 -0.3008
 3789SOL    HW212809   6.352   2.602  10.640 -1.0461  3.0958  0.6341
 3790SOL     OW12810   5.134   6.705  12.112  0.3008  0.0035  0.0206
 3790SOL    HW112811   5.194   6.737  12.179 -0.3701  0.8662  0.2266
 3790SOL    HW212812   5.049   6.700  12.156  0.0425 -0.3482 -0.5075
 3791SOL     OW12813   0.636   3.096   3.831  0.2589  0.5367  0.4023
 3791SOL    HW112814   0.616   3.026   3.892  1.2714 -0.6667 -0.5797
 3791SOL    HW212815   0.597   3.068   3.748 -1.7471  2.4854  0.6072
 3792SOL     OW12816   2.048   7.231   0.611  0.1188 -0.3579  0.0957
 3792SOL    HW112817   2.084   7.300   0.555 -1.7836  2.0170  1.6433
 3792SOL    HW212818   1.953   7.240   0.603 -0.1866 -1.5714  1.8088
 3793SOL     OW12819   7.741   0.257  11.341  0.2045  0.3567 -0.2873
 3793SOL    HW112820   7.697   0.287  11.420  0.8111  0.1031  0.1490
 3793SOL    HW212821   7.786   0.177  11.366  0.2762  0.1852 -0.9290
 3794SOL     OW12822   2.707   4.059   5.173  0.1166  0.4481 -0.3197
 3794SOL    HW112823   2.784   4.085   5.122  0.2714 -0.6539 -0.6818
 3794SOL    HW212824   2.657   4.004   5.113 -0.0564 -0.3029  0.5033
 3795SOL     OW12825   1.622   0.220   3.839 -0.0743 -0.0673 -0.5346
 3795SOL    HW112826   1.649   0.280   3.769  0.4273 -0.9590 -1.1299
 3795SOL    HW212827   1.696   0.219   3.900 -0.4301  0.5575 -0.0860
 3796SOL     OW12828   0.442   1.054  10.330 -0.1862 -0.6305  0.5069
 3796SOL    HW112829   0.370   1.072  10.269 -0.5163  0.1099  1.1028
 3796SOL    HW212830   0.467   0.964  10.311  0.0483 -0.2695 -1.0687
 3797SOL     OW12831   4.705   3.717   1.992  0.1343  0.3189 -0.4225
 3797SOL    HW112832   4.620   3.759   1.983  0.1299  0.5079  0.3692
 3797SOL    HW212833   4.731   3.735   2.083 -0.1687 -1.8888  0.1769
 3798SOL     OW12834   4.220   3.785   1.416  0.2664  0.3495 -0.0143
 3798SOL    HW112835   4.190   3.832   1.338 -1.8520 -0.9511 -0.0715
 3798SOL    HW212836   4.259   3.705   1.383 -0.3874 -0.0764  0.2136
 3799SOL     OW12837   7.609   3.843   8.570 -0.5174  0.1751  0.4203
 3799SOL    HW112838   7.576   3.774   8.628  0.7821 -0.9080 -0.0711
 3799SOL    HW212839   7.575   3.924   8.607 -0.5306 -0.5728  2.1287
 3800SOL     OW12840   5.797   4.668   2.833 -0.2205  0.7759 -0.6310
 3800SOL    HW112841   5.812   4.758   2.804 -1.1643  0.5459 -1.9275
 3800SOL    HW212842   5.777   4.676   2.926  2.9081  1.5408  0.0724
 3801SOL     OW12843   7.581   1.058  10.120  0.3173 -0.6245  0.4889
 3801SOL    HW112844   7.545   1.002  10.051  1.3103 -1.5450  0.6850
 3801SOL    HW212845   7.534   1.141  10.111  0.1185 -0.8708 -1.0184
 3802SOL     OW12846   6.304   5.165   4.530 -0.2689 -0.3065 -1.0184
 3802SOL    HW112847   6.341   5.082   4.502  2.9663 -0.1936  2.1512
 3802SOL    HW212848   6.354   5.232   4.483  0.4702 -0.1929 -0.1135
 3803SOL     OW12849   0.220   5.259   9.788  0.2414 -0.6042  0.3746
 3803SOL    HW112850   0.256   5.216   9.865  1.2309 -0.7455 -0.1502
 3803SOL    HW212851   0.254   5.208   9.714  0.0978  0.0968 -0.1870
 3804SOL     OW12852   6.649   7.467   6.328  0.0589 -0.2748 -0.1529
 3804SOL    HW112853   6.601   7.538   6.285  0.8695  0.2458 -0.2059
 3804SOL    HW212854   6.608   7.460   6.414 -0.2326  0.0378 -0.2621
 3805SOL     OW12855   2.971   2.017   7.499  0.1735 -0.0577 -0.3182
 3805SOL    HW112856   3.049   2.056   7.539  0.5222 -1.7070  0.7357
 3805SOL    HW212857   2.949   2.075   7.426  1.7530  1.0219  0.0177
 3806SOL     OW12858   1.306   0.207   7.406 -0.3804  0.2011 -0.5171
 3806SOL    HW112859   1.380   0.146   7.402 -1.0105 -0.5823 -0.5065
 3806SOL    HW212860   1.235   0.160   7.362 -0.8269  1.0102 -0.6702
 3807SOL     OW12861   5.486   3.451   5.101  0.6106  0.3228  0.3490
 3807SOL    HW112862   5.425   3.381   5.125 -0.2115  1.0953  0.5742
 3807SOL    HW212863   5.517   3.427   5.014 -0.6624  0.3222 -0.1287
 3808SOL     OW12864   1.668   6.119   6.697  0.3770  0.2175  0.0035
 3808SOL    HW112865   1.631   6.188   6.643  2.5168  2.7008  1.5102
 3808SOL    HW212866   1.667   6.155   6.786  1.0173 -1.9525  0.9548
 3809SOL     OW12867   4.140   2.167   8.152  0.0601 -0.1994  0.1017
 3809SOL    HW112868   4.056   2.137   8.118 -0.4747  0.7742  0.5276
 3809SOL    HW212869   4.184   2.207   8.076 -0.5475  0.7205  0.2148
 3810SOL     OW12870   1.350   2.108   9.765 -0.2731  0.0235  0.3691
 3810SOL    HW112871   1.371   2.032   9.711 -0.4828  0.1403  0.1201
 3810SOL    HW212872   1.288   2.158   9.713 -0.2730  0.2760  0.6076
 3811SOL     OW12873   3.124   2.313  12.434  0.0334 -0.3250  0.3820
 3811SOL    HW112874   3.188   2.245  12.411  0.1117  0.7851 -3.3030
 3811SOL    HW212875   3.040   2.280  12.401  0.2015  1.5279 -2.2394
 3812SOL     OW12876   5.684   0.458  11.225 -0.1178  0.3736 -0.0763
 3812SOL    HW112877   5.628   0.460  11.303  0.1476  2.8413  0.1439
 3812SOL    HW212878   5.624   0.438  11.153 -0.8648  0.6540  0.4547
 3813SOL     OW12879   4.958   5.166   1.970 -0.2444 -0.0764  0.0007
 3813SOL    HW112880   4.967   5.078   2.008 -1.2949 -1.1115 -1.9928
 3813SOL    HW212881   4.981   5.154   1.878 -2.0253  1.3616 -0.6859
 3814SOL     OW12882   7.358   4.925  10.125  0.0738  0.3686  0.2761
 3814SOL    HW112883   7.410   4.977  10.065  0.1666 -0.8266 -0.7217
 3814SOL    HW212884   7.412   4.918  10.204  1.1665 -0.3010 -0.5032
 3815SOL     OW12885   5.541   7.003  12.245 -0.2430 -0.3243  0.5754
 3815SOL    HW112886   5.627   7.027  12.278 -0.4742 -0.0248  0.9750
 3815SOL    HW212887   5.500   6.954  12.317 -0.6007 -0.0179  0.5820
 3816SOL     OW12888   6.533   7.558   8.624 -0.2915  0.0884 -0.0602
 3816SOL    HW112889   6.447   7.534   8.588 -0.3490 -0.2896  0.3136
 3816SOL    HW212890   6.544   7.650   8.601 -1.8998  0.8835  1.9977
 3817SOL     OW12891   3.571   3.847  12.039 -0.0528 -0.0399 -0.6245
 3817SOL    HW112892   3.549   3.759  12.010  0.9968 -0.0235 -1.5395
 3817SOL    HW212893   3.609   3.835  12.126 -2.2625 -0.1984  0.3960
 3818SOL     OW12894   3.414   0.051  10.699 -0.2629 -0.5979  0.7430
 3818SOL    HW112895   3.401   0.030  10.606  0.6053  0.4522  0.3708
 3818SOL    HW212896   3.376   0.138  10.709 -1.0937 -1.0370  1.5812
 3819SOL     OW12897   6.674   0.794   8.759 -0.0800  0.3190  0.1797
 3819SOL    HW112898   6.733   0.849   8.811  0.4033  0.8633 -0.8823
 3819SOL    HW212899   6.722   0.712   8.747  0.5268  0.7895 -0.7470
 3820SOL     OW12900   1.430   0.591   0.589 -0.1816  0.4309  0.1734
 3820SOL    HW112901   1.373   0.666   0.573 -0.8470 -0.1148 -0.0234
 3820SOL    HW212902   1.501   0.602   0.525 -1.6899 -0.5585 -1.7662
 3821SOL     OW12903   5.763   5.941   7.451  0.1353  0.5750 -0.2822
 3821SOL    HW112904   5.703   5.909   7.517 -0.5851 -1.8469 -1.9637
 3821SOL    HW212905   5.725   6.024   7.421 -2.2120 -0.6566 -0.9754
 3822SOL     OW12906   5.600   6.488  10.664 -0.4520 -0.3764  0.7270
 3822SOL    HW112907   5.525   6.500  10.721 -0.6562 -0.5236  0.4905
 3822SOL    HW212908   5.603   6.393  10.647 -1.0806 -0.2083 -0.4319
 3823SOL     OW12909   3.353   2.310   9.242  0.0333 -0.3562  0.3908
 3823SOL    HW112910   3.414   2.275   9.177 -0.0598 -3.1241  1.6628
 3823SOL    HW212911   3.406   2.325   9.320 -0.5406 -0.9269  0.9055
 3824SOL     OW12912   0.406   4.054   7.066  0.0857  0.2346 -0.0888
 3824SOL    HW112913   0.342   3.985   7.079  2.0224 -1.4169  1.2534
 3824SOL    HW212914   0.387   4.088   6.978 -2.1893 -0.5691  0.0277
 3825SOL     OW12915   6.170   6.784   4.446 -0.6183  0.4508 -0.7776
 3825SOL    HW112916   6.260   6.761   4.469 -1.3405 -2.2880 -0.3332
 3825SOL    HW212917   6.160   6.755   4.355 -0.7739  1.7046 -1.1759
 3826SOL     OW12918   5.816   3.329  10.924 -0.6700 -0.2990 -0.6222
 3826SOL    HW112919   5.851   3.326  11.014  1.2994  1.9228 -1.1907
 3826SOL    HW212920   5.778   3.243  10.910 -0.1700 -1.0522  2.0067
 3827SOL     OW12921   3.641   5.580   9.636  0.1853  0.1305  0.2747
 3827SOL    HW112922   3.695   5.626   9.700 -0.6929 -1.9466  2.6879
 3827SOL    HW212923   3.655   5.487   9.655 -0.2841 -0.5848 -2.4748
 3828SOL     OW12924   7.838   5.037   7.157 -0.0376  0.6989 -0.2768
 3828SOL    HW112925   7.833   5.128   7.186 -0.0811  0.7727 -0.5071
 3828SOL    HW212926   7.931   5.018   7.153 -0.0432  0.3831  0.8246
 3829SOL     OW12927   1.551   2.879   3.290 -0.1098 -0.6481  0.6372
 3829SOL    HW112928   1.581   2.965   3.259 -1.5023 -0.5322 -0.5291
 3829SOL    HW212929   1.567   2.880   3.384  2.2710 -0.1263  0.2901
 3830SOL     OW12930   7.435   7.958   5.013 -0.3042 -0.3799 -0.2749
 3830SOL    HW112931   7.483   7.971   4.931  0.4211 -0.6581  0.0923
 3830SOL    HW212932   7.349   7.997   4.998  0.5971  1.6694 -0.3826
 3831SOL     OW12933   4.870   3.872  11.840 -0.5364 -0.6346 -0.3901
 3831SOL    HW112934   4.897   3.787  11.874 -1.1800 -1.0992 -0.9979
 3831SOL    HW212935   4.838   3.920  11.916 -0.7560 -1.1767 -0.1352
 3832SOL     OW12936   6.622   5.719   2.545 -0.2098 -0.1977 -0.4148
 3832SOL    HW112937   6.667   5.634   2.544 -0.2594 -0.2211 -1.7497
 3832SOL    HW212938   6.545   5.704   2.600  0.3612 -0.7020  0.2688
 3833SOL     OW12939   6.130   2.178  12.224 -0.0255  0.2601  0.1280
 3833SOL    HW112940   6.204   2.206  12.276 -0.1586  0.3246  0.2823
 3833SOL    HW212941   6.143   2.084  12.213  0.2067  0.3119 -0.0495
 3834SOL     OW12942   6.075   3.497   9.208  0.0843  0.3235 -0.4231
 3834SOL    HW112943   6.066   3.425   9.145 -0.0518 -1.2257  1.2573
 3834SOL    HW212944   6.002   3.483   9.269  2.4885 -0.8422  2.4651
 3835SOL     OW12945   0.389   5.065   1.564  0.2440  0.1163 -0.1048
 3835SOL    HW112946   0.320   5.086   1.627  0.5970 -0.1577  0.3749
 3835SOL    HW212947   0.387   5.138   1.502 -1.5061 -0.6112 -0.9877
 3836SOL     OW12948   1.911   5.120  11.739  0.5252  0.2960  0.0215
 3836SOL    HW112949   1.828   5.166  11.734 -1.0358 -2.3831 -1.5101
 3836SOL    HW212950   1.959   5.147  11.660 -0.6732 -1.0498 -1.2382
 3837SOL     OW12951   7.127   4.145   9.651  0.1004 -0.7322 -0.9311
 3837SOL    HW112952   7.134   4.191   9.734  0.9132 -1.3533 -0.6493
 3837SOL    HW212953   7.098   4.057   9.674 -1.1372 -0.4830 -1.4386
 3838SOL     OW12954   1.618   3.070  10.221 -0.4872  0.2259  0.5121
 3838SOL    HW112955   1.605   3.038  10.131 -1.1543  1.3599  0.1823
 3838SOL    HW212956   1.588   3.161  10.218 -3.8075 -0.6119  2.6467
 3839SOL     OW12957   4.187   2.357   7.051 -0.1464  0.4860  0.2408
 3839SOL    HW112958   4.146   2.344   6.966 -2.2094  0.0605  1.2442
 3839SOL    HW212959   4.281   2.343   7.035 -0.5333 -0.0245 -1.8404
 3840SOL     OW12960   5.839   4.983   8.570  0.0706  0.2098 -0.5530
 3840SOL    HW112961   5.746   4.996   8.587  0.4823  1.7745  0.7697
 3840SOL    HW212962   5.879   4.982   8.657  1.3662  0.2547 -1.1337
 3841SOL     OW12963   4.599   5.653   0.554  0.0256  0.1630 -0.2897
 3841SOL    HW112964   4.671   5.683   0.609  0.6883 -1.0043 -0.4917
 3841SOL    HW212965   4.600   5.558   0.563 -1.6887  0.1332 -0.0674
 3842SOL     OW12966   5.301   3.592   5.276  0.2147  0.1803 -0.3936
 3842SOL    HW112967   5.346   3.669   5.309  0.6523 -0.5098  0.7042
 3842SOL    HW212968   5.360   3.554   5.211  0.3157  0.3806 -0.4187
 3843SOL     OW12969   7.624   4.830   9.058  1.0055  0.2263  0.6816
 3843SOL    HW112970   7.688   4.847   8.990 -0.1633  0.5348 -0.3864
 3843SOL    HW212971   7.558   4.774   9.016 -0.0703  0.9473  1.3486
 3844SOL     OW12972   2.557   0.052   9.867 -0.5312 -0.6383 -0.0643
 3844SOL    HW112973   2.503   0.131   9.865 -0.0407 -0.3090 -1.7083
 3844SOL    HW212974   2.570   0.030   9.774 -0.0673 -2.2426  0.3568
 3845SOL     OW12975   6.198   0.958   0.580  0.3615 -0.4990 -0.3445
 3845SOL    HW112976   6.125   1.018   0.590 -0.6572 -1.8055  0.4199
 3845SOL    HW212977   6.259   0.981   0.650  0.2048 -0.0777 -0.3437
 3846SOL     OW12978   4.856   5.143   7.548 -0.0099 -0.3218 -0.3838
 3846SOL    HW112979   4.918   5.092   7.601  1.2696  0.5731 -0.9574
 3846SOL    HW212980   4.912   5.189   7.486 -1.3667 -0.2308 -1.5613
 3847SOL     OW12981   7.420   4.515   1.333  0.4272 -0.5102  0.4324
 3847SOL    HW112982   7.420   4.545   1.424 -0.0274 -0.5895  0.4587
 3847SOL    HW212983   7.474   4.436   1.333  0.4048 -0.5242  0.6346
 3848SOL     OW12984   4.318   0.375   8.873  0.1260  0.4715 -0.3015
 3848SOL    HW112985   4.299   0.281   8.881  1.5170  0.1144 -0.9340
 3848SOL    HW212986   4.234   0.418   8.891 -0.9494 -0.9530 -1.7166
 3849SOL     OW12987   1.930   3.672   5.248 -0.2169  0.0578 -0.0164
 3849SOL    HW112988   1.917   3.733   5.175  1.1088 -0.2450 -0.5234
 3849SOL    HW212989   2.018   3.638   5.236 -0.5082 -1.1004  0.9162
 3850SOL     OW12990   7.841   1.244  12.359 -0.2013  0.4355  1.0737
 3850SOL    HW112991   7.840   1.325  12.410 -1.4001  0.4336  1.0869
 3850SOL    HW212992   7.758   1.245  12.310  0.7914  0.3139 -0.6891
 3851SOL     OW12993   7.156   6.121   5.621  0.1767  0.2278 -0.4350
 3851SOL    HW112994   7.159   6.101   5.714  0.3333 -1.0177 -0.6928
 3851SOL    HW212995   7.135   6.038   5.579 -3.2164  1.3358 -1.3112
 3852SOL     OW12996   0.013   3.992   8.226  0.0858 -0.2472  0.2247
 3852SOL    HW112997  -0.046   3.980   8.300 -0.0175  0.5389  0.2783
 3852SOL    HW212998   0.030   4.086   8.224  1.0818 -0.4218  0.0127
 3853SOL     OW12999   2.210   3.316  10.226  0.1251 -0.3595  0.5268
 3853SOL    HW113000   2.158   3.388  10.260 -0.1779 -0.9090  1.2506
 3853SOL    HW213001   2.148   3.261  10.177  0.0904 -0.8194  1.0803
 3854SOL     OW13002   4.618   7.627   6.421 -0.0274  0.3573  0.0731
 3854SOL    HW113003   4.656   7.539   6.424 -1.0910 -0.1638 -0.9375
 3854SOL    HW213004   4.673   7.675   6.359 -1.4140 -0.6314 -2.0150
 3855SOL     OW13005   5.359   0.414  10.444 -0.1669  0.1832 -0.0292
 3855SOL    HW113006   5.348   0.394  10.351 -0.7829  0.9768 -0.1306
 3855SOL    HW213007   5.308   0.347  10.489 -0.5798  0.3108 -0.2997
 3856SOL     OW13008   5.898   0.423  10.054 -0.0440 -0.0937  0.3342
 3856SOL    HW113009   5.982   0.382  10.076  0.1427  0.4792  0.7186
 3856SOL    HW213010   5.833   0.360  10.084  0.2455 -0.3300  0.4773
 3857SOL     OW13011   6.829   1.200  10.452  0.8993 -0.1503  0.0506
 3857SOL    HW113012   6.855   1.143  10.380  0.8797 -0.3393  0.1912
 3857SOL    HW213013   6.765   1.260  10.414 -0.1389 -1.1126  0.2171
 3858SOL     OW13014   4.194   4.985   5.305 -0.1670 -0.1961  0.1764
 3858SOL    HW113015   4.104   5.014   5.321  0.6468  2.5482  0.1815
 3858SOL    HW213016   4.202   4.983   5.210 -0.0253  0.3190  0.1746
 3859SOL     OW13017   0.411   3.963   0.911  0.3710  0.0003  0.5127
 3859SOL    HW113018   0.354   3.918   0.849  1.1104  0.5854 -0.6268
 3859SOL    HW213019   0.480   3.900   0.931 -1.3023 -1.2048  2.9283
 3860SOL     OW13020   3.437   1.173  12.213 -0.1634  0.2620  0.2294
 3860SOL    HW113021   3.395   1.093  12.183  0.4409  0.7561 -2.0984
 3860SOL    HW213022   3.388   1.244  12.172 -0.9906  1.1801  2.6350
 3861SOL     OW13023   0.632   1.823   3.521  0.0447  0.0868  0.0381
 3861SOL    HW113024   0.596   1.838   3.609 -0.0014  1.7238 -0.2147
 3861SOL    HW213025   0.595   1.895   3.469  1.0090 -0.1825 -1.0344
 3862SOL     OW13026   3.660   4.605   7.725 -0.3497  0.3704  0.8431
 3862SOL    HW113027   3.665   4.560   7.641  1.4010  3.0298 -0.6121
 3862SOL    HW213028   3.572   4.585   7.758 -1.0636 -0.7903 -1.5570
 3863SOL     OW13029   2.671   6.871   3.742 -0.1910 -0.1734  0.0452
 3863SOL    HW113030   2.617   6.868   3.663 -1.4508  0.3715  0.8538
 3863SOL    HW213031   2.613   6.909   3.809  1.5168  1.4766  0.6896
 3864SOL     OW13032   1.321   3.217   3.937 -0.5057  0.2391  0.0253
 3864SOL    HW113033   1.313   3.121   3.942 -2.4456  0.3427 -0.2549
 3864SOL    HW213034   1.262   3.242   3.866  0.1334  1.6442 -0.0405
 3865SOL     OW13035   5.186   2.798   1.999  0.0514 -0.0179 -0.2741
 3865SOL    HW113036   5.196   2.893   2.008 -0.9961  0.2028 -1.1535
 3865SOL    HW213037   5.116   2.788   1.935 -0.8449 -1.3784  0.8518
 3866SOL     OW13038   1.108   3.583   3.539 -0.0116  0.2522 -0.0440
 3866SOL    HW113039   1.112   3.677   3.525  1.7837 -0.1435 -3.3355
 3866SOL    HW213040   1.040   3.553   3.478  2.0315 -0.8489 -1.9180
 3867SOL     OW13041   5.104   7.623  12.263 -0.2258  0.0239  0.4055
 3867SOL    HW113042   5.120   7.589  12.175 -0.3813 -2.0370  1.1186
 3867SOL    HW213043   5.022   7.582  12.291  0.3848 -0.2614  1.9128
 3868SOL     OW13044   5.022   6.652   5.867  0.3295  0.2162  0.1955
 3868SOL    HW113045   5.070   6.642   5.949 -0.1068 -2.3505  0.2467
 3868SOL    HW213046   4.990   6.563   5.848 -1.9425  1.2556 -1.2977
 3869SOL     OW13047   6.540   5.142   0.849 -0.1218  0.4510  0.4603
 3869SOL    HW113048   6.618   5.164   0.799  0.9091 -1.3270  1.1952
 3869SOL    HW213049   6.500   5.069   0.801 -0.4453  0.3009  0.9509
 3870SOL     OW13050   5.778   1.159   0.188  0.2933 -0.6059 -0.0536
 3870SOL    HW113051   5.859   1.124   0.225  1.3069  0.4728 -1.1443
 3870SOL    HW213052   5.747   1.223   0.252  2.2972  1.6156 -1.1577
 3871SOL     OW13053   2.223   7.540   6.957 -0.6286 -0.5868  0.4137
 3871SOL    HW113054   2.242   7.539   7.051 -0.3418 -2.8872  0.3914
 3871SOL    HW213055   2.135   7.502   6.950  0.0362 -2.0577 -0.3272
 3872SOL     OW13056   1.067   0.220   2.125  0.4470 -0.7053  0.3430
 3872SOL    HW113057   1.018   0.187   2.200 -0.7916  1.2254  0.4507
 3872SOL    HW213058   1.126   0.286   2.162 -0.2289  0.3165 -0.3632
 3873SOL     OW13059   3.532   5.660   3.628 -0.3918  0.4638  0.7135
 3873SOL    HW113060   3.617   5.650   3.585 -0.1669  0.6286  1.1179
 3873SOL    HW213061   3.481   5.584   3.598  0.6666 -0.9405  2.2533
 3874SOL     OW13062   7.726   7.182   4.332 -0.0919 -0.4149 -0.2314
 3874SOL    HW113063   7.722   7.201   4.238 -3.1693  1.3387  0.0928
 3874SOL    HW213064   7.671   7.105   4.343  2.6806 -2.4918 -0.1113
 3875SOL     OW13065   0.818   0.537   2.200 -0.3192 -0.3625  0.7312
 3875SOL    HW113066   0.850   0.542   2.109 -1.8034 -0.4525  0.1824
 3875SOL    HW213067   0.726   0.514   2.192 -1.4451  3.0293  2.1008
 3876SOL     OW13068   3.230   7.746   5.786 -0.0358  0.0108 -0.3851
 3876SOL    HW113069   3.231   7.837   5.814 -2.2106 -0.0523  0.0769
 3876SOL    HW213070   3.212   7.696   5.865 -0.6972 -0.6372 -0.9188
 3877SOL     OW13071   6.240   3.180  12.281  0.0143  0.1907 -0.3538
 3877SOL    HW113072   6.281   3.125  12.214 -0.2408  0.8535 -1.0668
 3877SOL    HW213073   6.195   3.117  12.339  0.1628 -0.3836 -0.8501
 3878SOL     OW13074   4.029   5.233   1.427  0.0761 -0.0166  0.8605
 3878SOL    HW113075   4.080   5.283   1.490  1.5888  0.9901 -1.0602
 3878SOL    HW213076   3.960   5.294   1.399  1.1682  0.6273 -0.5542
 3879SOL     OW13077   7.934   7.474  11.179  0.0868 -0.3962  0.4723
 3879SOL    HW113078   7.966   7.493  11.268  0.2578  0.6222  0.2097
 3879SOL    HW213079   8.007   7.427  11.138 -0.1501 -1.2421  0.9864
 3880SOL     OW13080   5.069   7.526   0.983  0.1119  0.0406 -0.3211
 3880SOL    HW113081   5.155   7.523   1.026 -0.3442 -1.2523  0.5495
 3880SOL    HW213082   5.075   7.460   0.914 -0.3883 -0.5219  0.1658
 3881SOL     OW13083   2.111   2.821   8.791 -0.3466  0.1764 -0.0685
 3881SOL    HW113084   2.136   2.790   8.703  1.2277 -0.3600  0.5217
 3881SOL    HW213085   2.141   2.912   8.794  1.4771 -0.4015  0.5630
 3882SOL     OW13086   2.492   4.620  11.603 -0.3366 -0.0364  0.4975
 3882SOL    HW113087   2.578   4.621  11.563 -0.8434 -0.4692 -0.6595
 3882SOL    HW213088   2.433   4.654  11.536 -0.9086  1.5391  1.7257
 3883SOL     OW13089   0.442   6.404   3.440 -0.3913  0.9037 -0.2627
 3883SOL    HW113090   0.521   6.445   3.407 -0.5412  1.4511  0.0526
 3883SOL    HW213091   0.458   6.310   3.431  0.7902  0.9609  0.8922
 3884SOL     OW13092   3.444   3.734   2.820 -0.2059 -0.1344 -0.1507
 3884SOL    HW113093   3.446   3.678   2.898  0.4392 -0.4484 -0.3851
 3884SOL    HW213094   3.366   3.706   2.773 -0.5919  0.0465  0.3714
 3885SOL     OW13095   0.837   4.418   2.601  0.1554 -0.4016  0.8854
 3885SOL    HW113096   0.866   4.329   2.583 -0.3268 -0.0391 -2.2952
 3885SOL    HW213097   0.906   4.474   2.566 -0.3366  0.4762  1.2818
 3886SOL     OW13098   2.339   7.325   0.307 -0.1985  0.9873 -0.3630
 3886SOL    HW113099   2.434   7.329   0.295  0.2380  1.1032  2.3513
 3886SOL    HW213100   2.308   7.413   0.288  0.1859  0.8770 -1.5249
 3887SOL     OW13101   4.748   0.168  11.949  0.3047 -0.2931 -0.0097
 3887SOL    HW113102   4.669   0.128  11.913  1.4583 -0.8060 -2.1085
 3887SOL    HW213103   4.721   0.257  11.973 -1.0702 -0.6918 -0.0106
 3888SOL     OW13104   1.925   6.673   5.074 -0.0680 -0.1704  0.5163
 3888SOL    HW113105   1.864   6.719   5.016  1.9325  3.0759  0.7784
 3888SOL    HW213106   1.894   6.694   5.163  0.3204 -0.1029  0.6380
 3889SOL     OW13107   1.145   0.270  12.044  0.0444 -0.0090  0.4502
 3889SOL    HW113108   1.095   0.349  12.060  1.9056  1.1189  0.9831
 3889SOL    HW213109   1.079   0.202  12.030 -1.6072  1.8645 -1.4516
 3890SOL     OW13110   1.531   0.733  10.905 -0.5133  0.3095  0.3080
 3890SOL    HW113111   1.489   0.808  10.863 -4.1799 -1.2919  0.7362
 3890SOL    HW213112   1.480   0.657  10.876  0.7460 -1.6112  2.6963
 3891SOL     OW13113   3.509   1.484   6.264 -0.0307  0.5949  0.0473
 3891SOL    HW113114   3.492   1.392   6.242 -0.0537  0.8509 -1.0755
 3891SOL    HW213115   3.524   1.526   6.180  2.6915  1.1140  0.6739
 3892SOL     OW13116   4.496   2.410   0.829  0.0164 -0.4372  0.1403
 3892SOL    HW113117   4.544   2.346   0.776  1.1970  0.4512  0.0936
 3892SOL    HW213118   4.512   2.493   0.785 -0.8769 -0.0062  0.6182
 3893SOL     OW13119   7.789   3.122   5.101  0.2082 -0.0539  0.3692
 3893SOL    HW113120   7.815   3.122   5.009  0.9040  1.3750  0.5438
 3893SOL    HW213121   7.836   3.047   5.138  1.2299  0.3273 -0.1014
 3894SOL     OW13122   2.648   6.029  11.818 -0.0233  0.0960  0.1391
 3894SOL    HW113123   2.731   5.983  11.820  0.5695  0.9661 -1.8242
 3894SOL    HW213124   2.582   5.961  11.806  0.3230 -0.6265  1.9992
 3895SOL     OW13125   4.968   1.411  11.580 -0.1252 -0.0312  0.0149
 3895SOL    HW113126   5.034   1.401  11.511  0.0421  0.0652  0.1628
 3895SOL    HW213127   4.983   1.499  11.615 -1.2654  0.5749 -0.9410
 3896SOL     OW13128   0.325   5.014   2.437  0.3185  0.0765  0.1456
 3896SOL    HW113129   0.254   4.999   2.500  1.6388 -0.4043  1.5704
 3896SOL    HW213130   0.293   4.975   2.356 -0.4792 -1.4331  1.1291
 3897SOL     OW13131   0.444   4.025  10.078  0.0615  0.1084  0.0881
 3897SOL    HW113132   0.380   3.965  10.039  0.7161 -1.5994  1.5091
 3897SOL    HW213133   0.523   4.013  10.025  0.5017 -1.1122  0.9672
 3898SOL     OW13134   4.060   0.004   2.117  0.3706  0.4076  0.4587
 3898SOL    HW113135   4.136   0.061   2.104 -0.2039  1.3036  0.9912
 3898SOL    HW213136   4.080  -0.043   2.198  0.6103  0.2291  0.2975
 3899SOL     OW13137   5.284   7.968   3.502 -0.5604 -0.3341  0.4655
 3899SOL    HW113138   5.378   7.952   3.496 -0.3465  1.0633 -0.3137
 3899SOL    HW213139   5.266   7.973   3.596  0.2322 -0.1164  0.6138
 3900SOL     OW13140   1.041   3.844   3.526 -0.0963 -0.3309  0.4522
 3900SOL    HW113141   1.026   3.912   3.460  0.0568 -0.4826  0.2578
 3900SOL    HW213142   1.031   3.889   3.610  0.9788  0.1566  0.3304
 3901SOL     OW13143   4.749   3.063  12.074  0.4674  0.0651 -0.1566
 3901SOL    HW113144   4.783   3.026  12.155 -1.4977 -1.9261 -0.1760
 3901SOL    HW213145   4.711   3.147  12.100  2.2362  0.7331  0.4429
 3902SOL     OW13146   2.798   2.097   3.498  0.0388 -0.4916  0.1401
 3902SOL    HW113147   2.809   2.112   3.592 -0.4392  0.0904  0.1073
 3902SOL    HW213148   2.815   2.182   3.458 -0.3523 -0.5938 -0.2496
 3903SOL     OW13149   6.730   4.447   1.429  0.4648  0.1820  0.0666
 3903SOL    HW113150   6.776   4.417   1.508  0.5795  0.6791  0.1934
 3903SOL    HW213151   6.685   4.527   1.457  1.4091  0.9890 -0.6534
 3904SOL     OW13152   2.137   4.135   5.428 -0.2098 -0.4509  0.6195
 3904SOL    HW113153   2.102   4.048   5.410 -0.6509  0.0024 -0.9159
 3904SOL    HW213154   2.143   4.176   5.341 -0.4887  1.2234  1.3620
 3905SOL     OW13155   6.830   1.902  11.185  0.7500  0.6202 -0.2110
 3905SOL    HW113156   6.844   1.938  11.273  2.0340  1.9758 -0.9425
 3905SOL    HW213157   6.757   1.953  11.150  0.8600  0.7276 -0.2837
 3906SOL     OW13158   2.244   3.772   3.328 -0.0974 -0.1735 -0.7634
 3906SOL    HW113159   2.265   3.827   3.253  2.2044 -0.3411 -0.2899
 3906SOL    HW213160   2.303   3.698   3.322  0.1228 -0.2168  1.1743
 3907SOL     OW13161   6.366   7.082   7.882 -0.4896  0.1275  0.6311
 3907SOL    HW113162   6.429   7.026   7.927  0.5208  1.8526  1.4621
 3907SOL    HW213163   6.313   7.120   7.952 -0.5911  0.8662  0.1591
 3908SOL     OW13164   2.630   3.084  11.339  0.7381  0.4762 -0.2908
 3908SOL    HW113165   2.634   3.008  11.397  0.4154  0.2168 -0.6042
 3908SOL    HW213166   2.690   3.147  11.378 -0.4620  0.8075  1.0615
 3909SOL     OW13167   2.076   0.511   4.087 -0.0936  0.8833 -0.1871
 3909SOL    HW113168   2.164   0.545   4.107 -0.9847  1.8185  2.6668
 3909SOL    HW213169   2.086   0.416   4.090  0.7064  0.9769  0.8121
 3910SOL     OW13170   4.939   6.441   3.808 -0.4319 -0.1565  0.0633
 3910SOL    HW113171   4.935   6.463   3.901  0.5539 -0.6540  0.2343
 3910SOL    HW213172   4.927   6.346   3.806 -0.2217 -0.1744 -0.2986
 3911SOL     OW13173   0.321   0.397  11.607 -0.0955  0.0249 -0.4836
 3911SOL    HW113174   0.286   0.470  11.658  0.6625 -0.3875  0.6710
 3911SOL    HW213175   0.288   0.319  11.651  1.1755 -0.3485 -0.1441
 3912SOL     OW13176   3.876   7.815   4.976  0.1780  0.7731  0.5996
 3912SOL    HW113177   3.837   7.802   5.063 -0.1396  1.7143  0.6061
 3912SOL    HW213178   3.960   7.769   4.981 -0.8252 -1.1847  0.6256
 3913SOL     OW13179   7.572   4.915   9.717  0.0876  0.3591 -0.2455
 3913SOL    HW113180   7.599   4.855   9.647  0.6656  0.1886  0.1185
 3913SOL    HW213181   7.629   4.991   9.705  0.6930  0.0304  0.4775
 3914SOL     OW13182   1.441   6.620   1.852  0.4849 -0.1772 -0.3001
 3914SOL    HW113183   1.487   6.609   1.769  2.2340 -3.7077  0.9188
 3914SOL    HW213184   1.422   6.530   1.881 -1.8323  0.9562  2.2100
 3915SOL     OW13185   5.455   7.758   5.843 -0.4565  0.3630  0.5072
 3915SOL    HW113186   5.524   7.741   5.778 -0.2469  0.3552  0.7315
 3915SOL    HW213187   5.487   7.833   5.893 -0.9282  0.7998  0.1653
 3916SOL     OW13188   6.175   2.793   0.918  0.6534  0.0209 -0.0892
 3916SOL    HW113189   6.174   2.867   0.979  0.5342  0.5756 -0.7552
 3916SOL    HW213190   6.091   2.749   0.931  0.6495  0.1094  0.1799
 3917SOL     OW13191   4.359   6.072   0.795 -0.4028  0.1883 -0.5555
 3917SOL    HW113192   4.358   5.984   0.832  2.8769  0.1616 -0.3061
 3917SOL    HW213193   4.319   6.127   0.862  0.9389 -0.5918  0.9424
 3918SOL     OW13194   2.652   4.930  11.289  0.4543  0.6030 -0.6400
 3918SOL    HW113195   2.706   4.930  11.368  0.8388  0.3567 -0.8995
 3918SOL    HW213196   2.568   4.965  11.318  0.2596 -0.4189  0.1145
 3919SOL     OW13197   0.284   4.376   9.833 -0.0129 -0.4664 -0.6779
 3919SOL    HW113198   0.203   4.369   9.883  0.2229 -0.6457 -0.3122
 3919SOL    HW213199   0.353   4.366   9.899  0.3220  0.8774 -0.8045
 3920SOL     OW13200   0.590   3.510   1.975 -0.3010  0.0896  0.3216
 3920SOL    HW113201   0.555   3.549   1.895  0.1243 -1.0850 -0.4683
 3920SOL    HW213202   0.683   3.531   1.973 -0.2091 -0.3093  0.2771
 3921SOL     OW13203   4.683   6.525   3.154 -0.2154 -0.3319  0.1362
 3921SOL    HW113204   4.650   6.551   3.240 -2.6596  0.0175 -0.8377
 3921SOL    HW213205   4.674   6.604   3.100  0.3589 -0.8167 -0.6878
 3922SOL     OW13206   0.902   0.598   7.050 -0.0662 -0.1536  0.2693
 3922SOL    HW113207   0.934   0.636   6.968  2.9038  0.4361  1.5489
 3922SOL    HW213208   0.955   0.519   7.062 -0.3740 -0.1761  1.6344
 3923SOL     OW13209   4.526   0.365   1.147 -0.3093  0.5023 -0.4486
 3923SOL    HW113210   4.440   0.399   1.123 -1.1405  0.7431  2.4323
 3923SOL    HW213211   4.588   0.417   1.097 -1.8055  0.7643 -2.1177
 3924SOL     OW13212   7.320   5.276   0.584  0.5039 -0.0759  0.5353
 3924SOL    HW113213   7.331   5.355   0.530 -1.0155 -0.1005  0.1309
 3924SOL    HW213214   7.311   5.205   0.520 -0.0003 -0.2962  0.8448
 3925SOL     OW13215   6.167   0.538  10.200  0.0381 -0.8695  0.1784
 3925SOL    HW113216   6.158   0.623  10.245  0.9973 -0.6703  0.0167
 3925SOL    HW213217   6.085   0.492  10.220  0.0392 -0.4094  1.3352
 3926SOL     OW13218   1.216   5.295   9.190 -0.5659  0.0023 -0.3003
 3926SOL    HW113219   1.270   5.335   9.259 -0.8372 -0.5603  0.2524
 3926SOL    HW213220   1.138   5.350   9.186 -0.0249  0.7335 -1.0003
 3927SOL     OW13221   1.564   4.597   2.148  0.4050  0.3663  0.2244
 3927SOL    HW113222   1.591   4.612   2.057  0.9671 -1.9582 -0.0820
 3927SOL    HW213223   1.485   4.543   2.140 -0.2534  1.1736  1.1338
 3928SOL     OW13224   2.969   7.243   0.848  0.2905 -0.7493  0.4297
 3928SOL    HW113225   2.956   7.163   0.798 -0.2226 -0.2470 -0.2609
 3928SOL    HW213226   2.938   7.313   0.791 -1.2105 -0.2327  1.7680
 3929SOL     OW13227   1.598   4.715   9.255  0.3002 -0.2698  0.4103
 3929SOL    HW113228   1.581   4.779   9.324  1.1193  2.1046 -1.4505
 3929SOL    HW213229   1.554   4.749   9.178  2.4833 -0.7964 -1.1857
 3930SOL     OW13230   7.283   7.127  11.870  0.4957  0.4149  0.1067
 3930SOL    HW113231   7.227   7.198  11.838  0.6158  0.3505 -0.2572
 3930SOL    HW213232   7.225   7.072  11.922  0.1363  0.1728 -0.5316
 3931SOL     OW13233   4.216   2.663   1.189  0.2172  0.1551  0.1209
 3931SOL    HW113234   4.254   2.657   1.102  0.0912  0.4380  0.0453
 3931SOL    HW213235   4.189   2.574   1.211 -0.0001  0.1333 -0.2395
 3932SOL     OW13236   4.048   3.162   0.076 -0.3066 -0.0271 -0.0194
 3932SOL    HW113237   3.965   3.177   0.121 -0.1629 -0.4101  0.3776
 3932SOL    HW213238   4.035   3.200  -0.011 -0.0749  2.1420  0.8224
 3933SOL     OW13239   2.488   3.256   0.444 -0.2056 -0.1697 -0.1797
 3933SOL    HW113240   2.466   3.212   0.362 -2.9023 -0.3465  0.5480
 3933SOL    HW213241   2.533   3.189   0.496  0.9409 -0.2442 -1.2331
 3934SOL     OW13242   4.404   6.286   0.011  0.5901 -0.3821 -0.3951
 3934SOL    HW113243   4.395   6.212   0.071 -3.7509  2.2930  2.8432
 3934SOL    HW213244   4.356   6.258  -0.068  0.8244 -1.7091 -0.1020
 3935SOL     OW13245   3.760   0.596   3.647  0.1766 -0.4568 -0.1293
 3935SOL    HW113246   3.823   0.539   3.603 -0.4677 -1.1692 -0.1582
 3935SOL    HW213247   3.704   0.535   3.696 -1.5462 -0.0169 -1.4520
 3936SOL     OW13248   7.634   4.432   4.015  0.2531 -0.3622 -0.0155
 3936SOL    HW113249   7.713   4.479   3.989 -0.8005  0.9355 -1.0735
 3936SOL    HW213250   7.604   4.477   4.094 -0.3571  0.2907 -0.6089
 3937SOL     OW13251   2.182   2.618  12.252  0.1297 -0.0561  0.8870
 3937SOL    HW113252   2.214   2.704  12.226  1.2182 -0.6865  0.0875
 3937SOL    HW213253   2.088   2.620  12.231  0.2703  0.7143  0.3159
 3938SOL     OW13254   4.173   2.886   5.701 -0.0509  0.4959 -0.6931
 3938SOL    HW113255   4.078   2.897   5.702 -0.4785 -2.4285 -0.4682
 3938SOL    HW213256   4.189   2.808   5.754  2.3889  0.3674 -1.4925
 3939SOL     OW13257   3.283   2.987   0.135  0.2279  0.8554 -0.4134
 3939SOL    HW113258   3.188   2.995   0.146  0.0814 -1.4175  0.5450
 3939SOL    HW213259   3.294   2.931   0.058  0.7725  0.5728 -0.1367
 3940SOL     OW13260   7.154   0.915   9.596 -0.3105  0.8997 -0.4815
 3940SOL    HW113261   7.156   0.917   9.692  1.7280  0.7387 -0.4740
 3940SOL    HW213262   7.069   0.879   9.575 -1.1073  1.6219  1.2580
 3941SOL     OW13263   1.600   1.104   8.463  0.0059 -0.3063  0.3784
 3941SOL    HW113264   1.643   1.088   8.379  1.6041  0.8185  0.9295
 3941SOL    HW213265   1.635   1.188   8.492 -0.1685 -0.8727  2.3886
 3942SOL     OW13266   5.859   3.929   1.951 -0.2100  0.1023 -0.0342
 3942SOL    HW113267   5.800   3.887   1.888 -0.5652 -1.0640  1.0167
 3942SOL    HW213268   5.863   3.867   2.024 -1.7364  2.4201  2.1760
 3943SOL     OW13269   4.087   1.127   3.507  0.5906  0.1915  0.2872
 3943SOL    HW113270   4.171   1.137   3.463  0.5490  2.2305  0.5719
 3943SOL    HW213271   4.023   1.157   3.442  0.4145  1.9420  1.2145
 3944SOL     OW13272   6.240   2.968   3.501  0.3707 -0.2919  0.3545
 3944SOL    HW113273   6.206   3.010   3.579  1.8426  1.2267  0.2319
 3944SOL    HW213274   6.251   3.039   3.438  0.1937 -1.3225 -0.8804
 3945SOL     OW13275   1.212   1.707   0.295 -0.0179 -0.0593  0.5557
 3945SOL    HW113276   1.242   1.795   0.271  1.2225 -0.4986  0.3825
 3945SOL    HW213277   1.246   1.694   0.384 -3.4538  1.0519  2.1768
 3946SOL     OW13278   3.553   4.157   5.520  0.5003  0.0633 -0.7314
 3946SOL    HW113279   3.533   4.065   5.504 -0.1521  0.3335 -1.5345
 3946SOL    HW213280   3.647   4.159   5.536  0.3078 -0.9199  0.6689
 3947SOL     OW13281   2.854   4.286   3.110 -0.0627 -0.4397 -0.2077
 3947SOL    HW113282   2.872   4.201   3.071  0.9384  0.5249 -1.9345
 3947SOL    HW213283   2.851   4.347   3.036 -0.4723  1.0783  1.0059
 3948SOL     OW13284   1.165   6.583   0.801 -0.0174 -0.2609 -0.3726
 3948SOL    HW113285   1.070   6.585   0.812  0.0431  2.0753  0.1407
 3948SOL    HW213286   1.191   6.675   0.794  2.0237 -0.8741 -2.2513
 3949SOL     OW13287   3.325   2.820   2.119 -0.0199  0.0717 -0.3373
 3949SOL    HW113288   3.385   2.746   2.111 -0.0977 -0.0168 -0.0971
 3949SOL    HW213289   3.382   2.897   2.108  0.4612  0.0489  1.5998
 3950SOL     OW13290   7.483   2.708   8.861 -0.2238  0.6049  0.9302
 3950SOL    HW113291   7.460   2.725   8.952  0.9579 -0.3080  1.4195
 3950SOL    HW213292   7.578   2.704   8.860 -0.2163  0.5505 -0.3441
 3951SOL     OW13293   0.768   4.275   8.639 -0.4181 -0.4529 -0.6263
 3951SOL    HW113294   0.792   4.213   8.570  0.8283 -0.7957  0.0815
 3951SOL    HW213295   0.789   4.230   8.721  3.0808  1.7135 -0.0618
 3952SOL     OW13296   1.649   3.813   4.107  0.6461 -0.4323  0.3560
 3952SOL    HW113297   1.644   3.749   4.036  1.4488 -0.4457  0.3061
 3952SOL    HW213298   1.740   3.842   4.107  0.3992  0.3711  0.6796
 3953SOL     OW13299   2.246   6.563   5.792 -0.0973 -0.1553 -0.4520
 3953SOL    HW113300   2.223   6.656   5.794 -0.3421 -0.2205 -0.2318
 3953SOL    HW213301   2.319   6.558   5.729 -0.0107  0.1998 -0.3840
 3954SOL     OW13302   0.496   0.785   0.131  0.2470 -0.4158  0.4842
 3954SOL    HW113303   0.528   0.735   0.056 -0.2028  0.9627 -0.6899
 3954SOL    HW213304   0.516   0.876   0.108  0.2622  0.0268  2.1441
 3955SOL     OW13305   2.324   2.689  11.316 -0.2165 -0.0435 -0.3243
 3955SOL    HW113306   2.282   2.605  11.334  0.6332 -0.0987  1.6250
 3955SOL    HW213307   2.410   2.665  11.280 -0.3463  0.0073 -0.6691
 3956SOL     OW13308   5.507   5.242   4.185  0.5331  0.4289  0.3259
 3956SOL    HW113309   5.426   5.201   4.157  0.8513 -0.6739  0.9491
 3956SOL    HW213310   5.575   5.180   4.159  0.9213 -0.1884  2.5940
 3957SOL     OW13311   1.918   5.618   3.256 -0.0714  0.2941 -0.1343
 3957SOL    HW113312   1.903   5.711   3.236  0.0431  0.5028  0.7362
 3957SOL    HW213313   2.002   5.599   3.215  0.7431  1.0427  1.1069
 3958SOL     OW13314   3.875   7.873   1.294  0.0961  0.0159 -0.3368
 3958SOL    HW113315   3.795   7.882   1.243 -0.7400 -0.4826  0.8639
 3958SOL    HW213316   3.849   7.892   1.384  1.3492 -0.0459  0.0559
 3959SOL     OW13317   4.548   0.011   5.808 -0.1786  0.1519 -0.0043
 3959SOL    HW113318   4.604  -0.066   5.817  0.7938  1.0269  2.0720
 3959SOL    HW213319   4.609   0.084   5.800 -1.0607  0.8721 -0.3107
 3960SOL     OW13320   3.242   5.714   7.566 -0.1038  0.3490  0.4491
 3960SOL    HW113321   3.231   5.708   7.661  1.7964 -1.7114  0.6258
 3960SOL    HW213322   3.312   5.778   7.553 -1.4632  1.8643  0.2780
 3961SOL     OW13323   3.474   3.422   2.308  0.8600  0.3428  0.4014
 3961SOL    HW113324   3.521   3.492   2.352  2.0153  0.9279 -1.6225
 3961SOL    HW213325   3.382   3.436   2.332  1.2580  1.5357  1.3306
 3962SOL     OW13326   5.497   1.313  12.244  0.4021  0.3874  0.7082
 3962SOL    HW113327   5.416   1.327  12.293 -0.2187  1.0419 -0.4711
 3962SOL    HW213328   5.561   1.286  12.311 -0.8822 -0.5931  1.5938
 3963SOL     OW13329   4.169   1.943  10.689 -0.4831 -0.2540 -0.1286
 3963SOL    HW113330   4.238   1.940  10.754  0.3587 -1.6691 -1.0362
 3963SOL    HW213331   4.160   2.036  10.666  0.7441 -0.0016  0.3839
 3964SOL     OW13332   4.529   4.439   6.199  0.5826  0.1227  0.5689
 3964SOL    HW113333   4.473   4.500   6.150  0.8929 -0.4218 -0.4962
 3964SOL    HW213334   4.496   4.443   6.288 -0.1995  0.9274  0.2609
 3965SOL     OW13335   0.976   1.540   6.043 -0.3792 -0.1440 -0.2136
 3965SOL    HW113336   1.050   1.569   6.096  1.0823 -1.6186 -1.3448
 3965SOL    HW213337   1.007   1.548   5.952 -1.4209 -1.2229 -0.6907
 3966SOL     OW13338   6.490   4.509   6.679  0.0610 -0.5129  0.5953
 3966SOL    HW113339   6.484   4.581   6.616  0.1862  0.3577  1.5432
 3966SOL    HW213340   6.399   4.490   6.702 -0.0965 -1.9740 -1.0582
 3967SOL     OW13341   7.727   6.075   5.491  0.0656  0.5985 -0.4742
 3967SOL    HW113342   7.727   6.069   5.586  2.5603  0.5446 -0.4126
 3967SOL    HW213343   7.661   6.012   5.463 -0.4624  0.3523  1.1851
 3968SOL     OW13344   7.628   5.628   5.382 -0.3596  0.0936 -0.0366
 3968SOL    HW113345   7.554   5.568   5.392  0.0547 -0.4301 -0.0265
 3968SOL    HW213346   7.660   5.642   5.471 -1.2543  1.3756  0.0948
 3969SOL     OW13347   5.169   7.188   3.622  0.2271 -0.4228  0.1776
 3969SOL    HW113348   5.105   7.256   3.640 -0.9948 -1.9505  2.0102
 3969SOL    HW213349   5.139   7.146   3.542 -0.6586 -0.6330  0.6133
 3970SOL     OW13350   2.308   6.041   1.635 -0.5595  0.0401 -0.1962
 3970SOL    HW113351   2.245   5.989   1.686  1.1024 -0.7717  1.1145
 3970SOL    HW213352   2.368   5.977   1.599 -0.9016  0.7427 -2.1115
 3971SOL     OW13353   4.754   4.278   8.587  0.3327  0.5074  0.1783
 3971SOL    HW113354   4.798   4.234   8.659  1.1299 -1.6824 -1.5173
 3971SOL    HW213355   4.661   4.257   8.600  0.5910 -0.8839 -0.0138
 3972SOL     OW13356   2.744   6.649  11.041 -0.0091  0.4830  0.5241
 3972SOL    HW113357   2.837   6.671  11.041 -0.2966  1.8893  1.9565
 3972SOL    HW213358   2.718   6.656  10.949  1.1445  0.7606  0.2065
 3973SOL     OW13359   5.243   0.911   2.233 -0.4169  0.0874  0.1246
 3973SOL    HW113360   5.193   0.943   2.308  0.0087 -0.2093  0.5405
 3973SOL    HW213361   5.300   0.984   2.208  0.2250 -0.1748  0.7831
 3974SOL     OW13362   7.089   7.978   3.125 -0.1880 -0.3075  0.0641
 3974SOL    HW113363   7.088   8.073   3.141  0.1295  0.0604 -1.8554
 3974SOL    HW213364   7.001   7.959   3.094  0.2345 -0.3042 -1.1814
 3975SOL     OW13365   4.921   7.228   8.082  0.0057 -0.0059  0.1458
 3975SOL    HW113366   4.960   7.312   8.107  2.3563 -1.2132  0.8498
 3975SOL    HW213367   4.927   7.174   8.161  0.7338 -1.5503 -0.8997
 3976SOL     OW13368   5.191   2.985   0.271  0.4704 -0.0742 -0.2030
 3976SOL    HW113369   5.102   2.961   0.249 -0.2267  0.1614  2.0454
 3976SOL    HW213370   5.219   3.045   0.202 -0.6604 -1.0600 -1.5533
 3977SOL     OW13371   1.201   7.038   8.452  0.0151  0.1121  0.1713
 3977SOL    HW113372   1.175   7.009   8.539  1.1728  1.4208  1.0000
 3977SOL    HW213373   1.147   7.116   8.436 -0.5811 -0.4341 -0.5231
 3978SOL     OW13374   0.630   1.148  10.478  0.1130  0.2658  0.7785
 3978SOL    HW113375   0.545   1.121  10.442  0.2442  0.3133  0.4269
 3978SOL    HW213376   0.693   1.089  10.436  0.3998  1.0966  0.0238
 3979SOL     OW13377   3.386   5.285   6.492  0.6252 -0.0209  0.1458
 3979SOL    HW113378   3.459   5.286   6.555  1.8196  0.3722 -1.1743
 3979SOL    HW213379   3.308   5.279   6.546  1.5258  1.4657  1.7358
 3980SOL     OW13380   6.087   1.949   1.207 -0.4772 -0.3729 -0.3537
 3980SOL    HW113381   6.037   2.014   1.158  1.4236  0.2092 -1.6254
 3980SOL    HW213382   6.176   1.984   1.210  0.0363 -1.6634  1.2779
 3981SOL     OW13383   1.605   4.742   2.734 -0.0861 -0.2184  0.2133
 3981SOL    HW113384   1.591   4.803   2.662  0.1317 -1.3476 -0.8252
 3981SOL    HW213385   1.563   4.783   2.809  1.3466  1.9098 -0.0722
 3982SOL     OW13386   2.318   1.863  10.550  0.0740  0.0974  0.5468
 3982SOL    HW113387   2.267   1.938  10.581  0.3887 -0.7145  3.2543
 3982SOL    HW213388   2.252   1.802  10.518 -0.3143  0.7426  0.0705
 3983SOL     OW13389   3.421   4.376   9.082 -0.3144 -0.0741  0.5026
 3983SOL    HW113390   3.389   4.380   9.173  1.6571 -0.2996  1.2411
 3983SOL    HW213391   3.394   4.290   9.051 -0.1164 -0.4083  1.2345
 3984SOL     OW13392   0.537   7.963  11.331  0.4002  0.0976 -0.1122
 3984SOL    HW113393   0.508   7.890  11.386 -0.4807  0.9901  0.6598
 3984SOL    HW213394   0.502   7.943  11.244 -0.1958 -0.1970  0.1852
 3985SOL     OW13395   7.669   0.810   1.269  0.3207  0.0728  0.3955
 3985SOL    HW113396   7.646   0.858   1.348  1.8523  0.0547  0.8756
 3985SOL    HW213397   7.744   0.857   1.233  0.9224 -1.1063  0.0637
 3986SOL     OW13398   1.957   4.170   2.095 -0.2478  0.1552 -0.1110
 3986SOL    HW113399   1.865   4.188   2.079 -0.3813 -1.6515 -1.8267
 3986SOL    HW213400   2.001   4.195   2.014  0.6623  0.2866  0.4066
 3987SOL     OW13401   5.636   6.850   9.720  0.2439  0.2889  0.1279
 3987SOL    HW113402   5.661   6.757   9.722 -1.3542 -0.1646  0.5798
 3987SOL    HW213403   5.655   6.882   9.808 -1.0556 -0.1512  0.5844
 3988SOL     OW13404   2.291   5.152   7.317  0.3034 -0.0800 -0.3079
 3988SOL    HW113405   2.264   5.062   7.337  1.1658 -0.2487  0.1321
 3988SOL    HW213406   2.341   5.145   7.237  0.3827  0.0082 -0.2658
 3989SOL     OW13407   4.378   2.498   9.918 -0.0518 -0.4396  0.6608
 3989SOL    HW113408   4.468   2.527   9.912 -0.4306  0.6940  0.2367
 3989SOL    HW213409   4.340   2.551   9.989 -0.8248  0.3419 -0.3130
 3990SOL     OW13410   5.493   0.160   1.842 -0.8020  0.4677 -0.2856
 3990SOL    HW113411   5.484   0.126   1.752 -1.1678 -0.7165  0.1710
 3990SOL    HW213412   5.506   0.254   1.831 -1.2614  0.4082 -1.5666
 3991SOL     OW13413   1.457   4.476   6.293  0.3213 -0.6801  0.1131
 3991SOL    HW113414   1.470   4.520   6.208  1.2624 -0.1428  0.5264
 3991SOL    HW213415   1.440   4.548   6.354 -0.9396 -1.1033  0.2982
 3992SOL     OW13416   5.153   6.416  10.204  0.4635 -0.1519  0.3145
 3992SOL    HW113417   5.066   6.415  10.243 -0.0601  1.1859 -0.7271
 3992SOL    HW213418   5.166   6.327  10.171 -1.1281  0.0056 -0.8191
 3993SOL     OW13419   7.608   3.769   4.676 -0.7354  0.2992  0.0517
 3993SOL    HW113420   7.522   3.727   4.665 -0.9694  0.8868 -0.4727
 3993SOL    HW213421   7.640   3.779   4.587 -0.6432  1.1332  0.1750
 3994SOL     OW13422   6.717   1.079   8.772  0.2599 -0.1823  0.1745
 3994SOL    HW113423   6.795   1.121   8.808  0.3210 -0.0792 -0.0759
 3994SOL    HW213424   6.708   1.117   8.685 -0.9946  0.9978  0.7989
 3995SOL     OW13425   1.837   4.893   3.422  0.1454 -0.0823  0.2754
 3995SOL    HW113426   1.830   4.884   3.517  1.4209 -0.3869  0.3456
 3995SOL    HW213427   1.771   4.832   3.388  0.5100 -0.8732  0.9447
 3996SOL     OW13428   6.897   3.590   7.079 -0.4175  0.4816 -0.0683
 3996SOL    HW113429   6.966   3.599   7.145  1.6419  2.9226 -2.3093
 3996SOL    HW213430   6.884   3.496   7.071  2.4521 -0.1048  0.7165
 3997SOL     OW13431   7.086   6.819   9.616  0.1084  0.0946 -0.3416
 3997SOL    HW113432   7.150   6.848   9.681 -1.4604  1.4653  0.6547
 3997SOL    HW213433   7.089   6.886   9.547 -0.2531  0.1679 -0.2878
 3998SOL     OW13434   5.251   6.317   9.247 -0.2283 -0.4626 -0.4375
 3998SOL    HW113435   5.176   6.376   9.251 -0.7119 -1.0646 -0.4432
 3998SOL    HW213436   5.313   6.360   9.188 -0.0696  0.5856  0.4723
 3999SOL     OW13437   1.489   2.662  10.964  0.2148 -0.2524  0.5458
 3999SOL    HW113438   1.525   2.580  10.930 -1.7115 -1.5982  1.6058
 3999SOL    HW213439   1.528   2.670  11.051  1.0549  0.4488  0.1269
 4000SOL     OW13440   4.298   1.968   8.221  0.1275 -0.1555 -0.0455
 4000SOL    HW113441   4.238   2.041   8.233  1.6827  1.6744 -2.3167
 4000SOL    HW213442   4.343   1.959   8.305 -1.3678  0.2458  0.8242
 4001SOL     OW13443   3.266   0.795   5.465 -0.2730 -0.2912  0.4332
 4001SOL    HW113444   3.350   0.838   5.446  0.4025 -1.8568 -0.3556
 4001SOL    HW213445   3.200   0.854   5.430  0.6689 -0.3910 -1.6876
 4002SOL     OW13446   5.532   2.354   7.355 -0.2079 -0.6607 -0.6368
 4002SOL    HW113447   5.449   2.396   7.332 -0.3919  0.0953  1.2666
 4002SOL    HW213448   5.528   2.269   7.310 -2.0130 -0.6478 -0.6039
 4003SOL     OW13449   1.296   1.969   0.257  0.3481  0.4482  0.1937
 4003SOL    HW113450   1.339   1.966   0.172  1.1044 -0.1159  0.5898
 4003SOL    HW213451   1.287   2.063   0.276 -1.7254  0.6316 -1.4286
 4004SOL     OW13452   6.093   3.933   4.134 -0.4760  0.2210  0.3423
 4004SOL    HW113453   6.013   3.888   4.162 -0.5951  0.4959  0.4410
 4004SOL    HW213454   6.139   3.868   4.080 -0.9499  0.1923 -0.0352
 4005SOL     OW13455   0.369   0.228   0.287 -0.5674 -0.1788  0.3570
 4005SOL    HW113456   0.378   0.310   0.335 -1.0360  0.2047 -0.1945
 4005SOL    HW213457   0.439   0.172   0.321 -0.9573  0.0398  1.5523
 4006SOL     OW13458   7.842   6.419   5.250  0.2890  0.0247  0.1596
 4006SOL    HW113459   7.841   6.454   5.161 -2.4674 -0.1440  0.0477
 4006SOL    HW213460   7.815   6.493   5.305  0.4879 -0.2791  0.6768
 4007SOL     OW13461   4.384   7.493   1.231 -0.3074 -0.3455  0.1549
 4007SOL    HW113462   4.336   7.463   1.153 -0.2027 -0.1944  0.0321
 4007SOL    HW213463   4.386   7.588   1.222  1.9965 -0.4319 -1.0335
 4008SOL     OW13464   5.067   0.051  11.264  0.4678 -0.1159 -0.2650
 4008SOL    HW113465   5.060   0.035  11.170  1.4974 -3.1312  0.0821
 4008SOL    HW213466   5.131   0.122  11.272  1.5706 -0.8921 -1.7926
 4009SOL     OW13467   1.904   6.800  11.644  0.6948 -0.2301 -0.1914
 4009SOL    HW113468   1.914   6.870  11.580  1.7803  0.1075  0.3340
 4009SOL    HW213469   1.978   6.742  11.628  1.4524  0.2952  1.2908
 4010SOL     OW13470   0.071   2.564  11.625 -0.7188 -0.2093  0.1485
 4010SOL    HW113471   0.166   2.567  11.634 -0.5766  1.0533 -1.3474
 4010SOL    HW213472   0.038   2.591  11.711  0.1761 -2.9370  1.4611
 4011SOL     OW13473   6.803   4.650   3.275 -0.6144  0.6022 -0.0969
 4011SOL    HW113474   6.727   4.647   3.333 -0.1084  0.8887  0.5910
 4011SOL    HW213475   6.822   4.744   3.264 -0.1446  0.5255  0.0248
 4012SOL     OW13476   3.577   6.764  11.720 -0.3861  0.2911 -0.1565
 4012SOL    HW113477   3.557   6.812  11.800 -1.6330  1.0263 -0.8874
 4012SOL    HW213478   3.671   6.777  11.708 -0.4940  1.6266  0.2560
 4013SOL     OW13479   6.813   4.826   9.492 -0.7138 -0.1847  0.0345
 4013SOL    HW113480   6.842   4.917   9.482 -1.5325 -0.1121 -2.0490
 4013SOL    HW213481   6.830   4.806   9.584  1.9273  1.2084 -0.0582
 4014SOL     OW13482   3.178   2.655   3.083  0.2761 -0.5572  0.0150
 4014SOL    HW113483   3.179   2.598   3.006  2.1714  0.6705 -0.9401
 4014SOL    HW213484   3.152   2.741   3.049 -0.0259 -0.2519  0.9745
 4015SOL     OW13485   0.502   1.781   0.032  0.0929 -0.2942 -0.1734
 4015SOL    HW113486   0.546   1.863   0.008 -0.3592  0.6454  1.9652
 4015SOL    HW213487   0.573   1.720   0.049  0.5064  0.2808  0.2118
 4016SOL     OW13488   2.399   2.231   8.908 -0.0915 -0.1258  0.3530
 4016SOL    HW113489   2.378   2.142   8.882  1.3092 -0.6310  0.8618
 4016SOL    HW213490   2.469   2.221   8.973  0.0150  1.3317  0.4935
 4017SOL     OW13491   0.420   3.278   3.971  0.3600  0.0278 -0.8077
 4017SOL    HW113492   0.370   3.327   4.036  1.1979  1.5080 -1.2294
 4017SOL    HW213493   0.368   3.199   3.955  1.5791 -2.1056  3.9410
 4018SOL     OW13494   1.645   6.096   4.478  0.1622  0.5981 -0.2824
 4018SOL    HW113495   1.556   6.071   4.503  0.2570  0.3099 -0.2361
 4018SOL    HW213496   1.666   6.170   4.534 -0.0534  0.6758 -0.3025
 4019SOL     OW13497   1.020   0.115  12.438  0.4572  0.4612 -0.5503
 4019SOL    HW113498   0.949   0.161  12.394 -0.5399 -1.7958 -1.4326
 4019SOL    HW213499   1.098   0.168  12.419 -0.9578  3.1452  0.6914
 4020SOL     OW13500   2.893   4.610   7.908 -0.4796  0.2102  0.2114
 4020SOL    HW113501   2.810   4.566   7.926 -0.6425  0.1909 -0.5671
 4020SOL    HW213502   2.960   4.542   7.922 -0.5398  0.3752  1.3921
 4021SOL     OW13503   3.118   1.369   4.826  0.3099  0.4497 -0.1595
 4021SOL    HW113504   3.116   1.327   4.740  1.8741  0.3061 -0.1625
 4021SOL    HW213505   3.190   1.432   4.820  2.2670 -1.4057  1.7935
 4022SOL     OW13506   7.049   2.318  10.449 -0.3755 -0.5864 -0.2472
 4022SOL    HW113507   7.008   2.391  10.402 -0.1971  0.0025  0.5018
 4022SOL    HW213508   7.109   2.280  10.385 -0.2075  0.1499 -0.5400
 4023SOL     OW13509   6.742   0.219   1.036  0.0992  0.1028 -0.4846
 4023SOL    HW113510   6.685   0.272   1.092  1.2769  0.8387  0.0462
 4023SOL    HW213511   6.815   0.277   1.014  1.2145 -1.1592 -0.2405
 4024SOL     OW13512   6.136   4.878   8.762 -0.2483 -0.5591 -0.9396
 4024SOL    HW113513   6.196   4.850   8.693 -0.6730  0.2242 -1.6479
 4024SOL    HW213514   6.136   4.974   8.756  2.0667 -0.1746  2.1389
 4025SOL     OW13515   7.807   0.006   3.663  0.1119  0.1522  0.0528
 4025SOL    HW113516   7.897   0.035   3.648  0.8147 -0.9593  1.8527
 4025SOL    HW213517   7.790   0.026   3.755 -0.4667 -2.1945  0.5176
 4026SOL     OW13518   1.105   5.593   0.611 -0.5172 -0.4544  0.4292
 4026SOL    HW113519   1.054   5.668   0.643  3.2657  1.5704  2.4870
 4026SOL    HW213520   1.129   5.618   0.521  0.7489  0.9443  1.1085
 4027SOL     OW13521   2.306   6.552   4.035  0.3945 -0.5660 -0.0964
 4027SOL    HW113522   2.327   6.547   3.942 -0.1689  1.2909 -0.3727
 4027SOL    HW213523   2.391   6.549   4.079  0.7922  0.2348 -0.7860
 4028SOL     OW13524   3.332   5.391   5.699 -0.1771  0.0884  1.0733
 4028SOL    HW113525   3.307   5.342   5.778 -1.0854 -1.5527 -0.1688
 4028SOL    HW213526   3.324   5.328   5.628  0.4719  1.5672 -0.3846
 4029SOL     OW13527   0.138   3.519   0.047 -0.3371  0.1194 -0.3790
 4029SOL    HW113528   0.189   3.439   0.063 -1.7154 -0.8352 -0.5103
 4029SOL    HW213529   0.079   3.524   0.123 -0.3531  0.9495 -0.4437
 4030SOL     OW13530   0.603   5.529   9.260  0.0578  0.0333 -0.3822
 4030SOL    HW113531   0.671   5.528   9.193 -0.4195 -0.3761 -0.8791
 4030SOL    HW213532   0.525   5.497   9.214  0.3940 -3.3265  1.1153
 4031SOL     OW13533   0.643   5.935  10.401 -0.1557 -0.3030 -0.2039
 4031SOL    HW113534   0.630   6.029  10.411  0.1210 -0.3301  0.4297
 4031SOL    HW213535   0.625   5.898  10.487 -0.6577 -0.8800 -0.5493
 4032SOL     OW13536   5.038   0.933   3.039  0.2021 -0.5759 -0.0609
 4032SOL    HW113537   4.974   0.987   3.086 -0.5799  0.0021 -1.7050
 4032SOL    HW213538   5.119   0.984   3.040 -1.0783  1.9308 -3.5660
 4033SOL     OW13539   3.809   4.239   1.064 -0.6519  0.2100  0.2644
 4033SOL    HW113540   3.881   4.207   1.119 -0.7850 -2.0638 -0.7579
 4033SOL    HW213541   3.852   4.280   0.990 -0.4671  1.8462  1.2395
 4034SOL     OW13542   0.676   3.452   2.441 -0.0420 -0.3149 -0.0269
 4034SOL    HW113543   0.634   3.512   2.380 -0.4287 -0.3593  0.1972
 4034SOL    HW213544   0.656   3.365   2.407  0.3267 -0.3285 -0.2222
 4035SOL     OW13545   6.173   6.121   8.758  0.0796 -0.5635  0.0478
 4035SOL    HW113546   6.207   6.089   8.674  2.3357  1.0218  0.2551
 4035SOL    HW213547   6.246   6.112   8.819 -0.1279  1.9787  0.8282
 4036SOL     OW13548   1.751   7.809   5.412 -0.2312 -0.6353  0.0215
 4036SOL    HW113549   1.669   7.759   5.419  1.0595 -2.7081  1.3411
 4036SOL    HW213550   1.812   7.748   5.371  1.1451  0.2343  0.7195
 4037SOL     OW13551   6.496   6.153  11.572  0.2236  0.0584  0.3141
 4037SOL    HW113552   6.526   6.150  11.663 -0.0732  0.4494  0.4242
 4037SOL    HW213553   6.536   6.233  11.537  1.2410 -0.6567 -0.2197
 4038SOL     OW13554   2.304   3.911   3.092 -0.4235 -0.2853 -0.6891
 4038SOL    HW113555   2.280   4.003   3.078  0.6007 -0.2206 -2.3548
 4038SOL    HW213556   2.298   3.872   3.005  1.3945 -1.2248 -0.4463
 4039SOL     OW13557   1.548   5.919   6.829 -0.5616 -0.6388 -0.2877
 4039SOL    HW113558   1.472   5.950   6.780  0.6065  0.6965 -1.3088
 4039SOL    HW213559   1.620   5.975   6.801  0.4887 -0.8069  1.8564
 4040SOL     OW13560   4.004   3.609   3.793  0.2946 -0.0100 -0.3384
 4040SOL    HW113561   4.066   3.680   3.809 -0.2067  0.9135 -2.2337
 4040SOL    HW213562   3.958   3.635   3.713 -1.8541 -1.1241  0.4527
 4041SOL     OW13563   7.664   3.024   6.159  0.4729  0.1066  0.5842
 4041SOL    HW113564   7.738   2.971   6.187  0.5609  1.0997  2.3743
 4041SOL    HW213565   7.591   2.996   6.214  0.1710  0.8606  0.5837
 4042SOL     OW13566   0.259   5.237   7.125 -0.3086  0.1514 -0.6707
 4042SOL    HW113567   0.273   5.261   7.034  0.4449 -0.2559 -0.6653
 4042SOL    HW213568   0.273   5.143   7.128 -2.3971 -0.2005 -0.5210
 4043SOL     OW13569   5.053   1.815   0.321  0.2863 -0.1513  0.6041
 4043SOL    HW113570   5.118   1.789   0.387 -0.3509 -0.1028  1.2621
 4043SOL    HW213571   5.031   1.905   0.342 -0.3468 -0.3164  0.6922
 4044SOL     OW13572   0.810   7.350   0.077 -0.2377 -0.1700 -0.1509
 4044SOL    HW113573   0.773   7.296   0.146 -0.5388 -1.1298 -1.0277
 4044SOL    HW213574   0.750   7.424   0.069  0.7285  0.8829  1.7602
 4045SOL     OW13575   7.696   0.153   2.344  0.7517 -0.1589  0.2901
 4045SOL    HW113576   7.759   0.082   2.338 -0.5416 -1.4537  1.2538
 4045SOL    HW213577   7.730   0.221   2.286  2.7577 -0.9833  0.4416
 4046SOL     OW13578   5.011   5.881   0.172 -0.0070  0.0739 -0.3797
 4046SOL    HW113579   4.938   5.897   0.112 -0.8422 -0.2013  0.5300
 4046SOL    HW213580   5.015   5.960   0.227 -2.0905 -1.3462  2.0322
 4047SOL     OW13581   3.377   7.260   7.844 -0.0193 -0.5902  0.1460
 4047SOL    HW113582   3.449   7.218   7.891 -0.5025  1.7936  3.4241
 4047SOL    HW213583   3.313   7.190   7.831  0.7297 -1.7063  2.0035
 4048SOL     OW13584   1.383   2.099   1.468  0.3289 -0.8682  0.0410
 4048SOL    HW113585   1.288   2.097   1.459  0.4853 -1.1739 -1.9138
 4048SOL    HW213586   1.398   2.139   1.554 -1.5515 -1.4568  0.7003
 4049SOL     OW13587   7.125   1.914   3.241 -0.6522  0.1703  0.2314
 4049SOL    HW113588   7.068   1.943   3.169 -0.9045  0.2327  0.4546
 4049SOL    HW213589   7.138   1.820   3.224 -1.3412  0.0156  0.5265
 4050SOL     OW13590   1.696   0.068   3.531  0.2706  0.6076  0.2166
 4050SOL    HW113591   1.641   0.143   3.505  2.1146  1.3512 -1.9359
 4050SOL    HW213592   1.664  -0.004   3.478 -0.4895  0.2425  1.1428
 4051SOL     OW13593   2.092   7.807   5.203 -0.6883  0.1251 -0.2953
 4051SOL    HW113594   2.019   7.752   5.231  0.1619 -1.8876 -1.7961
 4051SOL    HW213595   2.159   7.745   5.173  1.8023  1.8435  1.2833
 4052SOL     OW13596   1.851   5.549  11.404  0.1883  0.2413  0.3400
 4052SOL    HW113597   1.836   5.640  11.432  0.6492  0.3857  0.1306
 4052SOL    HW213598   1.864   5.555  11.309 -0.9443 -0.1963  0.1453
 4053SOL     OW13599   7.722   7.008   1.386 -0.4051  0.7536  0.4385
 4053SOL    HW113600   7.719   6.946   1.458  2.4111 -2.8496 -2.1254
 4053SOL    HW213601   7.672   6.967   1.316 -0.2652  2.4587 -0.7521
 4054SOL     OW13602   7.241   2.877   8.523 -0.0499  0.5010 -0.2955
 4054SOL    HW113603   7.265   2.840   8.608  0.4822 -0.8422 -0.9900
 4054SOL    HW213604   7.213   2.801   8.471 -1.0807  1.3947 -1.0900
 4055SOL     OW13605   2.068   6.097   4.322  0.4261 -0.4282 -0.4038
 4055SOL    HW113606   2.057   6.151   4.244  0.7627 -0.6273 -0.5879
 4055SOL    HW213607   2.040   6.154   4.394  0.9954  0.0680 -0.5719
 4056SOL     OW13608   3.138   7.302   1.988 -0.5547 -0.3027 -0.2194
 4056SOL    HW113609   3.136   7.356   2.068 -1.1430  0.9394 -1.0488
 4056SOL    HW213610   3.130   7.365   1.917 -0.4881 -1.4442 -1.2582
 4057SOL     OW13611   2.202   2.731   2.378 -0.2023  0.4017  0.6612
 4057SOL    HW113612   2.237   2.794   2.441 -0.1349  1.5154 -0.4269
 4057SOL    HW213613   2.279   2.700   2.330 -0.3969  0.8624  0.0207
 4058SOL     OW13614   0.558   3.049  10.689 -0.3280  0.0800 -0.1219
 4058SOL    HW113615   0.545   3.011  10.603 -2.1876 -0.1200  0.2061
 4058SOL    HW213616   0.470   3.060  10.724  0.3595  0.7197  1.5141
 4059SOL     OW13617   2.279   5.821   0.802  0.4906  0.5817  0.0621
 4059SOL    HW113618   2.318   5.866   0.877 -0.3697  0.4431  0.6008
 4059SOL    HW213619   2.185   5.822   0.819  0.1674  1.4640 -1.5247
 4060SOL     OW13620   3.361   3.044   3.060 -0.7800 -0.0657  0.1755
 4060SOL    HW113621   3.434   2.987   3.085  0.2405  0.9653 -0.3325
 4060SOL    HW213622   3.294   2.985   3.026 -0.6353 -1.1451  1.6422
 4061SOL     OW13623   4.061   6.104   9.023  0.2246  0.2914  0.3953
 4061SOL    HW113624   4.003   6.075   8.952  1.0167  0.6344 -0.4058
 4061SOL    HW213625   4.129   6.154   8.979  1.5062 -0.6648  1.2324
 4062SOL     OW13626   1.861   2.467   2.305  0.1781  0.4561  0.3835
 4062SOL    HW113627   1.875   2.480   2.211 -0.8509 -1.6977 -0.1110
 4062SOL    HW213628   1.946   2.437   2.338 -0.0265 -0.9659 -0.3185
 4063SOL     OW13629   6.778   3.879   7.748 -0.5468 -0.2159 -0.3583
 4063SOL    HW113630   6.725   3.800   7.762 -0.1082 -0.4980 -0.2660
 4063SOL    HW213631   6.799   3.910   7.836  1.2057 -1.3114 -0.3291
 4064SOL     OW13632   7.252   5.016   7.123  0.1163 -0.3925  0.9585
 4064SOL    HW113633   7.311   5.091   7.112 -0.7103  0.3306  1.3083
 4064SOL    HW213634   7.302   4.955   7.178  0.7969 -0.1027  0.6783
 4065SOL     OW13635   4.375   0.500  11.999  0.2229 -0.1885  0.0251
 4065SOL    HW113636   4.463   0.475  11.972 -0.2697 -0.6860 -1.2278
 4065SOL    HW213637   4.356   0.443  12.074  1.0976  0.2048  0.5632
 4066SOL     OW13638   3.845   5.612   8.292 -0.0991  0.1595 -0.7827
 4066SOL    HW113639   3.934   5.642   8.271  0.1800  0.0209  0.1836
 4066SOL    HW213640   3.810   5.583   8.208  0.6153  0.6142 -1.2514
 4067SOL     OW13641   2.853   4.988   4.336 -0.2607  0.3441 -0.0621
 4067SOL    HW113642   2.812   5.046   4.272  0.0265  2.2481  1.4073
 4067SOL    HW213643   2.946   4.989   4.314  0.1649  2.6418  1.5091
 4068SOL     OW13644   0.846   0.356   3.660 -0.2042  0.2102 -0.4350
 4068SOL    HW113645   0.873   0.320   3.575  2.5867  1.8852 -0.3762
 4068SOL    HW213646   0.859   0.284   3.721  2.3826  0.2782 -0.7765
 4069SOL     OW13647   3.690   4.728   9.674  0.2011 -0.2084 -0.4667
 4069SOL    HW113648   3.746   4.743   9.750 -0.9344  0.7518  0.2178
 4069SOL    HW213649   3.662   4.816   9.648  0.4951 -0.5271 -1.9474
 4070SOL     OW13650   5.662   2.929   7.138 -0.2251  0.3693  0.0532
 4070SOL    HW113651   5.605   2.992   7.094 -0.5870  1.1905  1.6209
 4070SOL    HW213652   5.672   2.963   7.227  2.7346  0.2916 -0.1353
 4071SOL     OW13653   7.836   7.752   5.925  0.1297  0.3564  0.1304
 4071SOL    HW113654   7.798   7.776   5.841 -0.6883  1.2015  0.7289
 4071SOL    HW213655   7.928   7.732   5.904  0.0522  0.9721 -0.8907
 4072SOL     OW13656   6.133   7.135   5.801  0.2763  1.1396 -1.2114
 4072SOL    HW113657   6.091   7.102   5.721 -0.0093 -1.1567 -0.2028
 4072SOL    HW213658   6.069   7.196   5.838 -1.8283 -1.3761 -0.3363
 4073SOL     OW13659   0.192   7.139   9.915 -0.1996  0.1360  0.4496
 4073SOL    HW113660   0.238   7.058   9.937 -0.7048 -0.3651 -0.2783
 4073SOL    HW213661   0.202   7.146   9.820  1.1400  1.7364  0.6777
 4074SOL     OW13662   7.871   7.975   2.649  0.1286  0.0027 -0.3943
 4074SOL    HW113663   7.918   7.903   2.607  1.0090 -1.4258  2.6713
 4074SOL    HW213664   7.779   7.947   2.648  0.0986  0.1193 -1.5223
 4075SOL     OW13665   7.270   0.133   0.483 -0.7661  0.1339 -0.2707
 4075SOL    HW113666   7.292   0.181   0.563  1.3726  0.9072 -1.2275
 4075SOL    HW213667   7.183   0.164   0.460 -0.4414  1.7329  0.4881
 4076SOL     OW13668   1.271   2.062   4.158 -0.0741 -0.0621 -0.0958
 4076SOL    HW113669   1.298   2.149   4.189 -1.8199 -0.2881  2.2777
 4076SOL    HW213670   1.347   2.006   4.175 -1.0265 -0.3250  4.8321
 4077SOL     OW13671   0.865   4.621   5.563  0.4234  0.1567 -0.1102
 4077SOL    HW113672   0.839   4.659   5.646 -0.4068 -2.0209  0.7121
 4077SOL    HW213673   0.904   4.537   5.586  1.2427  0.0074 -1.8516
 4078SOL     OW13674   6.519   1.493   3.685  0.3747  0.0310 -0.3517
 4078SOL    HW113675   6.603   1.478   3.728  0.1800  1.5626  0.6465
 4078SOL    HW213676   6.540   1.547   3.609  0.2638  0.6939  0.0847
 4079SOL     OW13677   1.898   3.286   7.578 -0.5116  0.0273 -0.1715
 4079SOL    HW113678   1.824   3.234   7.610 -1.4746  1.1744 -0.4584
 4079SOL    HW213679   1.926   3.241   7.498 -1.3044 -0.0746 -0.4011
 4080SOL     OW13680   6.218   4.212   8.002 -0.2317  0.0283  0.1691
 4080SOL    HW113681   6.249   4.298   8.031 -2.7442  1.4872 -1.1177
 4080SOL    HW213682   6.257   4.201   7.915 -1.2550  0.6833 -0.3830
 4081SOL     OW13683   4.131   1.624   9.212  0.1776  0.3986 -0.1734
 4081SOL    HW113684   4.170   1.710   9.231 -1.0793  0.6459  1.4405
 4081SOL    HW213685   4.069   1.642   9.141  0.6175  0.6279 -0.5079
 4082SOL     OW13686   0.226   7.139  10.332 -0.4242  0.0034 -0.1604
 4082SOL    HW113687   0.200   7.215  10.385 -0.5859 -0.3530  0.2702
 4082SOL    HW213688   0.165   7.140  10.258 -0.3079  0.3996 -0.2588
 4083SOL     OW13689   3.845   7.454   3.558 -0.1907  0.0927 -0.0568
 4083SOL    HW113690   3.752   7.468   3.577 -0.4755  0.8162 -1.7926
 4083SOL    HW213691   3.851   7.459   3.462  1.9016  1.9545  0.0778
 4084SOL     OW13692   6.009   4.779   1.467  0.4059 -0.2516  0.1741
 4084SOL    HW113693   5.919   4.755   1.447  0.8098 -1.4156 -0.3783
 4084SOL    HW213694   6.009   4.874   1.471 -0.3540 -0.0758 -2.4093
 4085SOL     OW13695   6.686   5.380   3.669  0.2287  0.5994  0.0206
 4085SOL    HW113696   6.755   5.418   3.614 -0.2723 -0.4223 -1.3561
 4085SOL    HW213697   6.673   5.292   3.634 -0.6942  0.2063  1.2723
 4086SOL     OW13698   6.440   2.275   6.585  0.0599  0.0566  0.1730
 4086SOL    HW113699   6.395   2.219   6.648 -0.3962  0.4310  0.1821
 4086SOL    HW213700   6.527   2.288   6.624  0.1711 -0.6381  0.1707
 4087SOL     OW13701   2.674   7.085   7.712 -0.3173 -0.0370  0.1314
 4087SOL    HW113702   2.720   7.104   7.631 -0.2328 -1.0888 -0.0877
 4087SOL    HW213703   2.581   7.100   7.691 -0.5919 -2.7455 -0.9863
 4088SOL     OW13704   7.273   4.365   7.245 -0.5203  0.2288 -0.1130
 4088SOL    HW113705   7.180   4.382   7.233 -0.4817  2.6158  2.0735
 4088SOL    HW213706   7.279   4.328   7.333  0.3810 -3.3739 -1.4962
 4089SOL     OW13707   6.420   4.426  10.802  0.1815  0.0498  0.1036
 4089SOL    HW113708   6.327   4.433  10.781  0.0202 -0.2897  0.6813
 4089SOL    HW213709   6.448   4.344  10.760  0.4735  0.6693 -0.9459
 4090SOL     OW13710   3.029   2.173  10.356 -0.2355  0.4244 -0.1436
 4090SOL    HW113711   3.008   2.248  10.411 -1.9733 -0.3606  0.3504
 4090SOL    HW213712   2.980   2.189  10.275 -2.0854 -0.9661  0.6353
 4091SOL     OW13713   3.147   2.068  12.031 -0.6112  0.2597 -0.0181
 4091SOL    HW113714   3.144   2.007  12.105 -0.8880 -0.6346 -0.7323
 4091SOL    HW213715   3.234   2.107  12.035 -0.1313 -0.7760  0.0241
 4092SOL     OW13716   1.202   5.695   7.128 -0.0249 -0.2343  0.7969
 4092SOL    HW113717   1.215   5.760   7.059 -2.1242 -1.4422 -0.8519
 4092SOL    HW213718   1.107   5.687   7.135  0.1785 -2.2746  1.7631
 4093SOL     OW13719   5.039   1.875   9.637  0.0500 -0.7485 -0.5857
 4093SOL    HW113720   4.961   1.925   9.616  0.9571  0.6261 -0.7999
 4093SOL    HW213721   5.045   1.879   9.733  1.1729  1.2759 -0.6960
 4094SOL     OW13722   5.361   4.549  10.136 -0.0315  0.0467 -0.2729
 4094SOL    HW113723   5.361   4.475  10.197  0.5436 -0.3601 -0.7572
 4094SOL    HW213724   5.342   4.625  10.191  1.8422 -0.1091  0.6592
 4095SOL     OW13725   0.575   1.344   9.428  0.1243 -0.1997  0.2187
 4095SOL    HW113726   0.607   1.423   9.384  2.0818 -1.2827 -0.4348
 4095SOL    HW213727   0.483   1.339   9.404  0.0006  1.7621  0.1206
 4096SOL     OW13728   3.073   0.857   4.425 -1.2582  0.1489 -0.3077
 4096SOL    HW113729   3.009   0.814   4.370 -1.4636  1.3906 -1.0930
 4096SOL    HW213730   3.031   0.864   4.511 -2.8368  2.2060 -1.1442
 4097SOL     OW13731   3.745   0.639  12.110 -0.1343  0.4506  0.1127
 4097SOL    HW113732   3.773   0.568  12.052 -0.1388  0.2862  0.3089
 4097SOL    HW213733   3.788   0.620  12.193 -1.5568 -0.3358  0.7040
 4098SOL     OW13734   5.187   4.783  11.055  0.0128 -0.3438 -0.1242
 4098SOL    HW113735   5.215   4.703  11.099  2.0753  0.1380 -0.4192
 4098SOL    HW213736   5.261   4.844  11.067 -0.7772  0.9306 -1.3542
 4099SOL     OW13737   1.643   7.658   2.976 -0.0332 -0.9737 -0.6159
 4099SOL    HW113738   1.690   7.617   3.048  1.1408 -0.8084 -1.2586
 4099SOL    HW213739   1.662   7.604   2.900  0.3210 -0.0984 -1.1744
 4100SOL     OW13740   5.986   2.933  10.759 -0.4132  0.3706  0.4475
 4100SOL    HW113741   5.996   3.028  10.772  1.3706  0.3910 -0.6973
 4100SOL    HW213742   6.060   2.895  10.808  1.1094 -0.1218 -2.0693
 4101SOL     OW13743   0.264   1.666   5.365 -0.1079 -0.1833  0.2001
 4101SOL    HW113744   0.197   1.690   5.429 -0.7119 -1.0454 -0.0884
 4101SOL    HW213745   0.290   1.748   5.324 -1.8556  0.0258 -0.5323
 4102SOL     OW13746   3.652   4.898   9.358  0.3594  0.1122  0.9395
 4102SOL    HW113747   3.607   4.929   9.279 -2.3792  1.2581  2.7935
 4102SOL    HW213748   3.730   4.953   9.364  0.0203  0.7867 -0.3462
 4103SOL     OW13749   7.968   2.869  11.764  0.1986  0.0799  0.0515
 4103SOL    HW113750   7.892   2.824  11.801 -0.4853  0.7810 -0.4900
 4103SOL    HW213751   7.950   2.875  11.670  0.8014  0.4822 -0.0491
 4104SOL     OW13752   0.069   2.495   5.859 -0.3305  0.5187 -0.5097
 4104SOL    HW113753   0.114   2.440   5.923 -1.2217  0.2226 -0.1332
 4104SOL    HW213754   0.139   2.547   5.820  0.3313  0.1336  0.1336
 4105SOL     OW13755   0.220   7.571   7.617  0.4371 -0.0835 -0.1851
 4105SOL    HW113756   0.175   7.656   7.618  1.1826  0.3420 -1.0844
 4105SOL    HW213757   0.274   7.574   7.538 -0.5139 -1.9138 -0.9691
 4106SOL     OW13758   4.457   3.385   6.832 -0.0209  0.2726  0.2142
 4106SOL    HW113759   4.470   3.464   6.884  0.7499 -0.0821  0.5805
 4106SOL    HW213760   4.521   3.394   6.760 -0.3597  0.2692 -0.0906
 4107SOL     OW13761   0.917   0.297   4.293  0.0285 -0.6078 -0.5590
 4107SOL    HW113762   0.961   0.227   4.244  0.1139 -0.4558 -0.7015
 4107SOL    HW213763   0.866   0.344   4.227  1.4179  0.6074 -0.8114
 4108SOL     OW13764   5.649   4.700   5.312 -0.0723  0.5711 -0.1406
 4108SOL    HW113765   5.618   4.690   5.222 -1.6702  0.9636  0.3289
 4108SOL    HW213766   5.680   4.612   5.336  0.9732  0.6141 -1.2674
 4109SOL     OW13767   7.925   6.477   8.194 -0.0841 -0.3168  0.5359
 4109SOL    HW113768   7.950   6.569   8.202  1.4303 -0.4786 -1.3577
 4109SOL    HW213769   7.889   6.470   8.105 -1.0779 -1.3844  0.9981
 4110SOL     OW13770   0.132   1.994   8.391 -0.3804  0.4915  0.2267
 4110SOL    HW113771   0.162   2.024   8.477  0.3856 -1.5240  0.7185
 4110SOL    HW213772   0.177   2.050   8.328  0.2041  1.0227  1.1070
 4111SOL     OW13773   2.061   0.423   2.038  0.4046 -0.7524 -0.0213
 4111SOL    HW113774   2.136   0.466   2.079  0.0246  0.5131 -0.6000
 4111SOL    HW213775   2.074   0.437   1.944  0.3708 -2.1141 -0.2500
 4112SOL     OW13776   4.035   1.518   8.470  0.5726 -0.5173  0.7395
 4112SOL    HW113777   4.109   1.457   8.472  0.1439 -1.0541  0.5311
 4112SOL    HW213778   3.973   1.478   8.408 -0.0810 -0.3037  1.2454
 4113SOL     OW13779   7.136   2.180   1.309  0.3044 -0.2892 -0.3588
 4113SOL    HW113780   7.069   2.115   1.285 -1.7449  2.3037 -2.2691
 4113SOL    HW213781   7.185   2.195   1.228  1.1277  0.1386  0.2093
 4114SOL     OW13782   5.484   0.343   0.626 -0.1990  0.4215 -0.5911
 4114SOL    HW113783   5.453   0.358   0.715 -0.4259  0.2893 -0.6455
 4114SOL    HW213784   5.577   0.364   0.628  0.5249 -2.5325  0.4116
 4115SOL     OW13785   4.447   7.572   3.760  0.1254 -0.3396 -0.3708
 4115SOL    HW113786   4.528   7.622   3.771 -0.2078  0.8682 -2.7510
 4115SOL    HW213787   4.380   7.625   3.803 -0.0545  0.8040 -1.9999
 4116SOL     OW13788   6.965   3.277   7.449  0.0288 -0.2452 -0.1534
 4116SOL    HW113789   7.026   3.301   7.379  0.3174  4.4221  1.3351
 4116SOL    HW213790   7.017   3.223   7.509  0.5598 -2.0048 -2.0983
 4117SOL     OW13791   4.404   3.311   2.733 -0.4609 -0.4713  0.0032
 4117SOL    HW113792   4.449   3.374   2.790  0.3912  0.7026 -1.8850
 4117SOL    HW213793   4.431   3.226   2.766  1.2359  0.1867  0.4160
 4118SOL     OW13794   4.640   1.393   1.771  0.2998 -0.2511  0.5743
 4118SOL    HW113795   4.579   1.467   1.776  0.8089  0.1667  0.6671
 4118SOL    HW213796   4.587   1.321   1.735 -0.0784  0.2941  0.0057
 4119SOL     OW13797   4.618   0.418   7.499  0.3794 -0.4606 -0.0156
 4119SOL    HW113798   4.640   0.401   7.407  0.8806 -1.0696  0.2039
 4119SOL    HW213799   4.682   0.366   7.548 -0.5721 -1.0100  0.6669
 4120SOL     OW13800   6.072   2.537   2.119  0.1554  0.2810 -0.2771
 4120SOL    HW113801   6.111   2.542   2.031 -1.6360  0.2171 -1.1320
 4120SOL    HW213802   6.038   2.626   2.135 -0.6120 -0.0139 -0.2048
 4121SOL     OW13803   2.384   3.392   8.253 -0.2507  0.5251 -0.6210
 4121SOL    HW113804   2.416   3.352   8.335 -0.1272  1.5513 -0.1467
 4121SOL    HW213805   2.370   3.484   8.276 -1.7232  0.4975 -1.3502
 4122SOL     OW13806   7.426   5.363   7.956 -0.4558 -0.8288  0.0835
 4122SOL    HW113807   7.365   5.312   7.903 -1.8499  1.1960 -0.3712
 4122SOL    HW213808   7.504   5.371   7.900 -0.3910 -1.9670 -0.0304
 4123SOL     OW13809   0.496   3.490   1.435 -0.3956 -0.0045  0.2533
 4123SOL    HW113810   0.512   3.584   1.437  0.5466 -0.1602  0.4824
 4123SOL    HW213811   0.417   3.478   1.488  1.2114  0.3455  2.8837
 4124SOL     OW13812   5.911   1.053  10.216  0.0607 -0.5316 -0.1860
 4124SOL    HW113813   5.840   1.003  10.256 -0.5680 -0.2815 -0.9676
 4124SOL    HW213814   5.868   1.111  10.154  0.8664  0.3246  0.0274
 4125SOL     OW13815   3.523   3.019   9.596 -0.1686  0.0092 -0.4543
 4125SOL    HW113816   3.558   3.107   9.587  0.3722 -0.3109 -1.8457
 4125SOL    HW213817   3.493   3.013   9.686  2.8111  0.5049  0.6769
 4126SOL     OW13818   1.989   4.092   2.822  0.0393 -0.4949 -0.1893
 4126SOL    HW113819   2.030   4.017   2.779  0.5975 -0.5366  0.4026
 4126SOL    HW213820   1.943   4.137   2.751 -0.7791 -1.6975 -0.4473
 4127SOL     OW13821   0.255   4.788   4.408  0.7518 -0.0888 -0.5184
 4127SOL    HW113822   0.199   4.844   4.355  1.6728 -1.3436 -3.0099
 4127SOL    HW213823   0.195   4.740   4.465 -0.1029  2.8336  1.2372
 4128SOL     OW13824   6.876   2.013   6.070 -0.0580 -0.2699  0.4778
 4128SOL    HW113825   6.854   1.931   6.115  1.9549 -0.2906  1.5503
 4128SOL    HW213826   6.856   2.081   6.133  0.1893 -0.0998  0.3758
 4129SOL     OW13827   5.435   4.535   2.752 -0.0529 -0.1081 -0.0573
 4129SOL    HW113828   5.432   4.460   2.812  1.6474 -0.7339 -0.6985
 4129SOL    HW213829   5.364   4.519   2.690 -0.6702 -0.3898  0.7109
 4130SOL     OW13830   7.726   4.565   7.745  0.7072  0.3113  0.2462
 4130SOL    HW113831   7.669   4.622   7.693 -1.8411 -2.0932  0.1631
 4130SOL    HW213832   7.666   4.507   7.791  3.0878 -2.9222 -0.3986
 4131SOL     OW13833   0.904   2.366   9.512 -0.1469  0.7191  0.4750
 4131SOL    HW113834   0.939   2.415   9.438  1.7218 -0.5694  0.4393
 4131SOL    HW213835   0.857   2.431   9.565 -1.5808  1.6737 -1.8065
 4132SOL     OW13836   3.506   1.441  12.063  0.0817 -0.0577 -0.3354
 4132SOL    HW113837   3.521   1.436  11.969  0.8620  1.2123 -0.3001
 4132SOL    HW213838   3.412   1.456  12.072 -0.1938 -1.3945 -0.8475
 4133SOL     OW13839   5.914   6.015  10.234 -0.1881 -0.4140  0.6053
 4133SOL    HW113840   5.976   6.066  10.286 -0.3185  0.5064 -0.1206
 4133SOL    HW213841   5.966   5.944  10.196 -0.1743 -1.3897  2.3236
 4134SOL     OW13842   4.131   2.743   6.877  0.2685  0.6067 -0.3176
 4134SOL    HW113843   4.081   2.821   6.853 -0.8572 -0.1221 -0.4104
 4134SOL    HW213844   4.064   2.677   6.896  1.1770 -0.8284 -1.8622
 4135SOL     OW13845   3.770   1.802   9.335  0.2501  0.0380 -0.2159
 4135SOL    HW113846   3.731   1.888   9.325 -1.1445 -0.6332 -0.8611
 4135SOL    HW213847   3.832   1.811   9.407 -0.4790  1.3682  0.2680
 4136SOL     OW13848   2.357   7.458   4.056 -0.1321 -0.0770 -0.3791
 4136SOL    HW113849   2.425   7.415   4.004 -0.1698  0.6976 -1.1018
 4136SOL    HW213850   2.390   7.458   4.145  1.3882  1.3480 -0.8883
 4137SOL     OW13851   4.573   2.922   6.666  0.1959 -0.0637  0.3510
 4137SOL    HW113852   4.593   2.953   6.754 -0.8979 -0.0694  0.6202
 4137SOL    HW213853   4.587   2.998   6.610 -0.0800  0.2284  0.6736
 4138SOL     OW13854   0.691   3.788   2.254  0.3493  0.1368 -0.1886
 4138SOL    HW113855   0.629   3.859   2.266 -1.1197 -1.0871 -0.2493
 4138SOL    HW213856   0.753   3.821   2.189 -0.4040  1.2681 -0.3579
 4139SOL     OW13857   2.189   7.866   3.228 -0.2260  0.1072 -0.4139
 4139SOL    HW113858   2.173   7.953   3.264  0.6526  0.5927 -1.1368
 4139SOL    HW213859   2.228   7.883   3.142  0.2393 -1.0030 -0.4386
 4140SOL     OW13860   3.466   7.149   0.006  0.1297  0.1009  0.3640
 4140SOL    HW113861   3.523   7.089  -0.041 -0.7993 -0.7023  0.2260
 4140SOL    HW213862   3.466   7.229  -0.046 -2.4674 -1.4029 -2.2496
 4141SOL     OW13863   5.760   1.583   2.372 -0.1109  0.5296  0.2205
 4141SOL    HW113864   5.811   1.541   2.441 -0.6230  1.1807  1.0168
 4141SOL    HW213865   5.825   1.615   2.310  0.4731  1.4364  1.2750
 4142SOL     OW13866   2.122   3.119   2.398 -0.1445 -0.5855  0.4550
 4142SOL    HW113867   2.079   3.043   2.359 -0.5540  0.2076 -0.6946
 4142SOL    HW213868   2.101   3.191   2.339  0.7329  0.3092  1.2040
 4143SOL     OW13869   1.027   2.070   9.273 -0.0702 -1.4059 -0.2162
 4143SOL    HW113870   0.983   2.021   9.204 -0.8148  0.8690 -1.4557
 4143SOL    HW213871   0.957   2.115   9.319  0.7299  0.7637 -1.0013
 4144SOL     OW13872   5.867   7.881  11.788 -0.3963  0.0181 -0.1203
 4144SOL    HW113873   5.940   7.943  11.779 -0.3397 -0.0044  0.1621
 4144SOL    HW213874   5.871   7.854  11.880 -0.6320 -0.1434 -0.1587
 4145SOL     OW13875   7.125   0.000   9.938  0.3711  0.0681 -0.4570
 4145SOL    HW113876   7.074  -0.071   9.977  0.3820 -1.6915 -3.3312
 4145SOL    HW213877   7.101   0.078   9.989 -2.6430 -1.2805  0.4162
 4146SOL     OW13878   3.777   5.814   9.037  0.3078 -0.3317  0.0263
 4146SOL    HW113879   3.846   5.815   9.103 -1.7951  2.1310  2.4390
 4146SOL    HW213880   3.814   5.863   8.963  0.4014  3.6976  2.4159
 4147SOL     OW13881   6.637   6.919   9.266 -0.4109  0.0840  0.8401
 4147SOL    HW113882   6.676   6.866   9.335  0.3564  0.7628  0.9370
 4147SOL    HW213883   6.672   6.883   9.185  1.2455  1.3023  0.9641
 4148SOL     OW13884   2.180   1.419   7.353 -0.5995 -0.2200  0.4183
 4148SOL    HW113885   2.214   1.439   7.440 -0.2688  1.8071 -0.1336
 4148SOL    HW213886   2.256   1.425   7.296 -1.2145  0.8112 -0.3203
 4149SOL     OW13887   1.850   0.070   5.466  0.1267  0.0273  0.0207
 4149SOL    HW113888   1.810  -0.014   5.442  3.4627 -1.4176 -1.0866
 4149SOL    HW213889   1.817   0.132   5.400  0.7651 -1.4287 -1.7720
 4150SOL     OW13890   1.400   5.228   0.276  0.3644 -0.4989  0.0328
 4150SOL    HW113891   1.418   5.316   0.310 -1.1738 -0.3138  0.4590
 4150SOL    HW213892   1.378   5.177   0.354 -1.4444 -0.5348 -0.4529
 4151SOL     OW13893   1.498   2.464   9.625 -0.8878 -0.4107  0.1243
 4151SOL    HW113894   1.513   2.525   9.553 -0.6246 -0.7454 -0.1030
 4151SOL    HW213895   1.494   2.378   9.584  0.9210 -0.7939  0.6785
 4152SOL     OW13896   6.160   7.824   4.683 -0.3375  0.1956 -0.0768
 4152SOL    HW113897   6.120   7.905   4.714  0.1842  0.4735 -0.1041
 4152SOL    HW213898   6.105   7.754   4.718 -0.2319  0.5307  0.7823
 4153SOL     OW13899   5.226   1.408   4.021 -0.1461  0.3672 -0.3980
 4153SOL    HW113900   5.252   1.323   4.057  0.8248  1.2726  1.1447
 4153SOL    HW213901   5.307   1.459   4.020 -0.8432  1.5083 -0.6668
 4154SOL     OW13902   3.812   0.295   4.077 -0.4143  0.4834  0.1925
 4154SOL    HW113903   3.889   0.301   4.134  0.2794 -0.6846 -0.5640
 4154SOL    HW213904   3.764   0.218   4.109 -0.8104  0.6980  0.1213
 4155SOL     OW13905   6.222   7.295   6.444  0.8124 -0.4588  0.2857
 4155SOL    HW113906   6.213   7.327   6.534  1.7285 -1.5852  0.8140
 4155SOL    HW213907   6.259   7.208   6.454 -0.7929 -1.3490 -1.1321
 4156SOL     OW13908   0.301   4.591   7.107  0.0277  0.3897  0.0750
 4156SOL    HW113909   0.234   4.620   7.170 -0.6005 -0.5456 -0.1441
 4156SOL    HW213910   0.283   4.498   7.094  1.2076  0.1893 -0.2118
 4157SOL     OW13911   4.482   3.631   3.959 -0.1346 -0.0524 -0.6081
 4157SOL    HW113912   4.529   3.707   3.992 -1.1555 -0.1263  1.1580
 4157SOL    HW213913   4.551   3.567   3.940  0.7297  1.2936 -2.1672
 4158SOL     OW13914   1.909   4.235   1.848  0.3373 -0.0528 -0.1090
 4158SOL    HW113915   1.823   4.275   1.833  0.3002  0.4151  1.1855
 4158SOL    HW213916   1.971   4.300   1.816  0.2365  0.3482  0.4897
 4159SOL     OW13917   0.562   0.551  10.340  0.4259 -0.1163  0.3070
 4159SOL    HW113918   0.487   0.497  10.366  0.6010 -0.4552  0.1038
 4159SOL    HW213919   0.595   0.586  10.423  0.6231 -0.7302  0.4948
 4160SOL     OW13920   5.561   4.403   8.276 -0.2471  0.7868 -0.5766
 4160SOL    HW113921   5.649   4.432   8.251 -0.3303  1.5280 -0.0450
 4160SOL    HW213922   5.565   4.395   8.371 -0.3294 -0.6673 -0.6692
 4161SOL     OW13923   1.799   2.439   9.049 -0.2148 -0.5100 -0.3654
 4161SOL    HW113924   1.817   2.526   9.015  0.1152 -0.6785 -0.6185
 4161SOL    HW213925   1.778   2.454   9.142  2.2568 -0.3988  0.2374
 4162SOL     OW13926   1.511   3.293   2.854 -0.4833  0.1666 -0.3463
 4162SOL    HW113927   1.421   3.320   2.835 -0.5931 -0.3500 -0.5844
 4162SOL    HW213928   1.506   3.198   2.863 -0.1943  0.2655  1.0070
 4163SOL     OW13929   7.586   5.125   2.467  0.8458  0.1037  0.1877
 4163SOL    HW113930   7.596   5.085   2.381  1.5675 -1.9667  1.1730
 4163SOL    HW213931   7.492   5.133   2.479  0.6564 -1.6322  0.0673
 4164SOL     OW13932   3.312   1.664   1.443 -0.1525 -0.2026 -0.9004
 4164SOL    HW113933   3.297   1.572   1.419  0.0581 -0.7166  0.7957
 4164SOL    HW213934   3.345   1.704   1.363 -0.7067 -1.4837 -1.8200
 4165SOL     OW13935   4.826   6.660   0.214 -0.1365  0.2666  0.0519
 4165SOL    HW113936   4.766   6.609   0.268  0.2300 -0.4385 -0.1989
 4165SOL    HW213937   4.772   6.693   0.142  0.0093 -1.4190 -0.8750
 4166SOL     OW13938   7.688   1.625   7.986  0.5385 -0.6871 -0.7393
 4166SOL    HW113939   7.724   1.569   7.917  1.2137 -2.3878  0.9372
 4166SOL    HW213940   7.731   1.597   8.066  0.1045  1.5449  0.3625
 4167SOL     OW13941   6.456   7.766  10.377  0.0592  0.0907  0.1116
 4167SOL    HW113942   6.365   7.751  10.400 -0.3591 -0.5014 -1.7807
 4167SOL    HW213943   6.496   7.679  10.377 -0.4636 -0.2501 -3.2174
 4168SOL     OW13944   2.691   3.632   0.654 -0.2876 -0.3173  0.0899
 4168SOL    HW113945   2.612   3.578   0.644 -0.1230 -0.5182 -0.1271
 4168SOL    HW213946   2.755   3.592   0.596  0.0014 -0.1984  0.3264
 4169SOL     OW13947   7.529   1.479  11.134  0.8414  0.7452  0.2684
 4169SOL    HW113948   7.491   1.433  11.058  0.3682 -0.4527  1.1943
 4169SOL    HW213949   7.608   1.429  11.154  0.5267  0.5498  1.0559
 4170SOL     OW13950   4.063   5.797   3.016  0.3355 -0.0599 -0.1855
 4170SOL    HW113951   4.068   5.788   3.111  0.6864  0.2060 -0.1806
 4170SOL    HW213952   4.144   5.841   2.991  0.2685 -0.1763 -0.6143
 4171SOL     OW13953   0.112   4.844  11.604  0.4108 -0.0619  0.1472
 4171SOL    HW113954   0.101   4.930  11.645 -3.0279 -0.6327  0.6564
 4171SOL    HW213955   0.057   4.847  11.526  2.3193 -0.9840 -1.3203
 4172SOL     OW13956   2.966   0.448   5.140  0.4767  0.1074 -0.5508
 4172SOL    HW113957   2.917   0.509   5.087 -0.7348 -2.0528 -2.0760
 4172SOL    HW213958   2.901   0.408   5.198  1.2839  0.4084  0.6059
 4173SOL     OW13959   6.162   3.029   2.955  0.0461 -0.4954 -0.4886
 4173SOL    HW113960   6.123   2.989   2.877  0.4920  0.1361 -1.0408
 4173SOL    HW213961   6.102   3.006   3.026 -0.9252 -0.1921 -1.1908
 4174SOL     OW13962   6.830   2.782   6.209  0.4645  0.0013 -0.3868
 4174SOL    HW113963   6.762   2.770   6.143  0.1721 -0.7044  0.0324
 4174SOL    HW213964   6.796   2.737   6.287  1.2320 -0.0123 -0.0539
 4175SOL     OW13965   6.999   4.123   1.127 -0.5728  0.1777 -0.4434
 4175SOL    HW113966   7.087   4.123   1.164 -0.8060  0.4281  0.1161
 4175SOL    HW213967   6.998   4.197   1.066  0.6508 -1.7620 -3.0313
 4176SOL     OW13968   6.688   5.697   6.242  0.6297  0.3278 -0.2463
 4176SOL    HW113969   6.706   5.715   6.335  2.1778  0.5047 -0.5559
 4176SOL    HW213970   6.752   5.630   6.218  0.1229  0.1505 -1.1512
 4177SOL     OW13971   3.415   6.608   8.204 -0.2329  0.1087  0.4859
 4177SOL    HW113972   3.386   6.693   8.171 -1.6187 -0.5516 -0.0533
 4177SOL    HW213973   3.397   6.612   8.298  0.9762  0.8925  0.7088
 4178SOL     OW13974   3.010   1.344   9.702 -0.0743 -0.5216  0.1749
 4178SOL    HW113975   3.081   1.301   9.750  2.1747 -0.0293 -2.3877
 4178SOL    HW213976   3.052   1.421   9.663 -2.6182  0.9839  0.2202
 4179SOL     OW13977   7.548   6.361   4.736 -0.2461  0.3610  0.2498
 4179SOL    HW113978   7.486   6.289   4.732  0.0917  0.1203 -0.8427
 4179SOL    HW213979   7.565   6.385   4.645  1.5738  0.1338  0.4805
 4180SOL     OW13980   7.669   3.655   4.996  0.7226 -0.7100  0.1126
 4180SOL    HW113981   7.668   3.678   4.903 -2.8522  1.3950  0.4508
 4180SOL    HW213982   7.624   3.571   5.000 -1.0264  0.1709 -0.0053
 4181SOL     OW13983   5.416   7.783   7.121 -0.1380 -0.1713  0.5673
 4181SOL    HW113984   5.379   7.744   7.042 -1.4036  0.7270  0.6868
 4181SOL    HW213985   5.472   7.853   7.089 -0.3810 -0.0276  0.4564
 4182SOL     OW13986   7.180   5.692   3.795 -0.3431 -0.1619  0.3951
 4182SOL    HW113987   7.088   5.714   3.780 -0.1335  0.8099  0.4862
 4182SOL    HW213988   7.200   5.730   3.880  0.0097 -0.8262  0.6208
 4183SOL     OW13989   3.378   0.018   6.216  0.1359  0.1183  0.0520
 4183SOL    HW113990   3.366   0.103   6.175 -0.9312  0.2202  0.5411
 4183SOL    HW213991   3.472   0.001   6.210  0.3877  1.4297  0.1604
 4184SOL     OW13992   6.243   1.645   3.316  0.3749  0.3658 -0.2490
 4184SOL    HW113993   6.194   1.727   3.310  1.5255  0.9925 -1.8741
 4184SOL    HW213994   6.320   1.666   3.368  0.7055  0.3467 -0.7245
 4185SOL     OW13995   4.722   3.896   5.443 -0.0071  0.4346 -0.0559
 4185SOL    HW113996   4.760   3.910   5.357 -1.3694  0.9612 -0.6028
 4185SOL    HW213997   4.762   3.815   5.474  0.9720  0.5759 -0.9008
 4186SOL     OW13998   6.200   3.413   3.722  0.5664 -0.4384 -0.3602
 4186SOL    HW113999   6.249   3.337   3.691  0.5799 -0.8902  0.7294
 4186SOL    HW214000   6.118   3.377   3.756 -0.2531  0.2425 -1.5291
 4187SOL     OW14001   1.119   1.713   8.671 -0.4808  0.0304  0.0594
 4187SOL    HW114002   1.066   1.754   8.603  1.8825  2.4892 -0.5033
 4187SOL    HW214003   1.061   1.650   8.713 -2.7768  0.2136 -2.5815
 4188SOL     OW14004   5.217   4.189   4.982  0.4802  0.5221  0.3780
 4188SOL    HW114005   5.247   4.100   4.962  0.7425  0.0337  2.6536
 4188SOL    HW214006   5.293   4.231   5.022 -0.3124  1.0064  1.4067
 4189SOL     OW14007   5.775   4.200   6.852  0.6014  0.0244 -0.4630
 4189SOL    HW114008   5.697   4.243   6.817  0.6007 -0.8317 -1.5990
 4189SOL    HW214009   5.846   4.263   6.840  0.6794 -0.3732 -2.4777
 4190SOL     OW14010   6.406   1.151  12.253 -0.2375 -0.2508  0.2926
 4190SOL    HW114011   6.382   1.104  12.334 -1.0568 -0.6819 -0.1872
 4190SOL    HW214012   6.328   1.202  12.231  0.0092 -0.0789 -0.1952
 4191SOL     OW14013   2.952   1.033   5.859  0.0528 -0.4998  0.6891
 4191SOL    HW114014   2.944   1.124   5.889  3.6188  0.1838  0.0406
 4191SOL    HW214015   2.901   1.029   5.779  0.5153  1.2164  0.2780
 4192SOL     OW14016   4.060   7.442   5.952  0.1328 -0.0668  0.5212
 4192SOL    HW114017   4.153   7.422   5.966  0.2891  0.6212  0.5199
 4192SOL    HW214018   4.052   7.453   5.857  0.0776  0.0212  0.5363
 4193SOL     OW14019   1.282   7.814   8.310  0.0544 -0.5294 -0.2187
 4193SOL    HW114020   1.321   7.871   8.377 -1.3979  0.2553  0.0047
 4193SOL    HW214021   1.257   7.874   8.240  1.1079 -1.2846 -1.2857
 4194SOL     OW14022   5.606   1.749  10.823  0.4429  0.2731 -0.3684
 4194SOL    HW114023   5.635   1.840  10.827 -1.3433  0.8448  0.9657
 4194SOL    HW214024   5.520   1.753  10.781  0.8400 -0.9611 -1.3617
 4195SOL     OW14025   7.270   1.666   7.234 -0.2548  0.5612 -0.3177
 4195SOL    HW114026   7.243   1.757   7.229  0.5756  0.8934  0.9613
 4195SOL    HW214027   7.250   1.640   7.324  3.1499  0.6938  0.5993
 4196SOL     OW14028   4.976   1.204   7.887 -0.2116  0.7908 -0.3730
 4196SOL    HW114029   4.932   1.273   7.838 -1.8948 -0.5311 -0.8170
 4196SOL    HW214030   4.935   1.123   7.856 -0.8678 -0.1694  2.7086
 4197SOL     OW14031   7.501   1.758   7.099 -0.0341 -0.3805 -0.0409
 4197SOL    HW114032   7.440   1.703   7.148  0.4376 -1.0577 -0.2074
 4197SOL    HW214033   7.503   1.840   7.148 -1.0649 -0.3470 -0.0274
 4198SOL     OW14034   3.591   1.944   5.450  0.0390  0.3132  0.2430
 4198SOL    HW114035   3.602   2.038   5.464 -2.7037  0.4600  2.2155
 4198SOL    HW214036   3.614   1.904   5.534 -2.5052 -0.3169  0.7211
 4199SOL     OW14037   6.804   0.881   4.046  0.6134 -0.4406 -0.6587
 4199SOL    HW114038   6.881   0.841   4.087 -0.1439  0.7787  2.2037
 4199SOL    HW214039   6.737   0.813   4.048 -0.1599  0.2251  2.6495
 4200SOL     OW14040   5.431   2.691   6.066  0.0188 -0.5446 -0.2847
 4200SOL    HW114041   5.482   2.766   6.033  1.7863 -0.9545  1.3211
 4200SOL    HW214042   5.496   2.621   6.073 -1.4438 -2.0131 -0.9974
 4201SOL     OW14043   5.927   0.378  11.305 -0.4859 -0.1365 -0.1223
 4201SOL    HW114044   5.949   0.471  11.311  0.1709 -0.2766 -0.2042
 4201SOL    HW214045   5.838   0.376  11.272  0.3432  0.4641 -2.6141
 4202SOL     OW14046   5.651   5.309   8.888 -0.5593  0.6803 -0.2385
 4202SOL    HW114047   5.591   5.380   8.908  0.2665  1.1567  0.5986
 4202SOL    HW214048   5.676   5.273   8.973 -1.8189 -1.3562 -0.6668
 4203SOL     OW14049   0.721   4.037   4.298 -0.2112  0.0742 -0.4842
 4203SOL    HW114050   0.647   4.037   4.237 -1.5895  1.4253  1.0642
 4203SOL    HW214051   0.727   3.947   4.328 -2.7739  0.2838  1.0088
 4204SOL     OW14052   4.027   4.980  10.515  0.3066 -0.0736  0.0793
 4204SOL    HW114053   4.032   4.889  10.487  2.7570  0.3476 -1.1377
 4204SOL    HW214054   3.987   5.026  10.441 -1.0809 -0.1416  0.7580
 4205SOL     OW14055   3.716   5.380   4.421 -0.1349 -0.5059  0.5994
 4205SOL    HW114056   3.783   5.428   4.372 -0.9434  0.9951  0.9329
 4205SOL    HW214057   3.640   5.381   4.363 -0.3463 -0.8722  0.8708
 4206SOL     OW14058   2.933   4.215   2.378 -0.3176 -0.0802 -0.3465
 4206SOL    HW114059   2.845   4.196   2.346  0.0449 -1.0524 -0.8134
 4206SOL    HW214060   2.991   4.170   2.317  0.4362 -1.2741  1.1655
 4207SOL     OW14061   3.396   3.344   5.092 -0.2286 -0.5714  0.0278
 4207SOL    HW114062   3.468   3.408   5.093  0.4040 -1.1863 -1.8850
 4207SOL    HW214063   3.421   3.280   5.159 -0.4645  0.6945  1.3903
 4208SOL     OW14064   4.535   7.911   1.398 -0.0369  0.1917 -0.0907
 4208SOL    HW114065   4.479   7.984   1.372  0.1923  0.4853  0.2354
 4208SOL    HW214066   4.572   7.938   1.482 -0.5854 -0.6389  0.4337
 4209SOL     OW14067   2.300   2.570   0.811 -0.1378 -0.5105 -0.1547
 4209SOL    HW114068   2.318   2.481   0.842 -0.9429  0.0163  2.0064
 4209SOL    HW214069   2.217   2.563   0.764 -1.1654 -0.6238  1.6059
 4210SOL     OW14070   6.198   6.775  11.144  0.1146 -0.0671 -0.2792
 4210SOL    HW114071   6.268   6.732  11.193  0.8179  0.3911 -0.8432
 4210SOL    HW214072   6.217   6.756  11.052  0.0084  0.7893 -0.4927
 4211SOL     OW14073   3.607   1.302   2.981 -0.1771  0.7384  0.6259
 4211SOL    HW114074   3.578   1.225   2.932 -0.3546 -0.2087  2.1457
 4211SOL    HW214075   3.583   1.282   3.071  1.2379  1.8830  1.2828
 4212SOL     OW14076   0.816   1.709   8.920 -0.4050  0.1072  0.0029
 4212SOL    HW114077   0.870   1.643   8.878 -0.7109 -0.4959  0.5363
 4212SOL    HW214078   0.771   1.754   8.848  0.2412  0.1210 -0.3930
 4213SOL     OW14079   2.240   6.526  11.517 -0.5863  0.2084 -0.0799
 4213SOL    HW114080   2.290   6.453  11.554 -0.8715 -0.2663 -0.6198
 4213SOL    HW214081   2.275   6.603  11.561  1.6063  0.0593 -1.4238
 4214SOL     OW14082   6.822   6.040   7.318 -0.1177 -0.1560  0.0037
 4214SOL    HW114083   6.793   5.997   7.237 -1.1031 -0.1668  0.3545
 4214SOL    HW214084   6.756   6.015   7.383 -0.7896  1.9678  0.2011
 4215SOL     OW14085   2.905   4.979   4.985 -0.0571 -0.2191 -0.0096
 4215SOL    HW114086   2.822   4.988   5.032  0.1035 -1.2623  0.4918
 4215SOL    HW214087   2.924   5.067   4.953 -0.5475  0.3640  1.2460
 4216SOL     OW14088   5.447   4.541   3.523 -0.0236  0.0085 -0.4424
 4216SOL    HW114089   5.421   4.451   3.545  0.5567 -0.4274 -1.4570
 4216SOL    HW214090   5.386   4.596   3.571 -0.5923 -0.9346 -0.0477
 4217SOL     OW14091   4.880   4.211   1.813  0.2411  0.4465  0.0046
 4217SOL    HW114092   4.960   4.175   1.773 -0.6743  0.5674 -2.0554
 4217SOL    HW214093   4.907   4.296   1.848  1.1830  0.1493  0.0324
 4218SOL     OW14094   3.579   4.492   2.819  0.2350 -0.1161 -0.4528
 4218SOL    HW114095   3.625   4.564   2.862  0.4095  0.4036 -1.4814
 4218SOL    HW214096   3.648   4.439   2.780  0.0051  0.3684 -1.5432
 4219SOL     OW14097   1.279   0.521   6.051  0.2020 -0.3771  0.0473
 4219SOL    HW114098   1.297   0.579   6.125 -2.4251 -0.2078  0.6480
 4219SOL    HW214099   1.265   0.435   6.090  3.0898 -1.3185 -0.7497
 4220SOL     OW14100   3.620   3.940  10.590  0.4413  0.4952 -0.0771
 4220SOL    HW114101   3.667   3.895  10.519 -1.0667 -1.0984 -0.1162
 4220SOL    HW214102   3.538   3.968  10.550  0.6444  1.8581  0.4079
 4221SOL     OW14103   0.848   2.874   4.221  0.5961  0.5393 -0.7872
 4221SOL    HW114104   0.840   2.943   4.155 -0.0249  0.9962 -0.2541
 4221SOL    HW214105   0.899   2.806   4.178 -1.6625 -0.1788 -2.5443
 4222SOL     OW14106   3.552   6.625   1.245  0.1276 -0.0033  0.3285
 4222SOL    HW114107   3.625   6.680   1.273  1.1248 -0.7132 -0.7858
 4222SOL    HW214108   3.583   6.583   1.165 -0.6301 -2.1015  1.0774
 4223SOL     OW14109   4.881   3.643   5.209  0.4209  0.7867  0.3564
 4223SOL    HW114110   4.874   3.611   5.299 -0.2911 -1.1446 -0.3335
 4223SOL    HW214111   4.939   3.580   5.166  0.4208  1.4491 -0.6539
 4224SOL     OW14112   4.918   7.154   5.610 -0.2433  0.3348  0.1308
 4224SOL    HW114113   4.840   7.173   5.559 -1.3127  1.1806  2.0155
 4224SOL    HW214114   4.886   7.112   5.689  1.4211 -1.4513 -0.0582
 4225SOL     OW14115   1.440   2.456   7.078  0.1588 -0.2309  0.3475
 4225SOL    HW114116   1.448   2.414   6.992 -2.1885 -0.6535  0.2821
 4225SOL    HW214117   1.522   2.434   7.122  0.7124 -1.4253 -1.1657
 4226SOL     OW14118   5.727   7.046   5.268 -0.6175  0.1935 -0.5186
 4226SOL    HW114119   5.818   7.028   5.245 -0.2860  1.4765 -0.2926
 4226SOL    HW214120   5.692   6.961   5.296  1.2289  0.0744  1.7749
 4227SOL     OW14121   3.435   0.650   1.106  0.6768 -0.3531  0.5478
 4227SOL    HW114122   3.462   0.689   1.023  0.8564 -1.2519  0.1818
 4227SOL    HW214123   3.340   0.642   1.099  0.7672 -1.0858  0.1411
 4228SOL     OW14124   5.658   4.940   0.096 -0.2490 -1.0601  0.1794
 4228SOL    HW114125   5.563   4.944   0.094 -0.2303 -0.8994 -0.6467
 4228SOL    HW214126   5.682   4.989   0.175 -0.7426  1.3440 -1.0671
 4229SOL     OW14127   1.371   0.727   4.930 -0.9305 -0.5565 -0.3555
 4229SOL    HW114128   1.461   0.757   4.941 -0.0876 -3.3837  1.7887
 4229SOL    HW214129   1.364   0.705   4.837  1.3777 -2.3036 -0.2031
 4230SOL     OW14130   3.831   4.981   6.708  0.2946  0.7599  0.1977
 4230SOL    HW114131   3.862   5.045   6.773  0.8737  0.1154  0.5617
 4230SOL    HW214132   3.910   4.942   6.673 -0.0331  0.8044 -0.6149
 4231SOL     OW14133   1.382   7.854   0.131 -0.2036  0.0302  0.1395
 4231SOL    HW114134   1.293   7.833   0.102 -0.0658 -0.0324 -0.2497
 4231SOL    HW214135   1.388   7.949   0.123 -0.9566  0.3128  2.2727
 4232SOL     OW14136   6.173   3.431   2.935 -0.5356  0.1247  0.5228
 4232SOL    HW114137   6.228   3.508   2.948 -0.3939 -0.1322  1.5259
 4232SOL    HW214138   6.230   3.367   2.891  0.0308 -0.1815  1.6560
 4233SOL     OW14139   5.218   6.618  10.037 -0.0157 -0.3233  0.5692
 4233SOL    HW114140   5.187   6.545  10.091  0.4079 -1.6013 -0.8674
 4233SOL    HW214141   5.310   6.628  10.060  0.0820 -0.6476  0.3136
 4234SOL     OW14142   1.009   0.980  10.866  0.3317 -0.3901  0.4862
 4234SOL    HW114143   1.071   0.946  10.930  0.8036 -0.5130 -0.0210
 4234SOL    HW214144   0.930   1.000  10.916  0.5709 -0.8105  1.0399
 4235SOL     OW14145   3.997   5.433  12.146  0.2838 -0.0309 -0.1040
 4235SOL    HW114146   3.993   5.338  12.156  1.3769  0.0387  1.3825
 4235SOL    HW214147   3.955   5.467  12.225  1.8144  0.6866  0.4405
 4236SOL     OW14148   2.365   1.568   9.198  0.3866  0.7553 -0.0118
 4236SOL    HW114149   2.272   1.587   9.195  0.1518 -0.3778 -0.1402
 4236SOL    HW214150   2.375   1.507   9.271  0.8430 -0.0672 -0.7486
 4237SOL     OW14151   0.561   7.521   7.585  0.6283 -0.4275 -0.1680
 4237SOL    HW114152   0.548   7.493   7.675 -0.6338  0.6349  0.0087
 4237SOL    HW214153   0.494   7.475   7.535 -1.2477  1.8399  0.0732
 4238SOL     OW14154   3.611   1.346   0.895  0.3609 -0.1590  0.0734
 4238SOL    HW114155   3.664   1.423   0.876 -0.3101  0.1820 -0.4953
 4238SOL    HW214156   3.555   1.372   0.968  0.3521 -0.2104  0.0853
 4239SOL     OW14157   5.596   3.450   1.503 -0.7156  0.3698 -0.5228
 4239SOL    HW114158   5.541   3.392   1.557  0.6201 -0.3655  0.0924
 4239SOL    HW214159   5.591   3.413   1.415 -1.6111  0.6204 -0.5876
 4240SOL     OW14160   0.235   2.898   9.772  0.6367  0.5726  0.4905
 4240SOL    HW114161   0.328   2.900   9.748  0.6794  0.2389  0.6222
 4240SOL    HW214162   0.189   2.892   9.688  0.8106 -1.3301  0.4854
 4241SOL     OW14163   0.424   7.918  11.053  0.3810 -0.6518  0.2242
 4241SOL    HW114164   0.475   7.847  11.015  2.0725  0.4196  0.4202
 4241SOL    HW214165   0.342   7.917  11.003  2.0353 -0.0332 -2.7943
 4242SOL     OW14166   5.274   5.276   6.878 -0.1307 -0.1656 -0.4403
 4242SOL    HW114167   5.341   5.329   6.920 -0.6351  0.0326  0.1250
 4242SOL    HW214168   5.257   5.205   6.940 -0.1842 -0.4230 -0.7444
 4243SOL     OW14169   3.071   0.173   4.230  0.7316  0.4064 -0.1521
 4243SOL    HW114170   3.146   0.148   4.283 -0.0312  1.7274  1.6520
 4243SOL    HW214171   3.020   0.092   4.221  0.3604  0.3415  2.0723
 4244SOL     OW14172   4.657   1.372   9.258  1.0014  0.1749  0.0594
 4244SOL    HW114173   4.663   1.437   9.188  1.2544 -0.2501 -0.3228
 4244SOL    HW214174   4.708   1.409   9.330  1.4063  0.2625 -0.2661
 4245SOL     OW14175   2.498   7.485   1.902  0.1429 -0.6061 -0.2355
 4245SOL    HW114176   2.506   7.412   1.964  0.9170 -1.8554 -1.7204
 4245SOL    HW214177   2.443   7.549   1.947 -0.0343 -1.8256  1.3822
 4246SOL     OW14178   4.286   1.001   9.119  0.2435  0.3918 -0.0742
 4246SOL    HW114179   4.273   0.956   9.036 -0.5118  2.2815 -1.0412
 4246SOL    HW214180   4.361   1.059   9.104  1.8536 -1.1645  1.4612
 4247SOL     OW14181   7.195   5.784   4.043 -0.1471  0.8200  0.1357
 4247SOL    HW114182   7.154   5.698   4.053  1.8655 -0.1085  0.8488
 4247SOL    HW214183   7.233   5.803   4.129  0.3556  1.9269 -0.3159
 4248SOL     OW14184   3.978   7.339   7.789  0.2754 -0.2083 -0.1237
 4248SOL    HW114185   4.065   7.345   7.750  0.2972 -1.9048 -0.4039
 4248SOL    HW214186   3.918   7.346   7.715  0.1110  1.6597  0.1422
 4249SOL     OW14187   5.632   5.822  10.842  0.3146 -0.0141 -0.1606
 4249SOL    HW114188   5.713   5.824  10.892 -0.4070 -1.5333  1.1761
 4249SOL    HW214189   5.585   5.745  10.875 -1.1212  0.1012 -1.7651
 4250SOL     OW14190   1.897   1.853   9.201  0.8145  0.3051  0.2001
 4250SOL    HW114191   1.844   1.856   9.121  1.9721  0.7634 -0.5727
 4250SOL    HW214192   1.901   1.944   9.230 -0.3271  0.0322  1.3025
 4251SOL     OW14193   4.905   0.112   1.886 -0.1800 -0.1500 -0.2239
 4251SOL    HW114194   4.892   0.203   1.911 -0.7195 -0.4525  0.6512
 4251SOL    HW214195   5.000   0.099   1.891  0.1279  0.9148 -2.4210
 4252SOL     OW14196   4.919   7.790   8.669  0.2121  0.0334  0.0554
 4252SOL    HW114197   4.878   7.829   8.592 -0.6602  0.4728  0.7321
 4252SOL    HW214198   5.008   7.827   8.670 -0.1386  0.8848 -0.1090
 4253SOL     OW14199   0.932   4.588   5.040  0.1966  0.1993  0.0222
 4253SOL    HW114200   0.913   4.680   5.020 -0.9459 -0.1546 -0.6325
 4253SOL    HW214201   0.910   4.578   5.132  1.3243  0.8155  0.3776
 4254SOL     OW14202   7.951   7.028   4.282  0.3480 -0.5374  0.0794
 4254SOL    HW114203   7.898   7.108   4.288 -2.4608 -2.2184 -0.2950
 4254SOL    HW214204   7.960   6.999   4.373 -0.1692 -0.7190  0.0738
 4255SOL     OW14205   2.331   6.630  12.434  0.1943 -0.1674  0.6381
 4255SOL    HW114206   2.362   6.643  12.524  0.6739  0.2521  0.4210
 4255SOL    HW214207   2.346   6.714  12.392 -1.7705  0.2357  0.6476
 4256SOL     OW14208   1.292   0.030   7.061  0.3462 -0.5334 -0.3523
 4256SOL    HW114209   1.359   0.042   7.129 -1.1182 -1.1651  1.2601
 4256SOL    HW214210   1.215   0.075   7.095 -0.5644 -1.2738 -1.3789
 4257SOL     OW14211   7.461   5.094   5.095  0.0381  0.5673 -0.1446
 4257SOL    HW114212   7.447   5.030   5.165  1.5598 -2.3253 -2.2674
 4257SOL    HW214213   7.376   5.135   5.082 -0.7736 -0.3445  1.9510
 4258SOL     OW14214   2.391   5.579  12.417  0.2943 -0.0614 -0.4839
 4258SOL    HW114215   2.303   5.576  12.456  1.0528  1.3277  1.5263
 4258SOL    HW214216   2.397   5.666  12.379  0.6838 -0.2797 -0.9267
 4259SOL     OW14217   2.292   5.862   4.113  0.3488 -0.2236  0.2341
 4259SOL    HW114218   2.352   5.859   4.187 -1.1011  1.2144  1.5573
 4259SOL    HW214219   2.277   5.956   4.098 -0.0012 -0.5094 -1.3780
 4260SOL     OW14220   0.498   0.938   1.601 -0.1911 -0.1450  0.0958
 4260SOL    HW114221   0.585   0.963   1.631  0.0864 -1.0607  0.0736
 4260SOL    HW214222   0.484   0.851   1.638 -0.1236 -1.0206 -1.8483
 4261SOL     OW14223   2.383   6.563  11.800  0.4024 -0.1455  1.0108
 4261SOL    HW114224   2.313   6.497  11.806 -0.2176  0.2803 -0.7176
 4261SOL    HW214225   2.336   6.647  11.802  0.7105  0.1345 -1.0596
 4262SOL     OW14226   4.838   1.353   1.468  0.2975 -0.3501 -0.3889
 4262SOL    HW114227   4.784   1.335   1.392  0.4084 -1.8952 -0.1237
 4262SOL    HW214228   4.775   1.371   1.538  0.1216 -1.2520 -0.2998
 4263SOL     OW14229   2.277   3.146   5.824 -0.2440  0.1997  0.2257
 4263SOL    HW114230   2.284   3.067   5.877  1.6160  0.9850  1.2511
 4263SOL    HW214231   2.241   3.212   5.883 -0.6597  0.4276 -0.2733
 4264SOL     OW14232   2.221   3.665   5.628 -0.1308  0.4797  0.0719
 4264SOL    HW114233   2.155   3.734   5.620  1.0843  1.6791  0.0965
 4264SOL    HW214234   2.216   3.638   5.720  0.2916  1.4987  0.4099
 4265SOL     OW14235   5.920   3.243   2.429 -0.4051  0.4433  0.0475
 4265SOL    HW114236   5.997   3.278   2.473  0.6380 -0.6989 -0.7852
 4265SOL    HW214237   5.932   3.266   2.337 -1.2750  0.6049 -0.0374
 4266SOL     OW14238   6.397   1.680   1.233 -0.2315  0.1370  0.2132
 4266SOL    HW114239   6.354   1.732   1.165 -0.1191  1.4104  1.0702
 4266SOL    HW214240   6.491   1.690   1.216 -0.2242 -0.7983 -0.3342
 4267SOL     OW14241   7.704   5.106  10.737  0.2178 -0.4560 -0.1914
 4267SOL    HW114242   7.777   5.049  10.762  0.0484 -0.2533  0.8139
 4267SOL    HW214243   7.634   5.083  10.799 -0.0888  0.3413 -0.2267
 4268SOL     OW14244   3.993   6.960   3.001  0.1336  0.1881  0.1685
 4268SOL    HW114245   4.008   6.870   3.030 -0.7590 -0.7169 -1.9620
 4268SOL    HW214246   3.904   6.980   3.029  0.1567  0.2283  0.2131
 4269SOL     OW14247   6.074   1.868   6.337 -0.2635  0.0958 -0.5303
 4269SOL    HW114248   6.030   1.796   6.291 -0.2860  0.4037 -1.0015
 4269SOL    HW214249   6.128   1.825   6.403  0.5181 -0.4208 -1.4787
 4270SOL     OW14250   6.217   0.279   2.090 -0.3230 -0.4127  0.2887
 4270SOL    HW114251   6.301   0.244   2.062  0.4019  1.0782  0.4580
 4270SOL    HW214252   6.237   0.369   2.117 -2.3063  0.7379 -1.7112
 4271SOL     OW14253   5.694   2.024  12.321  0.6745  0.1469  0.3232
 4271SOL    HW114254   5.684   2.044  12.228  2.1988 -0.8041 -0.0910
 4271SOL    HW214255   5.645   2.092  12.366 -2.4006 -0.8743 -1.2081
 4272SOL     OW14256   6.836   6.845   3.890 -0.6954  0.5701  0.0128
 4272SOL    HW114257   6.849   6.810   3.802 -1.3943  2.2648 -0.8203
 4272SOL    HW214258   6.860   6.938   3.882  0.4415  0.4993  1.9387
 4273SOL     OW14259   2.535   6.114   7.616 -0.7182  0.0586 -0.1222
 4273SOL    HW114260   2.582   6.100   7.534 -0.8174 -0.0588 -0.1597
 4273SOL    HW214261   2.518   6.208   7.618 -1.6970 -0.0892 -0.7815
 4274SOL     OW14262   5.596   3.317   4.070  0.6240  0.1155 -0.2091
 4274SOL    HW114263   5.629   3.343   4.156  0.8792 -1.7190  0.3008
 4274SOL    HW214264   5.536   3.245   4.089  1.0115 -0.6075 -1.5769
 4275SOL     OW14265   4.389   0.151  10.519  0.3560  0.2383 -0.1492
 4275SOL    HW114266   4.411   0.201  10.597 -0.5681  0.7221 -0.1955
 4275SOL    HW214267   4.343   0.213  10.462 -3.2977 -1.2558  0.9147
 4276SOL     OW14268   6.210   6.392   5.570  0.4689  0.0210 -0.3337
 4276SOL    HW114269   6.161   6.452   5.513  3.4547  1.6433 -1.4054
 4276SOL    HW214270   6.250   6.448   5.636  2.0156 -0.9858 -0.3714
 4277SOL     OW14271   7.181   7.513   7.837 -0.0769  0.5146  0.5048
 4277SOL    HW114272   7.182   7.449   7.908 -0.8308 -0.9952 -0.7817
 4277SOL    HW214273   7.268   7.510   7.799  0.2300  1.0925  1.1426
 4278SOL     OW14274   4.381   5.653   4.540  0.2439 -0.5249  0.1483
 4278SOL    HW114275   4.427   5.720   4.489 -0.7120 -1.2630 -1.7842
 4278SOL    HW214276   4.300   5.696   4.567 -0.1292 -0.7152 -0.6399
 4279SOL     OW14277   7.100   0.645   9.984  0.4084 -0.1711  0.0772
 4279SOL    HW114278   7.190   0.613   9.973  1.3213  2.0153  0.5349
 4279SOL    HW214279   7.045   0.576   9.947  2.2535 -1.6371 -0.1148
 4280SOL     OW14280   5.910   4.424   8.393 -0.1311  0.1504 -0.2701
 4280SOL    HW114281   5.874   4.508   8.364 -1.1876 -0.1534  0.1213
 4280SOL    HW214282   5.990   4.448   8.442 -0.6094  0.9572  0.1384
 4281SOL     OW14283   6.473   3.799  10.092  0.2076 -0.2791 -0.1304
 4281SOL    HW114284   6.433   3.885  10.085  0.0165 -0.3292  0.3202
 4281SOL    HW214285   6.429   3.758  10.167  1.1770 -0.2932  0.4442
 4282SOL     OW14286   2.209   5.675   8.547  0.4907 -0.1552 -0.9045
 4282SOL    HW114287   2.259   5.706   8.471  0.8855 -0.6753 -0.8622
 4282SOL    HW214288   2.231   5.582   8.554  1.1050  0.0537  0.3231
 4283SOL     OW14289   4.741   2.939  10.443 -0.3635 -0.1736  0.4266
 4283SOL    HW114290   4.748   2.995  10.365  3.4989  0.0781  0.7611
 4283SOL    HW214291   4.673   2.980  10.496 -1.0387  1.3551 -1.4846
 4284SOL     OW14292   0.882   5.427   7.265  0.0486  0.5517 -0.6280
 4284SOL    HW114293   0.904   5.468   7.349 -1.0261  2.4918 -1.2284
 4284SOL    HW214294   0.798   5.384   7.281  1.1870 -1.5557  0.0084
 4285SOL     OW14295   3.089   7.097   0.254 -0.0629 -0.3329 -0.5489
 4285SOL    HW114296   3.136   7.022   0.292  1.3436  1.5362  1.7416
 4285SOL    HW214297   3.150   7.171   0.266 -2.5591  1.7619  0.2108
 4286SOL     OW14298   5.135   4.412   2.954 -0.1424  0.4305 -0.0689
 4286SOL    HW114299   5.226   4.383   2.958 -0.2112  0.1537 -0.4535
 4286SOL    HW214300   5.138   4.497   2.910  0.1138  1.2830  1.4853
 4287SOL     OW14301   1.060   4.237   7.070 -0.2767  0.3042  0.1813
 4287SOL    HW114302   1.139   4.193   7.101 -0.3179 -1.5917 -2.0680
 4287SOL    HW214303   1.080   4.330   7.076  2.6574 -0.1036 -1.4130
 4288SOL     OW14304   0.596   0.387   8.730 -0.1756 -0.2943 -0.5813
 4288SOL    HW114305   0.517   0.438   8.712 -1.0725 -1.3181  0.2412
 4288SOL    HW214306   0.590   0.366   8.823  1.4769  0.2415 -0.3264
 4289SOL     OW14307   2.677   5.226   4.217 -0.4098 -0.4163  0.6165
 4289SOL    HW114308   2.642   5.315   4.221 -1.4050 -0.8014  0.8025
 4289SOL    HW214309   2.640   5.183   4.294  0.4119 -0.8788  0.7664
 4290SOL     OW14310   1.580   7.471   1.058 -0.4128  0.5544  0.2866
 4290SOL    HW114311   1.552   7.548   1.107  1.2754  0.8046  0.9491
 4290SOL    HW214312   1.667   7.452   1.092 -0.3296 -0.9662 -0.6785
 4291SOL     OW14313   4.488   1.317   8.384 -0.0373  0.2192 -0.3658
 4291SOL    HW114314   4.544   1.365   8.324 -0.6961 -1.3829 -2.3878
 4291SOL    HW214315   4.523   1.227   8.383 -1.2544 -0.2847  0.0837
 4292SOL     OW14316   0.507   0.092   9.086  0.0335  0.3900 -0.1236
 4292SOL    HW114317   0.520  -0.003   9.083  1.0486  0.5403 -0.7871
 4292SOL    HW214318   0.538   0.118   9.173 -2.0283 -0.1105  0.8236
 4293SOL     OW14319   1.089   3.934   2.239 -0.0561 -0.0007 -0.5652
 4293SOL    HW114320   1.033   3.903   2.310 -1.4790  2.2138 -0.6519
 4293SOL    HW214321   1.153   3.991   2.281  2.3608 -2.5925 -0.4508
 4294SOL     OW14322   1.670   3.620  11.640  0.1363 -0.4907  0.1058
 4294SOL    HW114323   1.725   3.543  11.652  1.5197  0.6657  1.6768
 4294SOL    HW214324   1.691   3.676  11.715 -2.1115  0.6669 -0.0388
 4295SOL     OW14325   5.813   3.586   6.060 -0.1639 -0.3988  0.2049
 4295SOL    HW114326   5.728   3.566   6.099 -0.3779  0.3615  0.1323
 4295SOL    HW214327   5.826   3.679   6.077  0.1905 -0.2802 -0.6903
 4296SOL     OW14328   3.126   3.329  10.921 -0.0113  0.9038 -0.0663
 4296SOL    HW114329   3.076   3.368  10.992 -0.5707 -1.1232  0.7069
 4296SOL    HW214330   3.060   3.301  10.857  0.2989  0.3523 -0.1546
 4297SOL     OW14331   6.928   5.200   3.523  0.5853 -0.3421 -0.8425
 4297SOL    HW114332   6.888   5.163   3.602 -0.4261  2.2588 -0.0577
 4297SOL    HW214333   6.903   5.139   3.454 -0.6315 -1.3703  0.4214
 4298SOL     OW14334   1.589   2.935  11.814  0.0945 -0.2813 -0.2066
 4298SOL    HW114335   1.546   2.873  11.873  1.9280 -0.6958  0.7678
 4298SOL    HW214336   1.569   2.902  11.726 -6.0661  2.4918 -0.3742
 4299SOL     OW14337   7.306   3.883   6.408  0.3375 -0.5283  0.2813
 4299SOL    HW114338   7.310   3.957   6.346  0.8632 -1.2578 -0.5840
 4299SOL    HW214339   7.358   3.912   6.483 -0.0251  0.2440  0.2409
 4300SOL     OW14340   4.339   5.493   8.322 -0.0750 -0.2567  0.0166
 4300SOL    HW114341   4.386   5.572   8.293 -0.1502 -0.1198  0.2663
 4300SOL    HW214342   4.392   5.420   8.290  0.4794 -0.1038  0.5735
 4301SOL     OW14343   3.351   7.979   9.623 -0.5314  0.0793 -0.2506
 4301SOL    HW114344   3.268   7.939   9.597  0.1649 -1.5624 -0.0778
 4301SOL    HW214345   3.343   8.070   9.595 -1.7140 -0.4526 -1.8069
 4302SOL     OW14346   6.562   0.036   4.755 -0.1834  0.3885 -0.6500
 4302SOL    HW114347   6.623   0.077   4.692 -0.1770  0.8441 -0.3547
 4302SOL    HW214348   6.476   0.049   4.716 -0.1671  0.5410 -0.6357
 4303SOL     OW14349   5.340   4.131   9.485  0.2020 -0.4627 -0.3669
 4303SOL    HW114350   5.358   4.073   9.559 -0.8126  0.8004  0.9326
 4303SOL    HW214351   5.272   4.087   9.435 -0.9189 -0.2189  0.8838
 4304SOL     OW14352   7.604   6.114   2.993  0.0164  0.0448 -0.7870
 4304SOL    HW114353   7.596   6.191   3.049 -1.0304  0.6433 -1.7349
 4304SOL    HW214354   7.692   6.119   2.957  1.4400 -1.3273  2.1497
 4305SOL     OW14355   0.008   0.571   8.714 -0.3794  0.4510 -0.0082
 4305SOL    HW114356   0.004   0.609   8.626 -0.0813  0.7371  0.1014
 4305SOL    HW214357  -0.046   0.629   8.768 -0.0354  0.6451  0.1307
 4306SOL     OW14358   4.727   7.069   9.292 -0.3980  0.4788  0.1478
 4306SOL    HW114359   4.772   6.985   9.305 -1.7988 -0.3575 -0.2458
 4306SOL    HW214360   4.764   7.127   9.358  0.9899 -0.2802  0.0722
 4307SOL     OW14361   0.619   3.980   5.650 -0.6561  0.5366 -0.3331
 4307SOL    HW114362   0.572   3.948   5.573  0.3587 -0.3848 -0.6003
 4307SOL    HW214363   0.711   3.959   5.632  0.0355  3.0785 -0.2572
 4308SOL     OW14364   2.300   7.764  11.857  0.0462  0.1009  0.2609
 4308SOL    HW114365   2.256   7.848  11.843 -0.7030  0.1309  2.4852
 4308SOL    HW214366   2.234   7.699  11.834  1.5860 -0.1608 -4.7433
 4309SOL     OW14367   6.010   3.475   5.662 -0.1291  0.4642  0.1917
 4309SOL    HW114368   6.084   3.414   5.667 -0.4732  0.0743  0.6225
 4309SOL    HW214369   5.996   3.489   5.569 -1.0805 -1.3911  0.0225
 4310SOL     OW14370   7.279   6.844   4.263 -0.6003 -0.3684  0.1057
 4310SOL    HW114371   7.196   6.801   4.283 -0.3478 -1.4599 -0.9963
 4310SOL    HW214372   7.340   6.810   4.329 -0.5856 -1.1498 -0.2914
 4311SOL     OW14373   0.995   2.124   0.551 -0.2957  0.0940  0.4493
 4311SOL    HW114374   0.908   2.118   0.510  0.7234 -0.2080 -1.7946
 4311SOL    HW214375   1.031   2.036   0.544  0.8715  0.6027 -0.2888
 4312SOL     OW14376   7.515   2.198  10.197 -0.0886  0.7138 -0.1651
 4312SOL    HW114377   7.565   2.169  10.273  0.8202  1.3425 -0.5057
 4312SOL    HW214378   7.581   2.208  10.128 -0.9708 -0.4430 -1.2300
 4313SOL     OW14379   2.944   3.884  10.944 -0.0351  0.0232 -0.4038
 4313SOL    HW114380   3.027   3.901  10.989 -0.0826  2.0735 -0.9653
 4313SOL    HW214381   2.936   3.955  10.880 -1.7025 -0.7516 -1.1384
 4314SOL     OW14382   3.331   4.754   4.891 -0.3944 -0.0478 -0.1398
 4314SOL    HW114383   3.326   4.667   4.851  1.7184 -0.2063 -0.1816
 4314SOL    HW214384   3.268   4.806   4.840 -0.1785 -1.0435 -1.5138
 4315SOL     OW14385   3.499   4.010   6.238 -0.2078 -0.1412  0.0836
 4315SOL    HW114386   3.517   3.942   6.303  0.0853 -0.1266  0.0204
 4315SOL    HW214387   3.532   4.090   6.278  2.9354 -0.5814 -1.3284
 4316SOL     OW14388   2.451   6.849   3.565 -0.3211  0.0974  0.1192
 4316SOL    HW114389   2.472   6.924   3.510 -0.8404  0.6156  0.6163
 4316SOL    HW214390   2.355   6.844   3.563 -0.2699 -1.4994 -1.1479
 4317SOL     OW14391   1.742   2.908   8.097  0.2277  0.1218 -0.2362
 4317SOL    HW114392   1.756   3.003   8.101 -0.5286  0.2406 -0.2108
 4317SOL    HW214393   1.652   2.896   8.128  0.4041 -0.6300  0.0048
 4318SOL     OW14394   2.843   4.706   7.369 -0.5382  0.0603 -0.2656
 4318SOL    HW114395   2.898   4.657   7.308 -0.4962 -1.1031  0.6727
 4318SOL    HW214396   2.876   4.684   7.456 -3.1103 -1.6048  0.4233
 4319SOL     OW14397   4.069   7.207  10.562  0.8572  0.3616  0.7983
 4319SOL    HW114398   4.147   7.152  10.547  0.6521  0.4470 -0.6741
 4319SOL    HW214399   4.005   7.147  10.601  0.4947 -0.5927 -1.1669
 4320SOL     OW14400   4.455   7.508   8.476  0.1282  0.0515 -0.2226
 4320SOL    HW114401   4.505   7.434   8.442  0.5669  0.6459 -0.9074
 4320SOL    HW214402   4.374   7.469   8.510 -0.7800 -0.5089 -2.8096
 4321SOL     OW14403   6.925   6.810   6.391 -0.6964  0.2750  0.2091
 4321SOL    HW114404   6.887   6.866   6.458 -0.3069  0.4989  0.2490
 4321SOL    HW214405   6.969   6.740   6.440  1.1592  1.4249  0.2957
 4322SOL     OW14406   6.523   0.371   7.674 -0.0445  0.3383  0.0505
 4322SOL    HW114407   6.550   0.280   7.681  0.0781  0.4389  1.0158
 4322SOL    HW214408   6.587   0.411   7.615  1.6507  0.4480  1.8592
 4323SOL     OW14409   6.626   1.679   6.301  0.3302 -0.1100 -0.3924
 4323SOL    HW114410   6.627   1.586   6.326 -2.6107 -0.4775 -1.2093
 4323SOL    HW214411   6.617   1.726   6.384  1.0072 -0.6091 -0.0302
 4324SOL     OW14412   6.390   1.768   5.080 -0.4160  0.5062 -0.4128
 4324SOL    HW114413   6.411   1.768   5.174 -0.7363 -1.5602 -0.2910
 4324SOL    HW214414   6.302   1.807   5.075 -0.2844  0.8811  0.1009
 4325SOL     OW14415   2.937   5.507  11.631 -0.0252 -0.0023  0.1551
 4325SOL    HW114416   2.855   5.555  11.643 -0.0801  0.0068 -0.2610
 4325SOL    HW214417   2.911   5.415  11.637 -0.5836 -0.1302 -2.9287
 4326SOL     OW14418   2.405   6.468  11.037  0.5203  0.1668  0.2286
 4326SOL    HW114419   2.323   6.426  11.065 -0.7381  0.6315 -2.4124
 4326SOL    HW214420   2.471   6.432  11.095 -0.7915 -3.8837 -0.4306
 4327SOL     OW14421   6.498   4.416   2.717 -0.1756 -0.3418 -0.3363
 4327SOL    HW114422   6.519   4.343   2.776  0.5873  0.9007  0.9928
 4327SOL    HW214423   6.524   4.385   2.631  0.8162 -1.3859  0.2962
 4328SOL     OW14424   0.299   2.584   4.255  0.0860 -0.1134 -0.6994
 4328SOL    HW114425   0.227   2.533   4.293 -0.8062  0.2634 -1.8158
 4328SOL    HW214426   0.284   2.580   4.160  1.2783  0.3629 -0.9305
 4329SOL     OW14427   0.548   5.089   1.249  0.1987 -0.5094  0.1840
 4329SOL    HW114428   0.643   5.085   1.239  0.2051 -1.5928  0.4839
 4329SOL    HW214429   0.524   5.001   1.278 -0.7264  0.1423  1.5284
 4330SOL     OW14430   7.397   5.777   1.215 -0.0159  0.5647  0.2724
 4330SOL    HW114431   7.357   5.693   1.238  0.5175  0.5213  1.1089
 4330SOL    HW214432   7.423   5.815   1.300  1.0056  0.9295 -0.1860
 4331SOL     OW14433   0.244   3.623   0.329  0.0900  0.2704 -0.2186
 4331SOL    HW114434   0.165   3.620   0.274 -0.4951 -0.4518  0.6230
 4331SOL    HW214435   0.238   3.707   0.375  0.2490  0.5892 -0.7759
 4332SOL     OW14436   4.009   7.486   9.281  0.4180  0.3058 -0.2101
 4332SOL    HW114437   3.951   7.561   9.262 -1.1601 -0.1473  2.4056
 4332SOL    HW214438   3.952   7.410   9.275  1.2320 -0.3675  0.4806
 4333SOL     OW14439   0.120   0.340   5.213 -0.0996 -0.2191  0.5644
 4333SOL    HW114440   0.202   0.309   5.175 -0.3836  0.8840 -1.0782
 4333SOL    HW214441   0.062   0.351   5.138 -0.6741  2.1617  1.2617
 4334SOL     OW14442   4.394   0.638   9.139  0.2883  0.2027  0.2366
 4334SOL    HW114443   4.416   0.683   9.221  0.0529 -0.2354  0.5464
 4334SOL    HW214444   4.478   0.625   9.096  0.5416 -0.4670  0.8927
 4335SOL     OW14445   0.393   2.876   4.260  0.0606 -0.1607 -0.2765
 4335SOL    HW114446   0.328   2.911   4.321 -1.2192 -0.7950 -1.2260
 4335SOL    HW214447   0.359   2.790   4.236  1.0375 -0.3239 -1.1453
 4336SOL     OW14448   3.038   4.683  11.962  0.0706  0.1037 -0.2393
 4336SOL    HW114449   3.094   4.726  12.027 -0.3705  1.5962 -0.7980
 4336SOL    HW214450   2.950   4.686  12.001  0.2149 -1.4568  0.2615
 4337SOL     OW14451   7.870   2.051   6.531  0.4151 -0.4491 -0.0902
 4337SOL    HW114452   7.876   2.090   6.618 -1.4258  0.7758 -0.4627
 4337SOL    HW214453   7.794   1.993   6.535 -1.3651  1.6339 -1.5393
 4338SOL     OW14454   2.472   2.885   8.160  0.0964 -0.0496 -0.0574
 4338SOL    HW114455   2.471   2.972   8.120 -0.4736 -1.0317 -2.3498
 4338SOL    HW214456   2.565   2.861   8.163  0.2132  0.4150  0.0698
 4339SOL     OW14457   3.705   4.289   1.754  0.0216  0.2282 -0.3349
 4339SOL    HW114458   3.621   4.333   1.770 -0.1835 -0.0684 -0.5903
 4339SOL    HW214459   3.771   4.356   1.774 -0.2281  0.0575  1.2000
 4340SOL     OW14460   3.313   0.923  11.152  0.6987 -0.6405  0.2111
 4340SOL    HW114461   3.331   0.871  11.073  1.3333  1.0761 -0.8394
 4340SOL    HW214462   3.229   0.965  11.134  0.6187 -0.6113  0.6573
 4341SOL     OW14463   3.571   5.029   6.316  0.3645  0.2912 -0.6964
 4341SOL    HW114464   3.656   5.049   6.356 -0.2264 -3.0012  2.8618
 4341SOL    HW214465   3.590   4.960   6.252  0.5424  0.9732 -1.3966
 4342SOL     OW14466   5.971   7.614   2.489 -0.3216  0.2217 -0.3561
 4342SOL    HW114467   5.903   7.561   2.530  1.2108 -0.5896  1.3274
 4342SOL    HW214468   5.925   7.671   2.428 -2.1710 -2.2508 -1.4185
 4343SOL     OW14469   1.463   5.008   9.824  0.0221 -0.1805 -0.0758
 4343SOL    HW114470   1.389   5.049   9.780 -1.0124 -0.9575  0.9067
 4343SOL    HW214471   1.426   4.968   9.903  1.2231 -1.7716 -0.2540
 4344SOL     OW14472   0.241   3.459   3.269  0.3435 -0.1122 -0.2120
 4344SOL    HW114473   0.257   3.377   3.222 -0.4174 -0.2895 -0.1627
 4344SOL    HW214474   0.197   3.433   3.349  0.9478  0.2637  0.2549
 4345SOL     OW14475   7.708   1.284  11.674  0.1391  0.5824 -0.3100
 4345SOL    HW114476   7.625   1.309  11.716 -0.4429  0.9739 -1.6556
 4345SOL    HW214477   7.686   1.205  11.625  0.7906  0.1891  0.0241
 4346SOL     OW14478   5.618   3.497  11.122 -0.0351 -0.6663 -0.3933
 4346SOL    HW114479   5.619   3.432  11.052  1.1219 -0.4230 -0.6208
 4346SOL    HW214480   5.623   3.445  11.203 -0.1753 -0.9013 -0.5358
 4347SOL     OW14481   6.687   5.943  10.257 -0.0181  0.0502  0.0126
 4347SOL    HW114482   6.669   5.990  10.175  0.2754  1.0096  0.4800
 4347SOL    HW214483   6.605   5.950  10.307 -0.0649 -0.1776 -0.0335
 4348SOL     OW14484   6.709   4.021   6.360  0.4240  0.2500  0.2486
 4348SOL    HW114485   6.800   4.048   6.373  0.1770 -0.1639  3.9113
 4348SOL    HW214486   6.658   4.101   6.378  0.0179 -0.4040  2.3118
 4349SOL     OW14487   1.009   7.469   7.050 -0.1658  0.1214 -0.3678
 4349SOL    HW114488   0.969   7.532   7.109 -0.4294 -0.4434  0.0665
 4349SOL    HW214489   1.084   7.434   7.098 -0.6571 -0.6819 -0.1776
 4350SOL     OW14490   0.150   2.685   1.282  0.1657 -0.0296 -0.4004
 4350SOL    HW114491   0.227   2.735   1.255 -0.1171 -0.0327 -1.2462
 4350SOL    HW214492   0.078   2.749   1.283 -0.2177 -0.4097 -1.5910
 4351SOL     OW14493   4.622   6.424   4.859  0.4156  0.0191  0.4048
 4351SOL    HW114494   4.703   6.374   4.849 -0.2546 -1.7908  3.0760
 4351SOL    HW214495   4.566   6.369   4.913 -2.7898  1.0590 -1.5632
 4352SOL     OW14496   4.553   5.053  11.312 -0.7029  0.3474 -0.5046
 4352SOL    HW114497   4.470   5.013  11.339 -1.3020 -0.2095 -2.9069
 4352SOL    HW214498   4.612   5.039  11.385 -1.6449 -2.7081 -0.2073
 4353SOL     OW14499   4.334   6.637   8.382 -0.7029 -0.2076  0.1749
 4353SOL    HW114500   4.362   6.591   8.303 -0.2339  0.9406 -0.3565
 4353SOL    HW214501   4.353   6.577   8.454 -0.6399 -1.0541 -0.5374
 4354SOL     OW14502   3.487   3.743   8.165  0.3679  0.0894  0.1074
 4354SOL    HW114503   3.554   3.764   8.229 -0.7484  1.1950  0.9741
 4354SOL    HW214504   3.442   3.667   8.201 -0.4461  0.8872  0.8115
 4355SOL     OW14505   5.528   4.608   1.372  0.1017  0.1326 -0.3778
 4355SOL    HW114506   5.484   4.669   1.313  0.7320  0.0950 -0.9016
 4355SOL    HW214507   5.458   4.574   1.428 -0.4950  0.2468 -1.0341
 4356SOL     OW14508   0.014   4.420   1.415  0.3404 -0.7251 -0.1164
 4356SOL    HW114509  -0.019   4.503   1.378 -0.5804 -0.2398  1.6843
 4356SOL    HW214510   0.109   4.426   1.406  0.2425  0.1510 -0.7576
 4357SOL     OW14511   0.486   5.606   2.081 -0.5910 -0.0679 -0.4726
 4357SOL    HW114512   0.410   5.659   2.104 -0.6800 -0.1574 -0.5636
 4357SOL    HW214513   0.474   5.524   2.129 -1.2362 -0.6148 -1.5359
 4358SOL     OW14514   6.870   5.895   2.682  0.0547 -0.1331  0.0698
 4358SOL    HW114515   6.835   5.969   2.633  0.1863 -0.9256 -1.2629
 4358SOL    HW214516   6.816   5.821   2.655 -0.6367 -0.4070  2.0194
 4359SOL     OW14517   1.660   5.644   3.064 -0.1761  0.0501  0.0734
 4359SOL    HW114518   1.596   5.712   3.083 -2.3953 -1.8236 -0.2885
 4359SOL    HW214519   1.720   5.646   3.139 -0.5730  1.8956  0.3864
 4360SOL     OW14520   7.417   3.952   6.691  0.2468  0.0547 -0.0922
 4360SOL    HW114521   7.432   4.047   6.697  0.7077 -0.0686  0.7383
 4360SOL    HW214522   7.497   3.912   6.725  0.6268 -0.6659 -1.6998
 4361SOL     OW14523   7.091   5.577   2.133  0.2662 -0.6550  0.1354
 4361SOL    HW114524   7.112   5.669   2.149 -1.1341  0.1673 -2.3502
 4361SOL    HW214525   7.019   5.558   2.194 -0.0078  0.1666  0.0801
 4362SOL     OW14526   2.019   7.643   1.379  0.6950 -0.4911  0.4751
 4362SOL    HW114527   2.062   7.685   1.304  4.0421  1.6500  3.2866
 4362SOL    HW214528   2.081   7.576   1.408 -1.5179 -2.8122  0.2077
 4363SOL     OW14529   6.749   4.354   6.078  0.4242  0.0534 -0.4353
 4363SOL    HW114530   6.773   4.266   6.047 -1.0030 -0.0713 -1.2483
 4363SOL    HW214531   6.804   4.413   6.026  1.7396 -0.3461  0.4458
 4364SOL     OW14532   7.198   6.151  10.889  0.0355  0.1401 -0.0871
 4364SOL    HW114533   7.126   6.162  10.951  0.3726  0.5410  0.2462
 4364SOL    HW214534   7.275   6.138  10.945  0.4521  1.1707 -0.4048
 4365SOL     OW14535   1.922   0.823   7.844 -0.0116 -0.4987  0.1103
 4365SOL    HW114536   2.001   0.866   7.813  1.3354 -1.9142  1.3985
 4365SOL    HW214537   1.922   0.839   7.939 -1.9168  0.4440 -0.0080
 4366SOL     OW14538   3.798   7.042  12.009  0.2790  0.2072 -0.0746
 4366SOL    HW114539   3.869   7.055  11.946  0.6594 -1.7566 -0.1054
 4366SOL    HW214540   3.783   6.947  12.009 -0.6775  0.3193  1.7420
 4367SOL     OW14541   4.285   1.581   7.394 -0.1203 -0.3359 -0.0970
 4367SOL    HW114542   4.277   1.676   7.395 -1.6160 -0.4079  2.2316
 4367SOL    HW214543   4.199   1.549   7.368  0.1615 -1.0845 -0.1664
 4368SOL     OW14544   6.237   6.238   3.761 -0.2057 -0.5989  0.6084
 4368SOL    HW114545   6.187   6.164   3.795 -0.6836 -0.4949  0.1645
 4368SOL    HW214546   6.300   6.199   3.700 -1.9771 -0.5096 -1.4098
 4369SOL     OW14547   3.037   2.137   2.274 -0.9112 -0.1572  0.0848
 4369SOL    HW114548   3.064   2.196   2.202  0.8021 -0.2496  0.6026
 4369SOL    HW214549   3.096   2.160   2.346 -1.4370 -1.2807  0.8868
 4370SOL     OW14550   3.210   7.098  10.906  0.7081  0.0046 -0.4030
 4370SOL    HW114551   3.230   7.042  10.831 -0.1142  0.0869 -0.6948
 4370SOL    HW214552   3.186   7.183  10.867 -0.1431 -0.0772 -0.0835
 4371SOL     OW14553   5.937   6.254   8.845  0.0274 -0.2678 -0.0168
 4371SOL    HW114554   6.011   6.198   8.821 -0.2625 -0.0624 -1.5449
 4371SOL    HW214555   5.862   6.195   8.849 -0.2301 -0.0750 -1.3703
 4372SOL     OW14556   1.470   0.735   4.396  0.2340  0.3817 -0.0164
 4372SOL    HW114557   1.383   0.728   4.433  0.3947 -0.6604  0.1887
 4372SOL    HW214558   1.466   0.688   4.313  0.2229  1.5972 -0.7404
 4373SOL     OW14559   0.801   7.106   6.667 -0.5311 -0.4631  0.1763
 4373SOL    HW114560   0.836   7.017   6.657  0.4854 -0.2620  1.5691
 4373SOL    HW214561   0.832   7.134   6.753 -2.1440  0.6691  0.4275
 4374SOL     OW14562   6.425   7.413   5.234  0.0825 -0.5710  0.4667
 4374SOL    HW114563   6.472   7.444   5.311  0.1673 -1.6796  0.8814
 4374SOL    HW214564   6.333   7.430   5.253  0.0304 -1.5358  1.1701
 4375SOL     OW14565   1.161   3.465   0.320  0.1037 -0.3511  0.3452
 4375SOL    HW114566   1.164   3.531   0.390  0.7503 -0.7866  0.7297
 4375SOL    HW214567   1.080   3.485   0.273  0.9727  1.6348 -0.4482
 4376SOL     OW14568   6.278   0.123   3.963 -0.0100  0.1919 -0.3734
 4376SOL    HW114569   6.299   0.213   3.988  1.9667 -0.8769  2.3557
 4376SOL    HW214570   6.189   0.109   3.994  0.1006  0.8773  0.2754
 4377SOL     OW14571   6.292   6.260   4.467 -0.8618  0.6921 -0.3080
 4377SOL    HW114572   6.307   6.183   4.523  0.9805  1.0935 -0.1834
 4377SOL    HW214573   6.266   6.329   4.528 -2.2476  0.2708 -0.3881
 4378SOL     OW14574   5.581   5.086   9.932 -0.2773  0.0641 -0.6320
 4378SOL    HW114575   5.627   5.067   9.851  0.1629 -2.2295  0.0775
 4378SOL    HW214576   5.643   5.136   9.984 -0.3100  0.9560 -1.4360
 4379SOL     OW14577   1.778   4.372   6.695  0.7350 -0.4194 -0.1817
 4379SOL    HW114578   1.693   4.384   6.736  0.5641 -1.0959 -0.3304
 4379SOL    HW214579   1.791   4.277   6.693  0.8357 -0.4048 -1.4782
 4380SOL     OW14580   1.415   0.428   9.516 -0.2654  0.0680  0.2650
 4380SOL    HW114581   1.337   0.395   9.472 -0.0566 -1.3159  0.9092
 4380SOL    HW214582   1.426   0.516   9.480 -1.5011 -0.1087 -0.6240
 4381SOL     OW14583   2.572   5.021   3.743 -0.6818 -0.2299 -0.1059
 4381SOL    HW114584   2.543   4.938   3.704  0.0074 -1.2070  1.3780
 4381SOL    HW214585   2.641   5.052   3.684 -0.9887 -0.6835 -0.7125
 4382SOL     OW14586   4.456   1.620   0.435  0.1901  0.2662  0.6159
 4382SOL    HW114587   4.468   1.636   0.342 -0.6930  1.2315  0.6461
 4382SOL    HW214588   4.475   1.705   0.476  2.0689 -0.5033  1.4900
 4383SOL     OW14589   1.016   6.033   4.918 -0.3111 -0.2289 -0.1855
 4383SOL    HW114590   1.026   6.111   4.973 -1.6524  0.3983 -0.7832
 4383SOL    HW214591   1.105   6.010   4.893  0.1855  0.5067  0.8111
 4384SOL     OW14592   6.780   2.456   2.168  0.3114  0.3723  0.0620
 4384SOL    HW114593   6.804   2.368   2.197 -0.7553 -0.3500 -1.0935
 4384SOL    HW214594   6.713   2.484   2.230  0.8502  0.4920  0.5953
 4385SOL     OW14595   3.916   3.355   8.801 -0.5576  0.0020  0.0325
 4385SOL    HW114596   3.868   3.401   8.731 -0.0006 -0.7686 -0.8811
 4385SOL    HW214597   3.847   3.319   8.857 -1.1266 -1.4638 -1.5013
 4386SOL     OW14598   0.011   5.422   1.930 -0.2917 -0.3017  0.1663
 4386SOL    HW114599   0.068   5.459   1.862 -2.5038  1.5095 -0.8436
 4386SOL    HW214600   0.053   5.447   2.012 -0.1863  2.0915 -0.5326
 4387SOL     OW14601   1.657   4.342  10.695  0.7266 -0.5298  0.2735
 4387SOL    HW114602   1.702   4.423  10.672  0.8685 -1.0535 -1.4279
 4387SOL    HW214603   1.728   4.281  10.716  0.6962 -0.6187  0.1205
 4388SOL     OW14604   0.449   1.024   5.012  0.1348  0.0053 -0.3468
 4388SOL    HW114605   0.355   1.042   5.019  0.0973  0.1768 -1.1958
 4388SOL    HW214606   0.463   0.949   5.070 -0.4395  0.2591  0.1411
 4389SOL     OW14607   2.723   1.034   5.709 -0.0331  0.7109  0.2931
 4389SOL    HW114608   2.674   0.959   5.675  0.3138  0.6119  0.0098
 4389SOL    HW214609   2.661   1.078   5.767 -0.1162 -0.0092  0.7615
 4390SOL     OW14610   1.781   1.220   0.916  0.1046 -0.3269 -0.6039
 4390SOL    HW114611   1.851   1.270   0.958 -0.9914  0.3574  0.4679
 4390SOL    HW214612   1.713   1.212   0.983 -0.8716 -0.9414 -1.6265
 4391SOL     OW14613   2.921   0.997   4.931  0.3359  0.2585 -0.0110
 4391SOL    HW114614   2.980   1.064   4.967 -0.0844  0.8478 -0.4110
 4391SOL    HW214615   2.854   1.046   4.885 -0.0896 -0.4397 -0.1471
 4392SOL     OW14616   6.753   1.007   5.109 -0.0316  0.2825  0.2373
 4392SOL    HW114617   6.702   0.926   5.114  0.0007  0.0447 -2.3415
 4392SOL    HW214618   6.688   1.076   5.116 -0.2993  0.0239  0.3624
 4393SOL     OW14619   3.925   1.214   3.308  0.0484 -0.3117 -0.0437
 4393SOL    HW114620   3.856   1.160   3.269  0.3401  0.4086 -1.6446
 4393SOL    HW214621   3.989   1.225   3.238  1.2969 -0.0966  1.0885
 4394SOL     OW14622   2.674   4.553   2.371  0.4303 -0.5838 -0.4323
 4394SOL    HW114623   2.669   4.545   2.276  0.5301 -1.7664 -0.3503
 4394SOL    HW214624   2.686   4.647   2.387  1.6005 -0.5107 -1.6345
 4395SOL     OW14625   3.717   6.525   0.042 -0.4591  0.2143  0.1709
 4395SOL    HW114626   3.804   6.500   0.011 -1.5147 -1.2833 -1.8217
 4395SOL    HW214627   3.705   6.475   0.123  1.1174  1.7091  1.3924
 4396SOL     OW14628   3.627   4.717  10.702  0.2527  0.4288 -0.3134
 4396SOL    HW114629   3.659   4.697  10.615 -2.1499 -0.8408 -0.9851
 4396SOL    HW214630   3.618   4.813  10.703  2.0830  0.6328 -0.7441
 4397SOL     OW14631   7.111   0.049   4.497 -0.1652  0.1813  0.9308
 4397SOL    HW114632   7.081  -0.009   4.426  1.4446 -1.2674  1.3708
 4397SOL    HW214633   7.030   0.088   4.531 -1.1417 -0.4542 -0.5210
 4398SOL     OW14634   6.632   1.784   0.100  0.0401 -0.4723  0.2487
 4398SOL    HW114635   6.646   1.879   0.094  0.7163 -0.4785  1.3424
 4398SOL    HW214636   6.562   1.766   0.038 -0.6843  0.8801  0.6298
 4399SOL     OW14637   4.028   0.461   9.657 -0.5494  0.1401 -0.4114
 4399SOL    HW114638   4.012   0.447   9.564 -0.4446 -0.6774 -0.3136
 4399SOL    HW214639   4.120   0.436   9.669  0.0564  2.1515 -0.4523
 4400SOL     OW14640   0.860   1.611   9.524 -0.7687  0.0042 -0.3559
 4400SOL    HW114641   0.936   1.560   9.497 -1.1865 -1.0317  0.3779
 4400SOL    HW214642   0.892   1.667   9.595 -1.2410 -2.4247  1.9191
 4401SOL     OW14643   7.620   3.240   8.596 -0.5095  0.6352  0.1415
 4401SOL    HW114644   7.540   3.253   8.646  0.4353 -0.8547  2.1834
 4401SOL    HW214645   7.598   3.171   8.533 -0.8748  0.3245  0.6048
 4402SOL     OW14646   2.470   6.083   4.403 -0.1182 -0.1131  0.5697
 4402SOL    HW114647   2.470   6.003   4.351 -0.4296  0.6297 -0.6104
 4402SOL    HW214648   2.562   6.101   4.421 -0.0737 -1.0436  1.3656
 4403SOL     OW14649   7.680   2.120   2.510  0.1371 -0.3402 -0.0547
 4403SOL    HW114650   7.756   2.139   2.565 -0.9337  1.8667  0.7775
 4403SOL    HW214651   7.700   2.159   2.425  0.5696 -1.1560 -0.3347
 4404SOL     OW14652   0.064   2.528   2.739 -0.1443 -0.4895 -0.1584
 4404SOL    HW114653   0.048   2.442   2.699  0.7338 -0.1519 -1.2764
 4404SOL    HW214654   0.144   2.517   2.790  0.7707  0.0060 -1.4440
 4405SOL     OW14655   1.837   3.728   8.155  0.1078  0.2601  0.0765
 4405SOL    HW114656   1.841   3.648   8.102  0.2234 -1.1337  2.0704
 4405SOL    HW214657   1.928   3.752   8.169  0.0793  0.5613 -0.2312
 4406SOL     OW14658   2.409   4.847   0.455 -0.0124  0.0930  0.3312
 4406SOL    HW114659   2.444   4.930   0.488 -0.1358  0.1470  0.3274
 4406SOL    HW214660   2.455   4.833   0.372 -0.6435  0.6148 -0.1227
 4407SOL     OW14661   2.294   1.083   2.194  0.0309 -0.0714  0.0280
 4407SOL    HW114662   2.343   1.002   2.209  3.0723  1.4184 -1.2088
 4407SOL    HW214663   2.216   1.055   2.146  0.6534 -2.3396  0.2283
 4408SOL     OW14664   5.567   6.283   9.035 -0.5846  0.0412 -0.2052
 4408SOL    HW114665   5.652   6.324   9.054 -1.4741  1.6164  0.5719
 4408SOL    HW214666   5.551   6.225   9.110  0.2774 -1.1066 -0.8807
 4409SOL     OW14667   4.069   4.851   3.459 -0.6931  0.0502 -0.6168
 4409SOL    HW114668   4.159   4.858   3.489 -0.8455 -0.9620  0.1701
 4409SOL    HW214669   4.074   4.794   3.382 -0.6966 -0.3944 -0.2955
 4410SOL     OW14670   3.675   1.369   7.727 -0.0904  0.2688  0.4198
 4410SOL    HW114671   3.585   1.392   7.750 -0.9673  1.4385 -3.4484
 4410SOL    HW214672   3.666   1.296   7.666  1.3251  1.7725 -1.7262
 4411SOL     OW14673   7.739   5.881  11.152  0.3572 -0.1727  0.1281
 4411SOL    HW114674   7.832   5.885  11.130 -0.1150 -0.2690 -2.1158
 4411SOL    HW214675   7.697   5.942  11.092 -0.9551  0.6770  1.8189
 4412SOL     OW14676   5.127   1.430   2.126 -0.7142  0.5472  0.3192
 4412SOL    HW114677   5.102   1.338   2.139 -0.8493  0.5183 -0.1573
 4412SOL    HW214678   5.068   1.478   2.184 -0.8461  0.3577  0.3451
 4413SOL     OW14679   5.241   5.331   2.771  0.3008 -0.1167 -0.1577
 4413SOL    HW114680   5.332   5.334   2.742  0.5170 -1.6749  0.2606
 4413SOL    HW214681   5.244   5.351   2.864  0.0193  1.3257 -0.4374
 4414SOL     OW14682   5.925   0.132   2.555  0.3884 -0.3641  0.1234
 4414SOL    HW114683   5.858   0.116   2.622  0.2478  0.8159  0.2875
 4414SOL    HW214684   6.007   0.136   2.605  0.5241 -1.3133 -0.0150
 4415SOL     OW14685   1.445   6.788   2.706  0.2480  0.2408 -1.1123
 4415SOL    HW114686   1.528   6.789   2.659 -0.1388 -0.6261 -1.8598
 4415SOL    HW214687   1.440   6.701   2.745  0.0628  0.5779 -0.3658
 4416SOL     OW14688   4.478   1.690   8.510 -0.2886 -0.4967  0.7578
 4416SOL    HW114689   4.554   1.703   8.452  0.6751 -2.4109  1.4816
 4416SOL    HW214690   4.402   1.698   8.452  0.4799  0.8286 -0.1147
 4417SOL     OW14691   1.319   5.120  11.632  0.2703  0.0859  0.2353
 4417SOL    HW114692   1.246   5.060  11.616  0.6318 -0.0853 -0.8139
 4417SOL    HW214693   1.397   5.071  11.606  1.0780 -0.6032  3.4255
 4418SOL     OW14694   5.098   0.256  10.531 -0.1553  0.2923  0.0841
 4418SOL    HW114695   5.025   0.196  10.521  1.6904 -1.9095 -1.0491
 4418SOL    HW214696   5.161   0.208  10.585  2.1637  0.3375 -2.3644
 4419SOL     OW14697   0.993   3.486   7.899  0.3206 -0.3790 -0.0128
 4419SOL    HW114698   0.950   3.558   7.946  1.3287 -0.0869  0.4928
 4419SOL    HW214699   1.057   3.452   7.961  3.0082  1.1974 -1.7463
 4420SOL     OW14700   5.022   2.911   3.270 -0.1543  0.4884  0.0749
 4420SOL    HW114701   4.957   2.888   3.204  0.0087 -1.4412  0.5390
 4420SOL    HW214702   5.042   3.003   3.252 -2.4635  0.9472 -0.5157
 4421SOL     OW14703   5.516   3.539   9.139  0.0989 -0.0803 -0.2405
 4421SOL    HW114704   5.578   3.525   9.067  1.7407  1.0572  0.8619
 4421SOL    HW214705   5.478   3.625   9.120 -1.1240 -0.7373 -0.8657
 4422SOL     OW14706   3.355   0.608   8.500  0.3742  0.2602 -0.9028
 4422SOL    HW114707   3.430   0.551   8.487  0.0703  0.0374 -1.8105
 4422SOL    HW214708   3.368   0.647   8.586  0.8722 -0.7472 -0.5042
 4423SOL     OW14709   2.779   4.682   6.892  0.0518  0.3273 -0.4371
 4423SOL    HW114710   2.811   4.608   6.841 -0.3778  1.1175 -1.9042
 4423SOL    HW214711   2.848   4.749   6.885  0.7298 -0.1111  1.4052
 4424SOL     OW14712   7.501   2.701   9.793  0.3711 -0.4798  0.5635
 4424SOL    HW114713   7.568   2.743   9.738  2.1222 -3.0009  0.6219
 4424SOL    HW214714   7.516   2.737   9.880  0.0171  0.7668  0.1368
 4425SOL     OW14715   2.276   7.276  10.014 -0.2902 -0.1501  0.5890
 4425SOL    HW114716   2.343   7.213  10.038  0.6821 -0.0302 -1.6353
 4425SOL    HW214717   2.228   7.235   9.943 -2.4586 -0.1022  1.9144
 4426SOL     OW14718   2.546   6.788   7.546 -0.0670  0.0320 -0.7105
 4426SOL    HW114719   2.526   6.860   7.486 -0.5093  0.2178 -0.3446
 4426SOL    HW214720   2.640   6.775   7.536  0.2528  1.4937  0.1268
 4427SOL     OW14721   5.107   4.102   1.736 -0.3568  0.7326 -0.3261
 4427SOL    HW114722   5.130   4.018   1.697  0.1017  0.8001 -0.2138
 4427SOL    HW214723   5.191   4.140   1.762 -0.4929  1.5533 -1.0378
 4428SOL     OW14724   2.678   5.289  10.815  0.1023 -0.3081  0.2756
 4428SOL    HW114725   2.756   5.291  10.871  0.1509 -0.5614  0.2149
 4428SOL    HW214726   2.707   5.248  10.734 -0.1414 -0.5787  0.3227
 4429SOL     OW14727   3.345   6.343   5.779 -0.1230 -0.0057  0.3870
 4429SOL    HW114728   3.426   6.298   5.806  0.1516  0.1321 -0.1815
 4429SOL    HW214729   3.324   6.304   5.694  0.6105  1.5301 -0.5468
 4430SOL     OW14730   1.819   0.265   8.903  0.2326 -0.8099  0.2275
 4430SOL    HW114731   1.736   0.258   8.855  1.5775  0.1354 -2.4217
 4430SOL    HW214732   1.794   0.294   8.990 -2.2977 -1.6849 -0.1286
 4431SOL     OW14733   1.244   7.660   4.780  0.1042 -0.1045  0.3993
 4431SOL    HW114734   1.296   7.657   4.700  0.6381 -0.6279  0.7528
 4431SOL    HW214735   1.310   7.664   4.850 -0.3597  0.6728  0.7958
 4432SOL     OW14736   3.947   1.347   2.052 -0.3024 -0.5940 -0.4714
 4432SOL    HW114737   3.918   1.431   2.088  2.3128 -0.5529  1.9143
 4432SOL    HW214738   3.868   1.309   2.014 -1.9302  2.2188 -0.2321
 4433SOL     OW14739   5.467   3.895   2.333  0.3111 -0.5374  0.4027
 4433SOL    HW114740   5.526   3.964   2.302 -0.2268 -0.5849 -0.7859
 4433SOL    HW214741   5.389   3.942   2.364  0.4615 -0.5454  0.7988
 4434SOL     OW14742   1.468   4.680   9.694  0.1342 -0.1191  0.1909
 4434SOL    HW114743   1.514   4.688   9.777 -0.5579  2.2415  0.4128
 4434SOL    HW214744   1.402   4.612   9.710  1.2215 -1.0223  0.9621
 4435SOL     OW14745   7.487   3.852   8.990  0.3895  0.2392  0.3022
 4435SOL    HW114746   7.395   3.876   8.999  0.2240  0.0831 -0.8749
 4435SOL    HW214747   7.499   3.834   8.897  1.3961 -0.6304  0.5731
 4436SOL     OW14748   4.867   7.536   6.177 -0.1248  0.4596  0.1452
 4436SOL    HW114749   4.941   7.530   6.237 -0.7511  2.0484  1.1281
 4436SOL    HW214750   4.859   7.447   6.141  1.2388 -0.1466  1.2123
 4437SOL     OW14751   1.731   7.539   0.612  0.2708  0.7346  0.0927
 4437SOL    HW114752   1.756   7.561   0.522 -0.1428  1.3391  0.1142
 4437SOL    HW214753   1.792   7.589   0.667  0.8641 -0.0422  0.1608
 4438SOL     OW14754   3.197   7.378   7.167 -0.2002 -0.0237  0.2074
 4438SOL    HW114755   3.127   7.334   7.118 -0.1139  0.0421  0.0223
 4438SOL    HW214756   3.192   7.469   7.138 -0.3938  0.0955  0.6089
 4439SOL     OW14757   0.001   5.382   9.908 -0.6225  0.4936  0.0280
 4439SOL    HW114758  -0.020   5.332   9.987 -0.7305  0.3992 -0.0590
 4439SOL    HW214759   0.072   5.332   9.867 -0.4339  0.6457  0.1640
 4440SOL     OW14760   2.955   4.063   6.174 -0.2021 -0.2614 -0.2370
 4440SOL    HW114761   3.047   4.042   6.155 -0.2036 -1.6202  1.0299
 4440SOL    HW214762   2.954   4.158   6.186  0.5337  0.1226 -2.7602
 4441SOL     OW14763   3.162   2.214  11.134 -0.3753  0.3749  0.2052
 4441SOL    HW114764   3.229   2.228  11.068 -0.7711  1.7624  0.0659
 4441SOL    HW214765   3.082   2.196  11.085 -0.6950  1.5196  0.2604
 4442SOL     OW14766   6.745   5.374  10.343 -0.0775 -0.6088  0.1742
 4442SOL    HW114767   6.827   5.423  10.339  1.2323 -2.5782  1.5840
 4442SOL    HW214768   6.704   5.389  10.257  1.4837  0.8159 -0.3719
 4443SOL     OW14769   0.716   4.434   9.879 -0.6682 -0.3987  0.1861
 4443SOL    HW114770   0.659   4.509   9.898  0.3330  0.3602  0.3244
 4443SOL    HW214771   0.714   4.381   9.959 -0.6806 -0.0477  0.4219
 4444SOL     OW14772   1.933   3.457   0.808 -0.1489 -0.3720 -0.3831
 4444SOL    HW114773   1.885   3.375   0.823  1.2899 -0.9041  1.7073
 4444SOL    HW214774   1.869   3.526   0.825 -0.8912 -1.0503 -0.3304
 4445SOL     OW14775   4.795   4.402   3.230 -0.0437 -0.0815 -0.4105
 4445SOL    HW114776   4.719   4.352   3.260 -0.6491  0.5088 -0.9346
 4445SOL    HW214777   4.837   4.345   3.165  0.0715 -0.4825  0.0064
 4446SOL     OW14778   5.357   5.948  11.122 -0.3831  0.4715  0.2117
 4446SOL    HW114779   5.337   5.856  11.137  1.1122  0.0658 -0.1566
 4446SOL    HW214780   5.452   5.952  11.119 -0.4030  1.3988 -3.5308
 4447SOL     OW14781   2.546   1.989   7.084  0.0641 -0.0169  0.2714
 4447SOL    HW114782   2.581   2.028   7.003  1.6597  0.3628  1.1032
 4447SOL    HW214783   2.495   2.060   7.124  0.5100  0.2827  0.3207
 4448SOL     OW14784   1.422   6.553  12.421 -0.3761  0.6403  0.2082
 4448SOL    HW114785   1.486   6.518  12.482  0.6451 -0.9563 -1.6584
 4448SOL    HW214786   1.461   6.539  12.335 -1.8095  2.6755 -0.8435
 4449SOL     OW14787   3.051   3.757   6.201  1.3033  0.0215  0.3485
 4449SOL    HW114788   2.978   3.815   6.225  1.5205  0.9363 -1.1126
 4449SOL    HW214789   3.128   3.813   6.203  2.0012 -0.9400  1.8549
 4450SOL     OW14790   0.031   7.801   3.440  0.0813  0.2357  0.0097
 4450SOL    HW114791   0.085   7.850   3.501 -1.6503  1.5123  0.6161
 4450SOL    HW214792  -0.008   7.868   3.383 -1.6393 -0.4608  0.2824
 4451SOL     OW14793   5.901   6.359   3.529  0.3762 -0.4066  0.2450
 4451SOL    HW114794   5.875   6.273   3.562  1.2977 -0.3804  1.0893
 4451SOL    HW214795   5.946   6.400   3.603 -0.6556  1.0857  0.1070
 4452SOL     OW14796   5.882   3.503  10.507 -0.0105 -0.2296  0.5754
 4452SOL    HW114797   5.836   3.573  10.460  0.9260  0.9979  1.4135
 4452SOL    HW214798   5.837   3.423  10.481 -2.0066  0.8149  0.6429
 4453SOL     OW14799   4.212   5.834  11.271 -0.1529 -0.1200 -0.3236
 4453SOL    HW114800   4.144   5.767  11.259 -0.3295  0.0568 -0.3003
 4453SOL    HW214801   4.285   5.787  11.311  0.4607 -0.7543 -2.0810
 4454SOL     OW14802   7.952   7.015   5.487 -0.5220  0.2046 -0.2914
 4454SOL    HW114803   8.008   6.983   5.558  0.0967 -1.1190 -1.3331
 4454SOL    HW214804   7.883   7.065   5.531  1.0368  1.2566  1.0852
 4455SOL     OW14805   0.248   7.645   7.883  0.6323 -0.5692  0.0470
 4455SOL    HW114806   0.242   7.575   7.819  0.8933  0.1367 -0.7667
 4455SOL    HW214807   0.340   7.670   7.882  0.5365 -0.1976  0.3124
 4456SOL     OW14808   3.128   7.895   5.523 -0.1860 -0.7082 -0.5661
 4456SOL    HW114809   3.210   7.878   5.568 -0.4918  1.0227  0.7296
 4456SOL    HW214810   3.061   7.854   5.578 -0.2080 -2.6063 -1.9027
 4457SOL     OW14811   6.622   1.692   6.763  0.1372  0.3017 -0.4277
 4457SOL    HW114812   6.636   1.629   6.834  1.1360 -0.6153 -1.3835
 4457SOL    HW214813   6.527   1.701   6.756 -0.0001  1.5833  1.9870
 4458SOL     OW14814   2.718   0.089   3.981  0.1162  0.1965 -0.0840
 4458SOL    HW114815   2.791   0.141   3.946 -0.3089 -0.4368 -2.0225
 4458SOL    HW214816   2.659   0.078   3.907 -1.2784 -0.5089  1.0907
 4459SOL     OW14817   6.887   4.102   2.896  0.0574  0.5283  0.0430
 4459SOL    HW114818   6.895   4.093   2.991  0.4292 -0.4119 -0.0654
 4459SOL    HW214819   6.977   4.116   2.866  0.0666 -0.1339 -0.2521
 4460SOL     OW14820   0.146   5.884   5.301  0.1498  0.7079  0.8720
 4460SOL    HW114821   0.115   5.963   5.344 -0.4971  1.1713 -0.3937
 4460SOL    HW214822   0.069   5.826   5.300 -0.7979  1.8235 -2.1914
 4461SOL     OW14823   2.766   2.044  10.698 -0.0805  0.4132  0.5163
 4461SOL    HW114824   2.824   2.006  10.632 -2.7498 -1.1894 -1.0987
 4461SOL    HW214825   2.748   2.132  10.666  0.2991  0.3806  0.2090
 4462SOL     OW14826   3.710   1.921   0.921 -0.0150  0.0932 -0.2644
 4462SOL    HW114827   3.686   1.931   1.013  0.2605 -0.3761 -0.1405
 4462SOL    HW214828   3.637   1.959   0.873 -0.2071  0.2455  0.1429
 4463SOL     OW14829   4.048   7.321   4.201  0.0754  0.1162  0.2956
 4463SOL    HW114830   4.107   7.246   4.204  0.6165  0.2139 -3.2557
 4463SOL    HW214831   4.090   7.388   4.256  1.8835 -0.7190 -0.0058
 4464SOL     OW14832   3.995   1.224  11.240 -0.1499  0.4337 -0.0762
 4464SOL    HW114833   4.005   1.291  11.172 -0.3013  2.7706  2.0822
 4464SOL    HW214834   3.915   1.177  11.216  0.1222  0.7885 -1.8080
 4465SOL     OW14835   1.523   7.659  11.875 -0.1430  0.0666 -0.0259
 4465SOL    HW114836   1.468   7.611  11.937 -0.0806 -2.0790 -1.5206
 4465SOL    HW214837   1.462   7.694  11.810 -0.0965  1.3384  0.5825
 4466SOL     OW14838   3.218   7.345   9.886 -0.0547  0.1611 -0.0458
 4466SOL    HW114839   3.256   7.335   9.973  1.1800  2.5886 -0.2191
 4466SOL    HW214840   3.243   7.433   9.859  0.6408 -0.9232 -3.3903
 4467SOL     OW14841   1.489   2.904   1.885  0.2683  0.1919  0.5366
 4467SOL    HW114842   1.429   2.969   1.849  0.2347 -0.7528 -1.2397
 4467SOL    HW214843   1.432   2.840   1.927  0.0370 -0.3396 -0.5407
 4468SOL     OW14844   6.367   2.701   8.906  0.0606 -0.0098  0.1609
 4468SOL    HW114845   6.439   2.763   8.914  0.8527 -0.8208 -0.4878
 4468SOL    HW214846   6.396   2.639   8.839 -1.8442  0.4636 -1.1886
 4469SOL     OW14847   1.868   1.331   6.318  0.0472 -0.0406  0.6390
 4469SOL    HW114848   1.819   1.389   6.259  2.5516  2.1076  0.5053
 4469SOL    HW214849   1.875   1.248   6.269 -1.4161  0.3577 -0.3033
 4470SOL     OW14850   4.819   7.172   7.678 -0.7570  0.4555  0.2078
 4470SOL    HW114851   4.848   7.112   7.747  0.0808  0.8148  0.1780
 4470SOL    HW214852   4.900   7.206   7.640 -1.1852  0.0154 -1.1813
 4471SOL     OW14853   4.998   4.350   0.848 -0.6805 -0.3283 -0.0972
 4471SOL    HW114854   5.093   4.339   0.844 -0.3391  1.0049  2.2714
 4471SOL    HW214855   4.966   4.274   0.897 -0.4125  0.5758  1.5770
 4472SOL     OW14856   0.467   3.066   1.649 -0.1425  0.4349  0.0291
 4472SOL    HW114857   0.509   3.027   1.725  1.5624  1.0451 -0.5533
 4472SOL    HW214858   0.453   3.158   1.673 -0.3129  0.4492 -0.1172
 4473SOL     OW14859   7.550   2.944   8.734  0.1154 -0.2439  0.3639
 4473SOL    HW114860   7.563   2.985   8.820  0.5998  1.2487 -0.3794
 4473SOL    HW214861   7.516   2.857   8.754  0.8886 -0.1994  2.0898
 4474SOL     OW14862   0.824   3.660   1.219  0.2789 -0.2420 -0.2587
 4474SOL    HW114863   0.796   3.613   1.140  1.4739  1.3500 -1.7280
 4474SOL    HW214864   0.820   3.595   1.289 -2.4443 -1.2956 -1.2574
 4475SOL     OW14865   7.297   5.715   7.686 -0.7576 -0.2807  0.1518
 4475SOL    HW114866   7.233   5.647   7.707 -1.9267 -0.8107 -4.0561
 4475SOL    HW214867   7.250   5.774   7.627  1.4811  1.7558  0.2588
 4476SOL     OW14868   7.979   6.115   9.287 -0.1380 -0.4692 -0.0023
 4476SOL    HW114869   7.966   6.042   9.228 -0.4179  0.4469 -1.1115
 4476SOL    HW214870   7.961   6.193   9.234  1.1012  0.4559  0.8521
 4477SOL     OW14871   3.127   0.787   3.101 -0.3830 -0.9398  0.2057
 4477SOL    HW114872   3.061   0.853   3.124  1.3761  1.2078 -0.6569
 4477SOL    HW214873   3.078   0.723   3.049 -1.9071  0.3373 -0.0314
 4478SOL     OW14874   5.788   6.609   5.536  0.5785 -0.2013 -0.2003
 4478SOL    HW114875   5.769   6.541   5.601  1.1576 -0.6909 -0.5245
 4478SOL    HW214876   5.809   6.686   5.588 -1.7835  0.2620  0.1755
 4479SOL     OW14877   2.939   6.579   6.676  0.5201 -0.0117  0.6178
 4479SOL    HW114878   2.930   6.485   6.690 -1.1998 -0.1995 -1.3180
 4479SOL    HW214879   3.003   6.587   6.605  1.7720  0.3959  1.7546
 4480SOL     OW14880   7.339   1.049   5.542 -0.4015  0.4022 -0.0092
 4480SOL    HW114881   7.358   0.955   5.544 -0.5472  0.1256 -3.9424
 4480SOL    HW214882   7.422   1.091   5.521 -0.0754  1.3786  2.8802
 4481SOL     OW14883   5.226   1.677   7.726 -0.0070 -0.7523  0.4868
 4481SOL    HW114884   5.322   1.682   7.726  0.0362 -0.4242 -1.9330
 4481SOL    HW214885   5.206   1.617   7.797  2.0354 -1.4736  0.5337
 4482SOL     OW14886   1.362   2.091   6.773 -0.5496  0.0267 -0.0262
 4482SOL    HW114887   1.357   2.146   6.850  0.1457 -1.2261  0.9543
 4482SOL    HW214888   1.456   2.085   6.753 -0.7781  1.4536 -1.8447
 4483SOL     OW14889   4.658   3.008   4.806  0.0130  0.2937  0.1129
 4483SOL    HW114890   4.657   3.085   4.863  1.5150 -1.3574  2.5881
 4483SOL    HW214891   4.591   2.950   4.843  0.7120 -0.6468 -0.0660
 4484SOL     OW14892   3.896   3.026   9.754 -0.4024  0.3445 -0.0160
 4484SOL    HW114893   3.987   3.000   9.767 -0.0426  1.0376 -1.0805
 4484SOL    HW214894   3.850   2.943   9.739  0.1330  0.0366  0.0155
 4485SOL     OW14895   7.080   4.454   2.124  0.0663  0.1895  0.4657
 4485SOL    HW114896   7.115   4.494   2.203 -0.0320  1.2295  0.0011
 4485SOL    HW214897   7.133   4.490   2.053 -0.2085 -0.2949  0.0073
 4486SOL     OW14898   6.865   2.413   3.710 -0.5290  0.4474 -0.1175
 4486SOL    HW114899   6.876   2.325   3.675  1.3064 -0.3265  2.1560
 4486SOL    HW214900   6.931   2.465   3.664  1.4665 -0.4363  1.5429
 4487SOL     OW14901   3.500   6.954  11.271  0.0389  0.1235 -0.2382
 4487SOL    HW114902   3.455   7.012  11.333 -0.3808 -0.6947  0.2293
 4487SOL    HW214903   3.431   6.923  11.213 -0.1482 -1.6422  0.8690
 4488SOL     OW14904   5.707   6.451   7.746 -0.4317  0.2795  0.3933
 4488SOL    HW114905   5.727   6.428   7.655 -3.0671 -0.5803 -0.0633
 4488SOL    HW214906   5.723   6.545   7.752  0.4469  0.2121 -0.7652
 4489SOL     OW14907   7.620   5.336   6.749 -0.7412 -0.1035 -0.1019
 4489SOL    HW114908   7.588   5.336   6.839  1.0298 -0.3349  0.5693
 4489SOL    HW214909   7.707   5.295   6.754 -2.0571 -3.6723 -2.4796
 4490SOL     OW14910   3.687   2.686   6.844  0.2965 -0.5517 -0.2359
 4490SOL    HW114911   3.777   2.658   6.861  1.4170  1.7654 -1.6835
 4490SOL    HW214912   3.635   2.648   6.915  2.1359 -3.1685 -0.1671
 4491SOL     OW14913   3.186   7.322   5.149  0.4429  0.6233  0.1500
 4491SOL    HW114914   3.113   7.344   5.206 -0.0502  0.0536 -0.2513
 4491SOL    HW214915   3.264   7.331   5.204  0.1784  2.2902  0.2879
 4492SOL     OW14916   0.873   0.817   0.549  0.3272 -0.0550 -0.2664
 4492SOL    HW114917   0.867   0.725   0.573 -1.9724  0.8951  3.7698
 4492SOL    HW214918   0.932   0.856   0.614 -1.0750  1.7391  0.0195
 4493SOL     OW14919   0.797   3.820   6.509  0.4664 -0.5520  0.1132
 4493SOL    HW114920   0.829   3.809   6.599 -0.2903  1.8663  0.7663
 4493SOL    HW214921   0.871   3.793   6.454  1.9014  0.3296  1.5085
 4494SOL     OW14922   0.458   5.621  10.775 -0.3850  0.3422 -0.2031
 4494SOL    HW114923   0.508   5.559  10.828  0.4811 -0.2028 -1.6218
 4494SOL    HW214924   0.369   5.587  10.776  0.0008 -0.7126 -0.6370
 4495SOL     OW14925   2.210   7.551   0.247 -0.1174  0.3839  0.0187
 4495SOL    HW114926   2.176   7.556   0.157  0.2023 -0.3218 -0.1461
 4495SOL    HW214927   2.213   7.642   0.276 -1.3028  0.5355 -0.2801
 4496SOL     OW14928   5.819   2.653  11.539 -0.6664 -0.3807 -0.0268
 4496SOL    HW114929   5.775   2.634  11.622 -2.3281  0.1329 -0.7336
 4496SOL    HW214930   5.795   2.581  11.481 -0.2753 -0.2737 -0.3309
 4497SOL     OW14931   6.471   6.717   3.282 -0.0447 -0.5705 -0.4254
 4497SOL    HW114932   6.499   6.667   3.359 -0.4761 -0.0552  0.0809
 4497SOL    HW214933   6.471   6.654   3.211 -1.0880 -1.4406  0.3018
 4498SOL     OW14934   7.868   1.789  10.901 -0.1095  0.5704 -0.1653
 4498SOL    HW114935   7.906   1.845  10.833  1.1509  0.0254  0.0590
 4498SOL    HW214936   7.943   1.752  10.947 -0.9287 -0.1144  0.6753
 4499SOL     OW14937   1.344   0.485  12.288 -0.3014 -0.4463 -0.4274
 4499SOL    HW114938   1.318   0.412  12.233  0.0636 -1.2778  0.4730
 4499SOL    HW214939   1.329   0.455  12.378  0.8462  0.1650  0.0039
 4500SOL     OW14940   3.745   3.161   4.284 -0.1638  0.6039  0.2102
 4500SOL    HW114941   3.727   3.143   4.191  0.8787  1.2097 -0.1328
 4500SOL    HW214942   3.660   3.182   4.322 -0.7046 -0.3176 -0.4497
 4501SOL     OW14943   2.512   4.461   9.362 -0.1939 -0.3086  0.5855
 4501SOL    HW114944   2.608   4.470   9.362  0.0730 -2.2296  2.1793
 4501SOL    HW214945   2.491   4.428   9.275  0.6786 -0.3488  0.3734
 4502SOL     OW14946   4.970   1.805   7.122 -0.4951 -0.3518  0.1279
 4502SOL    HW114947   4.935   1.810   7.033 -1.2007  0.9497  0.4594
 4502SOL    HW214948   4.916   1.865   7.173  1.4319  0.8265  0.9174
 4503SOL     OW14949   1.096   5.640  11.298 -0.0676 -0.8158 -0.1869
 4503SOL    HW114950   1.142   5.566  11.259  2.4310  1.0451 -0.9879
 4503SOL    HW214951   1.075   5.697  11.225  0.1405  0.3706  0.6465
 4504SOL     OW14952   5.524   2.657   8.301 -0.1995  0.1529  0.1136
 4504SOL    HW114953   5.580   2.726   8.337 -0.6763  0.1933  0.8030
 4504SOL    HW214954   5.435   2.683   8.326 -0.3703 -0.8145  0.5632
 4505SOL     OW14955   2.862   2.833   5.688 -0.1819  0.2291  0.0329
 4505SOL    HW114956   2.908   2.907   5.648  1.5730 -1.3884 -1.1154
 4505SOL    HW214957   2.903   2.823   5.774 -1.3237  1.3167  0.7577
 4506SOL     OW14958   0.976   5.783   3.023  0.0801 -0.0691 -0.1473
 4506SOL    HW114959   0.911   5.730   2.976  0.1943  0.1743 -0.5795
 4506SOL    HW214960   1.052   5.725   3.031  0.6404  0.4064 -1.6634
 4507SOL     OW14961   4.468   2.829   4.893 -0.6214  0.1061 -0.0944
 4507SOL    HW114962   4.450   2.807   4.985  2.1571  0.9537  0.7284
 4507SOL    HW214963   4.383   2.819   4.850 -1.8275 -1.2418  2.3537
 4508SOL     OW14964   2.000   0.273   3.167  0.6960 -0.0314 -0.0705
 4508SOL    HW114965   1.928   0.241   3.113  0.1504  0.9064  0.0802
 4508SOL    HW214966   2.043   0.340   3.114 -0.5225  1.7043  1.0005
 4509SOL     OW14967   2.645   0.512   4.401  0.2793 -0.4781  0.4081
 4509SOL    HW114968   2.590   0.495   4.325 -1.4035 -1.1123  1.6911
 4509SOL    HW214969   2.692   0.430   4.415  0.6044 -0.3546  0.0562
 4510SOL     OW14970   3.823   6.842  10.485  0.3876 -0.0589  0.1806
 4510SOL    HW114971   3.877   6.917  10.462 -0.0265 -0.2450 -1.5095
 4510SOL    HW214972   3.883   6.768  10.487  0.1603 -0.3876 -2.3784
 4511SOL     OW14973   6.225   5.340   3.674  0.0965  0.2132 -1.2224
 4511SOL    HW114974   6.299   5.378   3.721  0.1186  0.6732 -1.6158
 4511SOL    HW214975   6.244   5.358   3.582 -0.8157  0.9086 -1.2904
 4512SOL     OW14976   3.344   0.545   2.757 -0.6993 -0.4108 -0.2604
 4512SOL    HW114977   3.268   0.501   2.718 -0.9371 -0.9135  0.7398
 4512SOL    HW214978   3.339   0.523   2.850 -0.6519  1.4680  0.2334
 4513SOL     OW14979   6.483   7.774   0.480  1.0460 -0.0082 -0.5347
 4513SOL    HW114980   6.572   7.781   0.515  0.9018 -0.4946 -0.0702
 4513SOL    HW214981   6.428   7.757   0.556  0.3662  1.5212 -0.6444
 4514SOL     OW14982   4.864   7.306   9.180 -0.1416  0.0212 -0.6208
 4514SOL    HW114983   4.823   7.223   9.207 -0.0640  0.2358  0.1856
 4514SOL    HW214984   4.846   7.312   9.086 -0.6099 -0.6487 -0.5832
 4515SOL     OW14985   6.111   6.058   5.263  0.3494  0.0629 -1.0078
 4515SOL    HW114986   6.201   6.056   5.233  0.2021 -1.8375 -1.4760
 4515SOL    HW214987   6.093   5.968   5.291 -0.8374  0.7951  0.8092
 4516SOL     OW14988   0.002   4.508   3.368 -0.1720 -0.0345  0.6360
 4516SOL    HW114989   0.031   4.536   3.455  0.7916  0.1123  0.2726
 4516SOL    HW214990   0.025   4.580   3.310  2.2411 -1.4300 -0.2936
 4517SOL     OW14991   6.638   4.116  10.233 -0.0508  0.5998 -0.2660
 4517SOL    HW114992   6.627   4.025  10.205 -1.2701  1.0063 -1.2034
 4517SOL    HW214993   6.733   4.130  10.232  0.1509 -0.6505 -0.1104
 4518SOL     OW14994   0.603   0.544  10.705  0.2524  0.1070 -0.1823
 4518SOL    HW114995   0.573   0.620  10.656  0.3311  0.5946  0.5275
 4518SOL    HW214996   0.606   0.572  10.796  0.2209 -0.7630  0.1000
 4519SOL     OW14997   2.136   1.247   3.221 -0.9618 -0.2914 -0.0962
 4519SOL    HW114998   2.228   1.275   3.223 -0.5023 -1.2930 -2.9869
 4519SOL    HW214999   2.090   1.313   3.274  1.0839  1.6781 -0.6038
 4520SOL     OW15000   2.029   0.480   4.381  0.7415  0.1313 -0.3751
 4520SOL    HW115001   2.040   0.496   4.475 -0.1771  0.2332 -0.2738
 4520SOL    HW215002   2.116   0.454   4.351  0.8347 -0.9104  0.7036
 4521SOL     OW15003   4.395   0.818  11.143  0.5351 -0.1095 -0.3066
 4521SOL    HW115004   4.460   0.811  11.072 -0.6413 -0.1541 -1.4253
 4521SOL    HW215005   4.391   0.912  11.162 -0.6314  0.1858 -1.7961
 4522SOL     OW15006   2.846   2.722   0.178 -0.0300  0.0655 -0.2867
 4522SOL    HW115007   2.808   2.787   0.118  0.7584  0.5439 -0.2806
 4522SOL    HW215008   2.770   2.676   0.214 -0.7587  2.1598  1.0435
 4523SOL     OW15009   3.426   1.882   3.400 -0.1785 -0.2034 -0.2542
 4523SOL    HW115010   3.359   1.904   3.336 -1.1607  1.2719  1.2039
 4523SOL    HW215011   3.497   1.944   3.383  0.1034 -0.6444 -0.7062
 4524SOL     OW15012   1.116   2.618  11.082  0.1520 -0.5925 -0.0212
 4524SOL    HW115013   1.033   2.667  11.082  1.2574  1.3489 -0.0245
 4524SOL    HW215014   1.107   2.557  11.156 -1.9678 -1.7361 -1.1012
 4525SOL     OW15015   2.845   6.650  10.086  0.5662  0.3979 -0.4455
 4525SOL    HW115016   2.859   6.624  10.177  1.8043 -0.2923 -0.8137
 4525SOL    HW215017   2.849   6.746  10.088 -1.4552  0.5210  0.5119
 4526SOL     OW15018   3.631   0.607   6.348 -0.8033 -0.4477 -0.0072
 4526SOL    HW115019   3.569   0.651   6.290 -0.3499 -1.2262 -1.1253
 4526SOL    HW215020   3.577   0.559   6.410 -1.3333 -0.7477 -0.6855
 4527SOL     OW15021   6.746   0.982   7.340 -0.9318 -0.1645  0.0643
 4527SOL    HW115022   6.701   0.961   7.423 -0.2513 -1.6059  0.0966
 4527SOL    HW215023   6.839   0.980   7.362 -0.7145 -1.1840 -0.8517
 4528SOL     OW15024   3.756   3.695   9.420 -0.4655  0.1386 -0.7255
 4528SOL    HW115025   3.814   3.767   9.396  0.0081 -0.3172 -0.9592
 4528SOL    HW215026   3.811   3.634   9.468 -0.8756 -0.0506 -0.4878
 4529SOL     OW15027   1.756   4.479   3.684  0.0792 -0.2715  0.1123
 4529SOL    HW115028   1.833   4.502   3.634 -0.5258  0.2442 -0.6042
 4529SOL    HW215029   1.786   4.411   3.745  1.3511  0.7380  0.6556
 4530SOL     OW15030   4.056   2.004  11.704  0.1251 -0.0053  0.5340
 4530SOL    HW115031   4.095   2.022  11.790 -0.8117  0.0946  0.9438
 4530SOL    HW215032   4.105   1.928  11.672 -0.5746 -1.0813  1.8787
 4531SOL     OW15033   0.713   4.117   1.320 -0.5018  0.4887  0.9392
 4531SOL    HW115034   0.769   4.166   1.380  1.7541 -0.1010 -0.5213
 4531SOL    HW215035   0.680   4.183   1.259 -0.0932  0.6547  0.8921
 4532SOL     OW15036   2.655   3.305  12.041  0.1118 -0.3729  0.0422
 4532SOL    HW115037   2.644   3.325  12.134  1.9484 -0.5556  0.3446
 4532SOL    HW215038   2.750   3.307  12.027  0.0430 -2.5836 -1.3268
 4533SOL     OW15039   7.826   4.337  12.236 -0.4980 -0.1326 -0.0303
 4533SOL    HW115040   7.869   4.287  12.166 -0.1434 -1.0897  0.8389
 4533SOL    HW215041   7.806   4.271  12.303 -0.5775  0.7994  0.8842
 4534SOL     OW15042   4.288   1.376   1.695 -0.0776  0.2642 -0.0468
 4534SOL    HW115043   4.358   1.315   1.672 -0.8667 -0.3531 -0.9082
 4534SOL    HW215044   4.234   1.327   1.757  1.8660  1.8077  3.0780
 4535SOL     OW15045   4.154   4.027  11.682  0.5889 -0.1891  0.0136
 4535SOL    HW115046   4.113   3.946  11.711  0.4381 -0.4778 -0.9604
 4535SOL    HW215047   4.080   4.083  11.657  0.6906  0.2710  0.7372
 4536SOL     OW15048   7.972   0.049   8.106  0.4030  0.4810  0.1025
 4536SOL    HW115049   7.988   0.085   8.019 -2.0704  0.2045 -0.5365
 4536SOL    HW215050   8.039  -0.019   8.116  1.4489  1.2775 -1.0837
 4537SOL     OW15051   1.387   3.932   8.250  0.2790  0.3391 -0.4502
 4537SOL    HW115052   1.481   3.953   8.245  0.1515  2.2548  2.5086
 4537SOL    HW215053   1.343   4.013   8.225 -0.4424  0.6356  1.5515
 4538SOL     OW15054   2.076   4.636   8.009 -0.2082  0.7864  0.0623
 4538SOL    HW115055   2.059   4.727   8.033  0.3704  0.5669  1.3928
 4538SOL    HW215056   2.154   4.639   7.953  0.9181  0.9717  1.5900
 4539SOL     OW15057   1.435   6.515   6.489  0.7183  0.5093  0.2977
 4539SOL    HW115058   1.358   6.560   6.456 -0.4341 -1.1672  0.5755
 4539SOL    HW215059   1.506   6.543   6.432 -0.1297  1.8566 -0.1476
 4540SOL     OW15060   2.005   1.459  10.471  0.1015  0.6616 -0.2227
 4540SOL    HW115061   1.962   1.453  10.556 -0.4460 -1.5847 -0.5922
 4540SOL    HW215062   1.932   1.463  10.408  0.4638  0.0975 -0.6892
 4541SOL     OW15063   1.995   0.769   0.417 -0.6302 -0.4947 -0.0530
 4541SOL    HW115064   2.057   0.697   0.400  1.5600  1.3903 -0.6174
 4541SOL    HW215065   1.933   0.764   0.345 -0.5827 -1.8498 -0.0366
 4542SOL     OW15066   3.056   5.416   7.767 -0.4937  0.0945  0.5787
 4542SOL    HW115067   2.979   5.467   7.742  0.1122  1.3567  1.2241
 4542SOL    HW215068   3.120   5.481   7.795  0.9639 -0.8959 -0.3024
 4543SOL     OW15069   0.657   4.401  10.681 -0.6858 -0.9578 -0.6859
 4543SOL    HW115070   0.571   4.429  10.650 -1.6974 -2.3323  0.6873
 4543SOL    HW215071   0.674   4.455  10.759 -0.5320 -1.0083 -0.6838
 4544SOL     OW15072   7.788   6.319   3.359 -0.2284  0.1977  0.3557
 4544SOL    HW115073   7.792   6.258   3.433  0.2609  0.5427  0.6210
 4544SOL    HW215074   7.879   6.329   3.331 -0.3352  0.5806  0.1317
 4545SOL     OW15075   0.429   1.918   1.248  0.0258  0.0834 -0.5500
 4545SOL    HW115076   0.396   1.907   1.159 -0.0140  0.1101 -0.5389
 4545SOL    HW215077   0.412   2.010   1.269 -0.3590 -0.0257 -0.3609
 4546SOL     OW15078   0.168   4.656   4.019 -0.1857  0.0223  0.6243
 4546SOL    HW115079   0.111   4.616   4.084 -1.1166  0.0314 -0.1646
 4546SOL    HW215080   0.159   4.750   4.034 -0.3616  0.0230  0.5164
 4547SOL     OW15081   1.685   7.656  12.214  0.1671 -0.0033 -0.6560
 4547SOL    HW115082   1.620   7.588  12.231 -1.6636  1.7194 -0.3095
 4547SOL    HW215083   1.633   7.737  12.206  2.4420  2.0642  2.7926
 4548SOL     OW15084   2.873   2.709   4.982 -0.1979 -0.1253  0.0667
 4548SOL    HW115085   2.888   2.647   5.053  0.1228 -0.7412 -0.5234
 4548SOL    HW215086   2.828   2.783   5.023 -0.6791 -0.7923  0.7666
 4549SOL     OW15087   5.202   0.102   0.855 -0.5191  0.0074 -1.0207
 4549SOL    HW115088   5.257   0.027   0.836 -0.6664 -0.5557  0.6471
 4549SOL    HW215089   5.196   0.149   0.772 -1.9107 -2.7673 -2.6349
 4550SOL     OW15090   2.166   4.175   6.029 -0.2193  0.1577 -0.4085
 4550SOL    HW115091   2.247   4.215   5.997  0.2831 -0.1029  0.5087
 4550SOL    HW215092   2.097   4.225   5.986  0.3697  2.3629  1.0385
 4551SOL     OW15093   5.768   5.536   8.664  0.1909  0.1950  0.0479
 4551SOL    HW115094   5.762   5.441   8.664  1.2252  0.0942  1.1052
 4551SOL    HW215095   5.714   5.563   8.738  1.2543  0.2679  0.8385
 4552SOL     OW15096   7.496   1.323   3.448 -0.3253  0.1615  0.0121
 4552SOL    HW115097   7.484   1.254   3.382 -1.3391 -0.0904  0.4481
 4552SOL    HW215098   7.588   1.348   3.439 -0.1922 -0.5598 -0.8223
 4553SOL     OW15099   4.283   7.023   3.443  0.2541 -0.2226  0.1432
 4553SOL    HW115100   4.251   6.943   3.401  1.4569 -0.1313 -1.0209
 4553SOL    HW215101   4.342   7.062   3.379  0.3340  1.1841  1.0169
 4554SOL     OW15102   4.969   6.089   4.099 -0.3426 -0.0618 -0.0192
 4554SOL    HW115103   5.027   6.013   4.098  0.2090  0.3362  0.3517
 4554SOL    HW215104   4.881   6.053   4.105 -0.0198 -0.6627  1.6797
 4555SOL     OW15105   2.798   5.539   2.901  0.2695 -0.7018 -0.5766
 4555SOL    HW115106   2.802   5.634   2.887  1.5940 -0.7703 -0.7745
 4555SOL    HW215107   2.855   5.503   2.833  2.4186 -1.4135  1.4617
 4556SOL     OW15108   2.969   6.111   0.869  0.0208 -0.3021 -0.4027
 4556SOL    HW115109   2.892   6.156   0.904 -0.1675 -0.2681 -0.8519
 4556SOL    HW215110   2.950   6.018   0.881  0.0934 -0.2794 -0.1256
 4557SOL     OW15111   0.121   4.008   0.944 -0.5800 -0.0356 -0.3888
 4557SOL    HW115112   0.116   4.019   0.849 -2.5536  0.5307 -0.2727
 4557SOL    HW215113   0.066   4.078   0.979 -1.0014 -1.0497  1.0889
 4558SOL     OW15114   3.926   6.146   9.909 -0.3031 -0.1830  0.2715
 4558SOL    HW115115   3.888   6.073   9.860 -0.1044 -0.6603  0.8214
 4558SOL    HW215116   4.009   6.112   9.942  0.0725  0.4843  0.0358
 4559SOL     OW15117   6.636   1.963   6.756  0.9523  0.1430 -0.1140
 4559SOL    HW115118   6.723   1.970   6.716  1.4473 -1.7257  0.4964
 4559SOL    HW215119   6.628   1.870   6.777 -0.5964  0.5374  1.2049
 4560SOL     OW15120   0.154   4.924   7.082 -0.0564 -0.1492 -0.5050
 4560SOL    HW115121   0.170   4.982   7.008  0.0938  0.1208 -0.2634
 4560SOL    HW215122   0.139   4.838   7.043 -0.3367  0.0649 -0.8694
 4561SOL     OW15123   5.102   3.650   7.565  0.6080 -0.0845 -0.6213
 4561SOL    HW115124   5.075   3.568   7.606 -0.3291  0.5380  0.0613
 4561SOL    HW215125   5.127   3.706   7.639  0.6947  0.4311 -1.0341
 4562SOL     OW15126   5.699   2.987   6.760 -0.2498 -0.5167  0.3818
 4562SOL    HW115127   5.727   2.911   6.810  1.5672 -0.7645 -0.9206
 4562SOL    HW215128   5.652   2.951   6.685  0.2147 -0.3427  0.0026
 4563SOL     OW15129   5.331   0.095   5.377  0.0853  0.0514  0.1322
 4563SOL    HW115130   5.388   0.114   5.303  0.7555 -1.7687  0.1344
 4563SOL    HW215131   5.259   0.157   5.369  0.6139  0.4868 -1.5142
 4564SOL     OW15132   6.582   0.599   9.803 -0.4165  0.3090  0.2772
 4564SOL    HW115133   6.523   0.531   9.834  0.8933 -0.7999  0.4395
 4564SOL    HW215134   6.642   0.614   9.876  0.5611  0.1627 -0.4803
 4565SOL     OW15135   5.930   7.275   6.672 -0.2288  0.6109 -0.4184
 4565SOL    HW115136   5.960   7.358   6.634  0.0605  1.0060  0.6202
 4565SOL    HW215137   5.985   7.264   6.750 -0.4162 -0.4542 -0.4244
 4566SOL     OW15138   2.423   6.609  10.636  0.4029 -0.0140  0.0908
 4566SOL    HW115139   2.433   6.526  10.589 -0.8415  0.5979 -1.3699
 4566SOL    HW215140   2.331   6.610  10.663 -0.5857  2.1795 -2.7457
 4567SOL     OW15141   6.162   2.975   6.296 -0.6328  0.2165  0.0420
 4567SOL    HW115142   6.169   3.016   6.382 -0.2112  1.4323 -0.5433
 4567SOL    HW215143   6.232   2.910   6.294  0.3273  1.2211  0.0903
 4568SOL     OW15144   4.869   7.711   0.083 -0.2839  0.4759  0.3381
 4568SOL    HW115145   4.883   7.798   0.120  1.0473  0.0758  0.8216
 4568SOL    HW215146   4.923   7.653   0.136  2.2286 -0.0346 -2.5496
 4569SOL     OW15147   1.881   6.534   7.784  0.0424 -0.1357  0.2662
 4569SOL    HW115148   1.816   6.524   7.853  1.0940 -2.4202  1.0066
 4569SOL    HW215149   1.939   6.604   7.815  0.5480 -1.1733  1.8045
 4570SOL     OW15150   3.913   7.963  11.523  0.4966  0.1580  0.4219
 4570SOL    HW115151   3.875   7.898  11.582  1.3468 -0.9367 -0.1842
 4570SOL    HW215152   3.870   7.947  11.439  1.1580 -0.0648  0.1166
 4571SOL     OW15153   0.560   3.738   5.762 -0.4101 -0.0853 -0.1301
 4571SOL    HW115154   0.606   3.694   5.690 -0.9307  0.1251 -0.5958
 4571SOL    HW215155   0.530   3.821   5.725 -0.0919  0.3313  0.5302
 4572SOL     OW15156   4.862   7.481  12.310 -0.1121 -0.4713 -0.6582
 4572SOL    HW115157   4.811   7.429  12.249  0.1764  0.1852 -1.4780
 4572SOL    HW215158   4.827   7.570  12.301  0.0156 -0.3450  0.0402
 4573SOL     OW15159   1.017   5.688   2.604 -0.0759  0.0092  0.1150
 4573SOL    HW115160   0.982   5.747   2.670  1.5290  0.0949  0.9265
 4573SOL    HW215161   0.942   5.634   2.579 -1.0304  0.8588  1.0087
 4574SOL     OW15162   1.570   1.562   7.881 -0.0105 -0.3652  0.0151
 4574SOL    HW115163   1.557   1.520   7.796 -2.6680  0.6842 -0.1977
 4574SOL    HW215164   1.559   1.490   7.944 -0.3248 -0.7399 -0.4588
 4575SOL     OW15165   4.000   6.695   6.192  0.7118 -0.1415  0.5671
 4575SOL    HW115166   4.094   6.679   6.195  0.6932 -1.2917 -1.9516
 4575SOL    HW215167   3.962   6.618   6.235  0.9261 -0.7944 -0.3593
 4576SOL     OW15168   1.058   4.590   0.566 -0.0101  0.1315  0.3483
 4576SOL    HW115169   1.015   4.532   0.503  0.0547  0.6761 -0.2020
 4576SOL    HW215170   1.100   4.658   0.512  1.3872 -0.2756  0.8598
 4577SOL     OW15171   7.790   4.847   2.495 -0.3340 -0.1431  0.0650
 4577SOL    HW115172   7.768   4.755   2.507 -1.0780  0.2047  1.5343
 4577SOL    HW215173   7.770   4.888   2.579  0.2988  1.3065 -0.4581
 4578SOL     OW15174   0.819   2.140   6.900 -0.0515 -0.4022  0.3744
 4578SOL    HW115175   0.899   2.107   6.943  1.5214  3.0889  0.4510
 4578SOL    HW215176   0.782   2.202   6.963 -0.3114  1.3263 -1.3943
 4579SOL     OW15177   4.395   1.612   2.406 -0.3370 -0.1386  0.1783
 4579SOL    HW115178   4.398   1.518   2.419 -0.9971 -0.1905  0.0244
 4579SOL    HW215179   4.304   1.630   2.382  0.3157  0.2084 -2.3213
 4580SOL     OW15180   3.362   1.703   2.170 -0.1427  0.0044 -0.3422
 4580SOL    HW115181   3.275   1.690   2.209  1.5553 -3.2317  2.9767
 4580SOL    HW215182   3.384   1.618   2.133  1.7831  0.6457 -0.7746
 4581SOL     OW15183   5.566   1.166   6.784 -0.2603 -0.0403 -0.4061
 4581SOL    HW115184   5.523   1.251   6.783  1.6772  0.9939 -0.1389
 4581SOL    HW215185   5.547   1.130   6.871  0.8418  1.1760  0.3583
 4582SOL     OW15186   3.999   0.010  11.884  0.0164  0.3766 -0.1393
 4582SOL    HW115187   4.004  -0.085  11.877  0.4346  0.3255  0.7158
 4582SOL    HW215188   3.919   0.033  11.836 -0.6747 -0.5172  0.5380
 4583SOL     OW15189   7.945   5.507  10.894  0.2080  0.3183 -0.2767
 4583SOL    HW115190   7.921   5.445  10.825  1.7537 -1.1703  0.4448
 4583SOL    HW215191   8.006   5.568  10.852  0.4320 -0.0275 -0.4589
 4584SOL     OW15192   1.002   7.726  11.867 -0.4449 -0.2538  0.4703
 4584SOL    HW115193   1.050   7.644  11.870  1.1987  0.5643 -1.2783
 4584SOL    HW215194   1.023   7.769  11.950  1.8747  0.0307 -0.1847
 4585SOL     OW15195   5.272   6.592   7.836  0.2829 -0.4782  0.7724
 4585SOL    HW115196   5.315   6.659   7.889 -1.4226  0.0531  1.5665
 4585SOL    HW215197   5.205   6.640   7.787 -0.4104 -1.4560  0.7205
 4586SOL     OW15198   3.496   4.277   1.470 -0.4563  0.6125  0.8197
 4586SOL    HW115199   3.550   4.356   1.478  0.8628 -0.0577 -0.7854
 4586SOL    HW215200   3.526   4.236   1.388 -1.6996 -1.1052  1.1725
 4587SOL     OW15201   3.430   5.077   6.764 -0.5633  0.0870  0.1916
 4587SOL    HW115202   3.476   5.158   6.740  0.6156 -0.5797  0.0909
 4587SOL    HW215203   3.428   5.026   6.682 -0.1561 -0.4960  0.5313
 4588SOL     OW15204   3.426   4.755   9.944 -0.5192  0.5182  0.4281
 4588SOL    HW115205   3.337   4.784   9.961 -0.9222 -0.6623  0.4101
 4588SOL    HW215206   3.461   4.732  10.030  0.3470  2.4657  0.6575
 4589SOL     OW15207   5.124   7.893   9.124  0.2774  0.4832  0.0975
 4589SOL    HW115208   5.172   7.975   9.113  1.4224 -0.0871  0.6784
 4589SOL    HW215209   5.033   7.920   9.135  0.0479  1.4935 -3.1621
 4590SOL     OW15210   4.799   4.454   1.400 -0.0222  0.3221  0.1440
 4590SOL    HW115211   4.796   4.365   1.434 -0.3110  0.0862 -0.4949
 4590SOL    HW215212   4.877   4.492   1.440  1.0150 -0.7202 -0.8251
 4591SOL     OW15213   7.058   2.628   9.173  0.0693  0.6328 -0.0550
 4591SOL    HW115214   7.135   2.573   9.185 -0.3039 -0.1976 -1.2690
 4591SOL    HW215215   7.053   2.641   9.078 -1.8291 -0.1554 -0.1029
 4592SOL     OW15216   5.669   6.425   5.720 -0.0969 -0.0738 -0.0773
 4592SOL    HW115217   5.641   6.336   5.698 -1.7749  1.0023 -2.9185
 4592SOL    HW215218   5.731   6.415   5.792 -0.7193 -3.4577  0.1041
 4593SOL     OW15219   3.980   7.242   1.585  0.1593 -0.3598 -0.3244
 4593SOL    HW115220   4.023   7.327   1.594 -1.0863  0.3100 -0.5530
 4593SOL    HW215221   4.029   7.197   1.516  1.8682 -0.5214  0.9323
 4594SOL     OW15222   3.027   4.920   2.936  0.4851  0.0329  0.4423
 4594SOL    HW115223   3.086   4.852   2.970  0.6354 -0.1197 -0.1215
 4594SOL    HW215224   3.052   4.930   2.844 -0.2561  0.0975  0.2457
 4595SOL     OW15225   3.404   6.267   7.199  0.2717  0.0989 -0.3808
 4595SOL    HW115226   3.372   6.271   7.289 -0.8824  1.9055 -0.8238
 4595SOL    HW215227   3.352   6.198   7.158  1.7498 -1.7300  0.6057
 4596SOL     OW15228   5.567   6.144   7.341  0.0857 -0.5175 -0.0951
 4596SOL    HW115229   5.608   6.231   7.343 -0.2386 -0.3681  0.1077
 4596SOL    HW215230   5.492   6.154   7.283 -0.7737 -0.2875  1.0120
 4597SOL     OW15231   7.316   1.938   4.004  0.0646  0.1034  0.3203
 4597SOL    HW115232   7.368   1.872   3.958 -0.0317 -0.5809  1.1729
 4597SOL    HW215233   7.381   1.998   4.041  0.1261  1.0696 -1.2654
 4598SOL     OW15234   5.441   7.922   7.603 -0.5809  0.6594 -0.2239
 4598SOL    HW115235   5.431   7.881   7.517  1.7620  0.8252 -0.6456
 4598SOL    HW215236   5.457   8.014   7.584 -0.2928  0.7412  0.3905
 4599SOL     OW15237   2.333   5.211   8.741  0.1353 -0.4545 -0.6035
 4599SOL    HW115238   2.429   5.211   8.736  0.2612  1.5187  0.7397
 4599SOL    HW215239   2.313   5.260   8.821 -2.0172 -0.2634 -1.1906
 4600SOL     OW15240   6.083   6.171   5.532  0.0939  0.1733 -0.0581
 4600SOL    HW115241   6.109   6.146   5.443  1.7906  0.1344  0.4089
 4600SOL    HW215242   6.123   6.257   5.545 -2.1205  1.2907 -0.1318
 4601SOL     OW15243   6.428   0.518  10.348 -0.9926  0.1375 -0.8020
 4601SOL    HW115244   6.432   0.426  10.374 -0.7168  0.0719 -1.0661
 4601SOL    HW215245   6.341   0.528  10.309 -1.4064  0.2384  0.1372
 4602SOL     OW15246   6.899   0.570   3.405  0.1822 -0.4249 -0.2848
 4602SOL    HW115247   6.889   0.655   3.364 -1.0281 -0.4451 -0.0609
 4602SOL    HW215248   6.913   0.590   3.498 -0.6720 -0.4728 -0.1380
 4603SOL     OW15249   5.108   5.378  11.172 -0.1025 -0.2889 -0.3176
 4603SOL    HW115250   5.043   5.380  11.243 -1.8220 -3.3173 -1.6311
 4603SOL    HW215251   5.072   5.437  11.105  0.1228  0.4311  0.1822
 4604SOL     OW15252   7.766   1.139   2.390 -0.1956 -0.3816  0.0658
 4604SOL    HW115253   7.839   1.114   2.447 -0.6508  1.2691  1.4857
 4604SOL    HW215254   7.805   1.196   2.324 -0.0097 -0.5066  0.0685
 4605SOL     OW15255   4.065   5.216  10.946  0.3462 -0.2146 -0.4725
 4605SOL    HW115256   4.111   5.135  10.964  0.2065 -0.7858 -2.4263
 4605SOL    HW215257   4.022   5.238  11.028  1.9645 -1.0539  0.6427
 4606SOL     OW15258   0.214   3.212   7.180 -0.0872 -0.5703  0.3577
 4606SOL    HW115259   0.262   3.195   7.099  1.3284  1.3226  0.7359
 4606SOL    HW215260   0.262   3.165   7.248 -0.4756 -1.0229  0.3292
 4607SOL     OW15261   1.818   0.481   4.643  0.5035 -0.5423 -0.2390
 4607SOL    HW115262   1.873   0.451   4.716 -1.2531 -0.8110  1.0445
 4607SOL    HW215263   1.786   0.566   4.671 -0.5450 -0.8402 -0.4896
 4608SOL     OW15264   3.604   5.576   8.677  0.1743  0.2001 -0.7188
 4608SOL    HW115265   3.554   5.648   8.716 -0.6836 -0.0291 -1.3678
 4608SOL    HW215266   3.620   5.516   8.750 -1.1836 -0.0940 -0.6295
 4609SOL     OW15267   0.463   0.683   7.344 -0.3758 -0.4158 -0.1448
 4609SOL    HW115268   0.540   0.706   7.396 -1.0985  0.1697  0.7053
 4609SOL    HW215269   0.481   0.719   7.257 -0.4889  1.4520  0.5549
 4610SOL     OW15270   1.871   1.664   8.116 -0.2182  0.0769  0.3657
 4610SOL    HW115271   1.828   1.595   8.168 -1.0842  0.6509  0.4297
 4610SOL    HW215272   1.964   1.643   8.121 -0.4259 -0.7816  0.8392
 4611SOL     OW15273   7.233   0.895  11.110 -0.0098 -0.5316  0.0054
 4611SOL    HW115274   7.222   0.934  11.023 -0.6919  1.1273  0.7931
 4611SOL    HW215275   7.327   0.896  11.125 -0.0425  1.6860  0.3435
 4612SOL     OW15276   0.831   4.097   5.194 -0.0509  0.6654 -0.3315
 4612SOL    HW115277   0.879   4.024   5.233 -0.0946  0.6344 -0.3347
 4612SOL    HW215278   0.814   4.157   5.267 -0.7133  0.2913 -0.1594
 4613SOL     OW15279   6.883   7.878   2.647  0.0819  0.6819  0.0002
 4613SOL    HW115280   6.888   7.972   2.666 -2.2121  0.9726 -0.5520
 4613SOL    HW215281   6.904   7.872   2.554 -0.4496  0.7573 -0.1301
 4614SOL     OW15282   1.295   5.807   1.492  0.0446  0.2228 -0.4256
 4614SOL    HW115283   1.218   5.783   1.440 -0.1773 -0.8138  0.3553
 4614SOL    HW215284   1.359   5.836   1.427 -1.4265  2.4315 -0.9969
 4615SOL     OW15285   4.644   7.149   2.580  0.0784 -0.0802  0.5768
 4615SOL    HW115286   4.668   7.146   2.673 -0.4904 -1.4858  0.7039
 4615SOL    HW215287   4.658   7.059   2.549 -0.1303  0.2815 -0.5978
 4616SOL     OW15288   7.513   7.174   1.161  0.5661  0.2934  0.9480
 4616SOL    HW115289   7.592   7.132   1.195  0.7216 -0.1141  0.0956
 4616SOL    HW215290   7.542   7.261   1.133  1.3129 -0.7462 -1.7587
 4617SOL     OW15291   2.852   7.655   8.087 -0.0606 -0.0161  0.2144
 4617SOL    HW115292   2.913   7.588   8.055  1.0950  0.6858  0.9046
 4617SOL    HW215293   2.897   7.696   8.161 -0.3701  2.1115 -0.7040
 4618SOL     OW15294   4.100   4.945   7.749 -0.2972 -0.7405 -0.1758
 4618SOL    HW115295   4.047   4.919   7.674  0.2178  2.0175 -1.6543
 4618SOL    HW215296   4.180   4.894   7.740 -0.4718 -0.8631 -1.2153
 4619SOL     OW15297   1.255   2.695   6.506 -0.1039 -0.0266 -0.4399
 4619SOL    HW115298   1.221   2.707   6.417 -1.2727 -1.9994 -0.3244
 4619SOL    HW215299   1.231   2.775   6.552  0.1118  0.8352 -1.7655
 4620SOL     OW15300   1.879   0.780  11.716  0.1372  0.4400 -0.5207
 4620SOL    HW115301   1.852   0.806  11.804  0.6358  0.5406 -0.3954
 4620SOL    HW215302   1.797   0.781  11.665 -0.1783  0.2377 -0.0293
 4621SOL     OW15303   0.806   1.772   2.275 -0.1892  0.1313  0.3621
 4621SOL    HW115304   0.824   1.847   2.331 -1.0839 -0.0790  0.9541
 4621SOL    HW215305   0.867   1.705   2.305  0.8185  0.7037 -0.3701
 4622SOL     OW15306   0.584   2.977   9.920 -0.1277  0.0732 -0.2586
 4622SOL    HW115307   0.577   3.000  10.013  0.8529  0.0021 -0.1622
 4622SOL    HW215308   0.550   3.054   9.874 -2.7163 -0.7037  0.1572
 4623SOL     OW15309   0.393   1.138  10.859 -0.5535  0.4423  0.0139
 4623SOL    HW115310   0.367   1.072  10.923 -0.0552 -0.5647 -0.7846
 4623SOL    HW215311   0.471   1.178  10.896  1.0331 -1.6320 -0.8657
 4624SOL     OW15312   5.179   4.030   0.965  0.1137 -0.0182 -0.1996
 4624SOL    HW115313   5.193   4.052   1.057  0.2923  2.6404 -0.7708
 4624SOL    HW215314   5.267   4.029   0.927  0.2299 -2.9900 -0.0560
 4625SOL     OW15315   2.548   6.728   9.371  0.0945  0.3106 -0.1635
 4625SOL    HW115316   2.558   6.726   9.466  1.1970 -0.6328 -0.2790
 4625SOL    HW215317   2.534   6.820   9.350 -0.8222  0.4483  0.9660
 4626SOL     OW15318   3.507   3.370   8.591 -0.6049 -0.4766 -0.0441
 4626SOL    HW115319   3.455   3.335   8.518 -0.3816  0.4917 -0.6997
 4626SOL    HW215320   3.522   3.295   8.648 -0.8256 -1.2636 -0.9798
 4627SOL     OW15321   0.980   0.185   6.445 -0.4246 -0.4015 -0.6023
 4627SOL    HW115322   1.064   0.182   6.398  0.2550  0.6622  0.4880
 4627SOL    HW215323   0.967   0.278   6.463 -1.9441 -0.5381 -0.9062
 4628SOL     OW15324   7.897   4.640   6.539 -0.4705  0.2134  0.5850
 4628SOL    HW115325   7.881   4.700   6.611 -2.2031 -0.2155  0.6050
 4628SOL    HW215326   7.811   4.605   6.517  0.1182 -0.2062 -1.2316
 4629SOL     OW15327   6.872   7.624   2.136  0.3812  0.3654 -0.2997
 4629SOL    HW115328   6.789   7.594   2.171 -0.1953  1.8941 -0.2937
 4629SOL    HW215329   6.859   7.624   2.041 -0.1319  1.9218 -0.2528
 4630SOL     OW15330   7.369   7.092   5.573 -0.1235  0.4336 -0.2314
 4630SOL    HW115331   7.286   7.110   5.618  0.3729  0.6400  0.6300
 4630SOL    HW215332   7.356   7.127   5.485 -1.3097 -0.4657 -0.4370
 4631SOL     OW15333   7.370   0.790  10.532  0.3773  0.1491  0.5776
 4631SOL    HW115334   7.291   0.741  10.555  1.0109 -1.5703 -0.7280
 4631SOL    HW215335   7.337   0.872  10.494 -0.8688 -1.1602 -1.3578
 4632SOL     OW15336   0.941   6.242   3.164 -0.2803  0.0005  0.1212
 4632SOL    HW115337   0.944   6.147   3.173 -0.4351 -0.0841 -0.6452
 4632SOL    HW215338   1.009   6.261   3.100 -1.0167  0.2892 -0.5888
 4633SOL     OW15339   6.374   3.322   4.593 -0.2292 -0.0412  0.2878
 4633SOL    HW115340   6.358   3.320   4.687 -0.4049 -0.0661  0.2581
 4633SOL    HW215341   6.309   3.383   4.559  0.3597  0.5931  0.2784
 4634SOL     OW15342   5.825   4.416   7.812 -0.1005 -0.0531 -0.0653
 4634SOL    HW115343   5.886   4.343   7.809 -0.2098 -0.2553  1.6660
 4634SOL    HW215344   5.832   4.450   7.901 -1.5787  0.7195 -0.2101
 4635SOL     OW15345   2.689   3.246   2.442  0.0982 -0.6780  0.3373
 4635SOL    HW115346   2.627   3.318   2.427 -0.2533 -0.6747  1.6605
 4635SOL    HW215347   2.758   3.260   2.378  0.2641  1.1150  0.8476
 4636SOL     OW15348   3.037   7.806  12.427  0.2643  0.3925  0.1698
 4636SOL    HW115349   3.032   7.827  12.334  0.9414  0.1656  0.0750
 4636SOL    HW215350   2.965   7.855  12.467  1.2311  2.1317 -0.1673
 4637SOL     OW15351   5.474   5.019   1.357  0.4361  0.0072  0.4156
 4637SOL    HW115352   5.513   5.107   1.358  0.8233 -0.1545  0.0222
 4637SOL    HW215353   5.531   4.967   1.414  0.6163 -0.1501  0.0985
 4638SOL     OW15354   4.642   3.560  12.348  0.1047  0.1077  0.1737
 4638SOL    HW115355   4.674   3.639  12.391  2.8481 -0.7751 -0.0758
 4638SOL    HW215356   4.631   3.585  12.256  0.5437  0.3116  0.1767
 4639SOL     OW15357   3.318   7.038   4.694  0.2035 -0.6203  0.0223
 4639SOL    HW115358   3.258   7.067   4.763 -1.4785 -0.0565 -1.5899
 4639SOL    HW215359   3.290   6.949   4.674  0.8543 -0.8748  0.2444
 4640SOL     OW15360   0.029   1.008   4.661  0.5463  0.0137  0.6420
 4640SOL    HW115361   0.070   1.091   4.636  0.6718 -0.4462 -0.7860
 4640SOL    HW215362   0.062   0.945   4.597  0.5307 -1.1687  1.7735
 4641SOL     OW15363   1.669   5.078   8.732 -0.0574  0.2882 -0.1374
 4641SOL    HW115364   1.654   5.156   8.785 -1.0607  0.3420 -0.4589
 4641SOL    HW215365   1.762   5.080   8.711 -0.1822  1.7897 -0.7226
 4642SOL     OW15366   3.743   7.793   2.310  0.0732  0.1691  0.3594
 4642SOL    HW115367   3.779   7.874   2.347  1.1316 -0.0830 -0.1126
 4642SOL    HW215368   3.653   7.816   2.288  0.3867  1.2470  0.1465
 4643SOL     OW15369   5.042   4.387   6.529 -0.1655 -0.2943 -0.2980
 4643SOL    HW115370   5.110   4.350   6.473 -0.3542  0.3867 -0.9873
 4643SOL    HW215371   5.012   4.313   6.582  2.4656 -0.2059  1.4542
 4644SOL     OW15372   6.203   7.817   7.046  0.1418 -0.1588  0.2862
 4644SOL    HW115373   6.118   7.777   7.027  0.9745 -1.0782 -1.9205
 4644SOL    HW215374   6.231   7.854   6.962  1.7034  0.5338  1.0734
 4645SOL     OW15375   3.169   3.238   1.469 -0.4066  0.9739 -0.0851
 4645SOL    HW115376   3.158   3.328   1.438 -0.0714  0.6475 -1.1901
 4645SOL    HW215377   3.253   3.239   1.514 -0.4221  1.2297 -0.0574
 4646SOL     OW15378   0.112   0.170   5.445 -0.4140  0.1128  0.8113
 4646SOL    HW115379   0.092   0.201   5.357  1.0662 -1.3545 -0.0948
 4646SOL    HW215380   0.107   0.075   5.439  1.7460 -0.1152  1.7572
 4647SOL     OW15381   0.050   7.896   1.328 -0.0824 -0.2213  0.1765
 4647SOL    HW115382   0.047   7.991   1.344 -0.5045 -0.2381  0.2020
 4647SOL    HW215383   0.049   7.857   1.415  0.5402 -0.2411  0.1789
 4648SOL     OW15384   3.311   2.668   9.520 -0.0173  0.0989 -0.0654
 4648SOL    HW115385   3.325   2.686   9.427  1.2540 -0.4645 -0.0016
 4648SOL    HW215386   3.266   2.746   9.553 -3.7960 -1.0949 -1.8358
 4649SOL     OW15387   0.112   7.974   7.017 -0.7954  0.4245 -0.0415
 4649SOL    HW115388   0.148   8.045   7.070 -1.1462 -0.1493  1.0120
 4649SOL    HW215389   0.067   8.017   6.945  2.0667  1.1798 -1.5339
 4650SOL     OW15390   2.566   5.250   7.140 -0.0215 -0.0460  0.5297
 4650SOL    HW115391   2.579   5.163   7.178 -0.1858 -0.4450 -0.3137
 4650SOL    HW215392   2.633   5.305   7.181  0.8858 -0.8509  0.1553
 4651SOL     OW15393   7.922   6.146   0.056  0.2200  0.4162 -0.4055
 4651SOL    HW115394   7.851   6.193   0.100 -0.1631  1.6806 -2.2513
 4651SOL    HW215395   7.916   6.057   0.090 -1.4233  0.7990  0.4505
 4652SOL     OW15396   3.512   4.780   1.974  0.6434 -0.1337  0.8349
 4652SOL    HW115397   3.452   4.740   2.037  2.7075 -4.2573  0.5220
 4652SOL    HW215398   3.585   4.811   2.027  0.0303  1.3866  0.8511
 4653SOL     OW15399   4.387   7.760   7.637  0.4702  0.2259 -0.8278
 4653SOL    HW115400   4.363   7.697   7.705  0.8272  1.0835  0.1146
 4653SOL    HW215401   4.457   7.812   7.675 -0.5463  1.9243 -1.1344
 4654SOL     OW15402   2.492   1.411   0.251 -0.1659 -0.2629 -0.1482
 4654SOL    HW115403   2.471   1.497   0.216  1.7028  0.2433 -0.1719
 4654SOL    HW215404   2.424   1.353   0.217 -2.1592  1.3892  0.8696
 4655SOL     OW15405   6.732   0.681   5.888  0.4581  0.3600  0.5428
 4655SOL    HW115406   6.681   0.762   5.881 -0.3653 -0.1905 -0.0240
 4655SOL    HW215407   6.760   0.662   5.799  1.6667  0.6410  0.8464
 4656SOL     OW15408   4.018   5.859   8.397  0.0895  0.4401  0.3504
 4656SOL    HW115409   4.016   5.942   8.445 -1.4652  2.2433 -2.5001
 4656SOL    HW215410   4.054   5.883   8.311  0.9044 -2.1766 -0.1237
 4657SOL     OW15411   6.976   0.067   6.600  0.0227  0.2689  0.5685
 4657SOL    HW115412   6.959   0.097   6.511  3.3932 -0.9296 -0.6228
 4657SOL    HW215413   7.022   0.140   6.641 -0.0877  0.2049  0.8097
 4658SOL     OW15414   7.870   7.582   4.353  0.1296 -0.0454  0.2568
 4658SOL    HW115415   7.871   7.545   4.264  0.4653  0.9039 -0.1537
 4658SOL    HW215416   7.875   7.677   4.339  0.5581  0.0962  1.3064
 4659SOL     OW15417   2.965   2.802   5.920 -0.7306 -0.4708  0.3025
 4659SOL    HW115418   2.882   2.799   5.968  0.7135 -0.4887  2.9697
 4659SOL    HW215419   3.026   2.846   5.979  1.3167 -0.8870 -1.3648
 4660SOL     OW15420   0.824   3.638   7.243  0.5605 -0.1186 -0.0256
 4660SOL    HW115421   0.732   3.665   7.238  0.9392  1.0602 -1.0410
 4660SOL    HW215422   0.871   3.719   7.263  1.3289 -0.8592  1.3087
 4661SOL     OW15423   4.522   5.623   3.896 -0.0795 -0.2106  0.2695
 4661SOL    HW115424   4.594   5.575   3.938 -0.3440 -0.3853  0.5318
 4661SOL    HW215425   4.560   5.658   3.816 -0.1481 -1.7178 -0.4551
 4662SOL     OW15426   5.147   4.712   0.655 -0.4470  0.2513  0.5620
 4662SOL    HW115427   5.219   4.666   0.611  1.0429  0.8457  2.2578
 4662SOL    HW215428   5.097   4.753   0.584  0.6089 -0.5693 -0.6873
 4663SOL     OW15429   0.280   5.872  10.875 -0.0692 -0.1313 -0.1619
 4663SOL    HW115430   0.260   5.786  10.840 -2.7189  0.1779  0.3959
 4663SOL    HW215431   0.264   5.932  10.802 -2.2929  0.1943  0.5072
 4664SOL     OW15432   3.939   0.710   8.714  0.1989 -0.2008  0.0091
 4664SOL    HW115433   3.850   0.699   8.682  0.4566 -2.3486 -0.1061
 4664SOL    HW215434   3.943   0.801   8.743 -1.3733  0.5552 -1.9327
 4665SOL     OW15435   7.663   3.709  10.100  0.3042 -0.1950 -0.9321
 4665SOL    HW115436   7.690   3.698  10.009  0.3430 -3.0756 -0.6643
 4665SOL    HW215437   7.742   3.691  10.151 -0.1297 -0.2850 -0.2816
 4666SOL     OW15438   2.470   2.628   9.165 -0.1543 -0.6687 -0.8522
 4666SOL    HW115439   2.479   2.619   9.070  2.3971 -0.7614 -0.6730
 4666SOL    HW215440   2.423   2.710   9.177  0.0759 -0.3221 -2.1954
 4667SOL     OW15441   4.681   2.292   3.746  0.0128 -0.5548 -0.0621
 4667SOL    HW115442   4.653   2.252   3.663 -1.8643 -0.1135  0.3058
 4667SOL    HW215443   4.610   2.273   3.807  0.0282  1.5117  0.6772
 4668SOL     OW15444   5.437   1.499  10.781 -0.2832 -0.0419 -0.0370
 4668SOL    HW115445   5.362   1.545  10.820  0.0363  0.8862 -0.4871
 4668SOL    HW215446   5.428   1.514  10.687  0.9550  0.8640 -0.0299
 4669SOL     OW15447   3.146   2.099  11.749  0.0723 -0.0874 -0.2427
 4669SOL    HW115448   3.142   2.077  11.842 -0.5001 -0.7335 -0.4067
 4669SOL    HW215449   3.209   2.171  11.744 -0.4447  0.4629  0.7344
 4670SOL     OW15450   4.428   5.169  12.259  0.0365  0.1164  0.3721
 4670SOL    HW115451   4.500   5.114  12.230  1.8678  2.7679 -0.4262
 4670SOL    HW215452   4.372   5.177  12.182 -0.1472 -0.4276  0.4407
 4671SOL     OW15453   4.783   1.928   7.701  0.0094 -0.3014  0.0472
 4671SOL    HW115454   4.824   2.000   7.654 -0.7314 -0.4529 -0.8472
 4671SOL    HW215455   4.705   1.907   7.651 -0.8395 -0.4419  1.3695
 4672SOL     OW15456   5.502   0.606   2.033 -0.8824 -0.1396 -0.2022
 4672SOL    HW115457   5.487   0.638   2.122 -0.8605 -4.3425  1.5725
 4672SOL    HW215458   5.415   0.578   2.003 -0.6235 -0.3333 -0.7792
 4673SOL     OW15459   6.612   1.681  11.604  0.0589 -0.0916  0.0612
 4673SOL    HW115460   6.625   1.586  11.600  0.7286  0.0381 -1.3651
 4673SOL    HW215461   6.543   1.698  11.540 -0.1792  0.3738  0.4368
 4674SOL     OW15462   1.209   1.823   4.474 -0.1563 -0.4927 -0.0079
 4674SOL    HW115463   1.295   1.802   4.438  0.5120  0.4057  1.0080
 4674SOL    HW215464   1.172   1.738   4.499  1.4925 -0.7556  1.8273
 4675SOL     OW15465   7.697   2.567   8.291  0.2193 -0.1400  0.1516
 4675SOL    HW115466   7.658   2.652   8.273 -2.1595 -1.1918  0.0220
 4675SOL    HW215467   7.710   2.566   8.386 -1.5075 -0.2957  0.4139
 4676SOL     OW15468   7.411   7.777   9.728 -0.0809 -0.4502 -0.5238
 4676SOL    HW115469   7.407   7.870   9.750 -1.0974 -1.0198  2.0606
 4676SOL    HW215470   7.333   7.761   9.675 -0.6305 -0.0556  0.1481
 4677SOL     OW15471   2.698   1.951  11.266  0.2071  0.9247 -0.3772
 4677SOL    HW115472   2.612   1.983  11.240  0.0457  1.1785  0.4418
 4677SOL    HW215473   2.683   1.859  11.291  0.7213  0.0399 -3.0028
 4678SOL     OW15474   1.824   6.038   7.216  0.1749 -0.1377 -0.0456
 4678SOL    HW115475   1.768   6.114   7.234 -0.2144 -1.0107  3.1983
 4678SOL    HW215476   1.763   5.966   7.202  0.3015 -0.9690  2.9105
 4679SOL     OW15477   4.276   1.455  11.745  0.2126  0.1343 -0.3853
 4679SOL    HW115478   4.327   1.468  11.665  0.5322  3.1306  0.1908
 4679SOL    HW215479   4.334   1.482  11.815 -1.0309  0.3565  0.5885
 4680SOL     OW15480   6.255   7.504  10.261  0.2123 -0.0760  0.4854
 4680SOL    HW115481   6.185   7.491  10.325  0.3210 -2.7351  0.1508
 4680SOL    HW215482   6.335   7.500  10.313  0.2821 -1.8053  0.2814
 4681SOL     OW15483   1.878   0.970   0.823 -0.0927 -0.7705 -0.0718
 4681SOL    HW115484   1.851   0.911   0.893 -0.2924 -0.4180  0.1530
 4681SOL    HW215485   1.851   1.057   0.853  0.8453 -0.4681 -0.0764
 4682SOL     OW15486   4.804   0.434  11.100  0.3002  0.0760 -0.5512
 4682SOL    HW115487   4.785   0.483  11.020 -0.6186 -0.0387 -0.4153
 4682SOL    HW215488   4.888   0.469  11.130 -0.0443  1.1374 -0.7806
 4683SOL     OW15489   1.733   0.882   8.110 -0.0817  0.7370 -0.1386
 4683SOL    HW115490   1.750   0.966   8.066 -1.9506  0.3639 -1.6986
 4683SOL    HW215491   1.745   0.817   8.041  0.1475 -0.1841  0.7574
 4684SOL     OW15492   2.968   5.850   7.381  0.0914 -0.0408  0.0993
 4684SOL    HW115493   3.004   5.788   7.445 -2.6505 -2.0086 -0.0847
 4684SOL    HW215494   2.894   5.890   7.426  0.8465  2.0211 -0.3653
 4685SOL     OW15495   1.056   7.230   9.657  0.2333 -0.9208 -0.1107
 4685SOL    HW115496   0.968   7.266   9.670  0.3701 -0.8500  0.7282
 4685SOL    HW215497   1.063   7.216   9.563 -0.2885  0.0850 -0.3207
 4686SOL     OW15498   1.286   5.876   1.783 -0.0268 -0.3839  0.4268
 4686SOL    HW115499   1.368   5.852   1.826  1.1534  2.1986 -0.2019
 4686SOL    HW215500   1.312   5.903   1.695 -1.1574  2.5334  0.8751
 4687SOL     OW15501   1.562   3.716   7.945  0.2300  0.4205  0.0606
 4687SOL    HW115502   1.499   3.708   8.016 -2.6852  0.5102 -2.3310
 4687SOL    HW215503   1.539   3.798   7.901  2.3466  0.6847 -0.6744
 4688SOL     OW15504   7.828   2.258   3.608 -0.2996  0.0712  0.0656
 4688SOL    HW115505   7.748   2.233   3.655  0.7826 -2.0221  0.9388
 4688SOL    HW215506   7.813   2.349   3.582 -2.8991 -0.2028  0.2992
 4689SOL     OW15507   0.172   2.959   0.152 -0.4881  0.4320 -0.5917
 4689SOL    HW115508   0.101   2.942   0.090 -0.3555  0.1784 -0.6742
 4689SOL    HW215509   0.243   2.901   0.125 -0.5650  0.0364  0.0314
 4690SOL     OW15510   5.476   5.054   7.473  0.5275 -0.1817  0.7352
 4690SOL    HW115511   5.438   5.034   7.388  0.5843 -1.6902  1.0290
 4690SOL    HW215512   5.569   5.033   7.463  1.2030  2.5763  0.2988
 4691SOL     OW15513   1.419   6.545   2.805 -0.1229 -0.1571  0.0988
 4691SOL    HW115514   1.399   6.479   2.871  1.9349 -0.6987  0.2343
 4691SOL    HW215515   1.451   6.496   2.730 -0.8444  0.5636 -0.7077
 4692SOL     OW15516   3.840   5.434   1.355 -0.2058 -0.1865  0.0286
 4692SOL    HW115517   3.789   5.514   1.361  1.3743  0.8943 -0.2533
 4692SOL    HW215518   3.853   5.421   1.261 -0.7646 -1.0061  0.0502
 4693SOL     OW15519   0.599   5.000   8.162  0.0310  0.2905  0.2335
 4693SOL    HW115520   0.659   5.074   8.174 -1.0679  1.6983 -2.2170
 4693SOL    HW215521   0.535   5.009   8.232  0.6953  0.8556  0.7802
 4694SOL     OW15522   7.522   3.551   5.357 -0.5773  0.2919 -0.4201
 4694SOL    HW115523   7.534   3.612   5.284  0.6942 -0.4947 -0.8862
 4694SOL    HW215524   7.534   3.465   5.318 -2.4314 -0.3000  0.2151
 4695SOL     OW15525   3.064   1.094  12.184 -0.0422  0.1170  0.1608
 4695SOL    HW115526   3.064   1.091  12.088  0.4367  2.0248  0.0612
 4695SOL    HW215527   3.137   1.037  12.210 -1.4206 -2.0739 -0.4542
 4696SOL     OW15528   4.394   1.593   4.752 -0.2467 -0.4632  0.2142
 4696SOL    HW115529   4.402   1.506   4.790 -1.5243 -0.9615 -0.5961
 4696SOL    HW215530   4.392   1.652   4.827 -3.0041 -1.4422  1.0033
 4697SOL     OW15531   3.353   3.693  12.324 -0.2101  0.8677  0.2071
 4697SOL    HW115532   3.265   3.655  12.313  0.0248  0.8673 -2.2220
 4697SOL    HW215533   3.337   3.776  12.369 -1.2887  0.2447  1.0399
 4698SOL     OW15534   7.748   3.287   5.294  0.3684  0.2189 -0.0897
 4698SOL    HW115535   7.776   3.228   5.223 -1.6512  0.5591 -1.2434
 4698SOL    HW215536   7.789   3.371   5.273 -0.8378  0.5233 -1.3416
 4699SOL     OW15537   3.561   4.003   9.016  0.0058 -0.4819  0.1638
 4699SOL    HW115538   3.604   4.026   9.098 -2.7346  2.4179  0.9588
 4699SOL    HW215539   3.626   4.026   8.949  1.0202  0.3933  1.3891
 4700SOL     OW15540   3.411   7.903   1.280  0.0539  0.6428 -0.2551
 4700SOL    HW115541   3.355   7.885   1.204  0.5584 -0.0560 -0.4721
 4700SOL    HW215542   3.378   7.844   1.348  0.4846  0.2698 -0.3661
 4701SOL     OW15543   2.369   5.022   2.701 -0.3524  0.5651  0.2367
 4701SOL    HW115544   2.402   4.945   2.747 -0.1473 -0.4770 -1.5902
 4701SOL    HW215545   2.284   4.994   2.666 -0.0486  0.9976 -0.8653
 4702SOL     OW15546   2.364   5.093   5.159  0.1053  0.7455  0.2564
 4702SOL    HW115547   2.392   5.008   5.192 -1.7178  0.1841  0.4497
 4702SOL    HW215548   2.329   5.139   5.236 -1.0626  0.7393 -0.2493
 4703SOL     OW15549   6.962   5.893   2.941  0.0838  0.3691  0.1952
 4703SOL    HW115550   6.980   5.896   2.847  2.0809  1.1275  0.5634
 4703SOL    HW215551   6.914   5.811   2.954 -0.7568  0.5405 -1.5391
 4704SOL     OW15552   1.142   3.526  11.962 -0.2476 -0.1742  0.0106
 4704SOL    HW115553   1.232   3.524  11.997 -0.5019 -0.7450  0.6345
 4704SOL    HW215554   1.142   3.461  11.892  0.1674  0.7307 -0.8619
 4705SOL     OW15555   4.822   1.561   8.699 -0.7036 -0.3511  0.0765
 4705SOL    HW115556   4.732   1.527   8.697 -0.6825 -0.4342  0.4518
 4705SOL    HW215557   4.848   1.565   8.607 -0.7815 -1.1410  0.0173
 4706SOL     OW15558   6.866   0.170   4.559 -0.4545 -0.2952  0.4009
 4706SOL    HW115559   6.872   0.225   4.481 -0.8984  1.0790  1.3058
 4706SOL    HW215560   6.772   0.161   4.575 -0.3511  0.4305  1.4505
 4707SOL     OW15561   7.644   6.798   1.537  0.3870 -0.3943  0.3131
 4707SOL    HW115562   7.593   6.748   1.473 -0.9929  0.6280  0.5682
 4707SOL    HW215563   7.578   6.841   1.592  1.5377  0.3124  1.1866
 4708SOL     OW15564   5.940   2.112   2.707 -0.3519  0.5729  0.3568
 4708SOL    HW115565   5.956   2.200   2.672 -4.5459  0.9585 -1.1853
 4708SOL    HW215566   6.022   2.066   2.694  0.8589  3.1687 -2.3849
 4709SOL     OW15567   0.073   6.738  12.012  0.0456  0.4002  0.1946
 4709SOL    HW115568   0.012   6.675  11.973  1.2828  0.4726 -2.0444
 4709SOL    HW215569   0.090   6.801  11.942  0.7336  1.8263  1.6004
 4710SOL     OW15570   2.089   6.917   7.105 -0.7035  0.2758  0.1956
 4710SOL    HW115571   2.006   6.961   7.123 -0.3785  0.3471  1.6087
 4710SOL    HW215572   2.102   6.857   7.179  0.5811  0.4007  0.1031
 4711SOL     OW15573   0.848   4.857   4.233 -0.0616  0.1996  0.0778
 4711SOL    HW115574   0.938   4.838   4.260  0.1273  0.4225 -0.3911
 4711SOL    HW215575   0.845   4.833   4.140 -0.4037  0.4662  0.0184
 4712SOL     OW15576   1.489   4.035   3.543  0.6445 -0.1813 -0.7542
 4712SOL    HW115577   1.503   4.029   3.638 -0.4127  0.9377 -0.5109
 4712SOL    HW215578   1.514   3.948   3.510  0.7911 -0.6666  0.5746
 4713SOL     OW15579   4.194   0.278   5.290  0.1466  0.0693  0.2902
 4713SOL    HW115580   4.272   0.259   5.239 -0.6523 -0.4922 -0.7657
 4713SOL    HW215581   4.169   0.195   5.329 -0.9046 -0.1693 -0.8235
 4714SOL     OW15582   4.459   2.916   7.241 -0.2209  0.1403  1.1375
 4714SOL    HW115583   4.384   2.920   7.182 -1.3737  0.1977  2.5404
 4714SOL    HW215584   4.444   2.837   7.293  1.1067 -0.2688  0.9158
 4715SOL     OW15585   1.669   3.881  11.786  0.9070  0.2994 -0.1761
 4715SOL    HW115586   1.590   3.833  11.813  1.4159 -0.1899  0.4712
 4715SOL    HW215587   1.641   3.972  11.783  0.3956  0.1720  0.3697
 4716SOL     OW15588   7.695   4.611   0.826 -0.0593 -0.0165  0.1309
 4716SOL    HW115589   7.698   4.575   0.915  1.6750  0.6750  0.4051
 4716SOL    HW215590   7.613   4.579   0.790 -0.5695 -0.7323  1.8091
 4717SOL     OW15591   4.919   7.255   7.249 -0.3038 -0.1745 -0.2679
 4717SOL    HW115592   4.998   7.239   7.198  1.4319  0.0693  2.1722
 4717SOL    HW215593   4.893   7.168   7.281 -2.6910 -0.6836 -3.1453
 4718SOL     OW15594   2.259   5.038   5.883  0.1354 -0.3420 -0.2814
 4718SOL    HW115595   2.292   4.951   5.861 -1.4748 -1.2635  0.7949
 4718SOL    HW215596   2.309   5.097   5.827  2.2761 -1.8031 -0.0277
 4719SOL     OW15597   6.218   4.771   3.264  0.1410 -0.2651 -0.1896
 4719SOL    HW115598   6.149   4.769   3.197 -0.2280 -0.9111  0.1947
 4719SOL    HW215599   6.281   4.706   3.235  0.6088  0.3342 -0.5461
 4720SOL     OW15600   4.741   1.992  10.646  0.3005  0.0532  0.6992
 4720SOL    HW115601   4.677   1.920  10.652  0.7118 -0.3543  0.2914
 4720SOL    HW215602   4.819   1.958  10.691  1.3729 -0.7509 -1.6097
 4721SOL     OW15603   0.842   6.659   9.259 -0.1782 -0.3049  0.4889
 4721SOL    HW115604   0.932   6.663   9.229 -0.1820  0.2549  0.5410
 4721SOL    HW215605   0.790   6.661   9.179 -0.1871  1.1558  0.5015
 4722SOL     OW15606   1.047   3.162   1.840  0.4449  0.4323  0.1792
 4722SOL    HW115607   1.033   3.248   1.800  0.0579  0.6872  0.8565
 4722SOL    HW215608   1.112   3.178   1.908  0.7419  0.0866 -0.0152
 4723SOL     OW15609   1.245   6.345  10.149  0.2469  0.4490 -0.9250
 4723SOL    HW115610   1.222   6.262  10.191  1.9730  0.3772 -0.0246
 4723SOL    HW215611   1.316   6.323  10.088 -1.0528  0.8561 -2.6784
 4724SOL     OW15612   0.839   7.368   2.512  0.3716  0.4869 -0.2405
 4724SOL    HW115613   0.820   7.282   2.475 -0.1564  0.4896  0.0060
 4724SOL    HW215614   0.929   7.386   2.487  0.3973 -0.0199 -0.5247
 4725SOL     OW15615   6.437   0.620   6.270  0.3272  0.2631 -0.0245
 4725SOL    HW115616   6.506   0.599   6.333  0.8712  1.7062 -0.0878
 4725SOL    HW215617   6.465   0.579   6.188 -0.0164 -1.0054  0.4799
 4726SOL     OW15618   3.833   5.884   2.605  0.2877 -0.2183 -0.1811
 4726SOL    HW115619   3.783   5.821   2.553  1.2248 -0.7723 -0.4428
 4726SOL    HW215620   3.916   5.892   2.558  0.4885  0.6033  0.3010
 4727SOL     OW15621   3.112   3.947   9.969  0.6557  0.1096  0.1547
 4727SOL    HW115622   3.069   3.970   9.886 -1.3827 -3.5135 -0.0063
 4727SOL    HW215623   3.048   3.970  10.036  0.8674 -0.1093  0.4322
 4728SOL     OW15624   4.026   7.121   8.795  0.2630 -0.1663  0.3694
 4728SOL    HW115625   3.997   7.152   8.710  1.5565  0.3372  0.0838
 4728SOL    HW215626   3.961   7.056   8.821  0.0286 -0.5692 -1.1466
 4729SOL     OW15627   2.075   2.184   6.965  0.0911  0.0531 -0.5052
 4729SOL    HW115628   2.004   2.248   6.969  0.1987  0.1317  1.6267
 4729SOL    HW215629   2.051   2.124   6.895 -1.5833  0.6426 -0.4797
 4730SOL     OW15630   1.184   4.511   2.234  0.0393  0.5552 -0.0628
 4730SOL    HW115631   1.257   4.459   2.269  1.8483  3.0219  0.0566
 4730SOL    HW215632   1.182   4.490   2.141 -2.6959 -3.5381  0.6095
 4731SOL     OW15633   5.731   3.598   9.288 -0.3747 -0.0250 -0.1648
 4731SOL    HW115634   5.762   3.508   9.297 -0.6302 -0.0440  0.6246
 4731SOL    HW215635   5.650   3.591   9.239 -0.0776 -0.1564 -0.6485
 4732SOL     OW15636   5.005   7.500   7.890 -0.1973  0.4569  0.4233
 4732SOL    HW115637   4.943   7.547   7.833  0.8500  2.8654  1.1746
 4732SOL    HW215638   5.026   7.420   7.840 -0.9687  1.4145 -1.5673
 4733SOL     OW15639   0.217   2.197   9.872 -0.5878  0.0338 -0.6351
 4733SOL    HW115640   0.222   2.149   9.955  1.0638  0.5243 -0.4121
 4733SOL    HW215641   0.216   2.289   9.898 -0.0539  0.1900 -1.1507
 4734SOL     OW15642   5.618   3.670   2.392  0.1703  0.7862  0.1015
 4734SOL    HW115643   5.563   3.744   2.365  0.7151  1.3867  0.6041
 4734SOL    HW215644   5.597   3.657   2.485 -1.5476 -1.1327 -0.4752
 4735SOL     OW15645   0.519   2.303   1.765 -0.0763  0.4195 -0.5670
 4735SOL    HW115646   0.425   2.314   1.751 -0.3137 -0.9762 -0.1629
 4735SOL    HW215647   0.548   2.388   1.800 -1.3242  0.6307 -0.0020
 4736SOL     OW15648   0.140   6.039  10.689  0.1770 -0.2619  0.2599
 4736SOL    HW115649   0.051   6.011  10.669  0.2573  0.5833 -1.3863
 4736SOL    HW215650   0.175   6.072  10.607  1.1377  1.8310  1.4343
 4737SOL     OW15651   2.495   2.110   4.316 -0.1192  0.1634  0.2847
 4737SOL    HW115652   2.462   2.021   4.322  1.3017 -0.3595  0.7259
 4737SOL    HW215653   2.463   2.142   4.232 -0.6220 -0.7655  0.1087
 4738SOL     OW15654   7.904   3.378   9.436  0.3244  0.5167 -0.3598
 4738SOL    HW115655   7.847   3.331   9.375  0.7993 -0.7267  0.1161
 4738SOL    HW215656   7.927   3.459   9.390  1.4026 -0.7858 -2.2666
 4739SOL     OW15657   4.203   6.714   0.229 -0.0681 -0.3982  0.1911
 4739SOL    HW115658   4.206   6.620   0.210  0.9080 -0.3350  0.0014
 4739SOL    HW215659   4.139   6.749   0.167  0.1872 -0.8105 -0.3145
 4740SOL     OW15660   2.646   0.457   8.149  0.7504  0.3492  0.2830
 4740SOL    HW115661   2.700   0.504   8.086 -0.9414  1.0295 -0.7211
 4740SOL    HW215662   2.601   0.525   8.197  0.6297 -0.2120  0.9824
 4741SOL     OW15663   3.755   6.659  11.106 -0.5362  0.2813  0.1607
 4741SOL    HW115664   3.739   6.585  11.048  0.0695  0.5221 -0.3237
 4741SOL    HW215665   3.849   6.675  11.099 -0.8072  1.7785 -0.5907
 4742SOL     OW15666   4.853   6.114  10.753 -0.4725  0.1685  0.4050
 4742SOL    HW115667   4.827   6.035  10.705  1.0891  0.2558 -0.6417
 4742SOL    HW215668   4.867   6.084  10.843  0.1108 -0.7498  0.0146
 4743SOL     OW15669   3.835   5.243  11.480 -0.0137  0.2625  0.5581
 4743SOL    HW115670   3.741   5.244  11.462  0.1224 -1.0525 -0.3043
 4743SOL    HW215671   3.876   5.238  11.394  0.7686 -1.6466  0.9946
 4744SOL     OW15672   4.279   1.806   1.530  0.0247 -0.0605 -0.3074
 4744SOL    HW115673   4.328   1.871   1.581  0.8358 -1.2209  0.4450
 4744SOL    HW215674   4.264   1.734   1.591  0.9162 -1.4463 -1.6391
 4745SOL     OW15675   0.001   7.087   6.829 -0.1311 -0.2211  0.2629
 4745SOL    HW115676   0.062   7.030   6.782 -0.5931 -0.3298 -0.2166
 4745SOL    HW215677   0.049   7.168   6.842  0.6031 -0.7646  1.1077
 4746SOL     OW15678   7.114   2.279  11.582 -0.3698 -0.1470 -0.3052
 4746SOL    HW115679   7.019   2.271  11.573 -0.5977  2.6883 -1.4645
 4746SOL    HW215680   7.140   2.333  11.507  1.7472  1.3804  1.4054
 4747SOL     OW15681   2.966   0.890   2.000  0.0612 -0.0808  0.2587
 4747SOL    HW115682   3.044   0.857   2.045  0.8009  1.1360 -0.0708
 4747SOL    HW215683   2.892   0.854   2.048  0.8328 -1.1693  0.6497
 4748SOL     OW15684   1.005   6.500   5.417 -0.3124  0.5312  0.3741
 4748SOL    HW115685   0.924   6.461   5.384  1.3073 -0.9547 -2.1806
 4748SOL    HW215686   1.030   6.564   5.350  1.4490 -0.2346  0.2486
 4749SOL     OW15687   0.105   1.730  12.315  0.3184 -0.1807  0.5365
 4749SOL    HW115688   0.035   1.731  12.251  0.5033 -1.2387  0.2857
 4749SOL    HW215689   0.186   1.734  12.262  0.5051 -2.2884  0.5714
 4750SOL     OW15690   1.807   3.400   7.294  0.3370  0.1021  0.0030
 4750SOL    HW115691   1.713   3.411   7.309  0.2917 -0.6688  0.3168
 4750SOL    HW215692   1.821   3.305   7.295  1.1641  0.2194  0.2463
 4751SOL     OW15693   4.860   7.730   5.158 -0.1601 -1.3192  0.0491
 4751SOL    HW115694   4.944   7.740   5.202 -0.9122  0.7727  1.1492
 4751SOL    HW215695   4.795   7.750   5.226 -1.3782  1.6651 -1.8042
 4752SOL     OW15696   7.170   4.255   9.935 -0.0164 -0.1412  0.2192
 4752SOL    HW115697   7.261   4.255   9.962 -0.0388 -0.5240  0.2986
 4752SOL    HW215698   7.125   4.309  10.000  0.5024  1.8986 -1.0267
 4753SOL     OW15699   3.934   2.990   2.518 -0.6587 -0.9716 -0.1868
 4753SOL    HW115700   3.876   3.066   2.525  0.1586 -0.1132 -2.1765
 4753SOL    HW215701   3.892   2.924   2.573 -1.0419  1.0774  2.1760
 4754SOL     OW15702   2.422   1.859  11.274 -0.7789 -0.0573 -0.1706
 4754SOL    HW115703   2.389   1.783  11.323 -1.7406 -1.6173 -2.9703
 4754SOL    HW215704   2.466   1.820  11.198  3.2476  2.1204  0.7805
 4755SOL     OW15705   7.544   0.863   4.281 -0.5685 -0.0564  0.0160
 4755SOL    HW115706   7.618   0.842   4.224 -1.4883 -0.9815 -0.8720
 4755SOL    HW215707   7.550   0.958   4.293  1.0240 -0.1642  0.3693
 4756SOL     OW15708   4.391   0.704  11.385  0.6978  0.5681  0.3262
 4756SOL    HW115709   4.371   0.753  11.305  1.7527  1.3894  0.5350
 4756SOL    HW215710   4.342   0.750  11.453 -2.0106 -1.4331 -0.0766
 4757SOL     OW15711   3.435   0.840   2.476  0.1888  0.1435 -0.1345
 4757SOL    HW115712   3.479   0.829   2.391 -0.9318 -0.1077 -0.6995
 4757SOL    HW215713   3.440   0.754   2.517 -1.9709 -0.6350 -1.3150
 4758SOL     OW15714   5.253   1.206   2.460  0.4278 -0.0175  0.2021
 4758SOL    HW115715   5.316   1.258   2.412  0.7452 -0.3543  0.2520
 4758SOL    HW215716   5.185   1.268   2.486  0.7099  0.3337  0.1011
 4759SOL     OW15717   7.066   5.218  12.263  0.2697  0.1119 -0.1972
 4759SOL    HW115718   7.008   5.279  12.308  0.0379  0.1838 -0.5836
 4759SOL    HW215719   7.111   5.170  12.333 -1.6608 -1.3011  0.1543
 4760SOL     OW15720   4.333   0.428   7.915  0.0111 -0.4759  0.0758
 4760SOL    HW115721   4.247   0.387   7.902 -0.6745  0.3801  1.6013
 4760SOL    HW215722   4.384   0.362   7.963  0.1205 -0.8615 -0.5519
 4761SOL     OW15723   5.221   6.402  10.665 -0.1447  0.3991 -0.1509
 4761SOL    HW115724   5.220   6.398  10.761  1.5021 -0.5906 -0.1364
 4761SOL    HW215725   5.173   6.325  10.637 -2.4148  1.7364 -0.1930
 4762SOL     OW15726   7.167   7.571   7.073  0.0685 -0.6224 -0.2330
 4762SOL    HW115727   7.184   7.596   7.164 -3.2775 -0.0822  0.3754
 4762SOL    HW215728   7.204   7.642   7.021 -0.0198  0.2436  0.8582
 4763SOL     OW15729   0.423   7.235   8.311  0.2262 -0.0048 -0.0529
 4763SOL    HW115730   0.437   7.184   8.391  0.5561  0.5188  0.2285
 4763SOL    HW215731   0.435   7.172   8.240  0.1849 -0.4176  0.3011
 4764SOL     OW15732   3.667   5.339  12.245  0.5987  0.5277 -0.0866
 4764SOL    HW115733   3.589   5.394  12.254  1.4885  1.7123  0.7273
 4764SOL    HW215734   3.655   5.294  12.162 -2.1726 -1.3409  1.1464
 4765SOL     OW15735   4.773   5.416   3.944  0.2217 -0.1642 -0.4756
 4765SOL    HW115736   4.854   5.460   3.916 -0.3772  0.8372 -0.6795
 4765SOL    HW215737   4.737   5.379   3.864  0.0894  0.0448 -0.5129
 4766SOL     OW15738   0.367   2.999   7.930  0.1687  0.1894 -0.4857
 4766SOL    HW115739   0.406   3.029   8.012  0.4207  0.0732 -0.5642
 4766SOL    HW215740   0.336   3.080   7.887 -0.9073  0.1626  0.1972
 4767SOL     OW15741   4.594   4.086  10.063  0.2743 -0.2941  0.0548
 4767SOL    HW115742   4.511   4.132  10.074 -0.1847 -1.0449 -0.2324
 4767SOL    HW215743   4.603   4.034  10.142  0.6803  0.1005  0.2731
 4768SOL     OW15744   4.931   0.344   6.849 -0.4361  0.0593 -0.2095
 4768SOL    HW115745   4.837   0.365   6.855 -0.6590 -1.1744  1.0250
 4768SOL    HW215746   4.964   0.403   6.781 -1.9990  0.8801 -0.3042
 4769SOL     OW15747   0.727   4.497   3.594  0.2362  0.5441 -0.1747
 4769SOL    HW115748   0.696   4.506   3.684  1.3522 -1.1097  0.4193
 4769SOL    HW215749   0.809   4.545   3.592  2.5807 -3.0404  1.0568
 4770SOL     OW15750   5.991   6.928   2.015 -0.1568  0.1734  0.1267
 4770SOL    HW115751   5.972   7.019   2.038 -0.4954  0.2993 -0.6142
 4770SOL    HW215752   5.990   6.927   1.919  0.7484 -0.4253  0.1059
 4771SOL     OW15753   4.985   6.239   0.681 -0.5265 -0.3265  0.0685
 4771SOL    HW115754   4.993   6.307   0.614  1.9016 -0.3174  0.2774
 4771SOL    HW215755   4.974   6.288   0.763 -1.7346 -0.2987 -0.0910
 4772SOL     OW15756   4.130   3.801   4.759 -0.1060 -0.5307  0.1854
 4772SOL    HW115757   4.132   3.837   4.848  1.4444  2.5367 -0.9484
 4772SOL    HW215758   4.221   3.775   4.742 -0.2278 -0.3653 -0.7683
 4773SOL     OW15759   4.323   1.563   6.229  0.6560 -0.3452  0.4256
 4773SOL    HW115760   4.252   1.598   6.175  0.8563 -1.6666 -0.7496
 4773SOL    HW215761   4.399   1.562   6.171  1.7821  1.3752  1.7649
 4774SOL     OW15762   0.117   4.961   5.522  0.1160 -0.3062 -0.6724
 4774SOL    HW115763   0.195   4.963   5.577  0.5978  0.5361 -1.3693
 4774SOL    HW215764   0.078   4.875   5.540  1.2256 -0.7710 -0.3600
 4775SOL     OW15765   3.497   1.415   1.207 -0.2322 -0.2745  0.3891
 4775SOL    HW115766   3.438   1.341   1.194  0.4027 -0.7883  0.3821
 4775SOL    HW215767   3.558   1.385   1.274  0.9623 -0.3262 -0.6971
 4776SOL     OW15768   5.681   6.530   9.744  0.2925 -0.0117  0.2492
 4776SOL    HW115769   5.697   6.533   9.839  2.0496 -1.7043  0.0532
 4776SOL    HW215770   5.766   6.512   9.706  0.6834  5.0682 -2.1244
 4777SOL     OW15771   6.031   5.574   6.751  0.4078 -0.3457  0.2053
 4777SOL    HW115772   5.963   5.513   6.724 -0.3932 -0.3573  2.1456
 4777SOL    HW215773   6.043   5.631   6.675 -0.5505 -1.3819 -0.7643
 4778SOL     OW15774   6.647   2.004   8.142  0.4989  0.0327  0.1782
 4778SOL    HW115775   6.555   1.978   8.149  0.3949  0.1627 -0.6024
 4778SOL    HW215776   6.687   1.973   8.224  0.0651 -1.2432 -0.0679
 4779SOL     OW15777   3.152   2.947   6.059 -0.3095 -0.1053  0.1261
 4779SOL    HW115778   3.238   2.989   6.063 -0.2283 -0.2109 -0.3762
 4779SOL    HW215779   3.162   2.867   6.111  0.0978 -0.4530 -0.4736
 4780SOL     OW15780   6.058   4.730   8.345 -0.5078 -0.0270  0.4651
 4780SOL    HW115781   6.093   4.676   8.273  0.5113  0.4641  0.5787
 4780SOL    HW215782   6.096   4.816   8.331 -0.0143 -0.0090  1.7994
 4781SOL     OW15783   1.083   3.322  11.065 -0.1438 -0.2121  0.3279
 4781SOL    HW115784   1.081   3.327  11.161  0.5253  1.1380  0.2997
 4781SOL    HW215785   1.173   3.341  11.042 -0.2507 -0.7541 -0.5721
 4782SOL     OW15786   6.842   1.438  11.798  0.2838 -0.6461 -0.1950
 4782SOL    HW115787   6.910   1.371  11.791  1.5436  0.3457  1.5930
 4782SOL    HW215788   6.824   1.464  11.708  0.7452 -2.3968 -0.8384
 4783SOL     OW15789   2.963   2.990   9.517  0.1815  0.2226  0.3832
 4783SOL    HW115790   2.919   2.905   9.523  0.8385 -0.2519 -1.1000
 4783SOL    HW215791   2.918   3.045   9.582 -0.5767 -1.1044  1.0178
 4784SOL     OW15792   2.044   1.228   2.617 -0.0152 -0.0051  0.2815
 4784SOL    HW115793   2.051   1.162   2.685  2.2383 -0.3949 -0.2524
 4784SOL    HW215794   2.043   1.178   2.535  1.1280  0.5725 -0.1022
 4785SOL     OW15795   0.556   2.937   1.425  0.3399 -0.6519  0.2740
 4785SOL    HW115796   0.568   2.998   1.499 -0.6288 -0.0147 -0.0807
 4785SOL    HW215797   0.645   2.910   1.402  0.6757 -0.6937  1.5339
 4786SOL     OW15798   3.067   5.589   9.593  0.1960 -0.3575  0.5045
 4786SOL    HW115799   3.076   5.647   9.668 -1.7315  1.2931 -0.4479
 4786SOL    HW215800   2.976   5.560   9.597  0.6506 -1.9600 -0.0437
 4787SOL     OW15801   4.226   7.739   5.912 -0.4923  0.2996  0.2215
 4787SOL    HW115802   4.307   7.688   5.903  0.7563  2.0454  1.0878
 4787SOL    HW215803   4.221   7.760   6.005  0.2238  3.5374 -0.3720
 4788SOL     OW15804   4.339   0.304  12.287 -0.1778  0.3818  0.1388
 4788SOL    HW115805   4.342   0.380  12.345  0.4223  2.1987 -2.1149
 4788SOL    HW215806   4.424   0.262  12.299 -0.1483  0.6077  0.7398
 4789SOL     OW15807   6.538   1.877   3.236  0.2882 -0.1109 -0.2678
 4789SOL    HW115808   6.593   1.836   3.169 -0.6672  0.9095 -1.7602
 4789SOL    HW215809   6.451   1.881   3.196 -0.2245  0.9101  0.8892
 4790SOL     OW15810   4.490   0.750   5.280 -0.2727  0.2868 -0.0952
 4790SOL    HW115811   4.423   0.710   5.224  0.6572  1.5198 -2.2370
 4790SOL    HW215812   4.523   0.824   5.228  3.2923 -0.7050  0.5114
 4791SOL     OW15813   4.710   5.517   4.470  0.3851  0.0275  0.2886
 4791SOL    HW115814   4.680   5.533   4.560  0.8620 -1.4642  0.7299
 4791SOL    HW215815   4.631   5.531   4.417 -0.7249 -2.0127  1.2575
 4792SOL     OW15816   3.708   6.251   1.626  0.6212  0.4749 -0.1228
 4792SOL    HW115817   3.643   6.299   1.677  0.1669 -0.5963  0.3375
 4792SOL    HW215818   3.660   6.176   1.589  1.0562  0.9339 -1.7193
 4793SOL     OW15819   0.205   1.389   3.810  0.3848 -0.2310 -0.1931
 4793SOL    HW115820   0.128   1.435   3.778 -0.4564 -1.6956 -0.3624
 4793SOL    HW215821   0.271   1.401   3.742 -0.0977 -0.0234 -0.6268
 4794SOL     OW15822   3.519   6.141  12.427  0.4349  0.0728 -0.1992
 4794SOL    HW115823   3.493   6.225  12.390  0.9696  0.0231 -0.6977
 4794SOL    HW215824   3.592   6.112  12.373  1.1678 -0.0597  0.8149
 4795SOL     OW15825   4.620   2.311   4.595  0.0304 -0.0751 -0.0750
 4795SOL    HW115826   4.634   2.352   4.681  0.1823 -2.5968  1.2310
 4795SOL    HW215827   4.701   2.263   4.578 -0.7789 -1.3339 -0.5640
 4796SOL     OW15828   2.186   2.266   1.746  0.2260  0.5747  0.6925
 4796SOL    HW115829   2.264   2.235   1.793 -0.0445  0.0175  0.7723
 4796SOL    HW215830   2.210   2.354   1.717  1.1800  0.1205  0.0459
 4797SOL     OW15831   2.116   1.753   0.856 -0.1269  0.2365 -0.4438
 4797SOL    HW115832   2.122   1.721   0.946 -0.1607  0.5797 -0.3193
 4797SOL    HW215833   2.121   1.674   0.802 -1.8182 -0.1589 -0.0830
 4798SOL     OW15834   2.204   4.201   3.089  0.0742  0.2045  0.0095
 4798SOL    HW115835   2.193   4.214   3.183  0.9993  3.4548 -0.1970
 4798SOL    HW215836   2.115   4.194   3.055 -0.3123  0.1107  1.0143
 4799SOL     OW15837   3.263   3.319   0.489  0.1429 -0.1673  0.3061
 4799SOL    HW115838   3.213   3.347   0.565  1.5948  1.6153  0.6715
 4799SOL    HW215839   3.306   3.238   0.517 -1.6915 -1.2133  0.2869
 4800SOL     OW15840   2.317   3.516  11.770 -0.0236 -0.2306 -0.4638
 4800SOL    HW115841   2.393   3.509  11.828 -0.5810 -0.6238  0.2375
 4800SOL    HW215842   2.288   3.607  11.779  0.3639 -0.0805 -0.7320
 4801SOL     OW15843   1.498   0.917   0.848 -0.0457  1.0313 -0.0041
 4801SOL    HW115844   1.418   0.968   0.838 -0.3878  0.7543  1.1681
 4801SOL    HW215845   1.532   0.940   0.934 -0.2234 -0.7093  0.5765
 4802SOL     OW15846   2.950   1.347   8.776  0.0230 -0.7732 -0.1422
 4802SOL    HW115847   2.902   1.393   8.707 -0.4454 -2.8465 -1.2742
 4802SOL    HW215848   2.885   1.289   8.816  0.1793  0.6244  2.3834
 4803SOL     OW15849   5.824   7.667   0.719 -0.1460 -0.3195 -0.1661
 4803SOL    HW115850   5.781   7.679   0.803  1.7431 -0.9278  0.9621
 4803SOL    HW215851   5.898   7.728   0.721 -0.8495  0.6853 -2.0167
 4804SOL     OW15852   6.336   0.981   7.849  0.9041 -0.0894 -0.5305
 4804SOL    HW115853   6.255   0.964   7.898  1.0391 -1.8347 -0.8480
 4804SOL    HW215854   6.307   1.007   7.762  0.6265 -2.7374 -1.2957
 4805SOL     OW15855   1.143   5.689  10.878  0.1381 -0.8874  0.1651
 4805SOL    HW115856   1.151   5.781  10.851  1.1447 -0.9819  0.0701
 4805SOL    HW215857   1.073   5.689  10.943  0.3838  0.0172  0.4513
 4806SOL     OW15858   1.447   7.815   7.561 -0.1415 -0.2631  0.6164
 4806SOL    HW115859   1.372   7.827   7.503 -1.7667 -0.6116  2.5473
 4806SOL    HW215860   1.463   7.902   7.598  0.4739 -0.1748  0.1619
 4807SOL     OW15861   4.157   7.824  11.081 -0.9630  0.3484  0.6656
 4807SOL    HW115862   4.070   7.816  11.042 -0.3304  1.6962 -1.1854
 4807SOL    HW215863   4.204   7.883  11.022  1.3565 -0.7113  1.3517
 4808SOL     OW15864   0.983   3.901   4.037  0.0297 -0.4566  0.1717
 4808SOL    HW115865   0.972   3.874   4.128  1.5289  1.4131  0.9787
 4808SOL    HW215866   1.006   3.994   4.042  0.8340 -0.4689 -2.0862
 4809SOL     OW15867   7.418   0.873   9.509 -0.2546 -0.3297 -0.9871
 4809SOL    HW115868   7.338   0.893   9.557  1.5446  0.4239  1.9551
 4809SOL    HW215869   7.436   0.952   9.457 -0.2646  0.4032  0.0968
 4810SOL     OW15870   2.361   7.359   1.688  0.3984 -0.0411  0.0611
 4810SOL    HW115871   2.411   7.402   1.758  0.8882 -1.1446  0.4070
 4810SOL    HW215872   2.297   7.304   1.734 -1.5289  1.7093 -0.3666
 4811SOL     OW15873   4.687   4.793   6.940  0.2515 -0.0043 -0.4106
 4811SOL    HW115874   4.754   4.734   6.975 -1.5796 -2.6922 -1.1188
 4811SOL    HW215875   4.604   4.748   6.957 -1.1848  1.7802 -2.2033
 4812SOL     OW15876   6.236   4.633   4.007  0.0593  0.0204  0.8937
 4812SOL    HW115877   6.219   4.545   4.040  0.4268 -0.1969  0.5259
 4812SOL    HW215878   6.225   4.625   3.912 -0.1689  0.4342  0.8855
 4813SOL     OW15879   4.536   1.467   5.351  0.1814 -0.0116 -0.3230
 4813SOL    HW115880   4.620   1.441   5.314  0.0015 -0.5134 -0.3865
 4813SOL    HW215881   4.470   1.430   5.292 -0.0877  0.2603 -0.2001
 4814SOL     OW15882   2.482   1.151   8.375 -0.5121 -0.1958  0.2997
 4814SOL    HW115883   2.578   1.155   8.379 -0.6121  1.9046  2.0747
 4814SOL    HW215884   2.461   1.176   8.285  0.5900  0.0361  0.0880
 4815SOL     OW15885   0.122   6.014   0.945  0.3518 -0.1253  0.4595
 4815SOL    HW115886   0.155   6.096   0.909 -0.5357  1.0104  2.1023
 4815SOL    HW215887   0.027   6.027   0.952  0.3256 -0.8233  1.8156
 4816SOL     OW15888   5.552   0.031   6.646  0.8583  0.2179 -0.3813
 4816SOL    HW115889   5.460   0.006   6.659  1.2553 -0.2684  1.8165
 4816SOL    HW215890   5.551   0.127   6.646  0.1052  0.2953 -2.8272
 4817SOL     OW15891   4.341   1.026   4.543 -0.3150  0.0283  0.6158
 4817SOL    HW115892   4.325   0.962   4.474  1.2498  0.9232 -0.6703
 4817SOL    HW215893   4.428   1.004   4.576 -0.5335  0.3784  1.4504
 4818SOL     OW15894   5.907   1.655   6.270 -0.3088  0.1716  0.1501
 4818SOL    HW115895   5.917   1.609   6.353  0.0282 -1.0380 -0.5467
 4818SOL    HW215896   5.913   1.587   6.204 -0.2969  1.1611 -0.8898
 4819SOL     OW15897   4.034   1.770   3.344  0.0263 -0.1777  0.8489
 4819SOL    HW115898   4.006   1.860   3.330  0.1948 -0.4543 -1.5858
 4819SOL    HW215899   4.125   1.767   3.314 -0.3487 -1.3920 -0.2622
 4820SOL     OW15900   7.359   5.288   0.888  0.5325 -0.0131 -0.2921
 4820SOL    HW115901   7.283   5.344   0.904 -0.5431 -1.5305  0.1345
 4820SOL    HW215902   7.371   5.291   0.793 -0.7376 -0.5804 -0.4880
 4821SOL     OW15903   5.903   3.233   8.306 -0.0392 -0.2560 -0.2762
 4821SOL    HW115904   5.818   3.229   8.264 -0.0753 -1.0711 -0.1341
 4821SOL    HW215905   5.927   3.326   8.302 -0.9187 -0.0230 -0.3295
 4822SOL     OW15906   0.461   7.494   6.530  0.7636 -0.4942 -0.3129
 4822SOL    HW115907   0.526   7.438   6.574 -0.3793 -2.8614 -1.4811
 4822SOL    HW215908   0.402   7.522   6.600  2.2026  0.6232  0.5406
 4823SOL     OW15909   7.977   1.510   3.759  0.4095 -0.3067 -0.4674
 4823SOL    HW115910   7.883   1.530   3.761  0.6382  1.1607 -2.3315
 4823SOL    HW215911   8.020   1.595   3.751  1.7106 -1.0974 -3.1973
 4824SOL     OW15912   4.394   5.167  11.125 -0.0832 -0.3346 -0.1486
 4824SOL    HW115913   4.465   5.127  11.176  0.5223  0.8017 -0.0712
 4824SOL    HW215914   4.316   5.119  11.153  0.1684  0.4696  2.1591
 4825SOL     OW15915   6.705   3.501   1.600  0.2253  0.4654  0.3306
 4825SOL    HW115916   6.717   3.536   1.512  3.0626  2.4059  1.3273
 4825SOL    HW215917   6.678   3.410   1.587  0.9314  0.5753 -2.5369
 4826SOL     OW15918   4.198   5.418   1.781  0.0961  0.6586 -0.1674
 4826SOL    HW115919   4.156   5.436   1.697  0.6473 -0.8703 -0.8085
 4826SOL    HW215920   4.284   5.459   1.774  0.0559  0.7283 -0.2575
 4827SOL     OW15921   3.787   6.638   8.695 -0.0626 -0.8057 -0.2219
 4827SOL    HW115922   3.750   6.571   8.637  0.4861  1.0665 -2.9309
 4827SOL    HW215923   3.732   6.715   8.680  1.8199  0.5586 -0.5047
 4828SOL     OW15924   6.144   5.161   5.616 -0.2634  0.1658  0.3989
 4828SOL    HW115925   6.089   5.165   5.537  0.4049  0.3577 -0.0620
 4828SOL    HW215926   6.103   5.225   5.676 -0.0531  0.9383 -0.2634
 4829SOL     OW15927   5.693   5.880   7.129  0.5799 -0.1010 -0.7324
 4829SOL    HW115928   5.627   5.828   7.175  1.3672  0.0399  0.5960
 4829SOL    HW215929   5.777   5.844   7.156  1.3127  3.2422  2.2330
 4830SOL     OW15930   2.272   0.568   7.649 -0.2486  0.2478  0.1078
 4830SOL    HW115931   2.235   0.507   7.713  1.0556 -0.4558  0.2305
 4830SOL    HW215932   2.364   0.575   7.675 -0.0090  0.9655 -0.9241
 4831SOL     OW15933   4.561   3.677   6.836 -0.3207  0.1882  0.4254
 4831SOL    HW115934   4.564   3.626   6.755 -1.6714  0.5808  0.1001
 4831SOL    HW215935   4.635   3.645   6.887 -0.3288 -1.1264 -0.3340
 4832SOL     OW15936   5.487   2.876   4.690 -0.3793 -0.1689  0.4067
 4832SOL    HW115937   5.484   2.972   4.696 -1.4163 -0.2957  2.3346
 4832SOL    HW215938   5.396   2.849   4.681 -0.1455 -1.0306  0.5530
 4833SOL     OW15939   5.029   2.500   6.726 -0.1857  0.1570  0.1973
 4833SOL    HW115940   4.969   2.426   6.735 -0.5646  0.4663  0.2494
 4833SOL    HW215941   4.991   2.553   6.656  1.2360 -0.7951 -1.3850
 4834SOL     OW15942   2.438   7.437   4.777 -0.9319  0.3426  0.0176
 4834SOL    HW115943   2.394   7.425   4.861 -0.3758 -1.1233  0.1295
 4834SOL    HW215944   2.377   7.400   4.712 -0.4821 -0.4443  0.0262
 4835SOL     OW15945   3.238   4.258  11.913  0.4453  0.3315  0.1021
 4835SOL    HW115946   3.312   4.198  11.917 -0.3035 -0.5883  1.1287
 4835SOL    HW215947   3.196   4.238  11.829  0.5118 -0.2114  0.1914
 4836SOL     OW15948   4.191   3.571  11.498  0.1239  0.1369  0.3885
 4836SOL    HW115949   4.271   3.623  11.489 -0.7840  1.8344  1.5791
 4836SOL    HW215950   4.122   3.628  11.464 -0.8212 -0.5338  1.1434
 4837SOL     OW15951   4.118   3.662   8.003  0.4669 -0.2340  0.3836
 4837SOL    HW115952   4.076   3.741   7.968  1.1310  0.9215  2.0488
 4837SOL    HW215953   4.046   3.613   8.044  0.4745  1.1155  2.1237
 4838SOL     OW15954   6.878   1.807  12.344  0.2614 -0.0175  0.2338
 4838SOL    HW115955   6.834   1.728  12.374  0.1547  1.0033  3.0342
 4838SOL    HW215956   6.821   1.879  12.372  1.1192  1.1391 -0.8415
 4839SOL     OW15957   3.320   5.270   2.628  0.2870 -0.2022 -0.0791
 4839SOL    HW115958   3.271   5.207   2.575 -1.3915  0.9271  0.0621
 4839SOL    HW215959   3.302   5.244   2.718  0.2356 -0.0032 -0.0313
 4840SOL     OW15960   7.817   6.604   5.454  0.5562  0.1492 -0.7538
 4840SOL    HW115961   7.748   6.584   5.517  1.2267 -0.4103 -0.1873
 4840SOL    HW215962   7.783   6.678   5.404 -0.5221 -0.2274 -0.5976
 4841SOL     OW15963   1.578   3.790   3.470 -0.1324  0.3762  0.4619
 4841SOL    HW115964   1.664   3.788   3.511 -0.2468 -1.7776  0.6987
 4841SOL    HW215965   1.539   3.704   3.489 -1.5905  0.5996 -1.1746
 4842SOL     OW15966   7.005   2.700  10.387 -0.1360  0.3185 -0.4356
 4842SOL    HW115967   7.045   2.634  10.331  1.6947  0.6744  0.3821
 4842SOL    HW215968   6.959   2.758  10.327  0.0971 -0.4304 -1.3622
 4843SOL     OW15969   2.310   2.539   4.635  0.5679  0.1785 -0.7822
 4843SOL    HW115970   2.390   2.561   4.588 -0.0598 -2.4732 -3.4353
 4843SOL    HW215971   2.247   2.517   4.566 -1.7347 -0.0931  1.2637
 4844SOL     OW15972   7.786   5.092   9.785  0.1246  0.0280 -0.1074
 4844SOL    HW115973   7.867   5.041   9.792 -0.1083 -0.4307 -0.6606
 4844SOL    HW215974   7.749   5.089   9.873 -1.2809 -3.1607 -0.6498
 4845SOL     OW15975   0.955   6.913   8.048  0.0084 -0.0992 -0.2437
 4845SOL    HW115976   1.007   6.837   8.073 -1.4275 -1.0257  0.0756
 4845SOL    HW215977   0.923   6.949   8.131 -0.2458  0.1739 -0.4562
 4846SOL     OW15978   2.895   2.142   2.795  0.7300 -0.2967  0.2919
 4846SOL    HW115979   2.966   2.152   2.858  2.1701 -1.3781 -1.0752
 4846SOL    HW215980   2.933   2.090   2.724 -0.9147  0.5483 -1.2933
 4847SOL     OW15981   2.944   4.102   9.830 -0.1081  0.6272 -0.8892
 4847SOL    HW115982   2.892   4.168   9.875 -0.1734 -0.4009  0.6144
 4847SOL    HW215983   2.998   4.152   9.768 -1.8722  1.8306 -1.5250
 4848SOL     OW15984   7.680   0.073   7.639  0.4164 -0.4371 -0.3237
 4848SOL    HW115985   7.701  -0.020   7.648 -1.6794 -0.9068  0.2612
 4848SOL    HW215986   7.666   0.085   7.545  1.8607 -0.4010 -0.5586
 4849SOL     OW15987   6.735   0.714   0.114  0.4103  0.8680 -0.0082
 4849SOL    HW115988   6.675   0.720   0.189  0.3179 -0.2812  0.0324
 4849SOL    HW215989   6.677   0.718   0.038  0.0433 -1.8161  0.0377
 4850SOL     OW15990   6.406   1.735   8.377  0.6626  0.0968  0.5288
 4850SOL    HW115991   6.468   1.666   8.356  2.7214  1.8211  0.5637
 4850SOL    HW215992   6.374   1.714   8.465  1.0950 -0.8845  0.4569
 4851SOL     OW15993   0.783   2.519   9.918  0.8364 -0.3001  0.3980
 4851SOL    HW115994   0.756   2.430   9.893  0.9353 -0.2671  0.1711
 4851SOL    HW215995   0.774   2.521  10.013  2.5895 -1.1488  0.6222
 4852SOL     OW15996   0.648   3.942   6.843  0.1418  0.2855 -0.3229
 4852SOL    HW115997   0.645   4.032   6.876  1.0207 -0.0645  0.7458
 4852SOL    HW215998   0.735   3.911   6.866  0.1092 -0.6122 -1.3325
 4853SOL     OW15999   4.305   1.121  11.545  0.2378 -0.2023  0.3912
 4853SOL    HW116000   4.392   1.133  11.583  1.3130 -1.3037 -1.5653
 4853SOL    HW216001   4.278   1.209  11.519  1.8983 -0.1010 -1.2052
 4854SOL     OW16002   3.700   1.929  10.800  0.3900  0.5322  0.4715
 4854SOL    HW116003   3.669   1.995  10.738 -0.3708 -1.8969 -1.9512
 4854SOL    HW216004   3.781   1.897  10.762 -0.3717 -1.3974  0.3402
 4855SOL     OW16005   7.115   7.891   1.560 -0.7839 -0.4263 -0.4184
 4855SOL    HW116006   7.038   7.896   1.503 -1.4265 -1.7670  0.2859
 4855SOL    HW216007   7.120   7.800   1.586  1.6165 -0.5897 -1.1658
 4856SOL     OW16008   7.295   3.394  12.306  0.0606 -0.4582  0.2375
 4856SOL    HW116009   7.390   3.403  12.295 -0.3021  1.5303 -2.0468
 4856SOL    HW216010   7.278   3.429  12.393  1.2737  0.8648 -0.0135
 4857SOL     OW16011   0.995   6.287   4.105  0.2607  0.3756  0.2895
 4857SOL    HW116012   1.079   6.319   4.138 -0.4045  1.7629  0.7046
 4857SOL    HW216013   1.010   6.273   4.012  1.3135 -0.6792  0.5899
 4858SOL     OW16014   6.008   3.394  11.168  0.1291 -0.4054  0.3417
 4858SOL    HW116015   6.011   3.490  11.168 -0.5191 -0.2940 -2.6911
 4858SOL    HW216016   5.945   3.372  11.237  1.0652  1.2421  1.8207
 4859SOL     OW16017   7.891   6.211   9.872 -0.2236  0.7171 -0.2524
 4859SOL    HW116018   7.844   6.148   9.927 -0.2469  0.4269 -0.5995
 4859SOL    HW216019   7.983   6.196   9.892 -0.2792  1.4476  0.6031
 4860SOL     OW16020   7.871   1.922  10.418 -0.0711 -0.3527  0.8093
 4860SOL    HW116021   7.959   1.958  10.427 -0.0367 -0.5600  1.3205
 4860SOL    HW216022   7.881   1.830  10.443 -0.9619  0.2353  3.6579
 4861SOL     OW16023   4.833   6.660   2.913 -0.3796  0.0539  0.6833
 4861SOL    HW116024   4.790   6.745   2.906  1.3177  1.1732  2.6651
 4861SOL    HW216025   4.766   6.597   2.887 -1.6729  1.9559 -0.9233
 4862SOL     OW16026   2.867   5.661   0.521  0.3906  0.1989  0.1504
 4862SOL    HW116027   2.852   5.739   0.467 -1.5072  0.0101  0.3427
 4862SOL    HW216028   2.866   5.589   0.458  2.9772  0.3116 -0.1484
 4863SOL     OW16029   3.450   6.457  10.315  0.0894  0.0659  0.0759
 4863SOL    HW116030   3.434   6.550  10.303 -2.2324 -0.3167 -0.2953
 4863SOL    HW216031   3.385   6.429  10.379  0.7476 -1.3124  0.1916
 4864SOL     OW16032   7.665   2.185   9.042  0.4556  0.2928 -0.3534
 4864SOL    HW116033   7.636   2.113   8.985  0.2101 -0.8047  1.0780
 4864SOL    HW216034   7.669   2.145   9.129 -0.8186  2.3024  0.7040
 4865SOL     OW16035   1.692   6.085   8.399 -0.2889  0.6019 -0.6321
 4865SOL    HW116036   1.603   6.117   8.389 -1.4771 -2.1331  0.1261
 4865SOL    HW216037   1.705   6.078   8.493  0.2275 -0.2308 -0.7489
 4866SOL     OW16038   4.730   2.141   6.257  0.6874 -0.3159  0.2657
 4866SOL    HW116039   4.690   2.125   6.172  0.3317 -0.3588  0.4378
 4866SOL    HW216040   4.822   2.160   6.238  0.3699  0.8038 -0.2235
 4867SOL     OW16041   6.477   4.785  12.202 -0.1314 -0.0266 -0.0640
 4867SOL    HW116042   6.394   4.776  12.155 -0.6474 -2.3109  1.1511
 4867SOL    HW216043   6.468   4.866  12.252 -2.0687 -0.7422  0.8206
 4868SOL     OW16044   4.960   3.501   8.393  0.1761 -0.6815 -0.1683
 4868SOL    HW116045   4.912   3.433   8.345 -0.1687  1.2510 -2.8115
 4868SOL    HW216046   5.046   3.503   8.352  0.2336  0.3366 -0.0183
 4869SOL     OW16047   6.846   4.953   6.419  0.1124 -0.2411 -0.3490
 4869SOL    HW116048   6.769   4.923   6.370 -0.1800  1.3573 -0.9361
 4869SOL    HW216049   6.918   4.898   6.388 -0.9291 -2.4672  0.9637
 4870SOL     OW16050   6.838   6.633   2.721  0.1135  0.8404  0.6432
 4870SOL    HW116051   6.790   6.715   2.725 -0.1531  0.6506  1.5064
 4870SOL    HW216052   6.828   6.595   2.808  2.3397  1.0946  1.0661
 4871SOL     OW16053   5.345   4.101   5.713  0.3700 -0.2141  0.0721
 4871SOL    HW116054   5.311   4.168   5.655 -0.4175 -1.0689 -0.4868
 4871SOL    HW216055   5.268   4.069   5.760  0.5081 -1.5871 -0.5908
 4872SOL     OW16056   1.832   7.183   4.546  0.3361  0.1558  0.1999
 4872SOL    HW116057   1.902   7.163   4.484 -0.9516 -0.3384 -1.1682
 4872SOL    HW216058   1.816   7.277   4.536 -1.9928 -0.4157 -2.6841
 4873SOL     OW16059   1.793   2.843   1.861  0.3415 -0.2532  0.0883
 4873SOL    HW116060   1.742   2.820   1.938  1.7291  2.3910  1.9619
 4873SOL    HW216061   1.878   2.802   1.875  0.4942 -0.0348 -0.1926
 4874SOL     OW16062   7.266   5.714   1.001 -0.0722 -0.4940 -0.1640
 4874SOL    HW116063   7.330   5.736   1.068 -0.4400 -0.7121  0.2626
 4874SOL    HW216064   7.238   5.625   1.022  0.0027 -0.6636 -0.7607
 4875SOL     OW16065   4.705   7.711   3.689  0.0444  0.1512  0.6969
 4875SOL    HW116066   4.719   7.724   3.595  0.9727 -0.3005  0.7665
 4875SOL    HW216067   4.695   7.800   3.723  1.3419  0.4275  0.4075
 4876SOL     OW16068   6.536   2.191   4.910 -0.2374  0.1862 -0.5841
 4876SOL    HW116069   6.571   2.130   4.975  0.3236  0.3575 -0.7232
 4876SOL    HW216070   6.579   2.167   4.829  1.0821  1.6750 -0.3611
 4877SOL     OW16071   5.012   0.533   6.662 -0.1476 -0.0758  0.5215
 4877SOL    HW116072   4.964   0.611   6.688  0.1325  0.6350 -1.0140
 4877SOL    HW216073   5.025   0.542   6.568  0.9626 -1.3798  0.5126
 4878SOL     OW16074   6.849   1.141  12.069  0.1583 -0.4138  0.6119
 4878SOL    HW116075   6.809   1.173  12.150  0.4272 -1.6356  1.2559
 4878SOL    HW216076   6.928   1.194  12.058 -0.0718  0.0041  0.9411
 4879SOL     OW16077   0.022   6.036   2.020  0.5811 -0.0730  0.6659
 4879SOL    HW116078  -0.059   6.046   1.969  1.2226 -2.0808 -0.8687
 4879SOL    HW216079   0.092   6.048   1.955  1.4605 -0.7015  1.4836
 4880SOL     OW16080   3.986   6.438  11.280 -0.1826  0.0211 -0.9113
 4880SOL    HW116081   3.963   6.455  11.189 -0.1769  0.7186 -0.7865
 4880SOL    HW216082   4.079   6.462  11.285  0.2933 -1.6328 -1.1254
 4881SOL     OW16083   0.887   6.415  10.140  0.3406  0.4483  0.2273
 4881SOL    HW116084   0.971   6.415  10.186  1.5803  1.0940 -1.8635
 4881SOL    HW216085   0.895   6.343  10.077 -0.2430  1.1337 -0.6570
 4882SOL     OW16086   3.094   5.668   1.683  0.3301  0.0809  0.0308
 4882SOL    HW116087   3.079   5.755   1.719  0.7868 -0.1730  0.8675
 4882SOL    HW216088   3.017   5.650   1.629 -0.0697  0.7347  0.3797
 4883SOL     OW16089   4.886   3.767   0.741 -0.0686 -0.5236  0.1151
 4883SOL    HW116090   4.948   3.771   0.668  1.1489  0.6870  1.1667
 4883SOL    HW216091   4.941   3.773   0.819 -1.3856 -1.3226  1.1382
 4884SOL     OW16092   3.242   3.374  10.490 -0.6193  0.0658 -0.1193
 4884SOL    HW116093   3.251   3.390  10.584 -1.9670 -0.1704  0.0782
 4884SOL    HW216094   3.329   3.392  10.454 -0.1361  0.3777  1.1350
 4885SOL     OW16095   6.170   2.566  11.907  0.0481 -0.1755 -0.2025
 4885SOL    HW116096   6.240   2.532  11.851  0.3456 -1.7756  1.0604
 4885SOL    HW216097   6.140   2.645  11.862  1.2508 -0.5853 -1.8409
 4886SOL     OW16098   2.628   3.020   1.216 -0.5411 -0.1323  0.0152
 4886SOL    HW116099   2.548   2.994   1.171 -0.5782 -0.2675  0.1592
 4886SOL    HW216100   2.698   2.982   1.163 -0.5411  0.5546 -0.4893
 4887SOL     OW16101   4.096   4.658   0.692 -0.0390 -0.6406 -0.0766
 4887SOL    HW116102   4.053   4.590   0.639  1.5827 -1.2786 -0.6267
 4887SOL    HW216103   4.134   4.611   0.766  1.9237 -0.5393 -0.9611
 4888SOL     OW16104   6.463   1.600   4.846 -0.1855  0.0790  0.2535
 4888SOL    HW116105   6.541   1.568   4.893 -1.1195 -2.9507 -0.0533
 4888SOL    HW216106   6.409   1.639   4.914 -0.0185 -1.1956  1.1513
 4889SOL     OW16107   6.674   5.611  10.502 -0.5304  0.3379  0.4110
 4889SOL    HW116108   6.669   5.535  10.445 -2.7032  1.5823 -1.2355
 4889SOL    HW216109   6.583   5.640  10.512  0.1809  2.5939  1.0939
 4890SOL     OW16110   0.529   4.215   3.104 -0.1513  0.1257 -0.3913
 4890SOL    HW116111   0.572   4.130   3.112  1.1250  0.8398  0.5902
 4890SOL    HW216112   0.574   4.272   3.166 -2.0781  1.1082  0.2132
 4891SOL     OW16113   7.120   4.807   1.310  0.0368  0.3770  0.1504
 4891SOL    HW116114   7.074   4.763   1.381  0.0904 -1.6812 -0.9960
 4891SOL    HW216115   7.085   4.767   1.230  2.5457 -0.0895 -0.8361
 4892SOL     OW16116   4.019   1.052   5.947  0.5282 -0.4003  0.4595
 4892SOL    HW116117   3.934   1.053   5.991  0.3954 -1.1615  0.2366
 4892SOL    HW216118   4.028   1.139   5.910 -0.0977 -0.2699  0.6035
 4893SOL     OW16119   4.422   0.435  11.306 -0.3530 -0.3929  0.1009
 4893SOL    HW116120   4.439   0.529  11.310 -2.0779 -0.0837  0.8246
 4893SOL    HW216121   4.395   0.419  11.216  1.7053 -0.5741 -0.5511
 4894SOL     OW16122   7.784   7.256  10.134 -0.6753 -0.2860 -0.0363
 4894SOL    HW116123   7.822   7.325  10.187  0.2096 -0.8353  0.0639
 4894SOL    HW216124   7.693   7.283  10.121 -0.3626  0.8511  0.0515
 4895SOL     OW16125   0.386   4.061   0.210  0.2302  0.1351 -0.6138
 4895SOL    HW116126   0.389   4.121   0.135 -1.9161 -0.2077 -1.0666
 4895SOL    HW216127   0.300   4.019   0.202  0.9307 -1.6475  0.7295
 4896SOL     OW16128   1.494   4.729   6.110 -0.1092  0.0231  0.5935
 4896SOL    HW116129   1.470   4.813   6.070  0.1475 -1.1414 -2.2723
 4896SOL    HW216130   1.538   4.753   6.192 -0.3344  2.6540  0.0436
 4897SOL     OW16131   7.422   0.868   8.420 -0.3246 -0.4826 -0.3817
 4897SOL    HW116132   7.454   0.789   8.464 -1.3124 -0.3981  0.5481
 4897SOL    HW216133   7.500   0.909   8.384  0.1681 -2.1006 -1.2605
 4898SOL     OW16134   2.142   1.743   3.138  0.0858 -0.0540  0.0619
 4898SOL    HW116135   2.169   1.666   3.088 -0.7236 -0.2319 -0.1249
 4898SOL    HW216136   2.223   1.778   3.175  0.4440 -1.0955  0.2874
 4899SOL     OW16137   5.878   1.652   8.917 -0.2031  0.0659  0.1914
 4899SOL    HW116138   5.843   1.603   8.991  1.3724 -0.9721  0.2980
 4899SOL    HW216139   5.803   1.667   8.860 -1.5657  1.3672  2.2089
 4900SOL     OW16140   7.428   5.090   3.576  0.1834 -0.8154  0.1659
 4900SOL    HW116141   7.336   5.116   3.569  0.6329  0.8642  0.1364
 4900SOL    HW216142   7.427   4.995   3.563 -1.6564 -0.9830  1.2089
 4901SOL     OW16143   6.639   3.226  10.936 -0.3237 -0.8246 -0.4380
 4901SOL    HW116144   6.645   3.169  11.013 -0.0016 -0.4659 -0.1958
 4901SOL    HW216145   6.546   3.248  10.930 -0.1376  0.4371  0.7948
 4902SOL     OW16146   6.642   3.888  11.473 -0.6725  0.2790  0.3450
 4902SOL    HW116147   6.596   3.843  11.402 -0.4071  0.8017 -0.1653
 4902SOL    HW216148   6.573   3.924  11.528 -0.8832 -0.4778  0.5839
 4903SOL     OW16149   2.075   0.689  12.004 -0.2864  0.4063 -0.1797
 4903SOL    HW116150   2.061   0.783  12.011  0.2676  0.4651  0.2859
 4903SOL    HW216151   2.165   0.676  12.034 -0.1053 -0.1900 -0.9384
 4904SOL     OW16152   7.420   5.422   9.608  0.0208  0.0568 -0.1863
 4904SOL    HW116153   7.344   5.430   9.666  0.6393 -1.3768  0.8906
 4904SOL    HW216154   7.486   5.479   9.647 -0.1230  0.4125 -0.4620
 4905SOL     OW16155   2.165   6.779  12.169  0.0564 -0.1434 -0.3339
 4905SOL    HW116156   2.083   6.752  12.210 -0.9700  0.0074 -2.1522
 4905SOL    HW216157   2.165   6.875  12.176  0.3273 -0.1735  0.0972
 4906SOL     OW16158   5.824   7.774  11.490  0.3096  0.1846  0.6013
 4906SOL    HW116159   5.847   7.695  11.441 -1.8740 -0.4263  0.4753
 4906SOL    HW216160   5.888   7.777  11.561  1.3345 -0.8739 -0.2255
 4907SOL     OW16161   0.865   6.330   1.886  0.2942 -0.6637 -0.2632
 4907SOL    HW116162   0.808   6.264   1.848  0.1860 -0.3963 -0.5736
 4907SOL    HW216163   0.847   6.409   1.835 -0.2061 -0.1707  0.6499
 4908SOL     OW16164   6.471   5.489   1.281 -0.3249 -0.0372  0.1852
 4908SOL    HW116165   6.515   5.413   1.319 -1.2721  0.2618  1.9961
 4908SOL    HW216166   6.484   5.479   1.186  2.0128 -0.9018  0.5181
 4909SOL     OW16167   5.135   1.613   6.555  0.2507 -0.2587  0.6529
 4909SOL    HW116168   5.079   1.538   6.575  0.8632 -1.2715 -1.2155
 4909SOL    HW216169   5.222   1.575   6.541  0.4209  0.6456 -1.0897
 4910SOL     OW16170   5.095   6.336   0.293 -0.0425  0.2110  0.0532
 4910SOL    HW116171   5.114   6.409   0.234 -2.5473  2.2711  1.5636
 4910SOL    HW216172   5.123   6.367   0.379 -1.9473 -0.1770  0.8644
 4911SOL     OW16173   7.117   7.923  10.834  0.2579 -0.1854 -0.1852
 4911SOL    HW116174   7.154   7.888  10.753  0.7767 -0.0051 -0.0364
 4911SOL    HW216175   7.190   7.919  10.896 -0.2467 -0.6887  0.3826
 4912SOL     OW16176   5.628   7.839   8.133  0.0393 -0.3991 -0.1722
 4912SOL    HW116177   5.612   7.858   8.040 -1.1617 -1.2104 -0.1533
 4912SOL    HW216178   5.645   7.745   8.135 -1.1766 -0.6248  0.5570
 4913SOL     OW16179   1.507   6.857  12.023  0.6288 -0.1978  0.4263
 4913SOL    HW116180   1.558   6.938  12.029  0.0072  0.4652 -2.1541
 4913SOL    HW216181   1.416   6.885  12.038  0.5542 -0.6498  0.8315
 4914SOL     OW16182   4.557   6.257   3.228  0.0627 -0.1234  0.1205
 4914SOL    HW116183   4.495   6.269   3.300 -1.6491 -1.1857 -1.1036
 4914SOL    HW216184   4.585   6.346   3.206  0.6656  0.2201  2.0914
 4915SOL     OW16185   6.534   5.144  12.239 -0.2578  0.3770 -0.2561
 4915SOL    HW116186   6.508   5.236  12.235  1.5069  0.9350  0.0547
 4915SOL    HW216187   6.541   5.117  12.148 -0.8948  0.4993 -0.3473
 4916SOL     OW16188   7.202   4.617   0.673  0.3131  0.4509  0.3448
 4916SOL    HW116189   7.212   4.522   0.678 -1.0759  0.3444  1.9654
 4916SOL    HW216190   7.258   4.652   0.743  0.7117  0.8320 -0.1524
 4917SOL     OW16191   2.495   6.580   3.556 -0.1704  0.2608 -0.5467
 4917SOL    HW116192   2.477   6.556   3.465  1.5624  0.8794 -1.0798
 4917SOL    HW216193   2.486   6.675   3.558 -1.0273  0.1883  0.1604
 4918SOL     OW16194   7.131   6.685  10.828 -0.1411  0.0588 -0.0356
 4918SOL    HW116195   7.077   6.646  10.759  1.5143 -1.1160 -0.7304
 4918SOL    HW216196   7.142   6.615  10.891  1.5791 -0.1444 -0.5236
 4919SOL     OW16197   3.707   6.316  11.301 -0.4405 -0.1615 -0.2596
 4919SOL    HW116198   3.723   6.284  11.213 -0.3893 -1.8782  0.3205
 4919SOL    HW216199   3.793   6.315  11.343 -0.2675  1.7366 -0.4806
 4920SOL     OW16200   6.561   6.614   0.262  0.2254  0.4213 -0.1078
 4920SOL    HW116201   6.511   6.536   0.239  1.1883 -0.2928  0.1778
 4920SOL    HW216202   6.498   6.669   0.309 -0.5960  0.0489 -0.7460
 4921SOL     OW16203   0.668   6.344   2.647  0.6724 -0.1263 -0.5214
 4921SOL    HW116204   0.585   6.313   2.686  0.4035  0.7254 -0.4078
 4921SOL    HW216205   0.736   6.304   2.701  0.3313 -0.3815 -0.2742
 4922SOL     OW16206   6.980   2.407   7.128 -0.0154 -0.3018 -0.5421
 4922SOL    HW116207   6.923   2.426   7.203 -0.2259  0.9046 -0.9683
 4922SOL    HW216208   7.069   2.417   7.161  0.0722 -3.5738  0.4854
 4923SOL     OW16209   7.792   2.635   1.430 -0.2893  0.2128  0.5302
 4923SOL    HW116210   7.795   2.618   1.336  0.4187  0.8655  0.4245
 4923SOL    HW216211   7.835   2.720   1.441  1.4509 -0.7261  1.6303
 4924SOL     OW16212   5.282   0.092  11.750  0.0760  0.2947 -0.1532
 4924SOL    HW116213   5.287   0.181  11.715  0.5158  0.2395 -0.2286
 4924SOL    HW216214   5.361   0.049  11.719 -0.4336 -0.3135 -0.6320
 4925SOL     OW16215   3.060   7.013  11.959 -0.3022  0.6653  0.2014
 4925SOL    HW116216   2.997   6.965  11.905  0.5597 -0.3229  0.0532
 4925SOL    HW216217   3.124   7.048  11.897  1.4070 -1.5341  0.6179
 4926SOL     OW16218   7.112   1.498   1.932 -0.3188  0.3359 -0.7263
 4926SOL    HW116219   7.059   1.432   1.886  0.9938  0.0043 -1.8256
 4926SOL    HW216220   7.061   1.579   1.925 -0.2653  0.2393 -2.5986
 4927SOL     OW16221   4.383   5.020   5.504  0.4389 -0.4296 -0.2097
 4927SOL    HW116222   4.452   4.954   5.496  0.1816 -0.7842  0.3783
 4927SOL    HW216223   4.335   5.016   5.421  0.7318 -0.6271 -0.3705
 4928SOL     OW16224   6.004   0.266   2.809 -1.0299 -0.4195 -0.2147
 4928SOL    HW116225   6.047   0.310   2.882  0.5944 -1.7164 -0.3380
 4928SOL    HW216226   5.918   0.242   2.843 -1.0399  0.6879  0.6154
 4929SOL     OW16227   4.167   6.021   5.195 -0.0519  0.3207 -0.1352
 4929SOL    HW116228   4.250   5.974   5.198 -1.6571 -2.7820 -0.2916
 4929SOL    HW216229   4.115   5.974   5.129 -1.9733  2.0827  0.0330
 4930SOL     OW16230   7.600   0.015   5.416 -0.1263  0.2535 -0.1375
 4930SOL    HW116231   7.545  -0.023   5.485  0.0792  0.5938  0.2132
 4930SOL    HW216232   7.591  -0.046   5.343 -0.7146  0.1323  0.0273
 4931SOL     OW16233   1.915   4.152   8.118 -0.0225  0.5970  0.4653
 4931SOL    HW116234   1.854   4.112   8.056  1.1182  0.6885 -0.7641
 4931SOL    HW216235   1.953   4.226   8.071  1.7650 -0.0447  0.8146
 4932SOL     OW16236   6.843   0.310   5.357  0.3715  0.1866 -0.0290
 4932SOL    HW116237   6.867   0.400   5.334  1.5173 -0.4298 -1.3642
 4932SOL    HW216238   6.845   0.262   5.274  4.0157 -2.0067  1.0702
 4933SOL     OW16239   3.515   5.430   0.902 -0.0327 -0.3089 -0.2488
 4933SOL    HW116240   3.568   5.494   0.949  0.4140 -0.3340 -0.7204
 4933SOL    HW216241   3.522   5.455   0.810  0.8517 -1.5334 -0.5456
 4934SOL     OW16242   1.724   6.224   8.937 -0.1469  0.0428  0.0274
 4934SOL    HW116243   1.709   6.137   8.902 -1.8067 -0.1230  1.0568
 4934SOL    HW216244   1.694   6.219   9.028  2.3813  0.9237  1.0048
 4935SOL     OW16245   2.637   2.727   8.913  0.0892 -0.1786  0.0436
 4935SOL    HW116246   2.697   2.797   8.939 -0.8003  0.7277 -0.2395
 4935SOL    HW216247   2.554   2.772   8.898 -0.7153 -1.4280  0.6156
 4936SOL     OW16248   0.259   1.471   1.030  0.1318 -0.1608 -0.1712
 4936SOL    HW116249   0.288   1.541   0.972  0.0377  0.5729  0.6492
 4936SOL    HW216250   0.217   1.407   0.972  0.8335  0.1290 -1.0099
 4937SOL     OW16251   3.881   4.509   0.052 -0.2825 -0.2594  0.5875
 4937SOL    HW116252   3.951   4.517   0.117  1.9098 -1.4109 -1.4743
 4937SOL    HW216253   3.812   4.460   0.097  0.5899  0.0723  2.3913
 4938SOL     OW16254   3.456   7.958   6.957 -0.7095 -0.2209  0.3986
 4938SOL    HW116255   3.404   8.018   6.905 -1.2747 -2.4285 -1.7618
 4938SOL    HW216256   3.400   7.881   6.969  0.8224 -1.3066  0.9494
 4939SOL     OW16257   3.020   5.728   4.633  0.2820 -0.0364  0.9941
 4939SOL    HW116258   3.036   5.757   4.723 -0.6345  2.4149  0.4428
 4939SOL    HW216259   2.925   5.724   4.625  0.3386  0.2565 -0.0074
 4940SOL     OW16260   4.017   0.315   2.982 -0.3228  0.5922 -0.2466
 4940SOL    HW116261   4.094   0.263   2.962 -0.7323 -0.2309  0.2466
 4940SOL    HW216262   4.006   0.372   2.906 -0.6298 -0.9715 -1.4315
 4941SOL     OW16263   0.843   2.937   2.695 -0.1379  0.1034  0.0052
 4941SOL    HW116264   0.913   2.988   2.655  0.8209 -1.5516 -0.5192
 4941SOL    HW216265   0.776   2.930   2.627  0.8044 -1.3706 -0.8261
 4942SOL     OW16266   0.136   6.529   0.904 -0.2231  0.4869 -0.7239
 4942SOL    HW116267   0.140   6.457   0.841 -1.1819 -0.8439  0.6856
 4942SOL    HW216268   0.093   6.600   0.856  2.8910  1.0921 -2.9433
 4943SOL     OW16269   7.076   6.649   2.565  0.4721  0.5066  0.4807
 4943SOL    HW116270   6.995   6.652   2.616  1.6473 -1.0230  2.6316
 4943SOL    HW216271   7.133   6.714   2.607  0.4936  1.3104 -0.7748
 4944SOL     OW16272   5.707   6.986   4.423 -0.2654  0.2417 -0.1495
 4944SOL    HW116273   5.652   7.061   4.443  0.6188  0.7651  0.3569
 4944SOL    HW216274   5.794   7.009   4.456  0.2397 -0.6174 -0.8178
 4945SOL     OW16275   4.985   1.466   0.553  0.4346 -0.7778  0.4009
 4945SOL    HW116276   5.055   1.530   0.544  2.4159 -2.5903  1.8904
 4945SOL    HW216277   4.906   1.513   0.526  1.7306  2.3097  1.5075
 4946SOL     OW16278   0.212   0.606   8.937 -0.2609 -0.1653  0.4714
 4946SOL    HW116279   0.153   0.650   8.875 -0.3489 -0.4037  0.3863
 4946SOL    HW216280   0.271   0.555   8.881 -0.4564 -0.5275  0.5927
 4947SOL     OW16281   7.974   3.258   4.282  0.4564  0.9168  0.2200
 4947SOL    HW116282   7.963   3.173   4.240 -3.1678 -0.1442  2.8515
 4947SOL    HW216283   8.061   3.252   4.324  1.4357 -0.3485 -1.8336
 4948SOL     OW16284   7.915   4.177  11.600  0.2370 -0.1349 -0.1938
 4948SOL    HW116285   7.905   4.085  11.623  0.4217 -0.5380 -1.6307
 4948SOL    HW216286   7.914   4.223  11.684 -0.4477 -1.3810  0.5068
 4949SOL     OW16287   4.436   5.261   6.448 -0.0334 -0.3062  0.4606
 4949SOL    HW116288   4.520   5.228   6.478  0.6905 -0.3830 -1.5157
 4949SOL    HW216289   4.457   5.311   6.369 -1.7277  0.5100  0.4912
 4950SOL     OW16290   7.068   1.992   2.979 -0.8363  0.4592 -0.3034
 4950SOL    HW116291   7.006   2.019   2.910 -0.5766 -0.1381 -0.7811
 4950SOL    HW216292   7.150   2.035   2.956 -0.4830 -0.5065 -0.9379
 4951SOL     OW16293   6.261   5.594   5.162 -0.3636  0.0940 -0.6610
 4951SOL    HW116294   6.342   5.574   5.208 -0.8941 -0.3596  0.1122
 4951SOL    HW216295   6.270   5.686   5.137 -0.1846  0.4667  0.6774
 4952SOL     OW16296   5.934   7.123   2.498 -0.3742 -0.2461 -0.1076
 4952SOL    HW116297   5.851   7.157   2.533 -2.0318 -2.7304 -1.3359
 4952SOL    HW216298   5.953   7.179   2.423  0.4525  1.8692  1.5727
 4953SOL     OW16299   7.117   7.686   8.811  0.6283 -0.4731 -0.2730
 4953SOL    HW116300   7.079   7.672   8.725  0.1523  0.3589 -0.2011
 4953SOL    HW216301   7.082   7.770   8.841 -0.3711 -1.4071  1.3591
 4954SOL     OW16302   3.662   5.793   0.310  0.3974  0.4306  0.0138
 4954SOL    HW116303   3.719   5.857   0.353 -0.5192 -0.4691  2.8507
 4954SOL    HW216304   3.573   5.826   0.326 -0.0228 -0.6519  0.0201
 4955SOL     OW16305   6.907   6.667   1.804 -0.3026  0.2655 -0.2524
 4955SOL    HW116306   6.903   6.763   1.801  1.1816  0.3356 -0.6847
 4955SOL    HW216307   6.996   6.648   1.832 -1.0142 -0.9953  1.2423
 4956SOL     OW16308   6.155   7.962   8.644 -0.3877  0.2018  0.5466
 4956SOL    HW116309   6.068   7.972   8.682 -0.4775  2.2284 -0.0729
 4956SOL    HW216310   6.205   8.037   8.678  0.5191  0.1711 -0.6544
 4957SOL     OW16311   4.677   4.537  11.849  0.6324  0.7974  0.5087
 4957SOL    HW116312   4.683   4.454  11.896 -0.2491  0.4421  0.0252
 4957SOL    HW216313   4.759   4.544  11.801 -0.0087 -0.7439 -0.9391
 4958SOL     OW16314   1.622   5.001   0.475  0.2213 -0.1796  0.2720
 4958SOL    HW116315   1.662   5.087   0.469  1.1429 -0.6289 -0.2260
 4958SOL    HW216316   1.658   4.964   0.556 -0.0724 -0.1492  0.4175
 4959SOL     OW16317   7.113   1.436   7.794  0.1450 -0.2843  0.3302
 4959SOL    HW116318   7.153   1.513   7.756  0.0309 -0.1104  0.5599
 4959SOL    HW216319   7.122   1.448   7.889  0.5527 -0.7795  0.3598
 4960SOL     OW16320   1.237   7.428   6.263  0.6954  0.0104  0.0173
 4960SOL    HW116321   1.200   7.470   6.340 -1.1272 -0.9412 -0.2942
 4960SOL    HW216322   1.323   7.469   6.253  0.2906  1.3506  1.5521
 4961SOL     OW16323   1.137   1.099   9.631  0.0269  0.1388  0.2173
 4961SOL    HW116324   1.108   1.135   9.547 -1.8440 -0.5254  0.5321
 4961SOL    HW216325   1.060   1.103   9.687  0.0392 -3.0115  0.6845
 4962SOL     OW16326   3.586   5.946   7.219  0.0339  0.8068  0.2733
 4962SOL    HW116327   3.637   6.009   7.167 -0.7626  0.3639 -1.1109
 4962SOL    HW216328   3.601   5.862   7.176  0.0752  0.2543  1.3400
 4963SOL     OW16329   0.896   1.161   9.745 -0.4712  0.0801  0.4915
 4963SOL    HW116330   0.886   1.232   9.809 -2.3623  0.4773 -0.1746
 4963SOL    HW216331   0.812   1.159   9.699  0.2401 -1.3376 -0.8123
 4964SOL     OW16332   0.055   5.014   9.830 -0.3659 -0.7257 -0.0984
 4964SOL    HW116333   0.122   5.033   9.896 -0.4069  0.1010 -0.2838
 4964SOL    HW216334   0.104   5.000   9.749 -0.4774  1.5813 -0.6183
 4965SOL     OW16335   0.166   1.689   9.672  0.0448  0.5783 -0.3879
 4965SOL    HW116336   0.116   1.676   9.753  1.6310 -2.8169  0.2128
 4965SOL    HW216337   0.101   1.683   9.602 -0.8480 -0.4050  0.4889
 4966SOL     OW16338   7.914   1.553   6.083 -0.8716  0.4136 -0.3974
 4966SOL    HW116339   7.824   1.527   6.104 -0.7846 -0.6093 -1.1782
 4966SOL    HW216340   7.913   1.649   6.086 -2.4420  0.5057 -2.0274
 4967SOL     OW16341   7.019   7.939   5.009  0.4466 -0.4121  0.2994
 4967SOL    HW116342   6.998   7.869   5.071 -1.1307 -0.9914 -0.8239
 4967SOL    HW216343   6.991   7.905   4.924  3.1564  0.0948 -0.8963
 4968SOL     OW16344   1.278   7.971   1.987  0.2849 -0.3802  0.7351
 4968SOL    HW116345   1.263   8.047   1.930 -0.0127 -0.9825 -0.0012
 4968SOL    HW216346   1.190   7.937   2.005  0.5182 -2.3652 -1.4585
 4969SOL     OW16347   4.715   7.293   1.351 -0.3154 -0.1671  0.0991
 4969SOL    HW116348   4.710   7.301   1.446 -0.5947 -0.3225  0.0962
 4969SOL    HW216349   4.625   7.279   1.323 -0.0794 -1.3838 -0.0815
 4970SOL     OW16350   3.161   1.316   5.732 -0.0772  0.8468 -0.4783
 4970SOL    HW116351   3.196   1.323   5.820 -1.1580 -0.5559  0.0918
 4970SOL    HW216352   3.066   1.322   5.743 -0.1813  1.8991 -1.6937
 4971SOL     OW16353   3.280   7.300   9.503 -0.2485 -0.1624 -0.4116
 4971SOL    HW116354   3.301   7.221   9.454 -0.3514 -0.1881 -0.4142
 4971SOL    HW216355   3.324   7.288   9.587 -1.1127 -0.6930 -0.0217
 4972SOL     OW16356   6.267   7.166   2.591  0.6284  0.8393  0.1683
 4972SOL    HW116357   6.213   7.087   2.592  1.6705  0.0982  0.0394
 4972SOL    HW216358   6.207   7.237   2.613 -0.0812 -0.1373  1.4738
 4973SOL     OW16359   4.222   6.233  11.804  0.6935 -0.1681  0.2105
 4973SOL    HW116360   4.154   6.211  11.869 -1.3891  2.1884 -0.9733
 4973SOL    HW216361   4.283   6.290  11.852 -0.1670  0.5699  0.4657
 4974SOL     OW16362   1.751   0.792  10.657  0.1350 -0.8576 -0.3659
 4974SOL    HW116363   1.762   0.786  10.752 -0.7102  1.4525 -0.0404
 4974SOL    HW216364   1.838   0.812  10.624  0.4069 -1.5274 -0.0625
 4975SOL     OW16365   6.447   1.046   8.723  0.4539  0.2944 -0.2258
 4975SOL    HW116366   6.460   1.100   8.645 -1.5404  0.1659 -0.7096
 4975SOL    HW216367   6.533   1.041   8.764  0.7625  3.9368 -0.0935
 4976SOL     OW16368   7.547   5.132   0.980 -0.5790 -0.5405  1.0478
 4976SOL    HW116369   7.585   5.099   0.899  2.3061  0.5280  1.8349
 4976SOL    HW216370   7.480   5.194   0.952 -0.5007 -1.0951 -0.4734
 4977SOL     OW16371   2.008   2.076   5.265 -0.2472 -0.0903  0.1258
 4977SOL    HW116372   1.918   2.050   5.241 -1.1704  2.5368  0.4493
 4977SOL    HW216373   2.002   2.170   5.283  2.3937 -0.0405  1.1668
 4978SOL     OW16374   5.920   7.503   6.485 -0.3596 -0.0820  0.4546
 4978SOL    HW116375   5.989   7.487   6.421 -0.1493  2.3049  0.0255
 4978SOL    HW216376   5.841   7.515   6.433 -1.4450 -3.6544  0.9696
 4979SOL     OW16377   7.103   7.399   5.288 -0.3285 -0.3626 -0.3280
 4979SOL    HW116378   7.022   7.420   5.242 -1.2102  2.3794  2.1237
 4979SOL    HW216379   7.119   7.475   5.344  2.5681 -1.9027  1.1843
 4980SOL     OW16380   0.632   5.450   3.554 -1.2329  0.2161  0.0218
 4980SOL    HW116381   0.579   5.444   3.633 -0.9405  2.0289  0.4059
 4980SOL    HW216382   0.666   5.540   3.555  0.9111 -0.5110 -0.7896
 4981SOL     OW16383   3.381   1.654   1.171  0.0021  0.1501 -0.0277
 4981SOL    HW116384   3.446   1.584   1.179 -0.3439  0.0552  2.8075
 4981SOL    HW216385   3.299   1.608   1.153 -0.3050 -0.2762  2.2583
 4982SOL     OW16386   0.579   3.204   5.242  0.0529  0.1860  0.3374
 4982SOL    HW116387   0.499   3.257   5.238 -1.1010 -1.5016  0.2733
 4982SOL    HW216388   0.610   3.202   5.152  0.0392  0.6468  0.3184
 4983SOL     OW16389   6.619   2.915   1.578 -0.0685  0.4479  0.1101
 4983SOL    HW116390   6.544   2.910   1.517  0.5776 -1.3177 -0.6063
 4983SOL    HW216391   6.695   2.921   1.521  0.3908  1.9979  0.8367
 4984SOL     OW16392   5.339   5.997   7.866 -0.1320 -0.0826 -0.6266
 4984SOL    HW116393   5.355   6.045   7.947 -0.0469 -2.3639  0.7788
 4984SOL    HW216394   5.258   6.035   7.832 -0.3652  0.6869  0.7007
 4985SOL     OW16395   4.427   2.559   7.143  0.4665  0.4388 -0.2319
 4985SOL    HW116396   4.344   2.598   7.166  0.3648  0.4071 -0.5340
 4985SOL    HW216397   4.468   2.622   7.084  0.8930  0.6985  0.3369
 4986SOL     OW16398   4.717   7.839   9.098  0.7356  0.2944 -0.3923
 4986SOL    HW116399   4.693   7.854   9.189 -0.3044 -0.1384 -0.5890
 4986SOL    HW216400   4.731   7.744   9.092 -0.3901  0.1523 -0.9543
 4987SOL     OW16401   2.139   4.752  11.611 -0.0319 -0.1643  0.4768
 4987SOL    HW116402   2.160   4.660  11.628 -0.0449 -0.1925  0.3420
 4987SOL    HW216403   2.216   4.800  11.642  0.6531 -0.3382 -0.8756
 4988SOL     OW16404   1.315   1.246  11.052 -0.1087 -0.6874  0.1878
 4988SOL    HW116405   1.338   1.165  11.099  0.5594 -1.1829 -0.9431
 4988SOL    HW216406   1.323   1.222  10.960  1.5723  1.0719 -0.1837
 4989SOL     OW16407   1.854   7.591   3.859  0.1835 -0.5198  0.7207
 4989SOL    HW116408   1.846   7.680   3.825 -0.2483 -0.6362  0.5108
 4989SOL    HW216409   1.949   7.577   3.869  0.2492 -0.0348  0.7685
 4990SOL     OW16410   4.191   6.212   7.759  0.4226 -0.2111  0.3481
 4990SOL    HW116411   4.170   6.119   7.766  1.4944 -0.4324  0.8333
 4990SOL    HW216412   4.284   6.213   7.736  0.5776  0.7370  0.9727
 4991SOL     OW16413   7.037   7.416   3.941 -0.9648 -0.5873  0.2419
 4991SOL    HW116414   7.113   7.440   3.995 -0.7019 -1.4839  0.2767
 4991SOL    HW216415   6.982   7.495   3.942  1.0988  0.9981 -1.8339
 4992SOL     OW16416   2.442   4.830   5.474 -0.0722  0.1576 -0.5544
 4992SOL    HW116417   2.433   4.867   5.562 -0.4337  0.1123 -0.5733
 4992SOL    HW216418   2.372   4.766   5.467  1.2286 -1.3721 -0.1012
 4993SOL     OW16419   4.374   4.647   3.379  0.9984 -0.7493  0.2116
 4993SOL    HW116420   4.464   4.680   3.382  0.5370  0.5805 -0.1417
 4993SOL    HW216421   4.366   4.610   3.291  0.1663  2.3337 -1.1453
 4994SOL     OW16422   1.077   7.968  11.681 -0.6221 -0.1847 -1.2286
 4994SOL    HW116423   1.132   7.970  11.759 -1.7848 -2.8199 -0.2357
 4994SOL    HW216424   1.001   8.021  11.705 -1.0049 -1.0313 -0.5013
 4995SOL     OW16425   3.309   5.149   0.863 -0.2041 -0.2692  0.2915
 4995SOL    HW116426   3.360   5.171   0.786 -2.8442 -1.3685 -1.9465
 4995SOL    HW216427   3.370   5.102   0.920  2.2353  1.9148 -0.3232
 4996SOL     OW16428   3.383   5.515   3.994  0.4186 -0.2142  0.0334
 4996SOL    HW116429   3.372   5.443   3.932 -0.6625  0.3992 -0.5161
 4996SOL    HW216430   3.478   5.531   3.995  0.5240 -0.7138 -0.8990
 4997SOL     OW16431   7.491   2.669   5.593 -0.1845  0.0902  0.3092
 4997SOL    HW116432   7.405   2.677   5.633  0.2147 -0.2882  1.2621
 4997SOL    HW216433   7.521   2.582   5.617 -0.0443 -0.2501 -1.0613
 4998SOL     OW16434   6.349   1.340   7.003  0.2651  0.2089 -0.0863
 4998SOL    HW116435   6.264   1.317   6.964 -0.7747  2.0680  0.9422
 4998SOL    HW216436   6.366   1.268   7.064  0.1757 -0.9179 -1.3262
 4999SOL     OW16437   4.829   0.227   7.911  0.8407 -0.2095 -0.1974
 4999SOL    HW116438   4.772   0.296   7.944 -0.9278 -1.0951 -1.2882
 4999SOL    HW216439   4.915   0.270   7.902  0.4680  1.0763  1.7196
 5000SOL     OW16440   3.010   0.029   8.406  0.0486  0.2103 -0.5086
 5000SOL    HW116441   2.926   0.043   8.449  1.2612  0.2730  1.9882
 5000SOL    HW216442   3.059   0.110   8.423  1.8824 -1.1942  1.2900
 5001SOL     OW16443   5.161   1.363   5.583 -0.2025 -0.3293  0.3940
 5001SOL    HW116444   5.162   1.308   5.661  1.8576  0.5920  1.0872
 5001SOL    HW216445   5.182   1.451   5.614  0.8693  0.0283 -1.1785
 5002SOL     OW16446   2.126   2.222   2.866 -0.2053  0.4344 -0.0300
 5002SOL    HW116447   2.150   2.146   2.812  2.1044  1.6505 -0.8514
 5002SOL    HW216448   2.178   2.212   2.945  0.2484  1.2081 -0.2161
 5003SOL     OW16449   0.531   7.677   0.896 -0.4838 -0.4679  0.2531
 5003SOL    HW116450   0.594   7.639   0.835  0.0207  0.9743 -0.1651
 5003SOL    HW216451   0.572   7.760   0.923 -1.9814  0.2585  0.3566
 5004SOL     OW16452   5.976   6.094  12.476 -0.1202  0.3434  0.3213
 5004SOL    HW116453   6.045   6.082  12.411 -0.4498  0.6648 -0.0927
 5004SOL    HW216454   5.937   6.008  12.486 -1.3981  0.6696 -1.4131
 5005SOL     OW16455   6.014   2.882   6.098  0.8600 -0.1069 -0.2886
 5005SOL    HW116456   5.927   2.864   6.133 -0.2608  2.2487 -1.5700
 5005SOL    HW216457   6.065   2.913   6.173  0.1599 -0.1767  0.2199
 5006SOL     OW16458   5.997   0.416   4.958 -0.0037 -0.1547 -0.9973
 5006SOL    HW116459   6.066   0.391   4.896 -0.7433 -0.8859 -1.5513
 5006SOL    HW216460   6.026   0.379   5.042  0.6561  0.2306 -1.0494
 5007SOL     OW16461   7.455   6.715  10.401 -0.4899 -0.1711  0.3637
 5007SOL    HW116462   7.406   6.670  10.470  1.3289 -1.4148  0.9323
 5007SOL    HW216463   7.547   6.694  10.419  0.1400  0.5008 -1.7181
 5008SOL     OW16464   6.424   5.178   1.372  0.1566  0.4646 -0.3010
 5008SOL    HW116465   6.361   5.126   1.422 -0.3669  0.8767 -0.5134
 5008SOL    HW216466   6.508   5.134   1.384 -0.2690 -0.4034 -0.4563
 5009SOL     OW16467   7.105   1.041   7.073 -0.2115  0.2675 -0.8895
 5009SOL    HW116468   7.135   0.951   7.081  2.3164  1.0597 -0.6313
 5009SOL    HW216469   7.020   1.034   7.028 -0.2051 -2.2209 -0.6470
 5010SOL     OW16470   2.315   5.357   9.660 -0.6072  0.3228 -0.0865
 5010SOL    HW116471   2.264   5.292   9.709 -1.3169  1.2330  0.4113
 5010SOL    HW216472   2.406   5.339   9.684 -0.7170 -0.9749 -0.5660
 5011SOL     OW16473   3.675   3.195   2.486  0.1493 -0.6823  0.1473
 5011SOL    HW116474   3.589   3.182   2.447  0.3800  0.3980 -0.7643
 5011SOL    HW216475   3.658   3.244   2.567 -0.1099 -0.7756  0.1498
 5012SOL     OW16476   6.729   6.795   5.689  0.0108 -0.0313 -0.2988
 5012SOL    HW116477   6.770   6.792   5.775 -1.9979  0.5654  0.7294
 5012SOL    HW216478   6.776   6.865   5.643 -0.4187  1.2874  1.1727
 5013SOL     OW16479   5.740   7.673   1.373 -0.1398 -0.5597 -0.1817
 5013SOL    HW116480   5.798   7.717   1.436 -0.4083 -1.4877  0.7475
 5013SOL    HW216481   5.779   7.690   1.288  0.8985 -0.2608  0.3392
 5014SOL     OW16482   2.990   3.216  12.301 -0.0301 -0.1259  0.3353
 5014SOL    HW116483   2.896   3.204  12.289  0.3368 -3.7174 -0.1840
 5014SOL    HW216484   3.029   3.170  12.227  2.2225  2.8143 -0.4815
 5015SOL     OW16485   1.536   1.048   2.906  0.0070  0.6269  0.5066
 5015SOL    HW116486   1.560   1.055   2.814 -0.1696 -0.2477  0.3792
 5015SOL    HW216487   1.580   1.121   2.949 -0.1037  1.1816 -0.3118
 5016SOL     OW16488   1.159   1.911   6.757 -0.0992 -0.2289 -0.1010
 5016SOL    HW116489   1.114   1.972   6.816 -1.2598 -0.5061 -0.6725
 5016SOL    HW216490   1.246   1.949   6.745 -0.6074  1.0180  0.0215
 5017SOL     OW16491   4.018   4.727   5.293 -0.0056 -0.3312  0.2799
 5017SOL    HW116492   4.005   4.804   5.237  0.4818 -1.0320 -0.8436
 5017SOL    HW216493   4.111   4.727   5.312  0.3147 -1.5354 -1.1211
 5018SOL     OW16494   1.527   5.105   5.091  0.0546  0.4034 -0.3254
 5018SOL    HW116495   1.519   5.195   5.059 -1.2040  1.0321  1.5561
 5018SOL    HW216496   1.440   5.085   5.127  1.0492 -0.5634  1.7231
 5019SOL     OW16497   2.910   5.489   5.298 -0.2635 -0.1209  0.0261
 5019SOL    HW116498   2.937   5.406   5.337 -0.2129  0.5514  1.4781
 5019SOL    HW216499   2.969   5.554   5.337 -1.2078  0.7898 -0.0315
 5020SOL     OW16500   0.233   7.141   5.734  0.2881  0.2749  0.4319
 5020SOL    HW116501   0.323   7.163   5.711  0.7134 -1.1418  0.6584
 5020SOL    HW216502   0.223   7.050   5.708 -0.7509  0.0924  1.3994
 5021SOL     OW16503   2.866   4.196   0.238  0.4749  0.6807 -0.4209
 5021SOL    HW116504   2.809   4.273   0.237 -0.7189 -0.1800 -0.6413
 5021SOL    HW216505   2.871   4.169   0.147 -0.4486 -0.4439 -0.1558
 5022SOL     OW16506   4.794   1.537   9.014 -0.1733  0.3048 -0.4965
 5022SOL    HW116507   4.786   1.544   8.919  1.0205  1.7243 -0.5262
 5022SOL    HW216508   4.796   1.628   9.045 -1.1679 -0.1331  0.9650
 5023SOL     OW16509   0.289   3.887   4.451 -0.3169 -0.3950  0.3034
 5023SOL    HW116510   0.262   3.907   4.540  1.6384  0.8800  0.6741
 5023SOL    HW216511   0.374   3.930   4.441  0.5157 -2.2373 -1.4854
 5024SOL     OW16512   5.036   3.243  12.079  0.4041  0.4098 -0.2257
 5024SOL    HW116513   5.078   3.318  12.120  0.4002  1.2862 -1.7556
 5024SOL    HW216514   4.946   3.245  12.112  0.1275  1.6811 -0.9988
 5025SOL     OW16515   4.680   1.761   9.680  0.0362 -0.2501 -0.1384
 5025SOL    HW116516   4.717   1.707   9.749  2.2580 -0.8975 -1.7461
 5025SOL    HW216517   4.743   1.832   9.669 -0.2935 -0.1484 -1.4803
 5026SOL     OW16518   4.007   6.954   5.161  0.2529 -0.0064 -0.5600
 5026SOL    HW116519   4.092   6.986   5.132  0.7619 -0.5132  0.3566
 5026SOL    HW216520   4.026   6.889   5.228 -0.8632  0.2973  0.0841
 5027SOL     OW16521   4.287   1.880   2.211  0.4692 -0.0604  0.6465
 5027SOL    HW116522   4.324   1.886   2.299  1.6323  0.3848  0.1432
 5027SOL    HW216523   4.243   1.964   2.198  2.1259  0.7440  0.0227
 5028SOL     OW16524   2.998   7.698   7.796  0.2952 -0.0123  0.4320
 5028SOL    HW116525   3.090   7.676   7.810  0.2638  0.3962  1.4221
 5028SOL    HW216526   2.977   7.661   7.711  1.6190  0.6605 -0.2227
 5029SOL     OW16527   2.762   1.593   7.302  0.1000 -0.0033  0.2554
 5029SOL    HW116528   2.755   1.627   7.212  0.3675  1.0772  0.6240
 5029SOL    HW216529   2.820   1.517   7.294  2.5553  1.7812 -0.0999
 5030SOL     OW16530   4.142   4.366   6.361 -0.2290 -0.1986  0.3407
 5030SOL    HW116531   4.161   4.276   6.388  1.2185 -1.1267 -3.2012
 5030SOL    HW216532   4.227   4.410   6.361 -0.9065  1.2072  1.9110
 5031SOL     OW16533   4.857   3.699   2.541 -0.4883  0.2104  0.3302
 5031SOL    HW116534   4.824   3.609   2.538 -0.4610  0.2061  0.1192
 5031SOL    HW216535   4.804   3.742   2.609  1.0157 -0.5565  2.0547
 5032SOL     OW16536   6.716   4.685   8.076  0.2972  0.3325 -0.1736
 5032SOL    HW116537   6.788   4.655   8.131 -0.2497  0.5595  0.6893
 5032SOL    HW216538   6.670   4.605   8.051 -0.1086  0.2904  0.6468
 5033SOL     OW16539   0.983   7.359   3.449 -0.4004  0.5942 -0.9625
 5033SOL    HW116540   1.014   7.430   3.392  0.9638 -0.2786 -1.3396
 5033SOL    HW216541   1.030   7.371   3.531 -0.1428  0.1037 -1.0385
 5034SOL     OW16542   7.335   6.892   9.747 -0.3805  0.3258  0.1938
 5034SOL    HW116543   7.386   6.813   9.763  0.1058  0.6025  0.0273
 5034SOL    HW216544   7.294   6.913   9.831 -0.5826 -0.1475  0.2164
 5035SOL     OW16545   3.524   0.646   1.566 -0.0579  0.1179  0.0950
 5035SOL    HW116546   3.584   0.590   1.516  0.1967 -0.0899  0.6340
 5035SOL    HW216547   3.458   0.673   1.502  0.7448  0.5536 -0.5835
 5036SOL     OW16548   0.314   0.426   0.924 -0.1015 -0.7716 -0.0219
 5036SOL    HW116549   0.313   0.480   0.845 -2.7024  1.4082  1.3593
 5036SOL    HW216550   0.407   0.416   0.945  0.5584  0.4355 -2.1129
 5037SOL     OW16551   1.723   3.147   0.148 -0.2722 -0.7746 -0.2530
 5037SOL    HW116552   1.733   3.136   0.054 -1.6271 -1.1260 -0.3733
 5037SOL    HW216553   1.653   3.211   0.158 -0.2718 -0.8772  0.5175
 5038SOL     OW16554   0.094   0.012   0.704  0.5941  0.1158 -0.1105
 5038SOL    HW116555   0.009   0.029   0.664  0.8040  0.3970 -0.4412
 5038SOL    HW216556   0.118  -0.076   0.675  0.8456  0.4020 -0.7905
 5039SOL     OW16557   3.498   2.497   0.745  0.1485 -0.3845 -0.3851
 5039SOL    HW116558   3.473   2.487   0.837  1.9225  0.6490  0.2596
 5039SOL    HW216559   3.587   2.533   0.748  0.9192 -1.8706 -2.5104
 5040SOL     OW16560   7.723   2.568   1.969  1.1432  0.0290  0.5323
 5040SOL    HW116561   7.641   2.595   1.929  0.9633 -0.1343  0.7909
 5040SOL    HW216562   7.776   2.536   1.896  1.0258  0.2504  0.3486
 5041SOL     OW16563   1.737   0.429   3.694  0.8793 -0.0373  0.4151
 5041SOL    HW116564   1.799   0.484   3.743  1.8428  0.0217 -0.8084
 5041SOL    HW216565   1.779   0.416   3.609 -0.5198 -0.5441 -0.2264
 5042SOL     OW16566   6.063   5.661  11.841 -0.1706  0.0824  0.1627
 5042SOL    HW116567   6.152   5.629  11.851  0.1980 -0.1100 -2.9265
 5042SOL    HW216568   6.028   5.662  11.931  2.9837  0.4832  1.5142
 5043SOL     OW16569   7.874   1.916  10.094  0.0864 -0.3944  0.6104
 5043SOL    HW116570   7.923   1.881  10.169 -0.2504 -0.6766  0.7031
 5043SOL    HW216571   7.804   1.967  10.133 -0.3040 -0.8339  0.5004
 5044SOL     OW16572   0.420   5.752   7.644  0.0960 -0.2011 -0.5293
 5044SOL    HW116573   0.405   5.689   7.574 -1.9612  1.9105 -2.1486
 5044SOL    HW216574   0.417   5.837   7.601  0.0377  1.1615  1.9574
 5045SOL     OW16575   6.995   6.659   1.058  0.3254  0.1086  0.2513
 5045SOL    HW116576   6.984   6.564   1.068 -0.4968  0.2246  0.5958
 5045SOL    HW216577   7.085   6.676   1.085  1.4804 -0.9312 -2.5455
 5046SOL     OW16578   2.263   6.572   3.078 -0.3101  0.0557 -0.0802
 5046SOL    HW116579   2.278   6.485   3.043  0.3226 -0.0097  0.3349
 5046SOL    HW216580   2.171   6.573   3.103 -0.2293 -0.6272  0.2610
 5047SOL     OW16581   2.286   4.592   5.204  0.5527 -0.0688 -0.1913
 5047SOL    HW116582   2.335   4.543   5.137 -0.0110  0.2111 -0.8258
 5047SOL    HW216583   2.200   4.551   5.205  0.6750 -0.3117  0.6454
 5048SOL     OW16584   1.087   6.004   0.120  0.6803  0.0333 -0.4496
 5048SOL    HW116585   1.033   6.065   0.170 -0.2413 -1.1210  0.0277
 5048SOL    HW216586   1.103   6.048   0.037  1.4396  1.5981  0.4715
 5049SOL     OW16587   1.842   1.815  10.281  0.1497 -0.0528  0.2687
 5049SOL    HW116588   1.851   1.736  10.335 -1.3486 -0.3833  0.0719
 5049SOL    HW216589   1.754   1.809  10.245  0.3214  1.3086 -0.4179
 5050SOL     OW16590   1.306   6.814   0.349  0.3146 -0.0291  0.4459
 5050SOL    HW116591   1.306   6.797   0.255 -1.1367  2.2895 -0.0468
 5050SOL    HW216592   1.267   6.735   0.387 -1.0395 -0.1893 -1.1273
 5051SOL     OW16593   7.498   3.689   8.058  0.0385 -0.2425  0.5768
 5051SOL    HW116594   7.550   3.620   8.100  0.4800 -0.2950 -0.0394
 5051SOL    HW216595   7.556   3.766   8.059 -0.4724  0.1456  1.3137
 5052SOL     OW16596   3.870   5.407   3.786  0.2615  0.7573  0.1037
 5052SOL    HW116597   3.913   5.368   3.862 -0.2696 -4.2195 -1.7968
 5052SOL    HW216598   3.782   5.429   3.817  0.2455 -0.6254  1.1059
 5053SOL     OW16599   3.160   7.377   4.636 -0.1959  0.0638  0.0372
 5053SOL    HW116600   3.099   7.450   4.644  0.5818  0.8108 -0.7049
 5053SOL    HW216601   3.189   7.360   4.725 -2.1922 -0.9522  0.5609
 5054SOL     OW16602   4.354   6.336   3.385 -0.0930  0.2781 -0.5814
 5054SOL    HW116603   4.288   6.298   3.443 -2.0252  1.6629 -1.7340
 5054SOL    HW216604   4.392   6.408   3.435  1.6709 -1.3817  0.6147
 5055SOL     OW16605   4.070   2.415   3.197 -0.5077  0.1545  0.1439
 5055SOL    HW116606   4.064   2.370   3.282 -2.2036 -1.5249 -0.8114
 5055SOL    HW216607   4.090   2.346   3.135 -2.2401  0.8493 -1.2498
 5056SOL     OW16608   4.973   1.758   8.123 -0.5158  0.0885  0.1654
 5056SOL    HW116609   4.976   1.784   8.031  0.1356 -1.7238 -0.3736
 5056SOL    HW216610   5.065   1.751   8.149 -0.6907  0.8199  1.0409
 5057SOL     OW16611   5.967   5.286   1.345  0.3292  0.2648 -0.7292
 5057SOL    HW116612   5.940   5.377   1.332 -0.3713  0.2928  0.6840
 5057SOL    HW216613   6.062   5.290   1.353  0.3907  0.7364 -1.6352
 5058SOL     OW16614   1.831   5.232   3.843  0.3502  0.1798  0.3256
 5058SOL    HW116615   1.752   5.212   3.893 -1.2689  1.2313 -1.6679
 5058SOL    HW216616   1.897   5.174   3.879 -0.8792  0.3520  3.1520
 5059SOL     OW16617   3.321   2.546   0.963  0.0251 -0.0629  0.1399
 5059SOL    HW116618   3.337   2.632   0.923  0.4887 -0.0145  0.4183
 5059SOL    HW216619   3.244   2.560   1.018 -0.0688  0.1043 -0.0333
 5060SOL     OW16620   0.920   1.487   7.760  0.8756 -0.3452 -0.3431
 5060SOL    HW116621   0.905   1.517   7.670 -1.7359 -0.3208  0.0035
 5060SOL    HW216622   1.000   1.532   7.787  1.0459  0.6068 -2.2386
 5061SOL     OW16623   2.141   2.083   6.199 -0.2314 -0.1820  0.0457
 5061SOL    HW116624   2.118   2.086   6.292 -1.2020  0.7719 -0.2100
 5061SOL    HW216625   2.221   2.134   6.192 -1.1497  1.3333  0.1113
 5062SOL     OW16626   3.255   4.900   9.696  0.1745  0.4536  0.0716
 5062SOL    HW116627   3.272   4.950   9.776 -1.0364  0.7698  0.1481
 5062SOL    HW216628   3.324   4.927   9.635 -1.5328  3.8012 -0.5958
 5063SOL     OW16629   0.237   7.851   8.946 -0.0260 -0.0502  0.3744
 5063SOL    HW116630   0.186   7.928   8.921  0.5862  0.5503  0.9445
 5063SOL    HW216631   0.172   7.790   8.981 -0.4208  0.5086  0.6362
 5064SOL     OW16632   2.532   3.732   0.434 -0.0365  0.2436 -0.0956
 5064SOL    HW116633   2.534   3.638   0.449 -1.6014  0.1361 -0.3971
 5064SOL    HW216634   2.603   3.748   0.372  0.2128 -0.7446 -0.0734
 5065SOL     OW16635   4.126   0.411   3.836 -0.0975 -0.0022 -0.3505
 5065SOL    HW116636   4.117   0.447   3.925  0.9724  0.4477 -0.4098
 5065SOL    HW216637   4.116   0.487   3.779 -4.2111 -0.7244 -0.8732
 5066SOL     OW16638   4.837   7.495   9.467  0.4955  0.3614  0.1184
 5066SOL    HW116639   4.889   7.574   9.458 -1.5931  1.7121 -0.8846
 5066SOL    HW216640   4.795   7.483   9.382 -1.4292 -0.1623  1.0620
 5067SOL     OW16641   6.806   5.720  10.978  0.5018 -0.0772 -0.1076
 5067SOL    HW116642   6.894   5.738  11.012  0.4776  1.1872 -0.6778
 5067SOL    HW216643   6.819   5.705  10.884 -0.0531  1.6475 -0.4877
 5068SOL     OW16644   6.519   0.876   1.208 -0.0691  0.1887 -0.2523
 5068SOL    HW116645   6.590   0.854   1.148  1.3047  0.5367  1.1967
 5068SOL    HW216646   6.559   0.933   1.274 -1.5293 -0.1402  0.9826
 5069SOL     OW16647   6.782   5.396   6.352 -0.4406  0.2455  0.2705
 5069SOL    HW116648   6.701   5.344   6.343 -0.0509 -0.8884  2.4966
 5069SOL    HW216649   6.752   5.484   6.374 -1.1052  1.0549 -3.2282
 5070SOL     OW16650   6.636   0.213  11.748  0.4583 -0.0926  0.1672
 5070SOL    HW116651   6.692   0.188  11.674  2.3250  1.1612  1.0857
 5070SOL    HW216652   6.609   0.130  11.786  0.7384 -0.7476 -0.9950
 5071SOL     OW16653   4.352   6.593   4.790 -0.4371  0.4222  0.0811
 5071SOL    HW116654   4.396   6.510   4.809  0.5674 -0.2328 -4.1333
 5071SOL    HW216655   4.423   6.657   4.780 -0.9867  1.0658  0.1574
 5072SOL     OW16656   4.465   2.373   1.711 -0.1863  0.6590  0.0825
 5072SOL    HW116657   4.410   2.370   1.633 -0.2644 -0.2127  0.1529
 5072SOL    HW216658   4.529   2.303   1.697 -0.7265 -0.0917  1.1652
 5073SOL     OW16659   4.512   7.071   2.988  0.6414  0.6610 -0.4366
 5073SOL    HW116660   4.427   7.111   2.970  0.7830  1.7559  1.1637
 5073SOL    HW216661   4.515   7.062   3.083  2.0335 -0.0106 -0.5182
 5074SOL     OW16662   2.165   7.240   6.022 -0.4155 -0.7174  0.0420
 5074SOL    HW116663   2.200   7.159   5.985 -0.4833 -1.2301  1.0701
 5074SOL    HW216664   2.085   7.213   6.068 -1.0294  0.1110 -0.5087
 5075SOL     OW16665   4.013   4.018   4.618 -0.5767  0.0138  0.4398
 5075SOL    HW116666   3.987   4.044   4.707 -1.7943 -1.4520  0.5548
 5075SOL    HW216667   4.049   3.930   4.629 -2.3263 -0.9117 -0.6851
 5076SOL     OW16668   6.115   3.089   5.914  0.3683 -0.1357  0.8085
 5076SOL    HW116669   6.076   3.034   5.982 -0.0980 -1.2983 -0.3308
 5076SOL    HW216670   6.137   3.027   5.844  0.3834  1.0629 -0.2854
 5077SOL     OW16671   6.300   7.071   4.307 -1.0503 -0.1791  0.5559
 5077SOL    HW116672   6.310   6.994   4.251  1.1016  0.9461 -0.7369
 5077SOL    HW216673   6.328   7.040   4.394 -0.8379 -1.0144  0.2040
 5078SOL     OW16674   3.076   4.995  11.749  0.4285  0.1478 -0.1408
 5078SOL    HW116675   3.084   5.072  11.805  1.2167  0.0193 -0.0609
 5078SOL    HW216676   3.163   4.955  11.751  0.2090 -0.3759 -0.7128
 5079SOL     OW16677   6.439   1.179   6.698  0.5079 -0.1195  0.0590
 5079SOL    HW116678   6.382   1.113   6.738  2.4131 -1.6002  0.4261
 5079SOL    HW216679   6.384   1.258   6.694 -1.8733 -1.6935 -0.4448
 5080SOL     OW16680   7.010   7.678   9.710  0.6696 -0.0383 -0.1476
 5080SOL    HW116681   6.954   7.755   9.721  0.5625 -0.2270  0.6306
 5080SOL    HW216682   7.081   7.708   9.652 -0.3936  0.1123 -1.4317
 5081SOL     OW16683   3.405   0.718   0.349  0.0348  0.1192 -0.0080
 5081SOL    HW116684   3.460   0.732   0.271 -0.7215 -0.1195 -0.5936
 5081SOL    HW216685   3.317   0.741   0.321 -0.1086  0.9759  1.0774
 5082SOL     OW16686   6.999   3.388   8.879  0.2364 -0.3837 -0.0380
 5082SOL    HW116687   7.013   3.472   8.922  2.9496 -1.5260  1.6399
 5082SOL    HW216688   6.931   3.345   8.930 -0.4223  0.3661 -0.2737
 5083SOL     OW16689   5.261   1.411   5.069  0.5135 -0.2420 -0.5300
 5083SOL    HW116690   5.214   1.363   5.138 -0.1431  2.0803  0.7436
 5083SOL    HW216691   5.208   1.397   4.990 -0.0917 -0.9203 -0.0200
 5084SOL     OW16692   7.237   3.733   8.114  0.5608 -0.4399 -0.0514
 5084SOL    HW116693   7.329   3.727   8.089  0.3462 -1.5586 -0.6849
 5084SOL    HW216694   7.194   3.768   8.036  0.7697  2.8833  1.1625
 5085SOL     OW16695   4.287   2.317   6.261 -0.2341 -0.7100 -0.5038
 5085SOL    HW116696   4.371   2.276   6.282 -0.0565 -1.2710 -2.1311
 5085SOL    HW216697   4.221   2.260   6.302  0.1364 -0.8059 -0.0332
 5086SOL     OW16698   5.560   1.008   4.165 -0.4017 -0.0851 -0.4712
 5086SOL    HW116699   5.611   1.047   4.236  0.7119 -0.8385 -0.8119
 5086SOL    HW216700   5.552   0.915   4.189 -0.3776 -0.2595 -1.1055
 5087SOL     OW16701   6.509   6.282   3.046  0.3136 -0.1312 -0.1262
 5087SOL    HW116702   6.496   6.196   3.085  1.1807 -0.7714 -1.1849
 5087SOL    HW216703   6.436   6.292   2.985  0.7861 -0.6151 -0.7978
 5088SOL     OW16704   4.564   3.362  10.839  0.1845  0.4194  0.6513
 5088SOL    HW116705   4.475   3.390  10.857 -0.4025 -0.8704 -0.1740
 5088SOL    HW216706   4.575   3.375  10.745  1.6000  2.5261  1.0336
 5089SOL     OW16707   6.537   4.101  12.292 -0.0385  0.5315  0.3185
 5089SOL    HW116708   6.561   4.140  12.376 -1.2209  2.0655  0.0022
 5089SOL    HW216709   6.527   4.008  12.311 -0.6307  0.8942  1.9750
 5090SOL     OW16710   1.303   1.328   6.183 -0.2620  0.1862  0.0259
 5090SOL    HW116711   1.393   1.304   6.206  0.0479  2.1308  1.0681
 5090SOL    HW216712   1.265   1.248   6.146  1.6490 -0.8876  0.2769
 5091SOL     OW16713   7.737   6.427   4.071  0.2743  0.1082 -0.1005
 5091SOL    HW116714   7.677   6.392   4.136  1.2292  0.6926  1.1324
 5091SOL    HW216715   7.741   6.521   4.090  0.5122  0.3023 -1.0531
 5092SOL     OW16716   0.107   3.756   3.545 -0.0898 -0.4263 -0.0901
 5092SOL    HW116717   0.197   3.778   3.523 -0.0013  1.7647  2.1142
 5092SOL    HW216718   0.057   3.777   3.465  0.8717  2.0091 -0.1131
 5093SOL     OW16719   0.691   5.748   4.876 -0.4047 -0.0821  0.1051
 5093SOL    HW116720   0.659   5.757   4.966  1.9860  1.2677  0.9022
 5093SOL    HW216721   0.713   5.837   4.850  1.1475 -0.7402 -0.9440
 5094SOL     OW16722   5.140   7.345   9.563  0.0275 -0.0591 -0.3126
 5094SOL    HW116723   5.050   7.377   9.574  0.3996  0.9886 -0.2121
 5094SOL    HW216724   5.142   7.308   9.475 -0.8225 -1.2121  0.1267
 5095SOL     OW16725   5.400   5.169  11.390 -0.0439 -0.1876  0.5452
 5095SOL    HW116726   5.476   5.164  11.333  0.0466 -0.3295  0.6775
 5095SOL    HW216727   5.436   5.164  11.479 -0.2700 -1.0470  0.5941
 5096SOL     OW16728   4.304   7.232   1.561 -0.0299  0.0362 -0.0487
 5096SOL    HW116729   4.255   7.315   1.558 -1.1430 -0.4911  1.5993
 5096SOL    HW216730   4.315   7.215   1.655 -0.1145 -1.8321 -0.3455
 5097SOL     OW16731   1.500   2.794   6.754  0.2941  0.0895 -0.6096
 5097SOL    HW116732   1.408   2.798   6.782 -0.1582 -1.2460 -1.8219
 5097SOL    HW216733   1.545   2.752   6.828 -0.0038  1.0011  0.1071
 5098SOL     OW16734   6.706   3.274   0.929 -0.2665 -0.2504 -0.8077
 5098SOL    HW116735   6.718   3.331   1.006  0.0174 -0.5783 -0.6043
 5098SOL    HW216736   6.612   3.263   0.922 -0.3290  0.2734 -0.8704
 5099SOL     OW16737   7.825   4.227   8.495 -0.0205  0.0980 -0.8034
 5099SOL    HW116738   7.762   4.260   8.431 -0.6882 -1.5456 -1.0394
 5099SOL    HW216739   7.806   4.276   8.575 -0.7252  0.5380 -1.2288
 5100SOL     OW16740   7.716   2.314   6.131  0.0422  0.3541 -0.1515
 5100SOL    HW116741   7.673   2.229   6.130  0.2533  0.2251  0.7102
 5100SOL    HW216742   7.753   2.321   6.219  0.9096  0.8990 -0.5435
 5101SOL     OW16743   6.566   4.948   1.940  0.0522 -0.6009  0.3707
 5101SOL    HW116744   6.594   4.857   1.951 -0.0973 -0.4140  3.0088
 5101SOL    HW216745   6.477   4.942   1.907  0.4430 -1.3739 -0.5726
 5102SOL     OW16746   7.549   0.393  12.403 -0.0147  0.1355 -0.2522
 5102SOL    HW116747   7.550   0.471  12.458  2.9584  0.7827 -1.0370
 5102SOL    HW216748   7.634   0.393  12.359  0.2412 -3.6927 -0.1215
 5103SOL     OW16749   2.074   1.330   6.697 -0.0170  0.2011 -0.2331
 5103SOL    HW116750   2.080   1.238   6.673  0.3312  0.7359 -2.3948
 5103SOL    HW216751   1.989   1.359   6.666  0.3868  0.9037 -0.7306
 5104SOL     OW16752   0.159   6.665   2.854 -0.3193 -0.0674  0.4368
 5104SOL    HW116753   0.195   6.710   2.931  0.3964 -0.6769  0.4719
 5104SOL    HW216754   0.078   6.625   2.885 -0.3750  0.2467  0.7010
 5105SOL     OW16755   7.628   4.069  10.818  0.7714 -0.2646  0.0660
 5105SOL    HW116756   7.558   4.031  10.766  0.3104  0.6516 -0.0122
 5105SOL    HW216757   7.589   4.148  10.856  1.5007 -0.2095  0.7287
 5106SOL     OW16758   3.084   7.558  11.724  0.5333  0.0181  0.4675
 5106SOL    HW116759   3.159   7.602  11.764 -0.8334 -0.0675  3.3757
 5106SOL    HW216760   3.019   7.554  11.794 -2.3030  0.2825 -1.9841
 5107SOL     OW16761   5.908   5.794   4.965 -0.5207 -0.0413 -0.5396
 5107SOL    HW116762   5.841   5.771   4.900 -1.6621 -0.7151  0.8310
 5107SOL    HW216763   5.930   5.711   5.007  2.0030 -0.0342 -1.6585
 5108SOL     OW16764   3.759   0.585   5.432 -0.4958 -0.2883 -0.1411
 5108SOL    HW116765   3.786   0.494   5.447 -0.5850 -0.5517 -1.4658
 5108SOL    HW216766   3.837   0.637   5.453 -0.1373 -0.7511 -0.3010
 5109SOL     OW16767   4.472   0.892   9.296  0.0750 -0.4976 -0.0682
 5109SOL    HW116768   4.496   0.972   9.343  0.9781  0.4448 -1.9914
 5109SOL    HW216769   4.396   0.918   9.244  0.0650 -1.0404 -0.3272
 5110SOL     OW16770   5.661   2.659   5.256  0.1163 -0.0888 -0.7550
 5110SOL    HW116771   5.672   2.690   5.346  1.1653 -2.2644 -0.0666
 5110SOL    HW216772   5.569   2.633   5.251  0.0351  0.1067 -0.3313
 5111SOL     OW16773   6.060   3.360   1.580 -0.3589  0.4297  0.6220
 5111SOL    HW116774   6.101   3.414   1.648 -0.5613  0.5929  0.6165
 5111SOL    HW216775   5.990   3.415   1.546 -2.1974 -0.7272  2.3102
 5112SOL     OW16776   4.498   1.371   0.488  0.2162  0.4635 -0.3091
 5112SOL    HW116777   4.469   1.456   0.455  0.8499  0.4479 -0.9314
 5112SOL    HW216778   4.563   1.392   0.555  1.0559  0.4729 -1.1084
 5113SOL     OW16779   1.647   1.152   2.668 -0.1337 -0.3874  0.0609
 5113SOL    HW116780   1.595   1.183   2.593 -1.3127  0.5412  1.2065
 5113SOL    HW216781   1.717   1.216   2.677  0.2703 -0.7381 -0.4843
 5114SOL     OW16782   4.819   4.377   2.897  0.5877 -0.6833 -0.0361
 5114SOL    HW116783   4.778   4.364   2.812  0.2318 -0.2831  0.0717
 5114SOL    HW216784   4.813   4.471   2.913  0.9938 -0.7049  0.2605
 5115SOL     OW16785   4.831   5.867   7.395  0.2498 -0.2168  0.2183
 5115SOL    HW116786   4.764   5.881   7.329  0.8825  1.8333 -0.0681
 5115SOL    HW216787   4.890   5.803   7.356  0.5031  0.8088 -1.1586
 5116SOL     OW16788   5.633   5.146   2.945 -0.1973 -0.0790  0.2154
 5116SOL    HW116789   5.601   5.206   3.013  0.7569  1.9745 -1.0467
 5116SOL    HW216790   5.591   5.177   2.865 -0.6599 -1.9367 -0.2939
 5117SOL     OW16791   1.353   2.852  10.544 -0.3321 -0.5720  0.5900
 5117SOL    HW116792   1.353   2.782  10.610 -3.2524 -1.1205  0.1217
 5117SOL    HW216793   1.384   2.809  10.464  1.4084 -0.3665  1.1166
 5118SOL     OW16794   3.358   7.088   6.266  0.4198  0.1064  0.3569
 5118SOL    HW116795   3.266   7.084   6.292  0.7615 -1.1656  1.4689
 5118SOL    HW216796   3.367   7.174   6.225 -0.8875  0.9470  1.7235
 5119SOL     OW16797   4.899   2.898   5.734  0.6959 -0.5224 -0.6039
 5119SOL    HW116798   4.930   2.983   5.701  0.3168  0.1970  0.8207
 5119SOL    HW216799   4.835   2.920   5.801  0.3252 -1.9546 -0.4524
 5120SOL     OW16800   5.109   7.870   4.932  0.2111 -0.2048 -0.2385
 5120SOL    HW116801   5.082   7.962   4.938 -0.4209 -0.3851 -0.3395
 5120SOL    HW216802   5.031   7.823   4.905  0.8009 -0.6363 -1.2560
 5121SOL     OW16803   5.189   3.030  10.656  0.0496  0.0024 -0.1640
 5121SOL    HW116804   5.140   2.957  10.618 -1.9781  0.0683  2.0443
 5121SOL    HW216805   5.156   3.108  10.612  0.1914 -0.1779 -0.5910
 5122SOL     OW16806   1.496   7.739   8.823  0.5457 -0.2763 -0.0100
 5122SOL    HW116807   1.529   7.767   8.737 -0.0565  0.8495  0.1000
 5122SOL    HW216808   1.464   7.650   8.808  0.5711 -0.1471 -0.9324
 5123SOL     OW16809   2.121   5.447   5.042 -0.2571 -0.0305 -0.1376
 5123SOL    HW116810   2.158   5.424   5.128 -0.2622 -2.3028 -0.6737
 5123SOL    HW216811   2.190   5.424   4.980 -0.5261  0.9296 -0.8040
 5124SOL     OW16812   5.837   6.045   4.850  0.4266  0.1527 -0.0313
 5124SOL    HW116813   5.882   5.974   4.897  0.5856  0.1931 -0.1214
 5124SOL    HW216814   5.744   6.027   4.863  0.4666 -0.0354  0.0048
 5125SOL     OW16815   3.966   7.632  11.179 -0.1686  0.3195 -0.2168
 5125SOL    HW116816   4.037   7.575  11.207 -0.2046  0.1168 -0.5242
 5125SOL    HW216817   3.974   7.636  11.084 -1.7036 -1.2600 -0.4661
 5126SOL     OW16818   6.396   0.438   2.782 -0.0132  0.0124  0.0497
 5126SOL    HW116819   6.444   0.399   2.855 -1.2288  0.0008  0.8872
 5126SOL    HW216820   6.428   0.392   2.704  1.7438  0.4387  0.4751
 5127SOL     OW16821   6.669   3.920  10.513 -0.0649  0.5327  0.0950
 5127SOL    HW116822   6.699   4.009  10.494  0.3539  0.8790  2.1134
 5127SOL    HW216823   6.747   3.874  10.543 -0.5317 -0.1046  0.3505
 5128SOL     OW16824   4.754   4.563   6.097 -0.0292  0.0119 -0.0587
 5128SOL    HW116825   4.785   4.625   6.162  0.3124 -0.5670  0.3381
 5128SOL    HW216826   4.678   4.521   6.137 -0.1010 -0.0172 -0.2217
 5129SOL     OW16827   7.256   1.555   0.508 -0.0667 -0.1292  0.0744
 5129SOL    HW116828   7.306   1.625   0.466  1.3917  1.0916  3.4864
 5129SOL    HW216829   7.322   1.490   0.533 -0.9929 -1.2297 -0.2399
 5130SOL     OW16830   3.431   4.448   5.059 -0.1755  0.2793 -0.1096
 5130SOL    HW116831   3.420   4.484   4.971  2.3266  1.0996 -0.1592
 5130SOL    HW216832   3.348   4.403   5.077 -0.7756  0.1274 -2.8430
 5131SOL     OW16833   3.780   4.278   2.254 -0.5553 -0.5559  0.1537
 5131SOL    HW116834   3.771   4.226   2.334 -0.1807  0.5248  0.9191
 5131SOL    HW216835   3.701   4.332   2.252  0.4244  0.9652  0.9664
 5132SOL     OW16836   7.868   4.359   4.511 -0.3486  0.1204 -0.5956
 5132SOL    HW116837   7.852   4.448   4.544  1.2344 -0.0173  0.7027
 5132SOL    HW216838   7.786   4.313   4.525 -0.9232  1.1441 -0.4736
 5133SOL     OW16839   4.888   7.779   4.831 -0.8839  0.5198 -0.1094
 5133SOL    HW116840   4.885   7.837   4.756 -0.0288 -0.1790 -0.7032
 5133SOL    HW216841   4.834   7.704   4.805 -1.4206  0.7285  0.3813
 5134SOL     OW16842   4.023   7.655   1.997 -0.1583  0.0303  0.2511
 5134SOL    HW116843   4.035   7.725   2.060 -0.0938 -0.2971  0.6035
 5134SOL    HW216844   4.054   7.692   1.914 -0.5787  0.5798  0.3337
 5135SOL     OW16845   7.802   1.989   3.173 -0.1475  0.2963 -0.1267
 5135SOL    HW116846   7.869   2.030   3.119 -0.7331  1.0745 -0.2763
 5135SOL    HW216847   7.843   1.909   3.205  2.2410  2.5137  2.8665
 5136SOL     OW16848   6.320   6.220   9.521  0.4996 -0.4634  0.5113
 5136SOL    HW116849   6.335   6.233   9.427  1.8069 -0.3604  0.7155
 5136SOL    HW216850   6.308   6.125   9.530 -0.9019 -0.3424  0.0876
 5137SOL     OW16851   4.048   0.783   2.189  0.1184 -0.0277  0.4464
 5137SOL    HW116852   4.076   0.819   2.105 -0.0790 -0.0120  0.3894
 5137SOL    HW216853   3.953   0.791   2.189 -0.0197 -1.3515  0.0595
 5138SOL     OW16854   3.641   6.755   5.677 -0.8510  0.3186 -0.0143
 5138SOL    HW116855   3.602   6.755   5.589 -0.8014 -1.8117 -0.0906
 5138SOL    HW216856   3.625   6.666   5.710  0.4703  0.6173  1.5427
 5139SOL     OW16857   4.240   1.876   7.463  0.1766  0.1627  0.0589
 5139SOL    HW116858   4.322   1.923   7.472  0.1640  0.4896 -1.3096
 5139SOL    HW216859   4.184   1.934   7.411 -1.2163  0.2919  1.6330
 5140SOL     OW16860   5.941   4.600   4.045 -0.4897 -0.7396 -0.1846
 5140SOL    HW116861   5.933   4.676   3.988  0.4885 -0.4263  0.0762
 5140SOL    HW216862   5.964   4.528   3.986  0.1701 -0.4914 -0.2381
 5141SOL     OW16863   7.723   7.374   7.605 -0.8157  0.2697 -0.4209
 5141SOL    HW116864   7.807   7.336   7.582 -0.7214  1.2031 -1.7500
 5141SOL    HW216865   7.726   7.385   7.700  0.0893 -0.7726 -0.3193
 5142SOL     OW16866   4.242   1.329   8.518 -0.4532  0.0284 -0.4843
 5142SOL    HW116867   4.268   1.385   8.591  0.4359  0.2986 -0.9900
 5142SOL    HW216868   4.323   1.284   8.492 -1.4091 -2.7673  0.9408
 5143SOL     OW16869   0.264   3.736   8.812  0.7196  0.3266  0.0802
 5143SOL    HW116870   0.321   3.813   8.803 -0.8876  1.4887 -0.5192
 5143SOL    HW216871   0.189   3.766   8.862 -0.1746 -0.7225 -0.5756
 5144SOL     OW16872   2.414   7.735  11.616  0.0394 -0.8158 -0.5374
 5144SOL    HW116873   2.375   7.800  11.558  0.6383 -0.1796 -0.2455
 5144SOL    HW216874   2.366   7.743  11.698 -1.8489 -2.7746 -1.3587
 5145SOL     OW16875   0.565   4.170   1.719  0.0942  0.4966  0.2906
 5145SOL    HW116876   0.534   4.221   1.644 -1.0768  1.9121  1.6469
 5145SOL    HW216877   0.574   4.235   1.789  1.0285 -0.7984  1.4117
 5146SOL     OW16878   3.385   4.811   3.982 -0.0254 -0.2758 -0.7071
 5146SOL    HW116879   3.353   4.773   3.900  0.6410  1.0396 -1.6175
 5146SOL    HW216880   3.480   4.803   3.976  0.2775  2.7771 -1.6564
 5147SOL     OW16881   3.997   7.144   0.788  0.0091  0.4437 -0.3183
 5147SOL    HW116882   3.983   7.234   0.757  0.5601  0.4341 -0.6132
 5147SOL    HW216883   3.961   7.089   0.718 -0.2445  0.4333 -0.1801
 5148SOL     OW16884   5.616   0.939   9.276 -0.1183 -0.1570  0.1489
 5148SOL    HW116885   5.678   1.010   9.292  0.4835 -0.7922  0.7582
 5148SOL    HW216886   5.534   0.969   9.315  0.2852 -0.0249  0.9294
 5149SOL     OW16887   6.868   6.050   8.220  0.9115  0.2030  0.1846
 5149SOL    HW116888   6.855   6.123   8.281  0.5761 -0.0086  0.3685
 5149SOL    HW216889   6.830   5.975   8.265 -1.1794  0.4118 -1.0988
 5150SOL     OW16890   5.538   6.267   7.873  0.3407  0.1864  0.4690
 5150SOL    HW116891   5.503   6.228   7.793 -0.1442  1.1935  0.1744
 5150SOL    HW216892   5.587   6.344   7.842  0.6227  0.2645  1.0951
 5151SOL     OW16893   7.428   6.790   8.393 -0.0436 -0.1281  0.2736
 5151SOL    HW116894   7.369   6.724   8.356 -1.0386  0.7962  0.1702
 5151SOL    HW216895   7.501   6.794   8.331 -0.0377 -1.0157  0.2068
 5152SOL     OW16896   2.299   7.540   5.505  0.6005  0.1171 -0.2407
 5152SOL    HW116897   2.231   7.602   5.530 -0.4885 -1.8973  2.1523
 5152SOL    HW216898   2.381   7.586   5.522 -0.1782  1.2132  0.6424
 5153SOL     OW16899   7.732   4.021   8.971  0.3808 -0.2314 -0.2132
 5153SOL    HW116900   7.677   3.944   8.967  1.5099 -1.0356 -0.7977
 5153SOL    HW216901   7.768   4.021   9.060  2.1319 -1.6906 -0.8488
 5154SOL     OW16902   4.943   6.198  12.411 -0.0937 -0.8075 -0.1660
 5154SOL    HW116903   4.911   6.264  12.472  0.2707 -0.8125  0.0353
 5154SOL    HW216904   5.039   6.201  12.421 -0.0113 -0.5269 -1.0308
 5155SOL     OW16905   7.345   2.390  11.048 -0.4220 -0.3557 -0.3187
 5155SOL    HW116906   7.354   2.324  11.116 -1.4066  0.6654  0.8570
 5155SOL    HW216907   7.287   2.350  10.982 -0.7806 -0.7683  0.2387
 5156SOL     OW16908   3.466   7.577   1.714  0.3759  0.1210 -0.2446
 5156SOL    HW116909   3.433   7.600   1.801  0.9818 -1.6508  0.4969
 5156SOL    HW216910   3.420   7.636   1.654 -2.1649 -0.4686  1.0007
 5157SOL     OW16911   6.249   5.043  11.423  0.3525 -0.1893  0.1627
 5157SOL    HW116912   6.165   5.030  11.379 -0.0076 -1.9429  1.2739
 5157SOL    HW216913   6.227   5.094  11.502  0.7391  1.4307 -0.7200
 5158SOL     OW16914   2.819   7.485   4.968 -0.0584 -0.4903 -0.3154
 5158SOL    HW116915   2.908   7.503   4.938  0.3655  0.0474  1.1719
 5158SOL    HW216916   2.826   7.485   5.064 -2.0377  1.6375 -0.0988
 5159SOL     OW16917   7.160   3.543   9.777 -0.2055  0.6496  0.3443
 5159SOL    HW116918   7.200   3.553   9.863  0.5689 -0.0714  0.0869
 5159SOL    HW216919   7.149   3.449   9.766  1.6317  0.5345 -1.1538
 5160SOL     OW16920   3.289   7.245   0.311 -0.8016  0.2405  0.2898
 5160SOL    HW116921   3.305   7.328   0.266 -1.3310  0.8330  1.1755
 5160SOL    HW216922   3.372   7.198   0.306 -0.4038  0.9592  0.0705
 5161SOL     OW16923   0.285   0.818   8.461 -0.7194 -0.0247  0.2735
 5161SOL    HW116924   0.254   0.732   8.489 -1.1618  0.4946  1.4281
 5161SOL    HW216925   0.317   0.804   8.372 -2.0080 -1.1052 -0.0477
 5162SOL     OW16926   2.384   6.129   9.454 -0.3978  0.2173  0.3275
 5162SOL    HW116927   2.390   6.225   9.458 -1.3598  0.3552 -0.7535
 5162SOL    HW216928   2.471   6.101   9.428 -0.4716  0.9333 -0.7724
 5163SOL     OW16929   7.928   3.269   7.180 -0.4088  0.1411  0.1762
 5163SOL    HW116930   8.019   3.243   7.197  0.2046  1.6685 -0.5352
 5163SOL    HW216931   7.889   3.277   7.267 -0.8042 -3.4135  0.4494
 5164SOL     OW16932   4.896   7.966   0.138  0.1531 -0.1799 -0.0574
 5164SOL    HW116933   4.848   8.032   0.189 -1.1020 -0.7477 -0.4678
 5164SOL    HW216934   4.979   8.008   0.117 -0.4357  1.0992  0.0874
 5165SOL     OW16935   2.518   6.834   1.862 -0.6334 -0.1682  0.0364
 5165SOL    HW116936   2.490   6.828   1.953 -0.5533  0.0533  0.0758
 5165SOL    HW216937   2.566   6.917   1.857  0.0986 -0.5899 -0.0072
 5166SOL     OW16938   6.038   0.602   6.843 -0.0153  0.7146  0.2726
 5166SOL    HW116939   6.094   0.654   6.785  0.5124 -0.0680  0.0668
 5166SOL    HW216940   6.097   0.571   6.912 -0.3607  0.5339  0.4892
 5167SOL     OW16941   3.647   0.302   2.467  0.3477  0.6417  0.3925
 5167SOL    HW116942   3.709   0.270   2.532  0.3741  0.4722  0.2851
 5167SOL    HW216943   3.586   0.229   2.454  0.9102  0.3077 -0.4885
 5168SOL     OW16944   5.005   4.139   2.975 -0.0909 -0.0340  0.4551
 5168SOL    HW116945   5.070   4.137   2.905 -0.0056  1.0309  0.4873
 5168SOL    HW216946   4.984   4.232   2.986 -1.4144 -0.3334  0.6337
 5169SOL     OW16947   3.878   0.792   5.608  0.1856 -0.2948 -0.7131
 5169SOL    HW116948   3.795   0.815   5.565  0.4536 -0.8378 -1.5640
 5169SOL    HW216949   3.917   0.876   5.631 -1.0963 -0.0468  0.7079
 5170SOL     OW16950   4.716   2.850   2.412 -0.1861  0.1901  0.5070
 5170SOL    HW116951   4.724   2.891   2.326  0.3365  0.0595  0.4939
 5170SOL    HW216952   4.751   2.761   2.400  0.2392  0.2954  0.9465
 5171SOL     OW16953   2.633   6.796   5.463 -0.9381  0.0338 -0.4818
 5171SOL    HW116954   2.691   6.870   5.478  1.3576 -1.6850 -0.2506
 5171SOL    HW216955   2.584   6.819   5.384 -1.9176  2.6470  0.7763
 5172SOL     OW16956   5.597   1.316   5.453 -0.2333  0.0334 -0.4968
 5172SOL    HW116957   5.647   1.348   5.378 -0.4643 -4.1410 -2.7550
 5172SOL    HW216958   5.660   1.266   5.504 -0.8997 -0.4587 -0.1411
 5173SOL     OW16959   4.388   5.416   9.472 -0.6999 -0.7378  0.4072
 5173SOL    HW116960   4.378   5.341   9.412 -2.7732 -1.1007  1.1175
 5173SOL    HW216961   4.459   5.391   9.530 -0.5630 -1.6248 -0.1181
 5174SOL     OW16962   0.997   4.938   1.666 -0.0857 -0.1335 -0.9221
 5174SOL    HW116963   1.026   4.857   1.625 -0.8869 -0.4369 -0.9091
 5174SOL    HW216964   1.071   4.966   1.719  0.1036 -0.9969 -0.7192
 5175SOL     OW16965   6.384   4.870   2.494 -0.0977 -0.1562 -0.1136
 5175SOL    HW116966   6.444   4.833   2.558 -1.2103 -0.7354  0.6324
 5175SOL    HW216967   6.423   4.848   2.409  1.1789  0.2591  0.3436
 5176SOL     OW16968   0.854   3.872   8.686  0.0076 -0.3481  0.2456
 5176SOL    HW116969   0.814   3.934   8.626  0.7900 -1.7278 -1.7878
 5176SOL    HW216970   0.780   3.823   8.722 -0.5527  1.1784  1.3119
 5177SOL     OW16971   3.837   7.072   0.555 -0.0146  0.4790  0.0836
 5177SOL    HW116972   3.759   7.127   0.563 -1.5688 -1.7905  2.1238
 5177SOL    HW216973   3.848   7.061   0.460 -3.4349 -0.6128 -0.3607
 5178SOL     OW16974   7.986   7.580   1.062 -0.0326 -0.1849 -0.1770
 5178SOL    HW116975   7.985   7.550   0.971 -1.1388 -1.9983  0.3599
 5178SOL    HW216976   7.974   7.675   1.057  2.6013  0.1418 -1.9760
 5179SOL     OW16977   6.185   2.185   0.531  0.3199 -0.6960 -0.0113
 5179SOL    HW116978   6.107   2.190   0.587 -0.2670  2.4883 -0.9005
 5179SOL    HW216979   6.256   2.218   0.586  0.3903 -0.6373 -0.1368
 5180SOL     OW16980   3.437   1.953   6.819 -0.0775 -0.9056  0.2597
 5180SOL    HW116981   3.431   1.859   6.798 -1.1415 -0.4426 -1.8311
 5180SOL    HW216982   3.359   1.970   6.873  0.0434 -1.1944  0.5276
 5181SOL     OW16983   7.723   7.354   2.190 -0.4434  0.1445 -0.1698
 5181SOL    HW116984   7.735   7.377   2.282 -0.3846 -2.2818  0.5011
 5181SOL    HW216985   7.642   7.398   2.164 -0.7254  0.4693  1.1834
 5182SOL     OW16986   0.497   1.398   9.808 -0.2145 -0.2419  0.0462
 5182SOL    HW116987   0.559   1.331   9.780 -1.7842 -1.3443 -0.9487
 5182SOL    HW216988   0.458   1.430   9.727 -1.7718 -0.4204  0.6886
 5183SOL     OW16989   1.669   1.989   7.665 -0.0840 -0.4046  0.5075
 5183SOL    HW116990   1.702   2.044   7.736 -0.4916  2.0232 -1.0713
 5183SOL    HW216991   1.717   1.907   7.674  2.9424  1.2949  1.0877
 5184SOL     OW16992   3.102   1.646  10.734  0.2871 -0.0463  0.0321
 5184SOL    HW116993   3.073   1.629  10.645 -0.4027 -0.4425  0.3282
 5184SOL    HW216994   3.022   1.656  10.785  0.6635  1.0975  0.4491
 5185SOL     OW16995   7.438   6.966   3.087 -0.5659 -0.4647  1.0448
 5185SOL    HW116996   7.363   6.908   3.074 -2.3814  1.6025  1.7216
 5185SOL    HW216997   7.405   7.035   3.145  2.0155  0.2840  1.7519
 5186SOL     OW16998   2.733   6.360   8.730 -0.5120  0.2991 -0.3323
 5186SOL    HW116999   2.791   6.287   8.749  1.5106  1.7532 -0.6511
 5186SOL    HW217000   2.680   6.330   8.656  0.6905 -0.6244 -0.8443
 5187SOL     OW17001   2.787   0.109  10.652  0.1241  0.0913  0.2560
 5187SOL    HW117002   2.778   0.183  10.591  1.6216  0.4589  0.4353
 5187SOL    HW217003   2.741   0.037  10.609 -1.3304  1.1046  0.0518
 5188SOL     OW17004   1.043   7.594   2.706 -0.4272 -0.3549 -0.0483
 5188SOL    HW117005   0.948   7.597   2.692 -0.0179  1.0050 -3.2052
 5188SOL    HW217006   1.079   7.565   2.623  2.1196  2.7760 -0.2391
 5189SOL     OW17007   1.675   3.565   8.289 -0.0160 -0.3904  0.0636
 5189SOL    HW117008   1.706   3.535   8.374 -0.2984 -0.9845 -0.0394
 5189SOL    HW217009   1.730   3.641   8.269  0.6138 -0.7487  0.3963
 5190SOL     OW17010   6.560   1.430   9.109 -0.5927  0.4889 -0.6993
 5190SOL    HW117011   6.469   1.456   9.102 -1.1688  0.7960  4.3504
 5190SOL    HW217012   6.607   1.492   9.054 -3.1272  3.0254 -0.2267
 5191SOL     OW17013   7.044   5.756   7.912  0.6300 -0.3223 -0.1766
 5191SOL    HW117014   7.095   5.675   7.907  0.2943 -0.5479 -0.0186
 5191SOL    HW217015   7.103   5.824   7.880  0.6804 -0.7333 -0.9866
 5192SOL     OW17016   3.034   2.123   8.873 -0.0475  0.3356  0.0667
 5192SOL    HW117017   3.062   2.198   8.821 -2.1125  0.7011 -0.6088
 5192SOL    HW217018   2.959   2.154   8.923 -0.6378 -1.1217  0.1440
 5193SOL     OW17019   0.604   5.315   0.123 -0.1228  0.0543  0.6892
 5193SOL    HW117020   0.632   5.392   0.172  1.4684 -0.7435  1.1213
 5193SOL    HW217021   0.626   5.335   0.032 -1.1233  0.6948  0.5759
 5194SOL     OW17022   7.963   4.196  11.324  0.8311  0.4582 -0.2100
 5194SOL    HW117023   7.965   4.228  11.414 -1.6233 -0.3945  0.2274
 5194SOL    HW217024   8.001   4.108  11.329 -1.9803 -0.8326  0.6885
 5195SOL     OW17025   6.101   6.408  11.338 -0.0779 -0.2840  0.3730
 5195SOL    HW117026   6.018   6.409  11.385 -0.9284  1.4048 -1.0619
 5195SOL    HW217027   6.152   6.479  11.377  0.3991 -0.7972  0.7073
 5196SOL     OW17028   1.041   6.314   9.329  0.5794  0.2097  0.0921
 5196SOL    HW117029   1.053   6.246   9.395 -0.8089 -1.1547 -0.9922
 5196SOL    HW217030   0.959   6.357   9.353  1.4400  1.5507  0.7650
 5197SOL     OW17031   4.917   2.105   7.549  0.4712  0.3804 -0.5743
 5197SOL    HW117032   4.909   2.200   7.540 -0.1435  0.3120 -0.8250
 5197SOL    HW217033   4.986   2.080   7.487 -0.0120  0.5551 -1.1935
 5198SOL     OW17034   0.988   7.291   0.670 -0.0141 -0.2246 -0.0849
 5198SOL    HW117035   1.001   7.239   0.749 -0.8039  0.8091  0.7500
 5198SOL    HW217036   0.898   7.322   0.676  0.3306  0.9592 -0.7118
 5199SOL     OW17037   7.353   3.019   9.266 -0.4438 -0.6214 -0.5855
 5199SOL    HW117038   7.351   3.087   9.199  0.1944 -0.9707 -0.9653
 5199SOL    HW217039   7.292   3.050   9.333 -0.9405 -0.1776 -1.2346
 5200SOL     OW17040   5.176   4.607   5.348 -0.4315 -0.4392 -0.0427
 5200SOL    HW117041   5.146   4.695   5.374  1.2470  0.2335 -0.2486
 5200SOL    HW217042   5.189   4.561   5.431  1.5996  0.5490  0.2315
 5201SOL     OW17043   1.882   2.206   0.143 -0.0979 -0.2593  0.3699
 5201SOL    HW117044   1.971   2.175   0.162 -0.1990 -2.4828 -2.0934
 5201SOL    HW217045   1.826   2.153   0.199  0.0625  0.1132  0.8829
 5202SOL     OW17046   7.931   7.962   7.401 -0.3825  0.2161 -0.2920
 5202SOL    HW117047   7.937   8.056   7.418  0.2338  0.2102 -0.4597
 5202SOL    HW217048   7.843   7.950   7.364  0.0744  0.9512 -1.6643
 5203SOL     OW17049   5.583   0.893   5.341 -0.2631  0.1978  0.4199
 5203SOL    HW117050   5.671   0.856   5.328  0.7844  2.9304 -1.2044
 5203SOL    HW217051   5.524   0.818   5.329  1.7890 -1.5907  0.8276
 5204SOL     OW17052   0.177   5.353   7.638  0.5897 -0.4121  0.9354
 5204SOL    HW117053   0.218   5.341   7.552  0.3549 -2.4989  1.0699
 5204SOL    HW217054   0.250   5.350   7.700  0.6777  0.3570  0.8821
 5205SOL     OW17055   4.249   4.806  10.384 -0.4107  0.1317 -0.1256
 5205SOL    HW117056   4.308   4.880  10.397  0.0374 -0.2188 -0.1215
 5205SOL    HW217057   4.210   4.821  10.298 -0.9707  0.8083  0.2415
 5206SOL     OW17058   2.943   1.989   7.944 -0.1927 -0.2164 -0.0249
 5206SOL    HW117059   2.894   2.058   7.900  0.4051  0.4118  0.2904
 5206SOL    HW217060   2.980   2.031   8.021  0.4314 -0.8189  0.0112
 5207SOL     OW17061   7.413   1.869   1.785  0.1046 -0.0213  0.5121
 5207SOL    HW117062   7.458   1.913   1.713 -0.4610 -0.7875 -0.3168
 5207SOL    HW217063   7.373   1.792   1.746  0.2867 -0.7810  1.7619
 5208SOL     OW17064   6.611   2.113   0.197  0.1210 -0.1964 -0.7737
 5208SOL    HW117065   6.561   2.042   0.238 -0.4420 -0.0991 -1.2795
 5208SOL    HW217066   6.584   2.192   0.243  1.1558 -0.3695  0.1588
 5209SOL     OW17067   1.947   5.682   7.163 -0.0960 -0.0487 -0.0358
 5209SOL    HW117068   1.912   5.768   7.186  2.6862  0.7542  1.6399
 5209SOL    HW217069   1.929   5.627   7.240  0.5153 -0.2045 -0.0015
 5210SOL     OW17070   7.048   2.471  10.830 -0.0486  0.2122 -0.1602
 5210SOL    HW117071   7.022   2.561  10.847 -0.9570 -0.1527  0.4986
 5210SOL    HW217072   6.971   2.431  10.790  0.2564 -0.3293 -0.2122
 5211SOL     OW17073   7.592   6.513  11.944 -0.3736  0.6292  0.2294
 5211SOL    HW117074   7.552   6.440  11.896 -0.5203 -0.1721  1.5111
 5211SOL    HW217075   7.638   6.563  11.877 -1.6872  0.3309 -0.9469
 5212SOL     OW17076   3.234   7.405  11.296 -0.4085 -0.0963  0.2560
 5212SOL    HW117077   3.248   7.494  11.263  0.1489 -0.4316 -0.4272
 5212SOL    HW217078   3.142   7.386  11.275  0.2008 -0.7235 -2.2090
 5213SOL     OW17079   7.101   1.386   8.937 -0.3137 -0.5992 -0.0090
 5213SOL    HW117080   7.149   1.434   8.869 -1.5346 -0.6220 -0.9341
 5213SOL    HW217081   7.169   1.355   8.997  0.7007  0.4140 -0.5792
 5214SOL     OW17082   1.929   1.018   3.833 -0.1210  0.8293 -0.0639
 5214SOL    HW117083   1.941   1.112   3.819  2.9420  0.7052  0.9573
 5214SOL    HW217084   1.861   1.012   3.901  0.3855  2.3718  0.6141
 5215SOL     OW17085   1.248   6.653   8.590 -0.0245  0.6700 -0.6008
 5215SOL    HW117086   1.255   6.632   8.497 -1.2998  0.4092 -0.6626
 5215SOL    HW217087   1.166   6.703   8.597 -0.1429  0.3604  0.4235
 5216SOL     OW17088   4.483   4.393  11.359 -0.0355  0.0143 -0.4798
 5216SOL    HW117089   4.561   4.443  11.384 -1.4167  2.8225 -1.2967
 5216SOL    HW217090   4.453   4.353  11.441  2.1104 -1.0071 -0.1305
 5217SOL     OW17091   0.069   7.323   3.621 -0.0020 -0.5534 -0.0836
 5217SOL    HW117092  -0.018   7.327   3.581 -0.8901  0.0745  1.7879
 5217SOL    HW217093   0.120   7.388   3.573 -0.5022 -1.0054 -1.2828
 5218SOL     OW17094   1.674   0.884   6.380 -0.3449  0.3217 -0.2320
 5218SOL    HW117095   1.696   0.964   6.428 -0.1824 -0.1427  0.4741
 5218SOL    HW217096   1.727   0.816   6.420 -1.1253 -0.3125 -0.2387
 5219SOL     OW17097   0.288   4.974   1.996  0.5532  0.1536 -0.3885
 5219SOL    HW117098   0.271   5.022   2.076  1.6054  0.8679 -0.5628
 5219SOL    HW217099   0.278   4.882   2.020 -2.4774  0.4157 -0.2917
 5220SOL     OW17100   2.804   5.058   5.931  0.2060 -0.4266 -0.2846
 5220SOL    HW117101   2.767   5.137   5.969  1.5760  0.0534  0.1262
 5220SOL    HW217102   2.733   5.019   5.880 -0.1284  1.7698 -1.5809
 5221SOL     OW17103   2.132   7.125   8.787 -0.7017 -0.6124 -0.0366
 5221SOL    HW117104   2.210   7.163   8.828 -3.3108  0.5841  4.6126
 5221SOL    HW217105   2.119   7.176   8.707  2.3648  0.2044 -0.1237
 5222SOL     OW17106   0.713   4.431  11.515  0.5263 -0.2324 -0.4802
 5222SOL    HW117107   0.670   4.370  11.455  1.8423 -0.6602 -1.0291
 5222SOL    HW217108   0.646   4.454  11.578 -0.3380 -1.3187 -0.9733
 5223SOL     OW17109   4.834   2.730   6.158  0.2481  0.1281  0.2343
 5223SOL    HW117110   4.740   2.729   6.177  0.3798  0.8249  0.9709
 5223SOL    HW217111   4.849   2.649   6.109 -1.0719  0.8990 -1.5582
 5224SOL     OW17112   4.356   7.891   4.119  0.5045 -0.4089 -0.4237
 5224SOL    HW117113   4.426   7.953   4.097  0.0963  0.4811  0.6960
 5224SOL    HW217114   4.367   7.874   4.212 -0.1316 -1.0831 -0.4658
 5225SOL     OW17115   6.096   1.819  12.351  0.8896 -0.4139 -0.0044
 5225SOL    HW117116   6.157   1.859  12.289  0.2971  0.4463 -0.0501
 5225SOL    HW217117   6.113   1.864  12.434  0.7034 -0.5549  0.1111
 5226SOL     OW17118   7.158   4.155   2.815  0.2496 -0.1084 -0.7180
 5226SOL    HW117119   7.243   4.156   2.859  0.7586 -0.0303 -1.6770
 5226SOL    HW217120   7.179   4.164   2.722 -0.8320  0.3658 -0.9332
 5227SOL     OW17121   0.766   5.964   0.863 -0.5180 -0.2063  0.1842
 5227SOL    HW117122   0.671   5.958   0.869 -0.4751 -0.5472  0.5322
 5227SOL    HW217123   0.785   6.058   0.865 -0.9341 -0.0580 -1.2692
 5228SOL     OW17124   5.508   2.554   8.718  0.4920 -0.6731 -0.0444
 5228SOL    HW117125   5.565   2.608   8.773 -1.8925  0.7451  1.1959
 5228SOL    HW217126   5.481   2.482   8.775  0.7676 -1.1661 -0.5239
 5229SOL     OW17127   6.627   0.564   7.967  0.0995  0.1523  0.2420
 5229SOL    HW117128   6.560   0.611   7.919  0.5490  0.1602 -0.3959
 5229SOL    HW217129   6.599   0.472   7.965  0.0916  0.1596  0.0054
 5230SOL     OW17130   0.401   0.762   2.365  0.2712 -0.7724 -0.5277
 5230SOL    HW117131   0.390   0.682   2.417  1.0819  0.4607  1.7081
 5230SOL    HW217132   0.312   0.795   2.353  0.1058 -0.3880  1.3661
 5231SOL     OW17133   1.734   0.395  11.967 -0.0096 -0.8941 -0.0885
 5231SOL    HW117134   1.665   0.457  11.944 -0.1987 -1.0351  0.1037
 5231SOL    HW217135   1.734   0.331  11.897 -0.4469 -1.2069  0.1981
 5232SOL     OW17136   3.362   7.677   0.660  0.0778  0.0606  0.5419
 5232SOL    HW117137   3.335   7.677   0.569 -0.2085  1.0282  0.6148
 5232SOL    HW217138   3.307   7.611   0.702  0.8940 -1.1098 -0.1613
 5233SOL     OW17139   0.773   3.135   4.534 -0.5372  0.2271  0.3898
 5233SOL    HW117140   0.845   3.072   4.534  1.0107  1.8812 -0.8485
 5233SOL    HW217141   0.708   3.096   4.476 -0.2936 -0.9214  0.8602
 5234SOL     OW17142   7.137   6.640   6.525 -0.1212 -0.2485 -0.1545
 5234SOL    HW117143   7.131   6.550   6.557  0.7917  0.5202  2.4500
 5234SOL    HW217144   7.109   6.694   6.599 -0.1524  1.6550 -1.4737
 5235SOL     OW17145   7.818   7.425   5.680 -0.1612  0.5574  0.6409
 5235SOL    HW117146   7.818   7.331   5.663 -0.8462  0.8470 -1.2124
 5235SOL    HW217147   7.738   7.441   5.729 -0.5631  0.3094  0.0676
 5236SOL     OW17148   6.121   5.846   8.020  0.2884 -1.0588  0.5458
 5236SOL    HW117149   6.081   5.908   7.959  2.4667  0.3952  0.4496
 5236SOL    HW217150   6.058   5.838   8.091 -0.5995  0.3355 -0.0252
 5237SOL     OW17151   7.106   0.694   6.898 -0.8091  0.2177 -0.9192
 5237SOL    HW117152   7.104   0.754   6.823  0.8392  2.1997  0.5047
 5237SOL    HW217153   7.152   0.743   6.967 -1.1695 -1.9698  1.0083
 5238SOL     OW17154   6.946   7.201   6.010  0.4571  0.6150  0.4209
 5238SOL    HW117155   6.981   7.115   6.031  1.6125  1.3492  1.6928
 5238SOL    HW217156   6.868   7.210   6.066  0.9354  0.7872  1.0720
 5239SOL     OW17157   2.024   4.901   8.091 -0.5533  0.2130 -0.2081
 5239SOL    HW117158   2.078   4.947   8.154  0.6846  0.0416 -1.1079
 5239SOL    HW217159   1.948   4.871   8.141  0.5775 -0.2670  1.2771
 5240SOL     OW17160   6.669   1.382   5.804 -0.0209 -0.0481 -0.0623
 5240SOL    HW117161   6.726   1.451   5.837  1.0319 -1.0049  0.1601
 5240SOL    HW217162   6.726   1.329   5.748 -1.5963  1.2767 -3.2237
 5241SOL     OW17163   2.744   6.079   6.731  0.4288  0.1793  0.3336
 5241SOL    HW117164   2.753   6.174   6.740 -1.3375  0.2620  1.8542
 5241SOL    HW217165   2.664   6.067   6.680 -1.0774 -0.4077  2.6472
 5242SOL     OW17166   6.810   1.911  10.010  0.3022  0.2712 -0.0242
 5242SOL    HW117167   6.838   1.830  10.052  0.2263 -0.2095 -0.8687
 5242SOL    HW217168   6.884   1.936   9.955  0.6870  1.2868  0.9319
 5243SOL     OW17169   1.401   3.411   1.609 -0.1574  0.1588  0.8297
 5243SOL    HW117170   1.456   3.334   1.600 -0.8964 -0.3863  0.9330
 5243SOL    HW217171   1.379   3.415   1.702  0.3290  0.8177  0.9283
 5244SOL     OW17172   6.199   4.807   1.694 -0.6561  0.4291 -0.4205
 5244SOL    HW117173   6.214   4.772   1.606 -1.1284  0.7100 -0.6185
 5244SOL    HW217174   6.107   4.788   1.712 -0.4883  0.1269  0.1280
 5245SOL     OW17175   6.486   7.919   9.131 -0.2541 -0.0144 -0.1324
 5245SOL    HW117176   6.555   7.962   9.080 -1.0309  0.7291 -0.5828
 5245SOL    HW217177   6.504   7.945   9.222 -0.1330  0.4513 -0.2855
 5246SOL     OW17178   2.699   3.227  12.345 -0.8272 -0.1039  0.1221
 5246SOL    HW117179   2.648   3.155  12.308 -2.7499  1.3102 -0.1484
 5246SOL    HW217180   2.669   3.234  12.435  2.4342 -2.2663  1.5836
 5247SOL     OW17181   7.543   6.887   6.021 -0.2635 -0.3995  0.3761
 5247SOL    HW117182   7.629   6.930   6.021 -0.6178  0.3224  0.1258
 5247SOL    HW217183   7.480   6.958   6.034 -0.7954 -1.0152  1.2688
 5248SOL     OW17184   3.101   0.322   1.930 -0.3654 -0.5544  0.0565
 5248SOL    HW117185   3.135   0.377   2.001  0.0461 -0.0757 -0.4891
 5248SOL    HW217186   3.082   0.384   1.859  0.9536 -1.1715 -0.9045
 5249SOL     OW17187   3.582   3.520   4.160 -0.3519 -0.6998 -0.0814
 5249SOL    HW117188   3.662   3.481   4.194  0.6717  0.3319 -1.1822
 5249SOL    HW217189   3.611   3.573   4.085 -2.1463 -0.7950 -0.9062
 5250SOL     OW17190   0.051   0.933   7.090  0.1105  0.3693 -0.3992
 5250SOL    HW117191   0.033   0.839   7.088 -1.6557  0.6206  0.8461
 5250SOL    HW217192   0.135   0.941   7.135 -0.5441 -0.5621  1.0479
 5251SOL     OW17193   7.216   6.979   7.700  0.2856  0.0649 -0.1128
 5251SOL    HW117194   7.181   6.994   7.612 -1.6785 -0.0411  0.5888
 5251SOL    HW217195   7.200   7.061   7.747  2.0063  0.3845 -0.0374
 5252SOL     OW17196   3.303   7.317   4.150  0.4912  0.5533  0.2357
 5252SOL    HW117197   3.312   7.340   4.243 -2.6907 -0.1449  0.8421
 5252SOL    HW217198   3.307   7.222   4.148  0.3189  0.5546 -0.3087
 5253SOL     OW17199   6.725   5.845  12.393 -0.6594  0.1641 -0.1977
 5253SOL    HW117200   6.635   5.834  12.360 -0.6592 -1.9311  0.3618
 5253SOL    HW217201   6.771   5.767  12.362  0.1353 -0.3506  2.0819
 5254SOL     OW17202   4.722   1.840   6.407 -0.4631  0.2404 -0.4913
 5254SOL    HW117203   4.749   1.919   6.360 -0.3152 -0.2933 -1.3422
 5254SOL    HW217204   4.644   1.866   6.456  0.7928  1.4761  0.9666
 5255SOL     OW17205   6.740   2.391   1.619 -0.4760 -0.2520  0.0052
 5255SOL    HW117206   6.752   2.442   1.699  0.5110 -0.4866  0.0143
 5255SOL    HW217207   6.791   2.311   1.632  0.4330  0.0887 -1.1831
 5256SOL     OW17208   6.168   5.054   3.160 -0.3816 -0.0823  0.4384
 5256SOL    HW117209   6.217   4.994   3.104  0.9954 -0.0767  1.5880
 5256SOL    HW217210   6.185   5.141   3.124 -0.9514 -0.2077 -0.1675
 5257SOL     OW17211   4.667   2.318   7.310 -0.2252  0.5367 -0.2690
 5257SOL    HW117212   4.748   2.347   7.351  0.9603 -1.3232 -1.1407
 5257SOL    HW217213   4.600   2.329   7.377  1.4433 -1.4327  1.8429
 5258SOL     OW17214   5.011   2.648  10.048  0.1404 -0.4864  0.1886
 5258SOL    HW117215   5.099   2.625  10.079  0.3735  1.0295  0.7018
 5258SOL    HW217216   5.003   2.742  10.064 -1.4074 -0.5089 -0.2860
 5259SOL     OW17217   1.234   3.522   7.736  0.4685  0.0696 -0.3760
 5259SOL    HW117218   1.177   3.496   7.808 -0.1145 -2.1692 -1.5628
 5259SOL    HW217219   1.323   3.501   7.766  0.6143  2.2834  0.9351
 5260SOL     OW17220   5.955   2.979   0.993  0.4631 -0.6051  0.6012
 5260SOL    HW117221   5.969   3.016   0.906  0.2102 -1.3197  0.2492
 5260SOL    HW217222   5.862   2.993   1.010  0.4156 -0.8703  0.5634
 5261SOL     OW17223   7.815   7.182  11.331  0.3393  0.0752 -0.1776
 5261SOL    HW117224   7.844   7.267  11.362  0.3734  0.5131 -1.3567
 5261SOL    HW217225   7.869   7.119  11.379  0.9322  0.7494  0.0532
 5262SOL     OW17226   6.237   5.042   0.016  0.2029 -0.2321 -0.1768
 5262SOL    HW117227   6.229   4.952  -0.018 -0.8408  0.2836 -1.3925
 5262SOL    HW217228   6.165   5.089  -0.025  0.9913  1.2780  0.1027
 5263SOL     OW17229   6.546   6.373   5.155 -0.4626 -0.0039  0.2477
 5263SOL    HW117230   6.467   6.411   5.116 -0.2065  0.5933  0.2942
 5263SOL    HW217231   6.538   6.394   5.248 -0.2896 -0.0153  0.2641
 5264SOL     OW17232   4.920   6.952  11.164  0.3826  0.1819  0.0713
 5264SOL    HW117233   4.890   6.984  11.249  0.1491 -1.0759  0.4848
 5264SOL    HW217234   4.960   6.867  11.183  0.5496 -0.0083 -1.0487
 5265SOL     OW17235   0.866   3.538  11.054  0.5797  0.6913 -0.2693
 5265SOL    HW117236   0.891   3.574  11.139 -2.6693  2.5517  0.0607
 5265SOL    HW217237   0.846   3.446  11.073  1.1301  0.7536  0.6916
 5266SOL     OW17238   5.165   6.816   9.666  0.4992 -0.2619  0.1250
 5266SOL    HW117239   5.169   6.767   9.584 -1.2091  1.1228 -0.8572
 5266SOL    HW217240   5.101   6.886   9.649  2.3139  1.9171  1.6312
 5267SOL     OW17241   0.692   4.393   6.963  0.2334  0.2397  0.1630
 5267SOL    HW117242   0.599   4.378   6.946 -0.2449  1.3908  1.5227
 5267SOL    HW217243   0.725   4.308   6.993 -0.7407  0.1423  1.0358
 5268SOL     OW17244   1.299   3.418   2.724  0.0347 -0.2642  0.0844
 5268SOL    HW117245   1.266   3.508   2.716  1.7487  0.3286 -0.9064
 5268SOL    HW217246   1.283   3.379   2.638 -2.5029 -1.6314  1.0800
 5269SOL     OW17247   1.740   0.679   5.275  0.1363 -0.0733 -0.2807
 5269SOL    HW117248   1.721   0.770   5.252  0.3399 -0.0739 -0.4563
 5269SOL    HW217249   1.658   0.645   5.311 -0.0183  0.0999 -0.4717
 5270SOL     OW17250   6.200   6.621   0.874  0.1306 -0.0923 -0.4231
 5270SOL    HW117251   6.240   6.637   0.789  0.0856  1.6373 -0.1584
 5270SOL    HW217252   6.107   6.607   0.855  0.2089 -0.2228 -0.7050
 5271SOL     OW17253   2.321   3.469   7.908  0.1568  0.0069 -0.1025
 5271SOL    HW117254   2.281   3.478   7.995  1.3877 -0.6668  0.5560
 5271SOL    HW217255   2.288   3.386   7.875 -1.2754  0.8252 -0.8308
 5272SOL     OW17256   0.182   6.247   4.450  0.0726  0.0637  0.4513
 5272SOL    HW117257   0.213   6.162   4.481 -0.5886  0.0286  1.0365
 5272SOL    HW217258   0.111   6.270   4.510 -1.2667 -0.0178 -1.0496
 5273SOL     OW17259   5.704   6.919   6.437  0.0687  0.4104 -0.0008
 5273SOL    HW117260   5.765   6.887   6.371  1.9041 -1.0495  2.2421
 5273SOL    HW217261   5.620   6.879   6.413  0.6875 -0.1136 -1.4033
 5274SOL     OW17262   6.256   7.150   9.221  0.3143 -0.6832 -0.4179
 5274SOL    HW117263   6.204   7.200   9.158 -0.2599 -2.5184 -1.4815
 5274SOL    HW217264   6.196   7.132   9.293  0.2405 -0.6154 -0.4622
 5275SOL     OW17265   7.984   6.892   1.298  0.1798  0.2018  0.5238
 5275SOL    HW117266   7.978   6.828   1.368 -0.6539 -1.4718 -1.0104
 5275SOL    HW217267   7.898   6.935   1.297 -0.0958 -0.3566  0.0031
 5276SOL     OW17268   2.514   4.483   5.272 -0.0394  0.0218 -0.5223
 5276SOL    HW117269   2.441   4.524   5.318  0.9545  0.8526  0.3738
 5276SOL    HW217270   2.506   4.390   5.293 -1.7251 -0.1543 -1.7387
 5277SOL     OW17271   2.726   2.706   4.253 -0.1449 -0.0719 -0.6980
 5277SOL    HW117272   2.742   2.738   4.164  0.3416 -1.3924 -1.1081
 5277SOL    HW217273   2.654   2.644   4.244 -0.9949  0.7842  0.0577
 5278SOL     OW17274   2.984   7.058   2.970 -0.0504 -0.0588  0.0644
 5278SOL    HW117275   2.933   7.060   3.051  0.7019 -0.0371  0.5350
 5278SOL    HW217276   2.919   7.075   2.901 -0.4110  1.6599  0.7868
 5279SOL     OW17277   3.568   4.730  12.404  0.0859  0.1688 -0.3839
 5279SOL    HW117278   3.592   4.637  12.405 -0.1389  0.0918  1.4321
 5279SOL    HW217279   3.631   4.770  12.344  1.8310 -0.7783  0.7362
 5280SOL     OW17280   4.013   4.072   3.056  0.0443  0.4168 -0.3958
 5280SOL    HW117281   4.057   4.000   3.101 -1.1480 -0.6439 -0.8471
 5280SOL    HW217282   3.981   4.032   2.975 -1.6426  1.1360 -0.1244
 5281SOL     OW17283   2.456   6.305  10.801  0.3566  0.1877  0.1028
 5281SOL    HW117284   2.421   6.373  10.859 -0.2469  1.2372 -1.4331
 5281SOL    HW217285   2.550   6.307  10.818  0.4330  1.8481 -0.3293
 5282SOL     OW17286   3.451   5.574   9.186  0.6227  0.1880 -0.3475
 5282SOL    HW117287   3.375   5.620   9.223 -0.4523 -0.9667 -1.0172
 5282SOL    HW217288   3.429   5.482   9.196  0.4166 -0.2062 -3.4295
 5283SOL     OW17289   3.315   0.351   8.057 -0.2363 -0.4132  0.1771
 5283SOL    HW117290   3.410   0.343   8.060 -0.1598  0.0717 -0.5763
 5283SOL    HW217291   3.283   0.263   8.078  0.3796 -0.6464  0.1745
 5284SOL     OW17292   2.914   6.795   2.826 -0.1599  0.3866  0.1804
 5284SOL    HW117293   2.936   6.873   2.878 -1.0656  0.7691 -0.0030
 5284SOL    HW217294   2.920   6.825   2.735  2.6238 -0.5750 -0.0737
 5285SOL     OW17295   4.502   3.326   8.437  0.3855 -0.7315 -0.1862
 5285SOL    HW117296   4.531   3.237   8.459  1.3945 -0.2571  0.4497
 5285SOL    HW217297   4.538   3.381   8.506 -2.2820 -0.1146  0.8306
 5286SOL     OW17298   6.936   3.262   6.033  0.1196  0.0067  0.2404
 5286SOL    HW117299   6.956   3.292   6.121  0.8537  2.5236 -0.6972
 5286SOL    HW217300   7.015   3.282   5.982 -0.9432  0.3240 -1.3643
 5287SOL     OW17301   2.519   5.887   2.168  0.1226  0.6022  0.1458
 5287SOL    HW117302   2.556   5.968   2.204  2.2628 -0.3006  0.1118
 5287SOL    HW217303   2.552   5.818   2.225 -0.3220 -0.4070 -0.7911
 5288SOL     OW17304   1.270   3.495   3.314 -0.3606 -0.3522  0.6315
 5288SOL    HW117305   1.248   3.479   3.406 -0.7751  0.7042  0.7296
 5288SOL    HW217306   1.186   3.519   3.274 -0.4045 -1.9201 -0.2915
 5289SOL     OW17307   3.226   6.170   0.862  0.1237 -0.2314  0.2677
 5289SOL    HW117308   3.132   6.150   0.862  0.0346  0.0041 -1.5894
 5289SOL    HW217309   3.231   6.264   0.879  0.0332 -0.2741  0.5289
 5290SOL     OW17310   3.963   6.833   8.892  0.1056 -0.3614 -0.6049
 5290SOL    HW117311   3.927   6.790   8.814  0.1775 -0.8118 -0.3931
 5290SOL    HW217312   4.058   6.821   8.885  0.1401 -0.0919 -0.6266
 5291SOL     OW17313   1.666   4.186   0.194 -0.0456 -0.2586 -0.0218
 5291SOL    HW117314   1.587   4.168   0.143 -0.3324 -0.3999  0.4589
 5291SOL    HW217315   1.699   4.269   0.160 -0.4036 -0.2001 -0.2282
 5292SOL     OW17316   0.871   7.527   6.222 -0.0794 -0.2947 -0.0513
 5292SOL    HW117317   0.802   7.588   6.249  0.1198 -0.3102  0.4971
 5292SOL    HW217318   0.927   7.577   6.163 -1.0618 -0.5328 -1.2335
 5293SOL     OW17319   2.904   0.923   0.608  0.7866 -0.2199  0.0673
 5293SOL    HW117320   2.885   1.016   0.597 -0.7702 -0.2228  2.1745
 5293SOL    HW217321   2.829   0.878   0.569 -0.3849 -0.4239  2.3957
 5294SOL     OW17322   0.666   3.783  11.050 -0.2629 -0.5110 -0.1513
 5294SOL    HW117323   0.659   3.718  11.121 -0.8722  1.2573  1.4944
 5294SOL    HW217324   0.760   3.786  11.031 -0.2327 -1.9498 -0.3685
 5295SOL     OW17325   3.467   7.241   2.580  0.1141 -0.2758 -0.0595
 5295SOL    HW117326   3.507   7.281   2.503  0.2447  1.6201  0.9087
 5295SOL    HW217327   3.373   7.251   2.567  0.1340  2.7609  1.2239
 5296SOL     OW17328   1.518   0.280   4.966  0.1236 -0.1643 -0.3831
 5296SOL    HW117329   1.494   0.358   5.016  1.5572 -0.0414  0.1428
 5296SOL    HW217330   1.536   0.313   4.878 -2.4751 -0.3906 -1.1098
 5297SOL     OW17331   1.298   7.754   9.830 -0.2567 -0.3703  0.0223
 5297SOL    HW117332   1.233   7.726   9.765  0.4806 -0.7610 -0.5688
 5297SOL    HW217333   1.382   7.735   9.788  0.3524  2.9707 -0.5594
 5298SOL     OW17334   0.972   6.354   6.574  0.1186  0.4840  0.3691
 5298SOL    HW117335   0.928   6.273   6.547  0.3775  0.4306  0.0986
 5298SOL    HW217336   0.956   6.415   6.502 -0.2276  0.7287  0.6570
 5299SOL     OW17337   4.954   0.030   6.574 -0.2239  0.0856 -0.8040
 5299SOL    HW117338   4.908   0.114   6.582 -0.6681 -0.2414  0.4253
 5299SOL    HW217339   4.935  -0.015   6.657  4.5415  1.0339  1.1264
 5300SOL     OW17340   4.921   7.240   5.986  0.3644 -0.1401 -0.8718
 5300SOL    HW117341   5.005   7.195   5.975  0.8336  0.3489  0.5203
 5300SOL    HW217342   4.912   7.294   5.908  0.4032 -1.6326 -1.9622
 5301SOL     OW17343   0.613   7.230  10.322 -0.2148 -0.6598  0.1199
 5301SOL    HW117344   0.558   7.178  10.381 -0.6905  0.4993  0.7293
 5301SOL    HW217345   0.700   7.226  10.362 -0.7968  1.2630  1.7568
 5302SOL     OW17346   2.808   4.240  10.614  0.2279  0.0091 -0.1965
 5302SOL    HW117347   2.712   4.248  10.613  0.2084  0.2244  1.2682
 5302SOL    HW217348   2.840   4.330  10.612  0.3814 -0.0370  0.2099
 5303SOL     OW17349   0.240   1.464   4.647 -0.3881  0.0529  0.6800
 5303SOL    HW117350   0.283   1.467   4.733  1.1425  2.2234 -0.0523
 5303SOL    HW217351   0.282   1.535   4.598 -1.4007 -0.9630 -1.7874
 5304SOL     OW17352   7.935   7.292   8.817 -0.3589 -0.5605  0.5518
 5304SOL    HW117353   7.921   7.385   8.834 -0.5448 -0.6932  1.1313
 5304SOL    HW217354   7.895   7.277   8.731 -1.1478 -0.2952  0.8628
 5305SOL     OW17355   0.827   3.043   5.401  0.3421 -0.2957 -0.1986
 5305SOL    HW117356   0.872   3.123   5.373 -0.5208  0.5885  0.8793
 5305SOL    HW217357   0.734   3.063   5.391  0.0804 -0.6990  1.2538
 5306SOL     OW17358   7.767   5.472   1.491  0.3803 -0.7089  0.0068
 5306SOL    HW117359   7.816   5.494   1.412  0.4530 -2.0897 -0.3673
 5306SOL    HW217360   7.740   5.381   1.478 -2.3101 -0.0264  0.2064
 5307SOL     OW17361   1.949   7.768   6.382 -0.4634 -0.8985  0.0814
 5307SOL    HW117362   1.982   7.719   6.306  0.8170  0.6149 -0.3846
 5307SOL    HW217363   1.933   7.701   6.448  2.8035 -1.8643  0.0387
 5308SOL     OW17364   2.126   0.890   6.798  0.2774 -0.3356 -0.6352
 5308SOL    HW117365   2.115   0.816   6.858 -1.6656  0.9952  0.7835
 5308SOL    HW217366   2.193   0.944   6.839  1.5130 -1.0992 -1.5452
 5309SOL     OW17367   4.622   5.986   1.236 -0.3971  0.3004 -0.3419
 5309SOL    HW117368   4.626   5.927   1.161 -0.0144  0.3149 -0.3355
 5309SOL    HW217369   4.564   6.057   1.208  0.5048  0.8074 -0.9841
 5310SOL     OW17370   2.943   2.585   5.610 -0.6525  0.6912 -0.3896
 5310SOL    HW117371   2.911   2.669   5.643 -0.7490 -0.5052  2.8787
 5310SOL    HW217372   3.036   2.600   5.594 -0.9946  1.8295 -1.5597
 5311SOL     OW17373   7.983   2.629  10.976  0.0349 -0.6071  0.4991
 5311SOL    HW117374   8.042   2.610  10.903 -2.0285 -0.7426 -1.2631
 5311SOL    HW217375   7.960   2.542  11.011 -0.3351 -0.6690  0.1186
 5312SOL     OW17376   4.163   2.527  10.386  0.4427 -0.1509  0.2883
 5312SOL    HW117377   4.070   2.543  10.397  0.7215  0.3752  2.1528
 5312SOL    HW217378   4.168   2.437  10.352 -0.7472  0.0136 -0.3429
 5313SOL     OW17379   1.020   1.549   5.104  0.5192 -0.1588  0.4314
 5313SOL    HW117380   1.014   1.613   5.033 -1.9061 -0.8020 -0.0160
 5313SOL    HW217381   1.100   1.500   5.084  1.5239  1.5850 -0.1415
 5314SOL     OW17382   2.445   2.068   9.682 -0.3148 -0.3544 -0.2965
 5314SOL    HW117383   2.540   2.081   9.690 -0.4886  1.6317 -0.9457
 5314SOL    HW217384   2.435   1.974   9.671  1.7901 -0.4309 -2.4532
 5315SOL     OW17385   3.480   1.940   2.109 -0.4274  0.3020 -0.5235
 5315SOL    HW117386   3.409   1.974   2.055 -1.5129  0.8537  1.1851
 5315SOL    HW217387   3.445   1.859   2.147 -0.7824  1.3683  1.5581
 5316SOL     OW17388   5.226   4.440   6.972  0.3105 -0.6012  0.4317
 5316SOL    HW117389   5.151   4.382   6.987 -0.0648  0.3075  2.3755
 5316SOL    HW217390   5.217   4.467   6.880 -2.2439  0.0997  0.8024
 5317SOL     OW17391   1.409   2.305   0.524 -0.2602 -0.2437 -0.0237
 5317SOL    HW117392   1.490   2.327   0.477 -1.2759  1.1874 -1.1855
 5317SOL    HW217393   1.406   2.366   0.597 -0.0513 -0.6361  0.3160
 5318SOL     OW17394   2.615   1.086   8.003 -0.0838 -0.4202 -0.1680
 5318SOL    HW117395   2.686   1.075   7.940 -1.7420 -0.6047 -2.0858
 5318SOL    HW217396   2.658   1.122   8.081  2.1855 -1.1138 -1.0213
 5319SOL     OW17397   2.580   3.031   2.129  0.4423  0.4504 -0.1352
 5319SOL    HW117398   2.518   3.078   2.185 -0.0276  0.4252 -0.6300
 5319SOL    HW217399   2.666   3.069   2.150  0.3068  0.2930  0.7563
 5320SOL     OW17400   1.743   0.944   5.162 -0.0072 -0.2308  0.1485
 5320SOL    HW117401   1.805   0.990   5.219  0.8020 -1.7159  0.5234
 5320SOL    HW217402   1.658   0.958   5.203  0.2928  0.4275  0.5753
 5321SOL     OW17403   1.200   4.001  11.919  0.0998  0.1245  0.2985
 5321SOL    HW117404   1.177   4.082  11.873 -1.6930 -0.1196  0.6757
 5321SOL    HW217405   1.247   4.030  11.996 -0.0379  0.7825  0.1462
 5322SOL     OW17406   4.750   7.782   8.262  0.5601 -0.0614  0.3750
 5322SOL    HW117407   4.789   7.699   8.235  0.8354 -0.2919  1.4485
 5322SOL    HW217408   4.812   7.848   8.231 -0.4934 -0.0929 -2.0210
 5323SOL     OW17409   1.597   4.046  12.063  0.2663  0.6819  0.6498
 5323SOL    HW117410   1.522   4.094  12.098  0.1485  0.3993  0.7847
 5323SOL    HW217411   1.588   4.055  11.968 -0.2412  0.1928  0.6463
 5324SOL     OW17412   7.822   0.620   2.651  1.1414 -0.1072  0.0726
 5324SOL    HW117413   7.749   0.571   2.689 -0.6694  1.2838 -1.3865
 5324SOL    HW217414   7.844   0.572   2.571 -0.1404  0.9700 -0.9719
 5325SOL     OW17415   6.273   0.407   6.488 -0.4771  0.5682 -0.2991
 5325SOL    HW117416   6.255   0.501   6.496 -0.6963  0.6764 -1.7850
 5325SOL    HW217417   6.360   0.402   6.449  0.7236  0.0823  2.2337
 5326SOL     OW17418   1.422   7.645   9.424  0.4892  0.2145 -0.4160
 5326SOL    HW117419   1.464   7.619   9.343  0.4460  1.2008 -0.7623
 5326SOL    HW217420   1.448   7.736   9.438  0.4897  0.0715  0.6672
 5327SOL     OW17421   7.233   7.418   4.466 -0.0274  0.3218  0.2242
 5327SOL    HW117422   7.283   7.337   4.473 -2.1018 -1.0211  0.7670
 5327SOL    HW217423   7.289   7.485   4.504  1.5194 -0.9824  0.3242
 5328SOL     OW17424   0.714   5.137   0.365  0.2928  0.1335  0.6795
 5328SOL    HW117425   0.703   5.232   0.370  1.0642  0.3203 -0.6945
 5328SOL    HW217426   0.656   5.110   0.294  0.6014 -0.3117  0.5944
 5329SOL     OW17427   0.412   7.600  11.960  0.0552 -0.0083  0.0304
 5329SOL    HW117428   0.468   7.615  11.883 -0.2793 -2.3416 -0.7599
 5329SOL    HW217429   0.348   7.536  11.930 -0.6510 -0.2948  2.0258
 5330SOL     OW17430   6.201   4.084   7.615  0.1926  0.3330  0.1894
 5330SOL    HW117431   6.157   4.042   7.541  2.2680 -0.0744 -0.8898
 5330SOL    HW217432   6.275   4.028   7.634 -0.0019  0.7223  2.2839
 5331SOL     OW17433   3.375   0.664   6.224  0.6545 -0.4427  0.3543
 5331SOL    HW117434   3.375   0.604   6.150  0.7067 -1.4117  1.1139
 5331SOL    HW217435   3.352   0.749   6.187  0.9842 -0.8493 -0.8066
 5332SOL     OW17436   6.062   7.718  10.801 -0.2097 -0.4970  0.6068
 5332SOL    HW117437   6.158   7.712  10.798 -0.1404  0.6928 -0.3468
 5332SOL    HW217438   6.039   7.689  10.889  1.1522  0.4924  1.3197
 5333SOL     OW17439   5.952   2.756   0.524  0.4863 -0.1762 -0.5343
 5333SOL    HW117440   5.977   2.834   0.474  0.4096  0.1852 -0.0250
 5333SOL    HW217441   5.867   2.779   0.563  1.8565  0.7402  2.1744
 5334SOL     OW17442   7.671   7.289   5.384  0.1476  0.3806 -0.3400
 5334SOL    HW117443   7.695   7.247   5.466  2.2318  1.5529 -0.2854
 5334SOL    HW217444   7.575   7.291   5.386  0.1186  0.6719  2.2321
 5335SOL     OW17445   5.073   2.381   6.400  0.2493  0.4651 -0.3072
 5335SOL    HW117446   5.000   2.442   6.412  0.3719  0.5180  0.1913
 5335SOL    HW217447   5.126   2.390   6.480  0.7441  0.3487 -0.6148
 5336SOL     OW17448   0.749   1.623   9.249 -0.2262 -0.4954 -0.3744
 5336SOL    HW117449   0.798   1.569   9.188  1.2708 -0.5152  0.7752
 5336SOL    HW217450   0.799   1.618   9.331 -0.4579  1.9872 -0.0066
 5337SOL     OW17451   2.235   7.566   7.258  0.5251 -0.1584 -0.0639
 5337SOL    HW117452   2.210   7.658   7.271 -0.3763 -0.3487 -0.3803
 5337SOL    HW217453   2.331   7.568   7.250  0.6177  0.6056  1.0917
 5338SOL     OW17454   7.690   1.159   8.096 -0.1814 -0.0516 -0.6652
 5338SOL    HW117455   7.624   1.193   8.036 -1.4392 -0.6151  0.3480
 5338SOL    HW217456   7.648   1.083   8.136  1.2538 -0.6738 -0.3040
 5339SOL     OW17457   4.356   0.550   2.900  0.4136  0.0454 -0.2706
 5339SOL    HW117458   4.312   0.503   2.829 -1.2540 -0.5050  1.0579
 5339SOL    HW217459   4.449   0.535   2.884  0.0802 -0.1213 -2.2791
 5340SOL     OW17460   6.129   3.631   6.466 -0.0489  0.4205  0.1212
 5340SOL    HW117461   6.134   3.558   6.405 -0.1976  0.7202 -0.2577
 5340SOL    HW217462   6.195   3.693   6.436 -0.9965  1.1428 -0.5246
 5341SOL     OW17463   1.337   1.198   7.912 -0.4830  0.3293 -0.7186
 5341SOL    HW117464   1.427   1.206   7.881  0.4638 -1.6622  1.2306
 5341SOL    HW217465   1.283   1.231   7.840  1.7752  1.5533 -1.9435
 5342SOL     OW17466   6.824   4.613  10.456  0.3315 -0.0814  0.1436
 5342SOL    HW117467   6.747   4.614  10.513  1.5534 -0.0119  1.8744
 5342SOL    HW217468   6.846   4.520  10.447 -0.1577 -0.1274 -0.6711
 5343SOL     OW17469   4.176   5.940   5.861 -0.7019  0.2513  0.0885
 5343SOL    HW117470   4.122   6.019   5.865 -0.7601  0.1823  0.7167
 5343SOL    HW217471   4.240   5.950   5.931 -0.1801  0.1204 -0.3595
 5344SOL     OW17472   7.523   1.198  11.853 -0.2075 -0.3611 -0.6113
 5344SOL    HW117473   7.545   1.282  11.895 -1.2049  0.1021 -0.9915
 5344SOL    HW217474   7.515   1.137  11.926  1.6383 -0.4217 -0.3958
 5345SOL     OW17475   4.839   6.917  12.262 -0.2340 -0.9438 -0.1340
 5345SOL    HW117476   4.888   6.960  12.332 -3.0764  1.8415  0.3919
 5345SOL    HW217477   4.874   6.955  12.181  0.2056 -0.9268  0.0639
 5346SOL     OW17478   2.869   4.051   8.189  0.2607 -0.0700  0.0253
 5346SOL    HW117479   2.901   4.019   8.274 -0.3677 -1.2256 -0.1507
 5346SOL    HW217480   2.947   4.055   8.134  0.4501 -0.7083  0.2416
 5347SOL     OW17481   1.124   0.765  10.088  0.5363 -0.2759 -0.1610
 5347SOL    HW117482   1.218   0.778  10.073  0.7421  0.2952  1.4227
 5347SOL    HW217483   1.083   0.841  10.047  0.4076 -2.0579 -3.6649
 5348SOL     OW17484   0.663   0.821  11.200 -0.1765 -0.0745  0.3281
 5348SOL    HW117485   0.746   0.774  11.188 -0.0478  0.0920  0.5750
 5348SOL    HW217486   0.656   0.834  11.294  0.1562  1.0631  0.2117
 5349SOL     OW17487   1.329   1.518   3.289  0.1425 -0.6798  0.0382
 5349SOL    HW117488   1.258   1.545   3.347 -0.6731  1.0433 -1.6547
 5349SOL    HW217489   1.303   1.549   3.203  1.9076 -2.0248 -1.0549
 5350SOL     OW17490   6.971   3.685   8.723 -0.4547  0.1819  0.1256
 5350SOL    HW117491   6.935   3.715   8.640 -0.1644 -0.2826 -0.1732
 5350SOL    HW217492   7.066   3.691   8.711 -0.2999 -2.3248 -0.5381
 5351SOL     OW17493   5.467   2.323   5.108 -0.2475 -0.2440 -0.2617
 5351SOL    HW117494   5.492   2.365   5.025  0.2730  0.0058  0.0108
 5351SOL    HW217495   5.550   2.293   5.145 -0.2037  1.4356  1.1154
 5352SOL     OW17496   6.100   7.189   9.996  0.7143  0.0430 -0.1391
 5352SOL    HW117497   6.009   7.159   9.985  1.1326 -0.7339 -1.8325
 5352SOL    HW217498   6.138   7.129  10.060  0.2292 -0.0541  0.0627
 5353SOL     OW17499   3.301   7.114  10.433 -0.2021 -0.1518 -0.1209
 5353SOL    HW117500   3.376   7.120  10.492  1.4287 -2.1446 -1.8333
 5353SOL    HW217501   3.337   7.133  10.347 -1.8285 -0.4059 -0.8931
 5354SOL     OW17502   5.428   5.531   2.214 -0.0999 -0.2209  0.3276
 5354SOL    HW117503   5.342   5.570   2.202  0.4239  0.4512 -1.5257
 5354SOL    HW217504   5.410   5.444   2.249 -1.5352 -0.1433 -0.1704
 5355SOL     OW17505   1.288   5.925   9.354 -0.4517 -0.4594  0.4668
 5355SOL    HW117506   1.326   5.843   9.323 -0.3321  0.2891 -1.4960
 5355SOL    HW217507   1.205   5.932   9.307 -0.0405  0.9683 -0.0862
 5356SOL     OW17508   1.674   6.876   2.302 -0.1334 -0.3129  0.2547
 5356SOL    HW117509   1.706   6.815   2.235  0.9013  1.7752 -1.2389
 5356SOL    HW217510   1.596   6.915   2.264  0.2302  0.5974  0.4354
 5357SOL     OW17511   6.354   4.055   7.145 -0.1468 -0.3583  0.3167
 5357SOL    HW117512   6.265   4.023   7.135 -0.7533  1.1800  0.5115
 5357SOL    HW217513   6.345   4.141   7.185  1.3483  0.3625 -0.7832
 5358SOL     OW17514   3.752   6.433   3.453 -0.3174  0.1202  0.0334
 5358SOL    HW117515   3.746   6.341   3.426 -0.1959 -0.3240  1.4341
 5358SOL    HW217516   3.691   6.479   3.396  0.1642 -0.6973 -1.1913
 5359SOL     OW17517   3.599   7.717   7.136 -0.0609  0.1254  0.2285
 5359SOL    HW117518   3.551   7.720   7.054 -1.2284  0.1901  0.8860
 5359SOL    HW217519   3.535   7.745   7.202  0.4417 -1.1770  1.3240
 5360SOL     OW17520   3.211   0.596   5.237  0.6012 -0.4429  0.5201
 5360SOL    HW117521   3.146   0.646   5.288  1.3039  0.9749  0.0935
 5360SOL    HW217522   3.162   0.560   5.164  0.4656  1.6751 -0.5045
 5361SOL     OW17523   2.184   1.736   8.386 -0.0720 -0.0743 -0.3575
 5361SOL    HW117524   2.159   1.762   8.297  1.4194  1.2352 -0.4436
 5361SOL    HW217525   2.101   1.725   8.432 -0.9083 -1.6280 -2.1095
 5362SOL     OW17526   1.193   7.614   1.326  0.7116 -0.5226 -0.1305
 5362SOL    HW117527   1.271   7.560   1.337  1.5461  0.4548 -1.0310
 5362SOL    HW217528   1.175   7.611   1.232  1.0166  1.0341 -0.2676
 5363SOL     OW17529   2.311   0.231   4.567  1.2672  0.4063 -0.3038
 5363SOL    HW117530   2.341   0.265   4.652  1.0302  0.8538 -0.3970
 5363SOL    HW217531   2.370   0.158   4.549  1.7008  0.6853 -0.0369
 5364SOL     OW17532   6.930   6.720  11.659 -0.2817 -0.2404 -0.2407
 5364SOL    HW117533   6.981   6.787  11.612 -1.7777  1.2155  0.1275
 5364SOL    HW217534   6.905   6.762  11.741 -0.8774 -1.4332  0.2131
 5365SOL     OW17535   2.540   7.883  10.228  0.6072 -0.1443  0.7032
 5365SOL    HW117536   2.560   7.789  10.234  0.2048 -0.1748  1.7572
 5365SOL    HW217537   2.511   7.907  10.316  0.8076  1.0035  0.4708
 5366SOL     OW17538   6.837   3.137  11.618 -0.0228 -0.1737  0.1427
 5366SOL    HW117539   6.784   3.216  11.605 -0.3394 -0.2324  1.0034
 5366SOL    HW217540   6.927   3.168  11.615 -0.0934  0.8460  3.5348
 5367SOL     OW17541   6.157   1.927   2.844  0.1626  0.0676 -0.3443
 5367SOL    HW117542   6.121   1.847   2.882 -1.1017  0.9091  0.3029
 5367SOL    HW217543   6.234   1.898   2.795  0.2549 -1.4039  0.6269
 5368SOL     OW17544   3.290   3.722   9.376 -0.6966  0.1674  0.1873
 5368SOL    HW117545   3.264   3.744   9.466 -0.1209  0.1872  0.3536
 5368SOL    HW217546   3.208   3.705   9.331 -0.9429 -0.9614  1.0109
 5369SOL     OW17547   1.895   3.141   7.278  0.6877 -0.4440  0.3932
 5369SOL    HW117548   1.922   3.190   7.201 -1.6544  0.0454 -0.2154
 5369SOL    HW217549   1.976   3.123   7.326  1.9820  0.9466 -1.1693
 5370SOL     OW17550   6.884   0.511  12.232 -0.0981  0.1181 -0.2086
 5370SOL    HW117551   6.862   0.499  12.324  0.0766  0.5884 -0.1075
 5370SOL    HW217552   6.827   0.581  12.202  0.5342  0.6368 -0.2077
 5371SOL     OW17553   0.134   3.025   1.148  0.1580  0.0709 -0.1227
 5371SOL    HW117554   0.097   3.112   1.131 -0.0300 -0.2534 -1.4953
 5371SOL    HW217555   0.221   3.028   1.108 -0.0240 -0.5076 -0.5783
 5372SOL     OW17556   0.651   5.953   3.245  0.7465  0.4657 -0.5674
 5372SOL    HW117557   0.591   5.883   3.271 -0.3276  1.5012 -0.2123
 5372SOL    HW217558   0.630   6.026   3.302  0.4559  1.7730 -2.2629
 5373SOL     OW17559   4.251   6.682  11.007 -0.1998 -0.0980  0.1324
 5373SOL    HW117560   4.257   6.643  10.920 -0.9928 -0.2075  0.1139
 5373SOL    HW217561   4.331   6.655  11.051  0.5277  0.4941 -0.7745
 5374SOL     OW17562   7.614   7.456   7.837 -0.0156 -0.2741  0.0184
 5374SOL    HW117563   7.637   7.386   7.898  0.3327 -0.4415 -0.3056
 5374SOL    HW217564   7.585   7.528   7.893 -0.4836 -0.7122  0.3503
 5375SOL     OW17565   2.856   4.448   2.605  0.2342 -0.5766 -0.6944
 5375SOL    HW117566   2.850   4.391   2.529 -0.8952  0.3919 -1.3722
 5375SOL    HW217567   2.776   4.501   2.602  0.3710 -0.2144  0.9298
 5376SOL     OW17568   0.399   3.113  11.467  0.0522  0.1033 -0.5859
 5376SOL    HW117569   0.407   3.080  11.378 -0.7048  0.5054 -0.8097
 5376SOL    HW217570   0.305   3.119  11.482  0.1761  1.1803 -0.1861
 5377SOL     OW17571   6.298   6.814   4.985  0.0011  0.4038  0.0666
 5377SOL    HW117572   6.390   6.794   4.966  0.2315  0.9750  0.5657
 5377SOL    HW217573   6.301   6.878   5.055 -0.7989 -0.0561  0.5371
 5378SOL     OW17574   1.590   4.601   7.236  1.2240 -0.1042 -0.4051
 5378SOL    HW117575   1.569   4.694   7.238  2.2982  0.1588  1.7534
 5378SOL    HW217576   1.617   4.583   7.146  0.6972  1.5814 -0.9246
 5379SOL     OW17577   5.145   1.156   5.804 -0.7022 -0.2027  0.1265
 5379SOL    HW117578   5.185   1.096   5.740  0.4106 -0.3535  0.9385
 5379SOL    HW217579   5.217   1.182   5.860 -1.0915  2.1774 -0.3807
 5380SOL     OW17580   5.300   5.900   1.439  0.3263  0.3949 -0.4512
 5380SOL    HW117581   5.222   5.912   1.385 -0.9708  1.1144  1.4677
 5380SOL    HW217582   5.319   5.988   1.472  1.1877  0.0101  0.0914
 5381SOL     OW17583   4.534   4.764   9.124 -0.0097 -0.3554 -0.1359
 5381SOL    HW117584   4.439   4.767   9.131  0.0031  1.9530 -0.2208
 5381SOL    HW217585   4.559   4.851   9.093  2.3803  0.3700  3.2613
 5382SOL     OW17586   7.250   5.804  10.844 -0.4357  0.0317  0.2065
 5382SOL    HW117587   7.288   5.888  10.871 -1.7539  0.5161  0.6379
 5382SOL    HW217588   7.179   5.829  10.785 -0.4232 -0.8323 -0.1789
 5383SOL     OW17589   4.929   3.983   1.999 -0.3313  0.1609  0.3981
 5383SOL    HW117590   4.960   3.893   1.989 -2.6484 -0.5139 -1.4935
 5383SOL    HW217591   4.922   4.016   1.909 -1.6172  1.4511  0.9347
 5384SOL     OW17592   0.580   4.561   0.737  0.2807  0.1367 -0.6025
 5384SOL    HW117593   0.506   4.534   0.682 -0.2273  0.4656 -0.0916
 5384SOL    HW217594   0.539   4.600   0.814  0.8284 -3.3581  1.6945
 5385SOL     OW17595   1.117   0.980   4.028 -0.0665  0.1677  0.4226
 5385SOL    HW117596   1.148   0.957   4.116  0.2344  1.9274  0.8258
 5385SOL    HW217597   1.073   1.064   4.040  0.6764  0.8368 -1.2192
 5386SOL     OW17598   1.897   1.136   8.012 -0.0785  0.0069 -0.2654
 5386SOL    HW117599   1.926   1.181   8.092 -0.7307  0.3753 -0.2228
 5386SOL    HW217600   1.976   1.099   7.975  0.1680 -0.6413  0.8489
 5387SOL     OW17601   3.592   1.210   5.939 -0.2412  0.2322  0.1958
 5387SOL    HW117602   3.515   1.177   5.894 -0.5619 -0.2724  1.0923
 5387SOL    HW217603   3.607   1.148   6.009  1.5541 -0.2112 -0.5268
 5388SOL     OW17604   4.739   4.429   7.889  0.3738  0.2716  0.1275
 5388SOL    HW117605   4.725   4.493   7.958  0.7683  1.0036 -0.4579
 5388SOL    HW217606   4.652   4.392   7.872  0.1722  0.5335  0.5792
 5389SOL     OW17607   5.785   5.174   7.001 -0.0272 -0.2226  0.0911
 5389SOL    HW117608   5.862   5.149   7.051 -0.3957 -1.3200  0.1257
 5389SOL    HW217609   5.725   5.100   7.010 -0.8220  0.3350 -0.4767
 5390SOL     OW17610   1.041   0.558   7.875 -0.0621  0.3380 -0.4686
 5390SOL    HW117611   1.079   0.578   7.960 -2.5908  1.7503  0.4499
 5390SOL    HW217612   1.113   0.566   7.813  2.2325 -2.2828  1.6308
 5391SOL     OW17613   0.987   5.493   5.247  0.2289  0.1973  0.7754
 5391SOL    HW117614   0.953   5.522   5.332  0.8476  1.1791  0.6992
 5391SOL    HW217615   1.081   5.510   5.252  0.1683  0.9109 -0.3594
 5392SOL     OW17616   0.174   2.034   1.430  0.0230 -0.0229  1.0232
 5392SOL    HW117617   0.233   2.097   1.388  0.9079 -0.4253  1.6275
 5392SOL    HW217618   0.138   2.082   1.506 -2.5091  1.1223 -0.7389
 5393SOL     OW17619   2.238   1.651   0.464 -0.3321 -0.8700  0.7342
 5393SOL    HW117620   2.313   1.704   0.488  0.0714 -0.9403 -0.2975
 5393SOL    HW217621   2.270   1.561   0.467  0.3638 -0.8084 -1.9144
 5394SOL     OW17622   2.407   0.119  11.150  0.7150  0.6950  0.6506
 5394SOL    HW117623   2.337   0.081  11.203  1.6890 -1.1363  0.6980
 5394SOL    HW217624   2.383   0.212  11.142 -0.7831  0.4883  2.1266
 5395SOL     OW17625   7.532   2.578  12.011  0.3707 -0.0786  0.9049
 5395SOL    HW117626   7.475   2.581  12.088 -0.8546 -2.6710  0.2021
 5395SOL    HW217627   7.576   2.493  12.017 -0.1424 -0.5782 -1.4870
 5396SOL     OW17628   4.422   1.378  10.993  0.0016 -0.0171  0.1025
 5396SOL    HW117629   4.486   1.422  11.049 -0.2110  0.7574 -0.2532
 5396SOL    HW217630   4.431   1.421  10.908 -0.6354 -0.2489 -0.0900
 5397SOL     OW17631   5.196   6.732   6.389 -0.4998  0.1442  0.4165
 5397SOL    HW117632   5.107   6.701   6.404  0.2461 -2.1591  0.4854
 5397SOL    HW217633   5.252   6.657   6.410  1.5179  1.7222  1.0543
 5398SOL     OW17634   6.813   0.083  11.584  0.5721 -0.5284 -0.1933
 5398SOL    HW117635   6.754   0.011  11.560  0.0093 -0.3927  0.7394
 5398SOL    HW217636   6.893   0.039  11.614  1.4030 -0.7032 -2.4698
 5399SOL     OW17637   5.675   1.104  11.311 -0.6360  0.5703 -0.4297
 5399SOL    HW117638   5.654   1.152  11.392 -1.0134 -0.3964  0.0693
 5399SOL    HW217639   5.617   1.143  11.245 -1.6492  0.1622  0.1871
 5400SOL     OW17640   0.557   0.869   0.861 -0.3429 -0.2618 -0.2044
 5400SOL    HW117641   0.631   0.921   0.830 -0.0602  0.4480  1.5828
 5400SOL    HW217642   0.595   0.808   0.925 -1.1223 -0.7040 -0.1439
 5401SOL     OW17643   2.701   0.129  12.065 -0.0280  0.1208  0.4731
 5401SOL    HW117644   2.795   0.145  12.065  0.7797 -3.5619 -1.3792
 5401SOL    HW217645   2.692   0.040  12.099 -2.8507  0.3328  0.5215
 5402SOL     OW17646   3.551   1.048   2.871  0.0801  0.3534  0.3206
 5402SOL    HW117647   3.490   0.984   2.907 -0.9404  1.6042  0.8734
 5402SOL    HW217648   3.634   1.032   2.917  0.0939 -1.1027 -0.1624
 5403SOL     OW17649   6.294   6.102   4.795 -0.4062 -0.0077 -0.5950
 5403SOL    HW117650   6.217   6.159   4.804  0.1495  0.7882 -0.7635
 5403SOL    HW217651   6.368   6.163   4.787  0.2161 -0.7598 -0.6672
 5404SOL     OW17652   0.974   4.152   0.525 -0.6442 -0.0652  0.0736
 5404SOL    HW117653   0.937   4.108   0.448 -1.9292 -1.0303  1.1940
 5404SOL    HW217654   0.910   4.136   0.595 -0.1067  1.8290  1.0573
 5405SOL     OW17655   5.734   4.584  11.349 -0.3989  0.1679  0.5424
 5405SOL    HW117656   5.717   4.589  11.443  0.4914 -1.4412  0.8189
 5405SOL    HW217657   5.822   4.622  11.338 -0.3245 -0.0337  0.4274
 5406SOL     OW17658   7.566   5.251   8.171  0.6318  0.0811  0.7577
 5406SOL    HW117659   7.553   5.286   8.083  0.9962 -0.5814  0.4307
 5406SOL    HW217660   7.480   5.258   8.212  0.5570  0.7832  0.4962
 5407SOL     OW17661   1.277   0.988   3.644  0.3343  0.2132 -0.1150
 5407SOL    HW117662   1.348   0.976   3.708  1.4881  1.9510 -0.9878
 5407SOL    HW217663   1.282   0.910   3.588  1.1472  0.0006  0.2388
 5408SOL     OW17664   6.083   2.943   8.686  0.4156  0.0373 -0.6705
 5408SOL    HW117665   6.117   2.939   8.597 -0.7871  1.2582 -1.2180
 5408SOL    HW217666   6.040   2.859   8.700  2.0969 -0.8525 -0.5793
 5409SOL     OW17667   6.356   3.144   8.998  0.2834 -0.5074 -0.4845
 5409SOL    HW117668   6.340   3.129   9.091  0.8634 -0.0590 -0.3042
 5409SOL    HW217669   6.270   3.137   8.957  0.0084 -0.6065  0.0987
 5410SOL     OW17670   0.797   3.167  11.791 -0.1438 -0.1321 -0.6052
 5410SOL    HW117671   0.863   3.099  11.781 -0.2266 -0.3691  0.3178
 5410SOL    HW217672   0.733   3.149  11.722 -1.3437 -2.3987  0.9601
 5411SOL     OW17673   3.551   2.891   7.883 -0.2553 -0.1297 -0.1259
 5411SOL    HW117674   3.614   2.923   7.819  0.4469  0.5255  0.8619
 5411SOL    HW217675   3.561   2.950   7.958 -3.0768  0.9498 -0.4622
 5412SOL     OW17676   5.168   5.109  10.735 -0.3309  0.7760 -0.0774
 5412SOL    HW117677   5.200   5.150  10.816  1.6637 -0.7205 -0.0197
 5412SOL    HW217678   5.220   5.150  10.666 -0.6225  0.6294 -0.3819
 5413SOL     OW17679   3.933   1.538   5.257  0.0263 -0.5075  0.8743
 5413SOL    HW117680   4.011   1.580   5.293  0.1244 -1.2645  1.5942
 5413SOL    HW217681   3.890   1.498   5.333  0.4843 -2.5459  0.1427
 5414SOL     OW17682   1.734   7.189   3.067  0.1401 -0.3862  0.1232
 5414SOL    HW117683   1.643   7.218   3.064 -0.1405 -1.2864 -0.4576
 5414SOL    HW217684   1.731   7.096   3.044  0.9796 -0.9712  2.0730
 5415SOL     OW17685   0.689   7.050   5.558 -0.3141 -0.3353 -0.8728
 5415SOL    HW117686   0.709   6.957   5.552 -0.6289 -0.5448  0.8907
 5415SOL    HW217687   0.772   7.093   5.537 -0.3036 -0.9602 -2.2668
 5416SOL     OW17688   6.409   4.466   9.469  0.3715 -0.2253 -0.6323
 5416SOL    HW117689   6.397   4.509   9.384 -1.8636  0.0145 -0.2705
 5416SOL    HW217690   6.377   4.377   9.456 -1.0201  0.1199  0.1760
 5417SOL     OW17691   7.300   5.471   4.374  0.4142 -0.2709 -0.2268
 5417SOL    HW117692   7.324   5.562   4.388  0.1704 -0.2370 -0.0125
 5417SOL    HW217693   7.210   5.465   4.407  0.4874 -0.6268 -0.0928
 5418SOL     OW17694   2.054   5.085   2.853  0.7570  0.1800 -0.7220
 5418SOL    HW117695   2.022   5.011   2.801 -2.4360  0.0736  1.1356
 5418SOL    HW217696   2.041   5.058   2.944  2.4752  1.8717  0.0890
 5419SOL     OW17697   6.479   6.632   9.072  0.1151 -0.2832  0.0757
 5419SOL    HW117698   6.473   6.635   8.977  3.4164 -1.2110 -0.2815
 5419SOL    HW217699   6.450   6.720   9.100  1.7072  1.0031 -2.0287
 5420SOL     OW17700   2.724   7.837  12.164 -0.3742 -0.4582 -0.2128
 5420SOL    HW117701   2.799   7.846  12.105 -0.6318 -0.6969 -0.5800
 5420SOL    HW217702   2.677   7.760  12.132 -0.8402 -0.2444 -0.0561
 5421SOL     OW17703   2.091   0.808   9.883  0.0593  0.2097 -0.0911
 5421SOL    HW117704   2.024   0.842   9.944 -1.4371 -1.5970 -0.6318
 5421SOL    HW217705   2.171   0.853   9.908 -0.9419  1.0109  1.8968
 5422SOL     OW17706   3.425   6.626   7.627  0.3446 -0.2449  0.0102
 5422SOL    HW117707   3.497   6.588   7.677 -0.3140 -0.4766  0.8138
 5422SOL    HW217708   3.352   6.630   7.689  0.0148  1.1231 -0.4215
 5423SOL     OW17709   0.546   4.865   8.916  0.9865 -0.0007  0.0575
 5423SOL    HW117710   0.632   4.830   8.892  1.1911  0.2401  0.4298
 5423SOL    HW217711   0.487   4.832   8.848  1.6343  1.0731 -1.0687
 5424SOL     OW17712   5.624   2.180   7.982 -0.0902 -0.4924  0.5604
 5424SOL    HW117713   5.568   2.102   7.975  1.7381 -1.9003  0.7545
 5424SOL    HW217714   5.564   2.250   8.009 -2.0919 -1.4307 -1.1441
 5425SOL     OW17715   0.471   3.867   4.846  0.0029 -0.4298 -0.1059
 5425SOL    HW117716   0.505   3.893   4.932  1.1989  0.3057 -0.7733
 5425SOL    HW217717   0.544   3.881   4.786 -1.3736  0.9348 -1.5755
 5426SOL     OW17718   7.911   2.105   1.556  0.0618  0.3515  0.4984
 5426SOL    HW117719   7.839   2.096   1.493 -0.5999  1.0777  1.1298
 5426SOL    HW217720   7.875   2.073   1.639  0.2779  1.2264  0.9400
 5427SOL     OW17721   1.653   3.151   2.504  0.5367 -0.0523  0.1906
 5427SOL    HW117722   1.676   3.192   2.587  1.0755 -0.2641  0.1520
 5427SOL    HW217723   1.667   3.220   2.439  2.0108 -0.4389  0.0569
 5428SOL     OW17724   4.333   6.482   9.225  0.2270  0.2420  0.1803
 5428SOL    HW117725   4.313   6.489   9.131 -0.4707 -1.4464  0.1671
 5428SOL    HW217726   4.249   6.495   9.268  0.0048 -1.6347  0.4016
 5429SOL     OW17727   4.652   0.405   9.279 -0.3536  0.0585  0.6273
 5429SOL    HW117728   4.628   0.413   9.186  1.2205 -0.2101  0.1707
 5429SOL    HW217729   4.623   0.487   9.318 -0.6504  0.3597 -0.1970
 5430SOL     OW17730   2.233   7.753   1.607 -1.0662  0.5600  0.6965
 5430SOL    HW117731   2.187   7.725   1.687 -2.5920  2.2545  0.4757
 5430SOL    HW217732   2.244   7.847   1.618  1.2693  0.4131  0.1224
 5431SOL     OW17733   0.080   2.300  11.836 -0.3906  0.2436 -0.7371
 5431SOL    HW117734   0.107   2.272  11.924  0.1677  1.2506 -0.5734
 5431SOL    HW217735   0.141   2.255  11.777 -2.4553 -2.6548 -0.8781
 5432SOL     OW17736   6.451   2.560   9.973  0.1247  0.1491 -0.0364
 5432SOL    HW117737   6.455   2.568  10.068  0.8911 -0.1818 -0.0403
 5432SOL    HW217738   6.361   2.586   9.951 -0.5443 -1.2718  0.9180
 5433SOL     OW17739   0.122   1.594   6.902 -0.2366 -0.4390  0.6095
 5433SOL    HW117740   0.126   1.498   6.909  0.1642 -0.3490  1.9094
 5433SOL    HW217741   0.104   1.624   6.992 -3.1557  0.6062 -0.1972
 5434SOL     OW17742   7.189   3.072   8.150  0.9440  0.1588 -0.1474
 5434SOL    HW117743   7.268   3.018   8.149 -0.4164 -1.9720 -1.7706
 5434SOL    HW217744   7.185   3.107   8.239  1.4028 -3.3478  1.4107
 5435SOL     OW17745   6.295   7.646   2.212  0.2372 -0.2373  0.4256
 5435SOL    HW117746   6.268   7.557   2.235 -0.5339  0.1862  1.2400
 5435SOL    HW217747   6.290   7.695   2.294  0.6446  0.5572 -0.0075
 5436SOL     OW17748   0.347   3.835   5.157 -0.7641 -0.1247 -0.6030
 5436SOL    HW117749   0.291   3.891   5.211  0.0674  1.6482 -1.4851
 5436SOL    HW217750   0.367   3.888   5.080  1.0723 -1.1916 -0.9275
 5437SOL     OW17751   1.330   2.413   6.463  0.8574  0.3666 -0.9708
 5437SOL    HW117752   1.287   2.498   6.475  1.4447  0.4727  0.5396
 5437SOL    HW217753   1.404   2.414   6.524  2.1565 -0.4025 -2.4513
 5438SOL     OW17754   4.184   0.030   5.406 -0.0885 -0.6210  0.3653
 5438SOL    HW117755   4.263   0.032   5.460  0.3583  0.9545 -0.2927
 5438SOL    HW217756   4.118  -0.009   5.463  0.8234 -0.7442  1.3869
 5439SOL     OW17757   4.466   3.211   4.846 -0.3907 -0.0930 -0.2802
 5439SOL    HW117758   4.392   3.153   4.864 -0.6505  0.0082 -1.0012
 5439SOL    HW217759   4.446   3.291   4.895  0.8418 -1.2030  2.2249
 5440SOL     OW17760   5.805   1.264   2.957  0.2873 -0.4235 -0.1067
 5440SOL    HW117761   5.870   1.197   2.935  1.3945  0.7952 -0.7327
 5440SOL    HW217762   5.814   1.329   2.888  1.2393  1.7272  1.9078
 5441SOL     OW17763   6.233   5.622   6.270  0.5280  0.3879  0.5466
 5441SOL    HW117764   6.205   5.560   6.337 -1.5272  1.9055  1.1831
 5441SOL    HW217765   6.225   5.708   6.311 -0.5978  1.3568 -1.5175
 5442SOL     OW17766   7.094   1.403   3.361 -0.3529 -0.6037 -0.0941
 5442SOL    HW117767   7.127   1.384   3.273  0.6321  0.5273 -0.0040
 5442SOL    HW217768   7.144   1.480   3.389 -1.4009 -0.2985  1.0403
 5443SOL     OW17769   2.770   3.663   9.118 -0.4778 -0.0712 -0.1112
 5443SOL    HW117770   2.685   3.697   9.147 -0.1348  0.0887  0.7324
 5443SOL    HW217771   2.760   3.568   9.123 -0.5023 -0.0475  0.3072
 5444SOL     OW17772   4.254   0.664   4.307  0.2249 -0.7471  0.2333
 5444SOL    HW117773   4.234   0.599   4.240 -0.3119  0.5418 -0.9062
 5444SOL    HW217774   4.196   0.738   4.288  1.8230  0.6631  0.5546
 5445SOL     OW17775   4.691   5.263  11.192 -0.2695 -0.4172  0.0231
 5445SOL    HW117776   4.656   5.184  11.235  1.1151 -0.5532  0.9766
 5445SOL    HW217777   4.744   5.229  11.119  0.4387 -0.3986  0.5166
 5446SOL     OW17778   7.122   2.472  12.404  0.5178  0.0579 -0.2726
 5446SOL    HW117779   7.069   2.544  12.371 -2.6138 -1.9402  0.0032
 5446SOL    HW217780   7.141   2.496  12.495  1.0947  1.3036 -0.6973
 5447SOL     OW17781   2.501   6.317  10.126  0.1995 -0.1935  0.3256
 5447SOL    HW117782   2.593   6.318  10.099  1.0450  0.9505  2.8376
 5447SOL    HW217783   2.494   6.243  10.186 -1.1585 -1.6515 -1.5196
 5448SOL     OW17784   6.638   2.074   8.890 -0.1108 -0.3140 -0.5601
 5448SOL    HW117785   6.723   2.098   8.854 -1.2032 -0.0417 -3.1890
 5448SOL    HW217786   6.620   2.140   8.956  1.1326  0.3961 -0.8966
 5449SOL     OW17787   4.560   2.816   3.994  0.3158  0.0163 -0.1148
 5449SOL    HW117788   4.511   2.803   3.912 -0.1678  2.3711 -0.2718
 5449SOL    HW217789   4.504   2.776   4.061 -1.0240  1.1335 -0.5171
 5450SOL     OW17790   7.898   5.828   9.980 -0.3382  0.5927  0.1824
 5450SOL    HW117791   7.949   5.832   9.899  0.3752  0.3560  0.6153
 5450SOL    HW217792   7.872   5.736   9.988  2.2747 -0.0991  1.8275
 5451SOL     OW17793   0.297   2.731   0.050 -0.9497  0.3807 -0.4054
 5451SOL    HW117794   0.237   2.657   0.039  0.5507 -0.7051 -1.7030
 5451SOL    HW217795   0.331   2.721   0.139 -1.2618 -0.0878 -0.3326
 5452SOL     OW17796   2.903   5.155   9.875  0.0928 -0.0294  0.2344
 5452SOL    HW117797   2.849   5.222   9.832  0.8286  1.1143  1.0202
 5452SOL    HW217798   2.991   5.171   9.841  0.0483 -1.5639 -0.6704
 5453SOL     OW17799   6.675   7.520   3.796 -0.1052 -0.1570 -0.0831
 5453SOL    HW117800   6.749   7.566   3.834 -1.1467  1.0506  0.5573
 5453SOL    HW217801   6.599   7.550   3.846 -1.1113 -0.9418 -1.0670
 5454SOL     OW17802   3.530   3.913  10.050  0.3168  0.0245 -0.4066
 5454SOL    HW117803   3.578   3.950  10.124 -0.0117 -1.9253  0.8551
 5454SOL    HW217804   3.594   3.859  10.004 -0.0828 -0.8059 -0.0171
 5455SOL     OW17805   4.609   5.977   8.039 -0.4942  0.7902  0.2058
 5455SOL    HW117806   4.626   5.960   7.946 -1.3759 -1.2919  0.3587
 5455SOL    HW217807   4.685   5.941   8.084 -1.7771 -1.8778  0.4526
 5456SOL     OW17808   2.142   7.594  12.476 -0.0827  0.4420  0.0316
 5456SOL    HW117809   2.088   7.664  12.439 -0.3686  0.2803  0.1376
 5456SOL    HW217810   2.223   7.598  12.426  0.6568  2.0754  1.2842
 5457SOL     OW17811   7.233   7.578   3.205  0.5673  0.0880  0.0053
 5457SOL    HW117812   7.143   7.612   3.211  0.6327  0.1539  0.7299
 5457SOL    HW217813   7.271   7.623   3.130 -0.6009 -1.3497 -1.5503
 5458SOL     OW17814   1.366   4.917   3.387 -0.2091  0.1152 -0.5925
 5458SOL    HW117815   1.306   4.851   3.421  1.8335 -1.4425  0.1680
 5458SOL    HW217816   1.338   4.930   3.296 -0.7899 -1.6800 -0.7086
 5459SOL     OW17817   2.540   1.482   8.419 -0.4066 -0.0961  0.1946
 5459SOL    HW117818   2.513   1.572   8.439 -0.5004 -0.0588 -0.0976
 5459SOL    HW217819   2.492   1.460   8.339 -0.3088 -0.3721  0.2112
 5460SOL     OW17820   0.378   6.014   3.172 -0.1416 -0.0033 -0.1110
 5460SOL    HW117821   0.352   5.926   3.198 -0.7422  0.2263  0.0804
 5460SOL    HW217822   0.319   6.037   3.100  0.0810  0.2010 -0.2323
 5461SOL     OW17823   0.043   3.036   5.245 -1.0225 -0.5509 -0.7765
 5461SOL    HW117824   0.028   3.007   5.335  0.8931 -1.4408 -0.6981
 5461SOL    HW217825   0.135   3.064   5.244 -1.2042  0.1024 -2.3022
 5462SOL     OW17826   1.683   2.202   8.256 -0.4657  0.3735 -0.5503
 5462SOL    HW117827   1.632   2.203   8.174  0.5010 -1.5916 -1.2442
 5462SOL    HW217828   1.759   2.257   8.237 -0.1900 -0.1625 -1.0150
 5463SOL     OW17829   1.991   2.269  12.317  0.4696  0.1716 -0.3883
 5463SOL    HW117830   1.956   2.207  12.381 -2.1479  0.8690 -1.0297
 5463SOL    HW217831   2.013   2.347  12.369  0.3708 -0.0071 -0.0757
 5464SOL     OW17832   6.587   6.409  11.532 -0.2278  0.2850 -0.5510
 5464SOL    HW117833   6.675   6.402  11.569 -1.3169 -3.2247  1.9751
 5464SOL    HW217834   6.535   6.447  11.603 -1.0495  0.7468 -1.3944
 5465SOL     OW17835   4.605   3.174   1.819  0.7230  0.6184 -0.3696
 5465SOL    HW117836   4.582   3.262   1.849 -1.1984  0.5899 -1.6381
 5465SOL    HW217837   4.527   3.122   1.834  1.0086 -0.2991 -1.8631
 5466SOL     OW17838   5.438   5.229   0.110 -0.0790  0.3573  0.3269
 5466SOL    HW117839   5.455   5.317   0.143  3.2677 -0.3391  0.8224
 5466SOL    HW217840   5.368   5.195   0.167  1.9798  1.0142  3.4613
 5467SOL     OW17841   2.813   3.984   0.410  0.4442 -0.0414  0.4535
 5467SOL    HW117842   2.819   4.059   0.351 -2.0896  0.4124  0.6816
 5467SOL    HW217843   2.876   3.921   0.374 -1.5599 -0.1682 -3.3589
 5468SOL     OW17844   0.519   5.820   9.692 -0.0672 -0.0978 -0.0125
 5468SOL    HW117845   0.557   5.783   9.612  0.2413 -0.5781  0.3529
 5468SOL    HW217846   0.459   5.752   9.723  0.7294 -0.4361  0.8295
 5469SOL     OW17847   2.705   1.621   8.934  0.0336 -0.7862 -0.0498
 5469SOL    HW117848   2.747   1.625   8.848  1.5762 -0.6450  0.6877
 5469SOL    HW217849   2.644   1.695   8.934  0.6842 -0.2395 -0.6919
 5470SOL     OW17850   2.713   5.541   1.657  0.1208  0.5374  0.2776
 5470SOL    HW117851   2.721   5.447   1.674  2.3404  0.4476 -0.7980
 5470SOL    HW217852   2.703   5.580   1.743  0.8516 -0.5907  0.9049
 5471SOL     OW17853   0.124   3.469  11.943 -0.6656  0.0392  0.6169
 5471SOL    HW117854   0.157   3.549  11.903 -0.2057 -0.4433  0.0140
 5471SOL    HW217855   0.198   3.433  11.991  0.1630 -1.6955 -1.7426
 5472SOL     OW17856   2.438   4.478   6.451 -0.1567  0.1357 -0.4301
 5472SOL    HW117857   2.435   4.549   6.515  0.2853 -1.2804  1.2380
 5472SOL    HW217858   2.531   4.462   6.438 -0.2485  0.3491 -1.3834
 5473SOL     OW17859   1.117   6.486   8.763  0.4512  0.2205  0.0515
 5473SOL    HW117860   1.079   6.508   8.848  1.1764 -0.8368  0.6782
 5473SOL    HW217861   1.167   6.564   8.737 -0.8380  1.0342 -0.0480
 5474SOL     OW17862   2.154   7.870   2.107 -0.5325 -0.1912 -0.2817
 5474SOL    HW117863   2.155   7.953   2.058 -0.7324  1.5958  2.5226
 5474SOL    HW217864   2.070   7.830   2.082 -0.4334  0.4130 -1.7050
 5475SOL     OW17865   0.342   0.605   9.937 -0.0088 -0.4078 -0.2983
 5475SOL    HW117866   0.330   0.584   9.844  0.2321  0.4605 -0.5305
 5475SOL    HW217867   0.254   0.606   9.973 -0.1589 -0.1108 -0.6632
 5476SOL     OW17868   5.537   0.028   1.606  0.0795  0.0336  0.1458
 5476SOL    HW117869   5.512   0.064   1.520  0.5105 -1.5803 -0.6955
 5476SOL    HW217870   5.631   0.044   1.612  0.0962 -0.0900  0.2074
 5477SOL     OW17871   7.402   2.981   7.460 -0.1170  0.3962 -0.0703
 5477SOL    HW117872   7.478   2.966   7.402  0.9754 -0.0038  1.4146
 5477SOL    HW217873   7.373   3.069   7.437  0.1810  0.1990 -1.3272
 5478SOL     OW17874   6.170   3.561   7.844  0.0107  0.2208 -0.0487
 5478SOL    HW117875   6.136   3.537   7.758  1.3225 -0.4105 -0.4041
 5478SOL    HW217876   6.092   3.583   7.895 -1.1582 -2.8528 -0.2945
 5479SOL     OW17877   5.999   1.505   2.528  0.1115  0.3218 -0.4118
 5479SOL    HW117878   6.092   1.484   2.538  0.5606  0.7822 -2.8401
 5479SOL    HW217879   5.998   1.595   2.497 -1.0885  0.0964 -1.0891
 5480SOL     OW17880   2.101   6.556   9.990 -0.1633  0.2930 -0.0263
 5480SOL    HW117881   2.156   6.480   9.969 -1.8772 -1.4806  1.4343
 5480SOL    HW217882   2.072   6.589   9.905  0.8956 -0.4917 -0.7082
 5481SOL     OW17883   3.361   1.826  10.041  0.6888  0.0633  0.2352
 5481SOL    HW117884   3.327   1.915  10.049  2.8047  1.2431 -2.3786
 5481SOL    HW217885   3.402   1.823   9.955  2.5124 -2.8299  1.0493
 5482SOL     OW17886   5.427   7.878  11.595 -0.3345 -0.3520  0.1202
 5482SOL    HW117887   5.413   7.790  11.631 -0.1580  0.2358  1.6658
 5482SOL    HW217888   5.345   7.899  11.551 -0.7852 -0.8414  0.7127
 5483SOL     OW17889   6.421   6.244   9.844 -0.2247 -0.4059 -0.3166
 5483SOL    HW117890   6.422   6.166   9.789  0.1765 -0.8260  0.2761
 5483SOL    HW217891   6.341   6.237   9.896 -0.5390 -0.0715 -0.7417
 5484SOL     OW17892   4.851   0.847   9.755 -0.4239  0.3796  0.0947
 5484SOL    HW117893   4.946   0.856   9.745 -0.5141  1.0385 -0.3015
 5484SOL    HW217894   4.833   0.877   9.844  0.1809 -3.7429  1.8253
 5485SOL     OW17895   2.444   7.482   3.701 -0.0866 -0.5599  0.1179
 5485SOL    HW117896   2.525   7.500   3.749 -1.2889 -1.4440  2.6887
 5485SOL    HW217897   2.419   7.566   3.664  0.6005  0.3667  1.6466
 5486SOL     OW17898   3.075   5.276   0.818 -0.2633 -0.0472 -0.6713
 5486SOL    HW117899   3.158   5.230   0.825 -0.4619 -0.3932 -0.5724
 5486SOL    HW217900   3.097   5.360   0.779  0.5796  1.0684  1.9496
 5487SOL     OW17901   7.455   7.780  10.033 -0.9165 -0.0388 -0.2349
 5487SOL    HW117902   7.367   7.817  10.025 -1.4909 -1.4103 -0.4647
 5487SOL    HW217903   7.447   7.690  10.003  0.4860 -0.3196  0.1369
 5488SOL     OW17904   4.053   3.399   3.953 -0.3816 -0.3946 -0.2321
 5488SOL    HW117905   4.074   3.487   3.922 -1.9418 -0.2583 -1.0222
 5488SOL    HW217906   4.088   3.396   4.042 -1.5171  1.5384  0.3523
 5489SOL     OW17907   1.792   4.557  10.561  0.8275 -0.3746 -0.0075
 5489SOL    HW117908   1.766   4.648  10.575  0.9926 -0.3554  0.1712
 5489SOL    HW217909   1.887   4.557  10.567  1.0439 -0.1212 -2.5434
 5490SOL     OW17910   7.214   0.695   4.497 -0.0995 -0.1307  0.1737
 5490SOL    HW117911   7.250   0.693   4.408 -1.7603 -1.7222 -0.5472
 5490SOL    HW217912   7.248   0.616   4.538 -1.1359 -0.6229  0.1312
 5491SOL     OW17913   5.944   5.045   1.467  0.0524  0.4117  0.2910
 5491SOL    HW117914   5.850   5.030   1.464  0.3024 -1.2443 -0.6532
 5491SOL    HW217915   5.956   5.133   1.431 -1.2618  1.6069  2.5676
 5492SOL     OW17916   2.052   6.007  10.764 -0.0527  0.4497 -0.0763
 5492SOL    HW117917   2.041   6.090  10.811 -1.4389  1.0750 -1.4393
 5492SOL    HW217918   2.145   6.004  10.743  0.4175  0.6301  1.7689
 5493SOL     OW17919   1.162   2.838  10.234  0.5929  0.3215 -0.2498
 5493SOL    HW117920   1.134   2.925  10.205  1.1096 -0.4330 -3.3549
 5493SOL    HW217921   1.112   2.822  10.314 -1.8018  2.2574 -1.2307
 5494SOL     OW17922   4.808   0.090   8.983 -0.3206  0.0573  0.2136
 5494SOL    HW117923   4.724   0.132   8.998 -0.0869  0.8582 -0.6818
 5494SOL    HW217924   4.805   0.011   9.038 -1.7385 -0.0570  0.0135
 5495SOL     OW17925   0.382   3.472   8.877 -0.1600  0.3406  0.5150
 5495SOL    HW117926   0.338   3.557   8.880 -1.3420 -0.2202 -0.0207
 5495SOL    HW217927   0.444   3.480   8.804 -3.0023 -0.4180 -2.2443
 5496SOL     OW17928   4.359   3.465  12.243 -0.3266 -0.4426  0.2065
 5496SOL    HW117929   4.313   3.408  12.182 -1.8940  0.1528  0.7834
 5496SOL    HW217930   4.355   3.552  12.202 -1.0035 -0.1222  0.9206
 5497SOL     OW17931   3.582   0.737   6.870 -0.3652 -0.0081  0.5629
 5497SOL    HW117932   3.574   0.647   6.840  0.3218 -0.3207  1.2929
 5497SOL    HW217933   3.659   0.737   6.927  0.3997  1.3059 -0.4177
 5498SOL     OW17934   4.367   4.495   3.588 -0.4058  0.3440  0.4808
 5498SOL    HW117935   4.373   4.546   3.669  0.3007  0.9813  0.0442
 5498SOL    HW217936   4.358   4.561   3.519  0.5421 -0.1031 -0.0989
 5499SOL     OW17937   3.572   0.780  11.030  0.2895 -1.0821 -0.2691
 5499SOL    HW117938   3.581   0.707  11.091  0.6938  1.1312  2.4948
 5499SOL    HW217939   3.486   0.767  10.990  0.3105 -2.9787  0.1919
 5500SOL     OW17940   6.543   6.422   7.959 -0.1461 -0.6241  0.0026
 5500SOL    HW117941   6.509   6.336   7.935  0.9974 -0.8898 -0.7659
 5500SOL    HW217942   6.638   6.413   7.950  0.0442  0.5030  0.6614
 5501SOL     OW17943   1.517   0.850   3.253  0.0131 -0.1133 -0.0493
 5501SOL    HW117944   1.563   0.807   3.325 -1.7505 -2.4202 -0.1822
 5501SOL    HW217945   1.585   0.899   3.207  1.6491 -0.5856  1.7194
 5502SOL     OW17946   7.660   5.537   2.484 -0.7399 -0.6321 -0.2777
 5502SOL    HW117947   7.650   5.461   2.427 -0.4365 -1.0783  0.2514
 5502SOL    HW217948   7.755   5.552   2.487 -0.4773 -2.2544  2.1795
 5503SOL     OW17949   2.973   5.029   9.409 -0.4749 -0.0034  0.0935
 5503SOL    HW117950   2.972   4.936   9.433  0.5903  0.1725  0.9097
 5503SOL    HW217951   2.905   5.068   9.463 -0.8043 -0.2864 -0.1179
 5504SOL     OW17952   0.519   6.191   0.779  0.3019  0.2208 -0.7544
 5504SOL    HW117953   0.590   6.245   0.813  0.4837 -0.3524 -0.2003
 5504SOL    HW217954   0.494   6.135   0.853 -1.0403  0.7286 -0.7966
 5505SOL     OW17955   2.771   0.437   6.566  0.0910  0.0836  0.1084
 5505SOL    HW117956   2.738   0.361   6.518  3.0486 -0.9752 -0.4251
 5505SOL    HW217957   2.789   0.502   6.498 -1.3525  0.9128  0.4614
 5506SOL     OW17958   3.874   0.355   5.519 -0.4386 -0.3755  0.0245
 5506SOL    HW117959   3.930   0.339   5.595 -0.7508 -0.1136  0.3109
 5506SOL    HW217960   3.883   0.276   5.466  0.6895 -0.0828 -0.2472
 5507SOL     OW17961   5.107   5.618   2.107 -0.0771  0.0687  0.6161
 5507SOL    HW117962   5.093   5.530   2.072 -1.2839  0.1288  0.9102
 5507SOL    HW217963   5.034   5.632   2.168  1.8976 -0.0268  3.1898
 5508SOL     OW17964   6.088   4.736   4.490  0.3870 -0.0644  0.7472
 5508SOL    HW117965   6.001   4.743   4.529  0.0373 -0.1090  0.0002
 5508SOL    HW217966   6.081   4.663   4.429  1.1026 -0.4032  1.0558
 5509SOL     OW17967   0.115   0.313   6.085  0.0006  0.0169 -0.3022
 5509SOL    HW117968   0.199   0.266   6.085  0.5191  0.9033 -0.0168
 5509SOL    HW217969   0.089   0.316   5.993 -0.4210 -1.4564 -0.2466
 5510SOL     OW17970   6.235   3.931   9.359  0.8458 -0.0540  0.5018
 5510SOL    HW117971   6.233   3.859   9.296  1.0371 -0.7100  1.2363
 5510SOL    HW217972   6.148   3.931   9.398  0.8553  0.1040  0.5258
 5511SOL     OW17973   3.435   0.116   7.301 -0.1873  0.5124  0.5660
 5511SOL    HW117974   3.370   0.144   7.236 -0.8692 -2.0621 -0.0099
 5511SOL    HW217975   3.519   0.142   7.263 -0.7364  1.5947  0.0471
 5512SOL     OW17976   4.142   0.505   5.427  0.1002  0.2328  0.4044
 5512SOL    HW117977   4.108   0.519   5.515  0.3896 -0.1138  0.5700
 5512SOL    HW217978   4.122   0.414   5.407 -1.5992  0.7758 -0.5998
 5513SOL     OW17979   7.105   0.497  12.082 -0.3019 -0.1504 -0.0343
 5513SOL    HW117980   7.037   0.463  12.024 -0.5169 -0.8495  0.6219
 5513SOL    HW217981   7.062   0.507  12.167  0.3870 -0.5275  0.3659
 5514SOL     OW17982   3.408   7.313   2.134 -0.0503 -0.3718  0.7066
 5514SOL    HW117983   3.319   7.334   2.105  0.3281 -0.6182 -0.7157
 5514SOL    HW217984   3.435   7.241   2.078  1.4304  0.3955  0.3824
 5515SOL     OW17985   5.495   4.335   9.033  0.2155  0.1131  0.3365
 5515SOL    HW117986   5.529   4.271   8.970 -1.6227  0.5761 -1.2531
 5515SOL    HW217987   5.573   4.372   9.074  1.4213 -1.4617 -0.4061
 5516SOL     OW17988   0.842   6.464  10.903  0.1785 -0.1547  0.1832
 5516SOL    HW117989   0.839   6.374  10.938 -0.4072 -0.7499 -1.3210
 5516SOL    HW217990   0.758   6.476  10.861  0.8139  0.5609 -0.9267
 5517SOL     OW17991   2.761   6.968  11.187  0.1373  0.1112  0.0013
 5517SOL    HW117992   2.692   6.905  11.168  1.1038 -0.8643 -0.3174
 5517SOL    HW217993   2.816   6.969  11.108  0.6568  0.6614  0.3605
 5518SOL     OW17994   3.685   7.174   3.553 -0.2221  0.0496 -0.3648
 5518SOL    HW117995   3.750   7.113   3.520 -0.3855  0.0475 -0.6885
 5518SOL    HW217996   3.722   7.261   3.537 -0.6598  0.0716 -1.3261
 5519SOL     OW17997   6.832   2.293   2.549 -0.5206  0.7607 -0.6447
 5519SOL    HW117998   6.928   2.297   2.544 -0.5196 -0.1070 -1.7094
 5519SOL    HW217999   6.809   2.354   2.619  0.8711  0.2385  0.3160
 5520SOL     OW18000   3.028   5.010   7.553  0.5121 -0.5181 -0.8209
 5520SOL    HW118001   3.025   5.036   7.461 -0.5599 -2.8172 -1.5170
 5520SOL    HW218002   3.099   4.947   7.558 -0.5388 -1.7383 -0.5148
 5521SOL     OW18003   2.791   1.465   8.304 -0.3811 -0.4129  0.1636
 5521SOL    HW118004   2.701   1.496   8.317 -0.6783 -0.5138 -1.4249
 5521SOL    HW218005   2.816   1.502   8.219  1.2622  0.0224  0.8110
 5522SOL     OW18006   0.375   2.060  10.405 -0.2225 -0.0028  0.2366
 5522SOL    HW118007   0.411   2.064  10.493 -0.0037 -1.7146  0.2676
 5522SOL    HW218008   0.422   1.988  10.363 -4.1199 -3.1185  0.5685
 5523SOL     OW18009   4.496   6.099   7.358  0.0771 -0.2542  0.1912
 5523SOL    HW118010   4.421   6.062   7.312  1.3124  0.5045 -2.6604
 5523SOL    HW218011   4.570   6.044   7.334  0.8952  0.5345  0.8025
 5524SOL     OW18012   5.714   5.832   1.484  0.4360  0.0731  0.1855
 5524SOL    HW118013   5.700   5.917   1.443 -0.0948 -0.4470 -0.7512
 5524SOL    HW218014   5.643   5.777   1.449  0.5909 -0.6667  1.0095
 5525SOL     OW18015   3.134   1.840   5.682 -0.0365  0.8852  0.2058
 5525SOL    HW118016   3.209   1.817   5.737  0.5225  2.6380  0.2390
 5525SOL    HW218017   3.139   1.779   5.608  2.0591  1.6137 -0.3230
 5526SOL     OW18018   3.087   3.396   0.019  0.4497  0.3597  0.3080
 5526SOL    HW118019   3.044   3.335  -0.040 -1.9484  0.8647  1.4131
 5526SOL    HW218020   3.080   3.355   0.105  0.4808  1.3322  0.7866
 5527SOL     OW18021   7.564   2.073   7.353  0.4947  0.0649 -0.7827
 5527SOL    HW118022   7.635   2.031   7.401  0.6765  0.4782 -0.6831
 5527SOL    HW218023   7.574   2.042   7.263  0.2047 -0.6445 -0.5779
 5528SOL     OW18024   5.807   7.956   6.688 -0.2914 -0.1206  0.2621
 5528SOL    HW118025   5.716   7.968   6.662 -0.5165 -0.6693  0.7785
 5528SOL    HW218026   5.814   8.001   6.772 -0.1912 -0.4305  0.4197
 5529SOL     OW18027   7.043   3.997   8.181 -0.6249 -0.2478 -0.1467
 5529SOL    HW118028   7.091   3.953   8.111  0.4657 -1.0647  1.0704
 5529SOL    HW218029   7.106   4.056   8.221 -1.0661 -0.1967  0.4981
 5530SOL     OW18030   4.890   6.272  10.120 -0.1077 -0.1617  0.1735
 5530SOL    HW118031   4.892   6.356  10.074  0.3239  0.4061  1.2165
 5530SOL    HW218032   4.934   6.212  10.059 -0.5361  0.3240 -0.6406
 5531SOL     OW18033   5.447   3.537   8.114  0.7078  0.5614 -0.1254
 5531SOL    HW118034   5.477   3.497   8.195 -0.2069  0.1996  0.0576
 5531SOL    HW218035   5.449   3.465   8.050 -0.5615  0.2886  0.1065
 5532SOL     OW18036   5.787   0.235   0.760 -0.1090  0.0070  0.1123
 5532SOL    HW118037   5.807   0.245   0.853 -0.7038  1.4180  0.1233
 5532SOL    HW218038   5.801   0.323   0.723 -1.0260 -0.2414 -0.8897
 5533SOL     OW18039   2.652   0.443   1.998 -0.5863  0.1433 -0.3022
 5533SOL    HW118040   2.685   0.354   2.002 -2.2318 -0.6143 -2.0654
 5533SOL    HW218041   2.709   0.487   1.935 -2.2618 -0.9372 -2.7274
 5534SOL     OW18042   6.029   3.548   0.930 -0.2190  0.3620  0.4116
 5534SOL    HW118043   6.103   3.495   0.899 -1.7173 -1.5904 -0.0563
 5534SOL    HW218044   6.059   3.583   1.014  1.2082 -0.4505  0.2873
 5535SOL     OW18045   6.547   7.532   3.278  0.0703  0.1049 -0.1869
 5535SOL    HW118046   6.511   7.561   3.362  0.3366 -1.3851  0.4683
 5535SOL    HW218047   6.485   7.465   3.247  1.8171 -1.9706  0.6042
 5536SOL     OW18048   5.209   6.963   0.068  0.0277 -0.4487  0.2529
 5536SOL    HW118049   5.273   7.018   0.113  0.2715  0.3690 -1.0520
 5536SOL    HW218050   5.199   6.886   0.125 -0.1881  0.8376  2.0353
 5537SOL     OW18051   2.544   3.565   0.117 -0.3425 -0.5303  0.0713
 5537SOL    HW118052   2.608   3.606   0.176 -1.3425 -0.2991  1.0239
 5537SOL    HW218053   2.473   3.629   0.110 -0.3661 -0.6742 -1.1901
 5538SOL     OW18054   0.719   3.950   1.725  0.2741 -0.5938  0.2035
 5538SOL    HW118055   0.655   4.021   1.730  0.9350  0.0396 -0.1791
 5538SOL    HW218056   0.673   3.874   1.760  0.0826  0.3721  2.1520
 5539SOL     OW18057   7.776   6.078   1.863  0.3101 -0.0656 -0.2996
 5539SOL    HW118058   7.819   6.156   1.828  0.2720  0.5778  1.0201
 5539SOL    HW218059   7.704   6.112   1.917 -1.1025 -1.0807 -1.4540
 5540SOL     OW18060   1.205   2.363   7.568  0.0921 -0.0385  0.2380
 5540SOL    HW118061   1.229   2.327   7.482  3.8628 -0.0699  1.1066
 5540SOL    HW218062   1.155   2.441   7.548  1.3941  0.3035 -2.0938
 5541SOL     OW18063   0.738   7.005  11.331 -0.1199 -0.2918  0.4004
 5541SOL    HW118064   0.821   6.979  11.369 -0.3157 -0.1946  0.9089
 5541SOL    HW218065   0.721   7.091  11.368 -0.2460 -0.1342 -0.0243
 5542SOL     OW18066   7.493   2.429   9.724 -0.2664  0.1829 -0.4142
 5542SOL    HW118067   7.426   2.432   9.655 -0.2439  3.4271 -0.4678
 5542SOL    HW218068   7.528   2.518   9.727  2.1270 -0.6967  1.5327
 5543SOL     OW18069   6.732   3.516   3.975  0.2701  0.3942 -0.4968
 5543SOL    HW118070   6.823   3.491   3.958  0.8290  1.4334  0.7419
 5543SOL    HW218071   6.727   3.523   4.071 -0.8628  1.2284 -0.5908
 5544SOL     OW18072   3.898   4.207   6.099 -0.0107  0.0539  0.4670
 5544SOL    HW118073   3.977   4.152   6.097 -0.1187 -0.1965  1.6874
 5544SOL    HW218074   3.882   4.221   6.193 -1.9021 -0.6246  0.2870
 5545SOL     OW18075   7.865   1.059   5.739  0.8220  0.6462  0.0697
 5545SOL    HW118076   7.847   1.142   5.783 -0.0521 -0.2524  1.4706
 5545SOL    HW218077   7.955   1.068   5.708  0.7960  2.0569  0.3186
 5546SOL     OW18078   5.558   1.731   8.886  0.1045  0.5767  0.2014
 5546SOL    HW118079   5.529   1.657   8.831  1.4855 -0.1768  0.4297
 5546SOL    HW218080   5.497   1.732   8.959  0.1782 -0.4794  0.2914
 5547SOL     OW18081   2.383   2.533   8.897 -0.1790 -0.2798 -1.0368
 5547SOL    HW118082   2.452   2.467   8.894 -0.9373 -1.1741  0.2479
 5547SOL    HW218083   2.303   2.483   8.911 -1.0421  0.7756 -1.9462
 5548SOL     OW18084   7.000   7.473  11.061  0.4616 -0.0611  0.5397
 5548SOL    HW118085   6.919   7.431  11.033 -0.7244  0.7602  2.4924
 5548SOL    HW218086   7.064   7.401  11.065 -0.4498 -0.9282  0.0168
 5549SOL     OW18087   5.111   6.239   6.038 -0.3168 -0.1986  0.2533
 5549SOL    HW118088   5.057   6.166   6.009  1.2360 -1.2112 -0.2158
 5549SOL    HW218089   5.195   6.227   5.993 -0.4252  2.6543 -0.9063
 5550SOL     OW18090   6.032   6.282  11.107 -0.3352  0.7524  0.1738
 5550SOL    HW118091   6.061   6.313  11.192  2.6594  0.1003 -0.4840
 5550SOL    HW218092   6.085   6.332  11.044 -0.6696 -0.5319 -1.1813
 5551SOL     OW18093   6.958   0.307  10.617 -0.6732  0.0109  0.0849
 5551SOL    HW118094   6.934   0.218  10.643 -0.6680  0.5854  2.3198
 5551SOL    HW218095   6.943   0.359  10.696 -0.6777  2.0083 -1.1639
 5552SOL     OW18096   0.445   1.809  10.074 -0.1617 -0.6043  0.3216
 5552SOL    HW118097   0.471   1.772  10.159  1.6001 -0.9976 -0.3410
 5552SOL    HW218098   0.363   1.764  10.052  0.2118 -1.6944  1.0653
 5553SOL     OW18099   3.855   1.537  11.967 -0.5791 -0.3156 -0.4066
 5553SOL    HW118100   3.822   1.480  12.037  1.0949 -1.4851 -0.5073
 5553SOL    HW218101   3.788   1.604  11.958 -2.7478 -2.3165 -0.3715
 5554SOL     OW18102   2.535   4.976   5.782 -0.1564  0.2030 -0.4545
 5554SOL    HW118103   2.589   5.017   5.715 -0.9042  0.8011 -0.7040
 5554SOL    HW218104   2.533   4.883   5.757  0.3529  0.2576 -0.7105
 5555SOL     OW18105   1.638   0.299   1.448  0.5817 -0.1094 -0.1989
 5555SOL    HW118106   1.585   0.220   1.456 -0.0716  0.2101 -1.1563
 5555SOL    HW218107   1.688   0.286   1.367 -0.2202  0.8368 -0.8644
 5556SOL     OW18108   0.314   0.148   2.451  0.1197 -0.0566  0.0027
 5556SOL    HW118109   0.314   0.243   2.464  2.9375 -0.0324  0.3108
 5556SOL    HW218110   0.294   0.137   2.358  1.5923  0.9788 -0.4697
 5557SOL     OW18111   7.498   7.872   5.632  0.2183  0.0762  0.6122
 5557SOL    HW118112   7.454   7.788   5.625 -0.7384  0.5069  1.2984
 5557SOL    HW218113   7.428   7.936   5.643  0.7811  1.2601 -1.9932
 5558SOL     OW18114   0.553   4.148  10.367 -0.1760 -0.1805  0.2728
 5558SOL    HW118115   0.544   4.149  10.272  1.8636  0.3544  0.0322
 5558SOL    HW218116   0.620   4.081  10.384  0.5099  0.7064  1.1877
 5559SOL     OW18117   5.347   2.127   3.960  0.0768 -0.1133  0.3421
 5559SOL    HW118118   5.366   2.216   3.932 -0.9293  0.2081  0.6142
 5559SOL    HW218119   5.327   2.135   4.053  0.7159 -0.7419  0.5371
 5560SOL     OW18120   7.979   5.616   7.210 -0.3593 -0.0452 -0.0707
 5560SOL    HW118121   8.069   5.590   7.191  0.6484  2.2828  1.0609
 5560SOL    HW218122   7.963   5.583   7.299  0.2879  1.5846  0.6771
 5561SOL     OW18123   5.227   2.438  10.064 -0.3304  0.0522  0.0191
 5561SOL    HW118124   5.301   2.439  10.003 -0.6537  0.6199 -0.3697
 5561SOL    HW218125   5.267   2.422  10.149  0.1251 -0.7690 -0.3289
 5562SOL     OW18126   4.797   6.206   7.518  0.1717 -0.4195  0.5930
 5562SOL    HW118127   4.745   6.287   7.514  3.0678  1.6482  1.3983
 5562SOL    HW218128   4.776   6.169   7.604  1.3864  1.4868  1.7934
 5563SOL     OW18129   0.380   5.449   8.587 -0.0482 -0.5600 -0.5550
 5563SOL    HW118130   0.408   5.436   8.677 -1.3425 -0.3205 -0.0933
 5563SOL    HW218131   0.400   5.541   8.568 -0.9961 -0.2273 -0.0285
 5564SOL     OW18132   1.894   7.501   6.079  0.2725  0.0891 -0.1444
 5564SOL    HW118133   1.953   7.574   6.058 -0.2717  1.0390  1.5106
 5564SOL    HW218134   1.806   7.539   6.075 -0.2274 -1.1635 -1.9455
 5565SOL     OW18135   7.325   6.944  11.396 -0.0576 -0.5322  0.0499
 5565SOL    HW118136   7.308   7.011  11.462  0.1748 -0.5728  0.1533
 5565SOL    HW218137   7.372   6.991  11.327  2.4133 -1.0729  1.2483
 5566SOL     OW18138   5.223   0.789   8.002  0.2790  0.4585  0.0711
 5566SOL    HW118139   5.130   0.767   8.001  0.3346  0.0938  1.2130
 5566SOL    HW218140   5.234   0.849   7.928 -0.5337 -0.7498 -1.0694
 5567SOL     OW18141   0.706   4.107   9.117  0.8741  0.3808  0.4280
 5567SOL    HW118142   0.645   4.161   9.166  0.0909  0.1191 -0.2388
 5567SOL    HW218143   0.747   4.051   9.183 -0.9810 -0.7714  0.6827
 5568SOL     OW18144   2.099   3.614   0.397  0.2078 -0.3486 -0.9489
 5568SOL    HW118145   2.064   3.656   0.318 -2.0819  2.5062  1.3156
 5568SOL    HW218146   2.021   3.582   0.443  1.1566  0.3816  1.3102
 5569SOL     OW18147   0.010   1.889   7.517 -0.0156  0.0879  0.3449
 5569SOL    HW118148  -0.063   1.948   7.533 -0.0876 -0.2263  1.1822
 5569SOL    HW218149   0.016   1.835   7.595  0.7947 -0.2282  0.0789
 5570SOL     OW18150   3.013   4.049   8.432 -0.4919 -0.1185  0.0089
 5570SOL    HW118151   2.995   4.081   8.520 -3.0568 -1.1259 -0.0376
 5570SOL    HW218152   3.090   3.994   8.441 -0.6884 -0.1782  1.6376
 5571SOL     OW18153   0.059   1.777   3.707  0.3664  0.0107  0.5639
 5571SOL    HW118154   0.080   1.736   3.623  0.7634 -1.3589  1.2964
 5571SOL    HW218155  -0.010   1.839   3.687 -0.3018 -1.0565 -0.6188
 5572SOL     OW18156   2.838   4.886   2.408 -0.3397  0.0441  0.0299
 5572SOL    HW118157   2.925   4.866   2.374 -0.1655 -0.9400  0.9941
 5572SOL    HW218158   2.779   4.871   2.334  0.0438 -1.8913  0.0495
 5573SOL     OW18159   0.365   7.678   4.437 -0.4352 -0.1550 -0.5139
 5573SOL    HW118160   0.405   7.759   4.470  0.8258 -0.6262 -0.8086
 5573SOL    HW218161   0.274   7.682   4.467 -1.2215  2.6563 -2.7687
 5574SOL     OW18162   2.086   4.277   4.363  0.1153  0.9070  0.0586
 5574SOL    HW118163   2.026   4.203   4.351  0.2565  0.5775  1.2167
 5574SOL    HW218164   2.037   4.339   4.418  0.4878  1.0509  0.2330
 5575SOL     OW18165   4.041   6.145   5.672 -0.3243  0.0715  0.8347
 5575SOL    HW118166   4.047   6.227   5.623 -1.7831 -0.2745  0.0228
 5575SOL    HW218167   4.000   6.169   5.755 -1.4816  0.0698  0.2832
 5576SOL     OW18168   1.744   1.975   8.597  0.1644  0.3097  0.1551
 5576SOL    HW118169   1.828   2.001   8.560  0.6924 -0.2554  0.9322
 5576SOL    HW218170   1.752   1.996   8.690 -0.5233  0.1658  0.2480
 5577SOL     OW18171   1.045   4.640   8.195  0.2164 -0.8528  0.4145
 5577SOL    HW118172   0.985   4.592   8.139 -2.6605  0.5898  2.0254
 5577SOL    HW218173   1.025   4.609   8.283 -0.6843  2.0496  1.3392
 5578SOL     OW18174   0.152   5.742  11.444 -0.3820  0.0682  0.0458
 5578SOL    HW118175   0.198   5.806  11.389 -0.0832  0.7739  1.0588
 5578SOL    HW218176   0.062   5.744  11.414 -1.1409  3.3788  2.0213
 5579SOL     OW18177   4.901   4.331   4.625  0.1515 -0.2101  0.1996
 5579SOL    HW118178   4.942   4.411   4.593 -0.6807  0.1694  0.0858
 5579SOL    HW218179   4.969   4.264   4.614  0.8667  0.4772  0.3441
 5580SOL     OW18180   1.833   5.767   6.597  0.2028  0.2478 -0.2062
 5580SOL    HW118181   1.846   5.680   6.560 -0.5385  0.1768 -0.3105
 5580SOL    HW218182   1.738   5.781   6.595  0.3404  1.2660 -0.6703
 5581SOL     OW18183   3.770   4.176  11.841 -1.1436  0.1459 -0.0082
 5581SOL    HW118184   3.712   4.224  11.783 -0.9329  0.6261  0.1635
 5581SOL    HW218185   3.846   4.155  11.787 -1.9460 -1.4995 -0.5566
 5582SOL     OW18186   0.082   7.846   7.621  0.1530 -0.7021  0.6242
 5582SOL    HW118187   0.121   7.865   7.536  0.3285 -0.1463  0.8248
 5582SOL    HW218188   0.114   7.915   7.678  1.0188 -1.7660  1.4534
 5583SOL     OW18189   2.234   6.871   8.820  0.6321  0.6987  0.7853
 5583SOL    HW118190   2.186   6.948   8.789  1.5818  1.7032  1.7133
 5583SOL    HW218191   2.216   6.868   8.914  0.4423 -0.3551  0.7268
 5584SOL     OW18192   4.880   1.542   8.011 -0.3474 -0.5668  0.1955
 5584SOL    HW118193   4.820   1.579   7.946  1.8563  0.5013 -1.3288
 5584SOL    HW218194   4.911   1.618   8.060  0.0408 -1.0581  0.7159
 5585SOL     OW18195   7.755   6.588  11.354  0.6335 -0.0172  0.1079
 5585SOL    HW118196   7.702   6.667  11.363 -1.2440 -1.0783 -0.9455
 5585SOL    HW218197   7.769   6.579  11.260  2.5320  0.1060  0.3528
 5586SOL     OW18198   5.119   5.785   0.490 -0.0016  0.2760 -0.2734
 5586SOL    HW118199   5.203   5.830   0.485  0.0603  0.2848  0.5870
 5586SOL    HW218200   5.058   5.843   0.446  0.2334  0.8190  0.1052
 5587SOL     OW18201   2.077   1.059   0.436  0.0531 -0.4103 -0.5707
 5587SOL    HW118202   2.045   0.970   0.420 -0.1818 -0.4437  0.0618
 5587SOL    HW218203   2.031   1.113   0.372 -2.8359 -0.1422  1.5442
 5588SOL     OW18204   1.282   4.500  12.123  0.5538 -0.5103  0.1016
 5588SOL    HW118205   1.259   4.577  12.175  0.3212 -0.4510 -0.0821
 5588SOL    HW218206   1.227   4.430  12.158  0.5166 -0.5099  0.0450
 5589SOL     OW18207   7.076   2.847   6.137  0.1670  0.3445  0.6226
 5589SOL    HW118208   7.098   2.847   6.044  1.2001  0.2313  0.8481
 5589SOL    HW218209   6.981   2.843   6.139  0.0974 -3.8804 -0.4654
 5590SOL     OW18210   6.586   6.888   2.886  0.1532 -0.1467  0.5372
 5590SOL    HW118211   6.628   6.859   2.806 -0.9251  0.4799 -0.2753
 5590SOL    HW218212   6.539   6.967   2.862  2.0946  1.7504  2.4191
 5591SOL     OW18213   7.488   4.735   1.160 -0.2478  0.1942  0.3661
 5591SOL    HW118214   7.446   4.728   1.245  0.0528  2.4269  0.7327
 5591SOL    HW218215   7.470   4.824   1.130  1.2294  0.0763 -1.0552
 5592SOL     OW18216   5.686   7.841   0.938  0.2159 -0.2786  0.1173
 5592SOL    HW118217   5.617   7.894   0.978 -0.0214 -1.0883  0.8107
 5592SOL    HW218218   5.692   7.873   0.848 -1.7755 -0.8435 -0.2660
 5593SOL     OW18219   6.213   0.621   3.742  0.2027 -0.4196 -0.4591
 5593SOL    HW118220   6.272   0.648   3.672  0.3072  1.1649  0.1951
 5593SOL    HW218221   6.246   0.536   3.770  0.9307 -0.4805 -1.4553
 5594SOL     OW18222   0.866   4.898   6.942  0.4941 -0.1615  0.3033
 5594SOL    HW118223   0.817   4.931   6.866 -1.2142 -1.2085  0.8864
 5594SOL    HW218224   0.944   4.858   6.904 -0.8948 -1.7555 -1.1067
 5595SOL     OW18225   0.009   4.749   5.853  0.1077 -0.2298  0.1480
 5595SOL    HW118226  -0.027   4.660   5.853 -1.6291  0.4158 -0.8098
 5595SOL    HW218227   0.004   4.777   5.762 -0.1968  1.1433  0.5558
 5596SOL     OW18228   5.931   7.790   8.320  0.7368  0.3348  0.9094
 5596SOL    HW118229   5.892   7.703   8.331  0.8284  0.0128 -0.9511
 5596SOL    HW218230   5.858   7.851   8.331  0.0661 -0.1566 -0.5002
 5597SOL     OW18231   6.965   7.230   1.844  0.0546  0.2082 -0.3479
 5597SOL    HW118232   6.970   7.267   1.756  1.8976 -0.1741 -0.4553
 5597SOL    HW218233   7.050   7.250   1.883 -0.1821 -0.9198  0.8048
 5598SOL     OW18234   3.019   7.133   7.640  0.3379  0.0394  0.5254
 5598SOL    HW118235   3.078   7.095   7.704  0.3578 -0.9318 -0.0502
 5598SOL    HW218236   3.053   7.103   7.555 -1.1895 -0.8849  0.2015
 5599SOL     OW18237   0.972   6.789  10.268  0.2746  0.4792 -0.2665
 5599SOL    HW118238   1.046   6.790  10.208  0.7824  0.5805  0.3513
 5599SOL    HW218239   1.011   6.801  10.355 -0.2563 -1.3767  0.2860
 5600SOL     OW18240   7.947   4.492   3.765  0.0730  0.1638 -0.2373
 5600SOL    HW118241   7.928   4.411   3.718 -1.0354 -0.8398  1.8278
 5600SOL    HW218242   8.042   4.502   3.757  0.1232 -0.8517 -1.2479
 5601SOL     OW18243   4.262   1.835  12.058 -0.0895  0.6231  0.2584
 5601SOL    HW118244   4.249   1.924  12.025  0.6707  0.3182 -0.9488
 5601SOL    HW218245   4.354   1.834  12.087 -0.1374  0.2780  0.3947
 5602SOL     OW18246   2.011   4.358   5.601 -0.1140 -0.1398  0.6733
 5602SOL    HW118247   2.087   4.307   5.572 -1.2896 -1.2723 -0.5221
 5602SOL    HW218248   1.937   4.297   5.594 -1.2256  1.0889  1.3237
 5603SOL     OW18249   4.948   7.186  11.803 -0.3581 -0.4029  0.3246
 5603SOL    HW118250   4.941   7.280  11.785 -2.4425 -0.5891 -0.2032
 5603SOL    HW218251   4.931   7.145  11.718  0.9306 -1.2807  0.4712
 5604SOL     OW18252   2.749   0.937   8.955 -0.5017  0.5193 -0.3857
 5604SOL    HW118253   2.762   0.864   8.894 -0.3306 -0.0046  0.2744
 5604SOL    HW218254   2.681   0.906   9.014 -0.2807  0.8185  0.0248
 5605SOL     OW18255   4.663   5.531  10.900  0.0250  0.1417  0.4625
 5605SOL    HW118256   4.624   5.445  10.914 -0.4468  0.2115 -0.3756
 5605SOL    HW218257   4.746   5.513  10.856  1.1166 -0.0237  2.4745
 5606SOL     OW18258   4.604   7.643   1.338  0.0704 -0.3063 -0.3662
 5606SOL    HW118259   4.520   7.598   1.349  0.8873 -2.5804 -2.4106
 5606SOL    HW218260   4.581   7.731   1.310 -1.6371 -0.5523  0.1342
 5607SOL     OW18261   2.461   1.695   2.622 -0.7058 -0.6945  0.1622
 5607SOL    HW118262   2.555   1.678   2.633 -0.3979 -0.3986 -1.5679
 5607SOL    HW218263   2.434   1.633   2.553 -1.7222 -0.5907  0.4534
 5608SOL     OW18264   3.763   7.151  10.554 -0.0424  0.0289 -0.3142
 5608SOL    HW118265   3.673   7.119  10.547 -0.1051 -0.0751  0.7808
 5608SOL    HW218266   3.806   7.089  10.614  0.8279 -0.0623 -1.0141
 5609SOL     OW18267   4.009   5.153   0.414  0.3193  0.3262  0.3865
 5609SOL    HW118268   4.012   5.248   0.409  1.1805  0.2761 -0.4461
 5609SOL    HW218269   4.014   5.124   0.323  0.1444 -0.5175  0.6332
 5610SOL     OW18270   4.035   2.003   1.849 -0.1212  0.6213  0.5740
 5610SOL    HW118271   3.999   2.048   1.926 -2.1137  1.5778 -0.8314
 5610SOL    HW218272   4.097   2.065   1.812 -1.5718  1.5605 -0.3726
 5611SOL     OW18273   3.652   7.530   6.782  0.4303  0.4729  0.1798
 5611SOL    HW118274   3.622   7.620   6.767 -0.1286  0.2317 -0.1880
 5611SOL    HW218275   3.641   7.486   6.698 -0.2052 -0.1898  0.5915
 5612SOL     OW18276   4.812   5.728   7.833  0.1598  0.5297 -0.5588
 5612SOL    HW118277   4.846   5.638   7.836 -0.8291  0.1302 -1.0121
 5612SOL    HW218278   4.848   5.770   7.911  1.6598  0.1188 -1.0018
 5613SOL     OW18279   4.818   6.671   4.022 -0.8044  0.3009  0.2918
 5613SOL    HW118280   4.843   6.623   4.101 -0.1468  2.2961  1.3904
 5613SOL    HW218281   4.897   6.722   4.000 -1.6432  1.3177 -0.4390
 5614SOL     OW18282   4.212   3.185   5.882  0.5606  0.4918 -0.2970
 5614SOL    HW118283   4.124   3.170   5.846  0.3233 -1.3673  0.9346
 5614SOL    HW218284   4.213   3.135   5.963  3.0565 -0.1892 -0.6847
 5615SOL     OW18285   6.508   5.671   8.077 -0.5358  0.2252  0.2008
 5615SOL    HW118286   6.598   5.649   8.053 -0.7242  0.1593 -0.4503
 5615SOL    HW218287   6.480   5.735   8.011 -0.9612  0.2635  0.4141
 5616SOL     OW18288   1.151   2.295   2.432 -0.5163  0.6098 -0.2228
 5616SOL    HW118289   1.235   2.340   2.424 -0.8102  1.4967  1.3257
 5616SOL    HW218290   1.165   2.228   2.499 -1.0169  0.7207 -0.0015
 5617SOL     OW18291   3.854   7.076   0.288  0.2805 -1.1903 -0.1049
 5617SOL    HW118292   3.879   7.042   0.202  0.2770 -0.3828 -0.4319
 5617SOL    HW218293   3.793   7.147   0.268 -0.8837 -1.9566  0.6188
 5618SOL     OW18294   4.700   0.249  10.297 -0.1536  0.5156 -0.0285
 5618SOL    HW118295   4.781   0.208  10.266 -0.6896  0.5288 -1.5453
 5618SOL    HW218296   4.635   0.179  10.296 -0.6452  0.9586 -0.9037
 5619SOL     OW18297   0.134   3.780   9.255 -0.6687  0.4748 -0.3875
 5619SOL    HW118298   0.179   3.803   9.174 -1.4414 -0.1448 -1.0135
 5619SOL    HW218299   0.155   3.851   9.316  1.8346 -0.1977 -0.3632
 5620SOL     OW18300   7.139   7.296   3.481  0.6632  0.0812 -0.4083
 5620SOL    HW118301   7.161   7.386   3.507 -0.4525  0.9434 -2.1757
 5620SOL    HW218302   7.221   7.261   3.445  1.1389  0.3502  0.3997
 5621SOL     OW18303   2.367   4.755  10.969  0.1569  0.3854  0.8251
 5621SOL    HW118304   2.379   4.683  10.907  0.6300  1.0643  0.1093
 5621SOL    HW218305   2.444   4.810  10.957 -0.6730  1.5319  0.6424
 5622SOL     OW18306   5.316   0.330   6.817  0.0069 -0.0779  0.1915
 5622SOL    HW118307   5.239   0.273   6.826 -0.1316 -0.0043 -0.4091
 5622SOL    HW218308   5.280   0.413   6.784  0.4381 -0.3691 -1.0952
 5623SOL     OW18309   1.206   0.583  11.917  0.6616 -0.3397 -0.3173
 5623SOL    HW118310   1.244   0.497  11.901  0.4038 -0.4587 -0.2966
 5623SOL    HW218311   1.203   0.624  11.831  1.3505 -0.1141 -0.2373
 5624SOL     OW18312   5.026   0.599   1.966 -0.3039 -0.2667 -0.4311
 5624SOL    HW118313   4.993   0.540   2.035  2.5328  0.2973  1.6307
 5624SOL    HW218314   4.973   0.678   1.974 -1.4923 -1.0357 -0.4655
 5625SOL     OW18315   6.564   4.583   3.493 -0.5833 -0.4424 -0.7271
 5625SOL    HW118316   6.472   4.595   3.468 -0.3877 -0.6021 -1.5488
 5625SOL    HW218317   6.591   4.669   3.526 -1.6781 -0.9577  1.8137
 5626SOL     OW18318   0.013   2.606   6.337  0.3008  0.4425  0.1513
 5626SOL    HW118319   0.008   2.599   6.242  0.5192 -1.5448  0.2469
 5626SOL    HW218320   0.025   2.516   6.367  1.1209  1.1273  2.0152
 5627SOL     OW18321   1.493   5.701   3.443 -0.6359 -0.4891  0.2372
 5627SOL    HW118322   1.506   5.609   3.422 -0.9930 -0.1213 -1.7924
 5627SOL    HW218323   1.570   5.725   3.495  0.0184 -1.6587 -0.1507
 5628SOL     OW18324   0.816   4.916  11.857 -0.1092  0.5778  0.3651
 5628SOL    HW118325   0.722   4.911  11.877  0.1704  0.6716  1.7993
 5628SOL    HW218326   0.829   4.849  11.790 -1.3854  1.3014 -0.6731
 5629SOL     OW18327   1.554   4.010   7.290 -0.2914  0.2743 -0.2395
 5629SOL    HW118328   1.584   3.990   7.378 -0.4042  0.5003 -0.1486
 5629SOL    HW218329   1.515   4.097   7.297 -0.3073  0.2907 -0.5101
 5630SOL     OW18330   7.885   6.977  10.555  0.0157 -0.5143 -0.0541
 5630SOL    HW118331   7.800   7.018  10.573 -0.0187 -0.7178  0.2519
 5630SOL    HW218332   7.944   7.014  10.619 -0.1639 -1.4257  0.6608
 5631SOL     OW18333   6.110   0.037  11.272 -0.0677 -0.1088 -0.1835
 5631SOL    HW118334   6.025  -0.001  11.247  1.2543 -3.5567  0.0090
 5631SOL    HW218335   6.145   0.073  11.190 -0.3926 -1.5281 -0.9835
 5632SOL     OW18336   3.489   7.903   7.783  0.1157 -0.1251  0.2178
 5632SOL    HW118337   3.553   7.950   7.836 -0.1013  1.3124 -0.7362
 5632SOL    HW218338   3.465   7.965   7.714 -0.3746 -1.5663 -0.9557
 5633SOL     OW18339   1.140   7.820   3.989 -0.4959  0.2835 -0.0273
 5633SOL    HW118340   1.186   7.761   4.048  0.1405 -0.1684 -0.9632
 5633SOL    HW218341   1.201   7.837   3.917 -1.7080 -0.2453 -1.2433
 5634SOL     OW18342   4.461   1.746  11.635  0.1288  0.1364  0.6206
 5634SOL    HW118343   4.501   1.773  11.718  1.4613  1.4606 -0.3937
 5634SOL    HW218344   4.529   1.694  11.592 -0.9057 -1.3677  0.7412
 5635SOL     OW18345   5.597   0.530   9.378  0.6245  0.0591 -0.0148
 5635SOL    HW118346   5.558   0.606   9.421 -0.0514 -0.9651  1.2968
 5635SOL    HW218347   5.597   0.462   9.446  0.6935 -1.2667 -1.2860
 5636SOL     OW18348   7.299   5.922   6.080 -0.6247 -0.4145 -0.0580
 5636SOL    HW118349   7.392   5.912   6.064 -0.7717 -1.3839 -0.3863
 5636SOL    HW218350   7.261   5.838   6.055 -1.7302  0.3262 -1.0456
 5637SOL     OW18351   6.891   6.231   5.682 -0.6969 -0.5299  0.6283
 5637SOL    HW118352   6.875   6.313   5.730  1.3537  1.6636 -2.0550
 5637SOL    HW218353   6.987   6.224   5.678 -0.8042 -3.2006  0.8546
 5638SOL     OW18354   4.545   7.494   5.414  0.1160  0.5714 -0.0112
 5638SOL    HW118355   4.531   7.403   5.390 -0.9367  0.6633  0.2127
 5638SOL    HW218356   4.512   7.544   5.339  0.7348  0.7722 -0.1561
 5639SOL     OW18357   1.068   1.623   3.386 -0.2231  0.3341 -0.3454
 5639SOL    HW118358   1.081   1.707   3.342 -2.8234  0.6286 -0.6707
 5639SOL    HW218359   1.002   1.640   3.452  0.9031 -0.9816  1.2139
 5640SOL     OW18360   5.043   7.777   4.447  0.7972  0.3945 -0.0969
 5640SOL    HW118361   4.966   7.817   4.487  1.1291 -0.2983  1.2995
 5640SOL    HW218362   5.047   7.815   4.359  0.3846  2.4519  0.7241
 5641SOL     OW18363   5.279   5.924   6.670 -0.0314  0.7066  0.4015
 5641SOL    HW118364   5.258   6.008   6.628 -0.3292  0.8544  0.8436
 5641SOL    HW218365   5.294   5.947   6.762  0.5510  0.3739  0.3906
 5642SOL     OW18366   4.149   1.672   5.393  0.7664  0.1683  0.2553
 5642SOL    HW118367   4.237   1.650   5.362  1.5628  1.4755  1.4437
 5642SOL    HW218368   4.157   1.761   5.427 -0.8850  0.0910  0.9573
 5643SOL     OW18369   6.542   2.725   4.944  0.0466 -0.3782 -0.0399
 5643SOL    HW118370   6.617   2.665   4.945  0.8214  0.4793 -1.8052
 5643SOL    HW218371   6.533   2.753   5.035  0.9317 -1.6109  0.4659
 5644SOL     OW18372   5.827   4.171   2.531 -0.4801 -0.4174  0.0404
 5644SOL    HW118373   5.846   4.237   2.597 -2.2763  0.6476 -0.4297
 5644SOL    HW218374   5.780   4.103   2.580 -1.1399  0.0151  0.0260
 5645SOL     OW18375   2.181   5.823   9.955  0.5548 -0.7023 -0.3334
 5645SOL    HW118376   2.216   5.861   9.874 -3.2150  0.1952 -1.7471
 5645SOL    HW218377   2.173   5.730   9.936  0.1203 -0.5663 -0.8584
 5646SOL     OW18378   7.037   2.113   7.477  0.3155  0.0104  0.0852
 5646SOL    HW118379   7.005   2.117   7.567  0.4248 -0.5625  0.1511
 5646SOL    HW218380   7.130   2.093   7.486  0.3630  0.1239 -0.1514
 5647SOL     OW18381   5.766   4.625   8.247  0.2503 -0.1818 -0.1739
 5647SOL    HW118382   5.706   4.668   8.186  2.3795  1.1467 -1.4314
 5647SOL    HW218383   5.760   4.677   8.327 -1.1408 -0.8078  0.1658
 5648SOL     OW18384   5.503   3.197  11.054  0.0430 -0.2988  0.2302
 5648SOL    HW118385   5.531   3.156  11.136 -1.2508 -0.9850  0.3528
 5648SOL    HW218386   5.501   3.126  10.990  0.3645  0.0987 -0.2346
 5649SOL     OW18387   7.694   4.598   3.783  0.0956 -0.1389  0.7632
 5649SOL    HW118388   7.730   4.656   3.850 -0.5601 -0.1782  1.1588
 5649SOL    HW218389   7.766   4.538   3.762  0.5899  0.4425  0.7715
 5650SOL     OW18390   6.458   5.447  12.177  0.3498 -0.7554 -0.1328
 5650SOL    HW118391   6.466   5.487  12.264 -1.5129 -0.4045 -0.0834
 5650SOL    HW218392   6.447   5.521  12.118 -2.1394 -1.0848 -0.1657
 5651SOL     OW18393   6.592   1.487   8.630 -0.2952  0.3894 -0.2756
 5651SOL    HW118394   6.685   1.479   8.653 -0.2758  1.1839 -0.0447
 5651SOL    HW218395   6.591   1.549   8.556 -0.6828  0.8176  0.0822
 5652SOL     OW18396   4.144   6.202   7.463 -0.1945 -0.4312 -0.0273
 5652SOL    HW118397   4.186   6.283   7.433 -1.4470 -0.5280 -2.2042
 5652SOL    HW218398   4.155   6.204   7.558  2.6477  0.6608 -0.2912
 5653SOL     OW18399   7.543   3.670   8.771  0.2533 -0.1725  0.4700
 5653SOL    HW118400   7.531   3.590   8.721 -3.1838 -0.1027  0.9648
 5653SOL    HW218401   7.619   3.653   8.827 -0.3583 -3.0510  0.5317
 5654SOL     OW18402   1.486   0.337  11.563  0.2307  0.6362 -1.1849
 5654SOL    HW118403   1.493   0.356  11.470  1.0794 -1.0435 -1.5078
 5654SOL    HW218404   1.545   0.263  11.577 -0.0880  0.6747  0.6354
 5655SOL     OW18405   6.659   1.982   3.553  0.5713  0.3815 -0.3190
 5655SOL    HW118406   6.598   2.034   3.500 -0.0051 -1.6977 -1.8647
 5655SOL    HW218407   6.712   1.935   3.488  0.8564 -1.1321  0.9515
 5656SOL     OW18408   3.424   5.923   3.517 -0.3110  0.2838  0.5616
 5656SOL    HW118409   3.475   5.842   3.508 -0.3019  0.2493  0.9026
 5656SOL    HW218410   3.434   5.967   3.433  1.0083  0.6920  0.9069
 5657SOL     OW18411   5.922   0.462   6.654 -0.1030  0.2357 -0.1696
 5657SOL    HW118412   5.968   0.527   6.706  1.3612 -0.9264  0.0393
 5657SOL    HW218413   5.839   0.448   6.700  1.0468 -0.5793  1.7327
 5658SOL     OW18414   2.599   1.804   7.328  0.0214  0.1414 -0.2310
 5658SOL    HW118415   2.624   1.849   7.247  1.5529  1.8210  1.1028
 5658SOL    HW218416   2.663   1.733   7.336 -0.2961 -0.1962 -0.5899
 5659SOL     OW18417   1.425   2.865   4.764  0.2113  0.0972 -0.6412
 5659SOL    HW118418   1.457   2.777   4.745  0.6866  0.3651 -1.1045
 5659SOL    HW218419   1.455   2.882   4.853 -0.9352 -0.6702 -0.0702
 5660SOL     OW18420   0.882   4.836   5.015 -0.3126  0.2201 -0.2986
 5660SOL    HW118421   0.805   4.864   4.965  0.2432  1.1538 -0.6507
 5660SOL    HW218422   0.953   4.891   4.983  1.0730 -2.1829 -1.6943
 5661SOL     OW18423   5.564   6.933   1.832 -0.5569  0.1130 -0.1180
 5661SOL    HW118424   5.546   6.901   1.920  0.3106 -0.8409 -0.2617
 5661SOL    HW218425   5.636   6.996   1.843 -1.9093  1.6857  0.0980
 5662SOL     OW18426   0.936   4.159   9.517  0.5231 -0.0642  0.0357
 5662SOL    HW118427   0.967   4.222   9.452 -0.0991  1.0315  0.7688
 5662SOL    HW218428   0.855   4.124   9.480  1.3339 -1.1419 -0.7855
 5663SOL     OW18429   7.862   5.375   4.294  0.0411  0.2743 -0.6958
 5663SOL    HW118430   7.809   5.444   4.255 -0.4494  1.1428  1.3550
 5663SOL    HW218431   7.952   5.402   4.278 -0.1406  1.6102  0.3505
 5664SOL     OW18432   3.090   4.523   6.957 -0.1503  0.2984  0.7107
 5664SOL    HW118433   3.133   4.607   6.971 -1.0971  0.7732  0.8068
 5664SOL    HW218434   3.162   4.462   6.941  0.6668  0.8035  2.2080
 5665SOL     OW18435   7.676   7.455  11.131  0.4617  0.4947  0.5586
 5665SOL    HW118436   7.762   7.436  11.168  0.7325 -0.0719 -0.3249
 5665SOL    HW218437   7.683   7.546  11.100  1.2254  0.0093 -0.7731
 5666SOL     OW18438   2.217   5.864   5.010 -0.3445  0.3823 -0.1922
 5666SOL    HW118439   2.255   5.873   5.098 -2.5115  0.0810  0.8578
 5666SOL    HW218440   2.288   5.887   4.950  2.3575 -2.6870  1.4536
 5667SOL     OW18441   7.069   1.593  11.560 -0.2783 -0.9156  0.4893
 5667SOL    HW118442   7.099   1.503  11.566 -0.2773 -0.8577  1.4542
 5667SOL    HW218443   7.137   1.645  11.602 -0.7457 -0.5708  0.8357
 5668SOL     OW18444   5.350   7.205   3.847 -0.1780  0.3348 -0.3820
 5668SOL    HW118445   5.269   7.184   3.893 -0.0388 -0.7082 -0.5787
 5668SOL    HW218446   5.327   7.196   3.754  0.4337 -1.0792 -0.4153
 5669SOL     OW18447   4.695   0.003   1.718  0.2206 -0.2091 -0.3068
 5669SOL    HW118448   4.714   0.024   1.626  2.5272  1.1068  0.3754
 5669SOL    HW218449   4.775   0.029   1.765 -0.9910 -0.5998  2.1141
 5670SOL     OW18450   6.011   4.952   0.641  0.0679  0.1104 -0.6586
 5670SOL    HW118451   6.019   4.880   0.578  0.3158 -1.1130  0.7235
 5670SOL    HW218452   5.918   4.976   0.638 -0.8073 -2.6057  1.2796
 5671SOL     OW18453   1.611   6.163   3.106 -0.8618  0.3456  0.2194
 5671SOL    HW118454   1.522   6.152   3.139 -1.1431 -2.6985 -1.1972
 5671SOL    HW218455   1.600   6.187   3.014 -0.3857 -1.9983 -0.5346
 5672SOL     OW18456   7.772   4.788   2.002  0.4526 -0.9476 -0.5261
 5672SOL    HW118457   7.804   4.861   2.055 -1.0711  0.9089 -2.0416
 5672SOL    HW218458   7.726   4.732   2.064 -0.4421  0.6530  0.3140
 5673SOL     OW18459   6.190   3.439   4.193  0.0266 -0.4106  0.1086
 5673SOL    HW118460   6.267   3.488   4.164 -1.0323  1.2309 -0.0950
 5673SOL    HW218461   6.211   3.410   4.282 -0.1615  2.6004  1.2729
 5674SOL     OW18462   6.815   5.619   2.986  0.0359 -0.1480 -0.5782
 5674SOL    HW118463   6.784   5.659   3.068  1.1912  1.7794 -1.0099
 5674SOL    HW218464   6.881   5.556   3.013 -0.4192 -0.3817  0.0204
 5675SOL     OW18465   1.204   7.392  10.948 -0.4162  0.2833  0.5853
 5675SOL    HW118466   1.262   7.449  10.999 -0.6443  0.9481  0.1091
 5675SOL    HW218467   1.250   7.379  10.865 -0.7384  0.4374  0.3840
 5676SOL     OW18468   6.160   7.740  11.099 -0.0388 -0.5563 -0.3481
 5676SOL    HW118469   6.239   7.770  11.054 -0.1952 -0.9941 -0.9307
 5676SOL    HW218470   6.186   7.730  11.190  0.4193 -0.1354 -0.4308
 5677SOL     OW18471   0.370   4.035  10.887 -0.0968 -0.1103 -0.1060
 5677SOL    HW118472   0.289   4.082  10.866  0.1478  0.9411  1.1672
 5677SOL    HW218473   0.439   4.087  10.845  0.1200  0.4004  0.8370
 5678SOL     OW18474   0.019   5.184   4.825  0.1653 -0.4325 -0.3674
 5678SOL    HW118475  -0.013   5.099   4.856 -2.2386  0.5762  0.2060
 5678SOL    HW218476  -0.052   5.217   4.770  1.6093  0.6687 -1.6511
 5679SOL     OW18477   0.801   6.437  10.561  0.0341 -0.2731  0.1568
 5679SOL    HW118478   0.739   6.457  10.491  0.5408 -1.0369 -0.5262
 5679SOL    HW218479   0.885   6.468  10.527  0.2951 -0.7263  0.3906
 5680SOL     OW18480   4.914   4.476   3.872  0.1546 -0.8823  0.1020
 5680SOL    HW118481   5.006   4.503   3.874  0.2197 -1.0942 -0.0013
 5680SOL    HW218482   4.915   4.386   3.905 -0.1613 -0.4818  1.2484
 5681SOL     OW18483   1.156   7.547   3.325  0.1156  0.2811 -0.1005
 5681SOL    HW118484   1.102   7.568   3.249  0.2210  0.9328 -0.0022
 5681SOL    HW218485   1.208   7.626   3.340  1.7499 -0.6367 -0.7272
 5682SOL     OW18486   3.558   4.420  10.755  0.1679 -0.3332 -0.1372
 5682SOL    HW118487   3.573   4.512  10.734 -1.6308 -0.2797 -1.5100
 5682SOL    HW218488   3.642   4.378  10.740  1.2238  1.1710  1.2414
 5683SOL     OW18489   6.716   2.689   7.041 -0.5392  0.1114 -0.0571
 5683SOL    HW118490   6.679   2.610   7.079 -0.3190  0.4117  0.7903
 5683SOL    HW218491   6.685   2.689   6.950 -1.5951 -0.2777  0.2962
 5684SOL     OW18492   3.893   6.242   1.861 -0.0550 -0.3953 -0.1967
 5684SOL    HW118493   3.850   6.255   1.777 -1.2763 -0.5526  0.3788
 5684SOL    HW218494   3.871   6.320   1.912  0.3613 -0.4723  0.1133
 5685SOL     OW18495   3.752   6.650   2.348 -0.9022 -0.3970  0.0163
 5685SOL    HW118496   3.805   6.702   2.287  1.4925 -1.6416  0.8897
 5685SOL    HW218497   3.798   6.657   2.432 -1.9452 -1.7934  0.7552
 5686SOL     OW18498   7.537   4.176   1.629 -0.2127  0.0475 -0.0462
 5686SOL    HW118499   7.496   4.180   1.543 -0.6888 -1.3263  0.0910
 5686SOL    HW218500   7.630   4.191   1.612 -0.3697  0.3226 -0.7150
 5687SOL     OW18501   0.979   3.236   8.681  0.0903  0.4380 -0.0579
 5687SOL    HW118502   0.928   3.316   8.666 -0.6313  0.3321  1.5773
 5687SOL    HW218503   0.972   3.221   8.775  1.1862 -0.9211 -0.1642
 5688SOL     OW18504   3.595   1.007   9.002 -0.6738 -0.1898 -0.0170
 5688SOL    HW118505   3.604   0.973   8.913 -0.8885  0.1952 -0.1888
 5688SOL    HW218506   3.507   0.982   9.030 -0.9197  0.4102 -0.2312
 5689SOL     OW18507   5.422   0.539   0.042  0.3833 -0.6925 -0.0804
 5689SOL    HW118508   5.340   0.491   0.054 -1.1589  1.9102  0.5770
 5689SOL    HW218509   5.406   0.594  -0.036  1.6450 -0.4111 -0.1626
 5690SOL     OW18510   6.393   4.752   8.605  0.2629  0.2866 -0.3947
 5690SOL    HW118511   6.475   4.705   8.590  0.2575 -0.3944  1.4388
 5690SOL    HW218512   6.334   4.686   8.640  0.1231  1.5135  1.8517
 5691SOL     OW18513   5.955   2.799   2.783 -0.2602  0.0066 -0.0375
 5691SOL    HW118514   5.895   2.759   2.720 -2.6391  0.0733  2.0130
 5691SOL    HW218515   5.954   2.740   2.858  3.8787 -1.0130 -0.5639
 5692SOL     OW18516   7.280   5.234  10.394 -0.2477  0.5494  0.0876
 5692SOL    HW118517   7.297   5.320  10.435  0.6733  0.5837 -0.3220
 5692SOL    HW218518   7.187   5.218  10.409  0.2999 -0.1734  3.5999
 5693SOL     OW18519   4.176   4.413   4.498  0.1321 -0.2118 -0.2676
 5693SOL    HW118520   4.090   4.404   4.539  1.1000  0.7707  2.1266
 5693SOL    HW218521   4.219   4.329   4.514  0.3056 -0.0322  0.1941
 5694SOL     OW18522   2.844   4.869   9.013  0.4649  0.3301 -0.0386
 5694SOL    HW118523   2.846   4.780   8.979 -0.3882 -0.2588  1.3748
 5694SOL    HW218524   2.935   4.898   9.008  0.3671  0.4482 -3.0719
 5695SOL     OW18525   7.481   1.288   7.203  0.2579  0.5140 -0.4473
 5695SOL    HW118526   7.408   1.266   7.145  0.2157 -0.5874 -0.0128
 5695SOL    HW218527   7.554   1.235   7.172  0.4898  0.5919 -0.0484
 5696SOL     OW18528   2.904   7.343  10.950  0.3266  0.6121  0.1487
 5696SOL    HW118529   2.904   7.263  10.897 -0.0383  0.5604  0.2240
 5696SOL    HW218530   2.903   7.311  11.041  0.6430  0.7001  0.1818
 5697SOL     OW18531   4.426   7.893  11.476  0.0251  0.1968 -0.5861
 5697SOL    HW118532   4.361   7.925  11.413 -0.3117  0.3774 -0.1477
 5697SOL    HW218533   4.446   7.969  11.531 -2.1012 -0.7155  1.6157
 5698SOL     OW18534   7.561   7.447   9.577 -0.1392 -0.2086  0.0146
 5698SOL    HW118535   7.466   7.447   9.565 -0.4771  0.4356  2.2183
 5698SOL    HW218536   7.577   7.384   9.648  1.0677 -0.1515 -0.1752
 5699SOL     OW18537   0.526   2.620   2.324 -0.0203  0.3626 -0.0765
 5699SOL    HW118538   0.554   2.711   2.331  0.5099  0.1958 -0.0347
 5699SOL    HW218539   0.602   2.569   2.352 -0.0964 -0.1127 -0.7182
 5700SOL     OW18540   5.804   5.902   1.165 -0.5537 -0.2331 -0.2367
 5700SOL    HW118541   5.774   5.968   1.228 -1.9001 -1.5945  0.6247
 5700SOL    HW218542   5.882   5.863   1.206 -1.1875 -0.8332  0.4381
 5701SOL     OW18543   5.531   6.124   1.921  0.1486 -0.1519  0.5291
 5701SOL    HW118544   5.546   6.068   1.845  1.6500 -1.1101  1.4777
 5701SOL    HW218545   5.607   6.183   1.923 -0.7254  1.0295  0.3392
 5702SOL     OW18546   5.587   6.608   1.498  0.3374 -0.0598 -0.4742
 5702SOL    HW118547   5.672   6.647   1.478  0.8072 -0.0307  1.3877
 5702SOL    HW218548   5.535   6.682   1.531 -0.1227 -0.2450 -0.7788
 5703SOL     OW18549   3.990   6.069   6.558 -0.3199 -0.1863  0.1092
 5703SOL    HW118550   3.972   5.981   6.589 -0.8864 -0.8786 -1.9796
 5703SOL    HW218551   4.073   6.062   6.511 -0.2710  0.4339  0.0979
 5704SOL     OW18552   2.371   7.170  11.047  0.5010 -0.0502 -0.1875
 5704SOL    HW118553   2.429   7.206  11.114  0.0835 -0.5692  0.4643
 5704SOL    HW218554   2.289   7.152  11.094  1.1599 -3.3034 -0.0671
 5705SOL     OW18555   7.105   2.857   0.323  0.2705 -0.4658 -0.1286
 5705SOL    HW118556   7.192   2.881   0.291  0.1469 -0.3805 -0.4041
 5705SOL    HW218557   7.108   2.874   0.417  0.1093  0.8715 -0.3521
 5706SOL     OW18558   5.831   5.604  12.462 -0.3225  0.4422  0.4987
 5706SOL    HW118559   5.778   5.525  12.450 -1.2817  0.5735  3.3121
 5706SOL    HW218560   5.909   5.574  12.509  0.1419  0.9201  0.0487
 5707SOL     OW18561   6.321   7.979   1.839 -0.5921  0.1661  0.4409
 5707SOL    HW118562   6.289   7.896   1.874  0.3095 -0.6482 -0.6102
 5707SOL    HW218563   6.256   8.004   1.773 -0.9885  0.4364  0.9231
 5708SOL     OW18564   4.696   2.503   5.065  0.5619  0.4926 -0.0825
 5708SOL    HW118565   4.732   2.439   5.126  0.0874 -0.0516 -0.3626
 5708SOL    HW218566   4.603   2.482   5.059  0.3457  1.3637  0.0033
 5709SOL     OW18567   0.464   2.309  10.853  0.0133  0.4621  0.0408
 5709SOL    HW118568   0.531   2.273  10.911 -1.2409  0.2721  1.4059
 5709SOL    HW218569   0.486   2.401  10.844  0.5834  0.3531  0.2885
 5710SOL     OW18570   0.867   7.282   1.316  0.2374  0.5108  0.2055
 5710SOL    HW118571   0.933   7.244   1.258  1.0326  1.3513  0.5371
 5710SOL    HW218572   0.917   7.325   1.385 -0.6982 -1.0500  1.9297
 5711SOL     OW18573   0.622   2.933   3.177 -0.9278 -0.3005 -0.6251
 5711SOL    HW118574   0.650   2.899   3.092 -0.5740  0.3039 -0.7613
 5711SOL    HW218575   0.650   2.867   3.240 -0.7640 -0.5297 -0.9350
 5712SOL     OW18576   4.764   1.287   7.687 -0.1915 -0.4604 -0.2262
 5712SOL    HW118577   4.730   1.312   7.601  1.5710  1.6598 -0.3899
 5712SOL    HW218578   4.729   1.354   7.746  1.1175 -0.0433  0.1157
 5713SOL     OW18579   4.648   0.615   3.920 -0.1838 -0.3971 -0.0880
 5713SOL    HW118580   4.675   0.695   3.875 -1.4156 -0.0998 -0.3445
 5713SOL    HW218581   4.693   0.545   3.873 -1.5656 -0.1159 -1.9719
 5714SOL     OW18582   1.228   6.271   8.865  0.3537  0.2498 -0.4546
 5714SOL    HW118583   1.219   6.247   8.957  1.4177 -0.1037 -0.4265
 5714SOL    HW218584   1.171   6.346   8.854  1.0481  0.9915  0.7739
 5715SOL     OW18585   7.710   7.519   8.320 -0.4232 -0.3393  0.0140
 5715SOL    HW118586   7.796   7.478   8.326 -0.4488 -0.3878  0.0375
 5715SOL    HW218587   7.718   7.578   8.245  0.1051  0.7774  0.9137
 5716SOL     OW18588   3.150   5.309   9.837 -0.0517  0.1035  0.3264
 5716SOL    HW118589   3.179   5.383   9.891  0.3653  0.2565 -0.0934
 5716SOL    HW218590   3.207   5.313   9.760 -1.0022  0.2195 -0.3890
 5717SOL     OW18591   4.085   3.625   9.317 -0.1026 -0.1072 -0.7106
 5717SOL    HW118592   4.034   3.576   9.382  0.9353 -0.7109 -0.3215
 5717SOL    HW218593   4.053   3.714   9.324  0.1310 -0.1085  0.8205
 5718SOL     OW18594   7.815   3.923  10.242 -0.3947  0.3844  0.5631
 5718SOL    HW118595   7.903   3.911  10.279 -0.4081  0.7419  0.7196
 5718SOL    HW218596   7.762   3.855  10.283  0.1898 -0.9545 -0.8319
 5719SOL     OW18597   1.696   0.764   3.680 -0.7443  0.3977 -0.0727
 5719SOL    HW118598   1.666   0.851   3.705 -2.2097 -0.2585  0.5859
 5719SOL    HW218599   1.653   0.705   3.742 -0.3139 -0.8591 -0.9244
 5720SOL     OW18600   5.464   6.216   5.368 -0.6215 -0.2793  0.3460
 5720SOL    HW118601   5.375   6.248   5.351 -0.3941  0.0715 -0.2166
 5720SOL    HW218602   5.484   6.161   5.292 -0.2643 -0.1511  0.3466
 5721SOL     OW18603   3.430   4.773   0.183 -0.9295 -0.2657  0.0291
 5721SOL    HW118604   3.439   4.772   0.088 -3.1209  2.5961 -0.3416
 5721SOL    HW218605   3.511   4.813   0.214 -0.9493  0.4568 -0.8102
 5722SOL     OW18606   3.547   7.111   6.746 -0.3861 -0.5008  0.0713
 5722SOL    HW118607   3.535   7.177   6.814 -0.3310  0.7443 -1.0906
 5722SOL    HW218608   3.502   7.034   6.779  1.4831 -0.6712  2.5136
 5723SOL     OW18609   7.217   0.972   9.279 -0.4494 -0.4917  0.8744
 5723SOL    HW118610   7.181   0.987   9.366 -0.8614 -1.2519  0.8370
 5723SOL    HW218611   7.306   1.008   9.284 -0.7347  0.1840  1.3615
 5724SOL     OW18612   0.045   5.454   4.900  0.0234 -0.6103  0.5734
 5724SOL    HW118613   0.134   5.484   4.883  0.4957 -2.9196 -1.6440
 5724SOL    HW218614   0.043   5.364   4.868 -2.8221 -1.0375  1.6048
 5725SOL     OW18615   0.366   6.144  10.218 -0.0041 -0.0553 -0.2819
 5725SOL    HW118616   0.285   6.173  10.261  1.1853 -0.6409  2.6137
 5725SOL    HW218617   0.371   6.197  10.139 -0.7486  3.6576  1.8924
 5726SOL     OW18618   7.238   7.882   4.695  0.1156  0.1033  0.5141
 5726SOL    HW118619   7.283   7.807   4.657  0.6039 -0.3702  1.9811
 5726SOL    HW218620   7.208   7.932   4.619  1.0735 -0.7846 -0.4907
 5727SOL     OW18621   1.576   6.221   5.265 -0.7738 -0.2717 -0.5407
 5727SOL    HW118622   1.531   6.288   5.213  0.1574 -0.2988 -1.4168
 5727SOL    HW218623   1.669   6.237   5.249 -0.4921 -0.7439  0.5648
 5728SOL     OW18624   4.249   3.185   4.028 -0.1923 -0.0170  0.3373
 5728SOL    HW118625   4.209   3.123   4.090  0.3628 -0.6800  0.0390
 5728SOL    HW218626   4.176   3.211   3.971 -0.1733 -1.4167 -0.3636
 5729SOL     OW18627   5.120   5.450   5.675  0.0808 -0.2909  0.0955
 5729SOL    HW118628   5.169   5.384   5.625 -0.3943 -0.8116  0.3156
 5729SOL    HW218629   5.148   5.436   5.766 -0.3448 -0.4692  0.1974
 5730SOL     OW18630   5.169   6.977   2.715 -0.5326 -0.2386 -0.2763
 5730SOL    HW118631   5.176   7.056   2.661 -2.9063 -0.7340 -1.4162
 5730SOL    HW218632   5.078   6.976   2.743  0.4186 -0.3608  3.3122
 5731SOL     OW18633   5.844   6.767   1.422  0.0970 -0.2020  0.7014
 5731SOL    HW118634   5.910   6.702   1.444  2.3157  1.5504 -0.3708
 5731SOL    HW218635   5.838   6.764   1.327 -1.3468 -0.2779  0.7748
 5732SOL     OW18636   5.029   2.599   9.772 -0.7714  0.1750 -0.0168
 5732SOL    HW118637   5.002   2.618   9.862 -0.0286 -0.2706  0.3119
 5732SOL    HW218638   5.125   2.603   9.775 -0.7152 -0.5818 -0.6265
 5733SOL     OW18639   0.481   5.797   5.328  0.1954  0.0936  0.3981
 5733SOL    HW118640   0.411   5.735   5.348 -0.2885 -0.0768 -1.5874
 5733SOL    HW218641   0.483   5.799   5.232  1.7488  1.4190  0.4365
 5734SOL     OW18642   6.469   5.668  11.051  0.0769  0.2816 -0.2210
 5734SOL    HW118643   6.553   5.712  11.065 -0.8540  1.6966  1.3244
 5734SOL    HW218644   6.434   5.707  10.971 -0.0381  1.2464  0.2872
 5735SOL     OW18645   4.595   4.404  10.412  0.5061  0.3495  0.2942
 5735SOL    HW118646   4.537   4.475  10.384 -0.9261 -0.9710 -0.2274
 5735SOL    HW218647   4.634   4.436  10.494  1.2005  2.3838 -0.7605
 5736SOL     OW18648   4.957   5.732   6.699  0.3032 -0.1610 -0.3035
 5736SOL    HW118649   4.999   5.776   6.773  3.2825  0.3297 -2.1254
 5736SOL    HW218650   4.994   5.643   6.700 -0.5400 -0.5260 -0.5681
 5737SOL     OW18651   7.097   4.252   4.318 -0.2905  0.4640  0.2185
 5737SOL    HW118652   7.123   4.236   4.227 -1.4770  2.8087 -0.6203
 5737SOL    HW218653   7.051   4.173   4.344  1.5957 -0.9803 -0.5591
 5738SOL     OW18654   0.332   2.709  10.474  0.2146  0.1669  0.2175
 5738SOL    HW118655   0.307   2.640  10.536  0.5969  0.7938  1.0922
 5738SOL    HW218656   0.381   2.664  10.406 -0.7114 -0.6273  0.0512
 5739SOL     OW18657   0.842   0.238  12.266 -0.5023 -0.1320  0.6971
 5739SOL    HW118658   0.754   0.206  12.247 -0.5834  0.3415  0.2230
 5739SOL    HW218659   0.850   0.317  12.212  1.3813 -1.8765 -1.8248
 5740SOL     OW18660   6.946   4.919   2.085  0.8474  0.8381  0.6347
 5740SOL    HW118661   6.898   5.001   2.095 -1.0563 -0.1002 -0.2115
 5740SOL    HW218662   6.949   4.881   2.173  0.8475  1.3314  0.8485
 5741SOL     OW18663   1.360   7.279  11.458  0.7052 -0.2357 -0.2241
 5741SOL    HW118664   1.343   7.345  11.525  3.5535  0.1130  0.2873
 5741SOL    HW218665   1.278   7.272  11.409 -1.4369 -0.3420  3.1023
 5742SOL     OW18666   0.823   7.161   3.032 -0.7230 -0.0275  0.7004
 5742SOL    HW118667   0.816   7.241   2.979 -0.6900  0.5459  1.5424
 5742SOL    HW218668   0.852   7.192   3.118 -1.9187 -0.7900  1.4130
 5743SOL     OW18669   4.621   1.970   5.104 -0.4003 -0.4413 -0.0656
 5743SOL    HW118670   4.562   2.029   5.151 -1.1412 -1.8734  0.8534
 5743SOL    HW218671   4.674   2.028   5.049 -1.2268  1.0535  0.6662
 5744SOL     OW18672   1.571   5.363   7.371 -0.4859 -0.6641 -0.4260
 5744SOL    HW118673   1.659   5.352   7.334 -0.1883  0.3701 -0.0584
 5744SOL    HW218674   1.539   5.443   7.331  0.6394  1.6781  2.9530
 5745SOL     OW18675   4.698   6.870   2.336 -0.4150 -0.0663  0.2553
 5745SOL    HW118676   4.756   6.817   2.390  0.4943  0.4373 -0.1959
 5745SOL    HW218677   4.676   6.814   2.261  1.9105  0.7099 -1.0939
 5746SOL     OW18678   0.066   2.982   1.985  0.3306  0.4187  0.2729
 5746SOL    HW118679   0.051   2.962   2.077  1.8183 -1.1335  0.2431
 5746SOL    HW218680  -0.002   2.934   1.938  0.6418 -0.2559  0.4970
 5747SOL     OW18681   5.027   1.350   6.811  0.2606  0.6427  0.1179
 5747SOL    HW118682   4.980   1.417   6.861  0.3684  0.5710  0.3136
 5747SOL    HW218683   5.004   1.369   6.720 -1.2081 -0.1870  0.2876
 5748SOL     OW18684   0.050   1.750   7.776  0.1250 -0.7172  0.1468
 5748SOL    HW118685   0.109   1.675   7.766 -0.8602 -1.4107 -0.6635
 5748SOL    HW218686   0.056   1.772   7.868  1.3836 -0.9887  0.1612
 5749SOL     OW18687   6.414   5.517   9.420 -1.0070 -0.2803 -0.0189
 5749SOL    HW118688   6.360   5.454   9.467 -1.8791 -0.0139 -0.6348
 5749SOL    HW218689   6.444   5.470   9.342  2.1196 -1.3958  1.7247
 5750SOL     OW18690   3.076   6.822   7.956 -0.0346  0.4120  0.2061
 5750SOL    HW118691   3.000   6.845   8.009  0.5112  2.7489  0.0913
 5750SOL    HW218692   3.145   6.804   8.019 -0.4885 -1.1685  0.2999
 5751SOL     OW18693   6.594   3.734   5.670  0.2746 -0.5152 -0.2692
 5751SOL    HW118694   6.564   3.670   5.735  0.9016 -1.0750 -0.5212
 5751SOL    HW218695   6.689   3.728   5.674  0.3168 -0.4316 -1.1225
 5752SOL     OW18696   0.690   1.441   3.195  0.0541  0.3985  0.4979
 5752SOL    HW118697   0.779   1.425   3.226 -0.5255 -0.8175  1.6568
 5752SOL    HW218698   0.646   1.482   3.269 -0.2112  1.5313 -0.2708
 5753SOL     OW18699   5.712   4.164   6.432 -0.2716 -0.5825 -0.2573
 5753SOL    HW118700   5.782   4.111   6.470  0.1061 -0.6638 -1.0665
 5753SOL    HW218701   5.632   4.122   6.463  0.0163 -1.9496 -1.3030
 5754SOL     OW18702   3.099   1.075  11.135  0.0343  0.0974 -0.4019
 5754SOL    HW118703   3.140   1.126  11.205 -0.4430  0.2130 -0.2028
 5754SOL    HW218704   3.012   1.054  11.168  0.7700 -2.2562  0.2137
 5755SOL     OW18705   5.763   4.901   3.378 -0.4710  0.0610  0.4863
 5755SOL    HW118706   5.773   4.883   3.284 -0.4920  0.8074  0.3310
 5755SOL    HW218707   5.852   4.912   3.410 -0.4967  0.6544  0.3697
 5756SOL     OW18708   5.099   5.091   2.767  0.4460  0.0264 -0.0488
 5756SOL    HW118709   5.169   5.118   2.707  0.2194 -0.1427 -0.3953
 5756SOL    HW218710   5.093   5.162   2.830  0.1700  0.5777 -0.6826
 5757SOL     OW18711   1.030   0.014   6.659 -0.5746  0.4371  0.4759
 5757SOL    HW118712   0.974   0.061   6.721  0.8350  1.6396  0.8991
 5757SOL    HW218713   1.025   0.066   6.579  1.3696  1.6831  1.0901
 5758SOL     OW18714   2.544   5.333  11.201  0.0859 -0.3595 -0.1982
 5758SOL    HW118715   2.536   5.239  11.215 -0.0786 -0.1324  1.4931
 5758SOL    HW218716   2.630   5.355  11.237 -0.4685  0.3254  0.7755
 5759SOL     OW18717   6.191   6.491   1.157 -0.0053  0.3075 -0.2234
 5759SOL    HW118718   6.185   6.521   1.067 -0.7598 -0.6042 -0.4903
 5759SOL    HW218719   6.241   6.559   1.202  0.5485  0.6746 -1.3684
 5760SOL     OW18720   4.080   0.012   0.486  0.2654  0.3249 -0.3182
 5760SOL    HW118721   3.993   0.007   0.526 -0.1226  0.1908 -1.1511
 5760SOL    HW218722   4.141   0.000   0.559 -0.3785 -4.6823 -0.2531
 5761SOL     OW18723   1.320   7.089   0.403 -0.2603  0.1553 -0.2071
 5761SOL    HW118724   1.321   6.994   0.400 -0.0733  0.1801 -2.7133
 5761SOL    HW218725   1.229   7.113   0.387 -0.0968  0.3764 -0.8751
 5762SOL     OW18726   3.862   4.379   6.377 -0.0281  0.4386 -0.1413
 5762SOL    HW118727   3.835   4.447   6.438 -0.5318 -0.6680  0.9040
 5762SOL    HW218728   3.957   4.379   6.381  0.0491  1.8733 -1.0750
 5763SOL     OW18729   1.349   6.834   3.613 -0.0664  0.7465  0.6277
 5763SOL    HW118730   1.418   6.791   3.662 -1.4539 -2.9141 -0.3146
 5763SOL    HW218731   1.280   6.850   3.677 -0.0328  0.4035  0.7483
 5764SOL     OW18732   7.188   5.494  10.469  0.0420  0.5747 -0.1806
 5764SOL    HW118733   7.123   5.520  10.404 -0.1129  2.5790  0.7009
 5764SOL    HW218734   7.137   5.477  10.549  0.4506  0.6216  0.0945
 5765SOL     OW18735   3.949   2.331   0.615  0.2811  0.2361  0.2438
 5765SOL    HW118736   4.007   2.292   0.550  1.9682 -2.0829  2.8807
 5765SOL    HW218737   4.006   2.348   0.690 -1.7660  1.6147  1.5880
 5766SOL     OW18738   2.040   7.832   1.148 -0.4323  0.2958 -0.2861
 5766SOL    HW118739   2.080   7.918   1.135 -1.3185  0.9521  1.0363
 5766SOL    HW218740   1.952   7.841   1.113 -0.4099 -0.1845 -0.4641
 5767SOL     OW18741   2.486   5.499   3.398  0.1031  0.2063 -0.1752
 5767SOL    HW118742   2.579   5.504   3.422  0.2823  0.8551 -0.9518
 5767SOL    HW218743   2.484   5.519   3.304 -1.0186  2.4078  0.2500
 5768SOL     OW18744   5.351   5.473  11.873  0.5017 -0.0954 -0.0861
 5768SOL    HW118745   5.445   5.485  11.864  0.6122 -0.4445  0.5575
 5768SOL    HW218746   5.340   5.380  11.894 -0.0472 -0.2426 -0.9271
 5769SOL     OW18747   7.937   7.321   7.940  0.0205 -0.4606  0.2969
 5769SOL    HW118748   8.005   7.336   7.874  0.3470 -0.6274  0.5975
 5769SOL    HW218749   7.872   7.268   7.894 -0.1057  0.0390 -0.1132
 5770SOL     OW18750   7.678   2.924   3.000  0.3675 -0.4231  0.3640
 5770SOL    HW118751   7.751   2.864   2.990  0.7568  0.0876  0.1023
 5770SOL    HW218752   7.600   2.871   2.985  0.7287 -0.7320 -0.4215
 5771SOL     OW18753   5.801   3.014   2.849 -0.0776  0.2243 -0.1683
 5771SOL    HW118754   5.865   2.951   2.816  0.6741  0.9677 -0.1832
 5771SOL    HW218755   5.762   3.052   2.770 -0.1499  0.1556 -0.1655
 5772SOL     OW18756   4.335   0.771   5.863  0.1263  0.5153 -0.3227
 5772SOL    HW118757   4.322   0.843   5.802 -2.7860  0.3775 -0.0079
 5772SOL    HW218758   4.258   0.715   5.850 -0.1305 -0.0004  2.7629
 5773SOL     OW18759   5.803   0.085   8.908  0.0175  0.0630  0.1486
 5773SOL    HW118760   5.878   0.045   8.952  0.7511  0.3119 -0.8205
 5773SOL    HW218761   5.835   0.104   8.820 -0.4370  2.3747  0.4206
 5774SOL     OW18762   0.627   0.773   0.428 -0.2288  0.1044 -0.2026
 5774SOL    HW118763   0.716   0.802   0.449  0.0585 -2.0932  1.9393
 5774SOL    HW218764   0.604   0.713   0.498 -2.5425 -1.1816 -1.9393
 5775SOL     OW18765   2.391   5.389   4.876  0.1607  0.1844 -0.2319
 5775SOL    HW118766   2.441   5.308   4.868  0.7852  0.5102  0.3240
 5775SOL    HW218767   2.397   5.429   4.789 -1.6771 -1.2157 -1.0733
 5776SOL     OW18768   5.853   0.600   7.904 -0.1816 -0.1693 -0.3510
 5776SOL    HW118769   5.948   0.590   7.909  0.0383  0.9253 -1.8584
 5776SOL    HW218770   5.826   0.624   7.993  0.9706 -0.3181  0.0432
 5777SOL     OW18771   2.441   3.299   8.991  0.6909  0.2728  0.3984
 5777SOL    HW118772   2.364   3.337   9.034  1.6060  1.5757  0.9535
 5777SOL    HW218773   2.436   3.205   9.012 -0.2273  0.4853  1.2218
 5778SOL     OW18774   4.483   2.926   9.992  0.6166 -0.6342 -0.6162
 5778SOL    HW118775   4.555   2.866  10.008  0.7566 -0.0579  1.0713
 5778SOL    HW218776   4.422   2.910  10.064  1.0655  1.8136  0.3988
 5779SOL     OW18777   6.094   6.351   9.419 -0.0189  0.6743  0.6112
 5779SOL    HW118778   6.171   6.306   9.455 -0.0104 -0.4647 -0.7151
 5779SOL    HW218779   6.084   6.313   9.331 -1.2717  1.8139  0.2331
 5780SOL     OW18780   3.568   5.194   8.540  0.6309  0.0411 -0.1538
 5780SOL    HW118781   3.635   5.259   8.522 -0.4790  1.1650 -0.3166
 5780SOL    HW218782   3.616   5.111   8.547  1.9937  0.7863 -0.4654
 5781SOL     OW18783   2.850   1.218  10.413  0.0691 -0.1404 -0.0960
 5781SOL    HW118784   2.792   1.294  10.411 -1.7502 -1.3397  2.2177
 5781SOL    HW218785   2.930   1.250  10.454 -0.1220  0.8172 -0.4416
 5782SOL     OW18786   7.076   4.057   9.409  0.0570  0.4447  0.6009
 5782SOL    HW118787   6.984   4.028   9.409 -0.3008  1.5283 -0.4657
 5782SOL    HW218788   7.087   4.099   9.495 -0.7319  1.1627  0.3670
 5783SOL     OW18789   2.865   0.969   6.595  0.4920 -0.0100  0.3333
 5783SOL    HW118790   2.809   0.912   6.647  0.1270  1.0589  1.1337
 5783SOL    HW218791   2.866   1.053   6.641  1.5459  0.4560 -0.4627
 5784SOL     OW18792   1.191   5.580   9.365  0.5058  0.6414 -0.0531
 5784SOL    HW118793   1.243   5.634   9.425  1.3736  0.9262 -1.0306
 5784SOL    HW218794   1.236   5.587   9.281 -0.4745 -0.0484 -0.6629
 5785SOL     OW18795   7.572   3.002   5.503 -0.5853  0.0956 -0.3325
 5785SOL    HW118796   7.645   2.946   5.529  0.7977  2.1647  0.4901
 5785SOL    HW218797   7.578   3.005   5.407  1.4962  1.4867 -0.2346
 5786SOL     OW18798   4.879   4.593   7.038  0.3064 -0.0813  0.3065
 5786SOL    HW118799   4.795   4.548   7.052 -0.1391  0.8341  0.6702
 5786SOL    HW218800   4.901   4.629   7.123  0.9282 -0.0615  0.1401
 5787SOL     OW18801   0.913   6.540   6.389 -0.1238 -1.0758 -0.3559
 5787SOL    HW118802   0.838   6.594   6.414  0.1796 -0.3521 -0.9650
 5787SOL    HW218803   0.888   6.502   6.305 -0.6310 -2.4936  0.4049
 5788SOL     OW18804   4.872   4.496   8.454 -0.1885 -0.0414 -0.0708
 5788SOL    HW118805   4.861   4.574   8.508 -0.0969 -1.5555  2.2916
 5788SOL    HW218806   4.822   4.428   8.499  0.5944 -1.6323 -1.4549
 5789SOL     OW18807   1.673   0.528  10.639 -0.2429  0.4146 -0.3601
 5789SOL    HW118808   1.673   0.623  10.631  0.1938  0.5314  0.8134
 5789SOL    HW218809   1.731   0.498  10.569 -1.9591  0.8522 -2.0339
 5790SOL     OW18810   7.328   2.596  12.207 -0.4733 -0.0413 -0.0654
 5790SOL    HW118811   7.270   2.538  12.256 -2.2180  0.8919 -0.9254
 5790SOL    HW218812   7.317   2.682  12.249  2.8031 -0.3714  1.8219
 5791SOL     OW18813   0.517   3.703   9.166  0.5588  0.3059  0.4080
 5791SOL    HW118814   0.508   3.693   9.261  1.2518  1.3792  0.6031
 5791SOL    HW218815   0.509   3.614   9.132  0.5178 -0.1231  1.4907
 5792SOL     OW18816   6.607   5.577   8.954  0.4179  0.1964  0.3495
 5792SOL    HW118817   6.675   5.584   9.021  2.3073  0.3779 -1.4755
 5792SOL    HW218818   6.593   5.483   8.944  0.9368  0.1262  0.2442
 5793SOL     OW18819   6.657   6.539   6.343  0.1892  0.6957  0.0053
 5793SOL    HW118820   6.641   6.604   6.275  0.5431  2.2189  1.3223
 5793SOL    HW218821   6.571   6.501   6.360  0.2981 -0.7146 -2.1896
 5794SOL     OW18822   0.987   3.178  10.615  0.6615  0.1951  0.1580
 5794SOL    HW118823   0.972   3.245  10.682 -2.1141 -2.5395  2.5890
 5794SOL    HW218824   1.016   3.101  10.664  1.3105 -1.1820 -2.1993
 5795SOL     OW18825   2.420   5.083  11.316  0.1876  0.6968 -0.1648
 5795SOL    HW118826   2.364   5.015  11.278  0.5453 -1.0049  2.0779
 5795SOL    HW218827   2.369   5.116  11.391  0.6838  1.7767 -0.2892
 5796SOL     OW18828   7.397   3.468  11.975 -0.1467 -0.3276  0.5946
 5796SOL    HW118829   7.364   3.382  11.947 -0.3425  0.4134 -1.6332
 5796SOL    HW218830   7.490   3.466  11.951  0.0290 -0.1826  1.2523
 5797SOL     OW18831   2.614   1.406   2.349 -0.2373  0.4239  0.4248
 5797SOL    HW118832   2.626   1.318   2.313 -0.2355  0.6279 -0.0712
 5797SOL    HW218833   2.702   1.431   2.379  0.0093  0.7144 -0.4914
 5798SOL     OW18834   5.113   3.979   5.840 -0.4033 -0.2881 -0.0355
 5798SOL    HW118835   5.147   3.955   5.926  2.2199 -1.1090 -1.2093
 5798SOL    HW218836   5.072   3.899   5.807  0.9044 -0.7713 -0.5546
 5799SOL     OW18837   1.647   0.370   5.473 -0.0511 -0.2199  0.4802
 5799SOL    HW118838   1.737   0.404   5.466 -0.1853  0.2518  0.9485
 5799SOL    HW218839   1.656   0.276   5.456  0.8559 -0.5493  2.4283
 5800SOL     OW18840   2.377   5.967   0.160 -0.2175  0.5351 -0.2676
 5800SOL    HW118841   2.384   5.873   0.181  0.8081  0.2682 -1.6436
 5800SOL    HW218842   2.291   5.976   0.120  0.8699 -0.5181 -3.1004
 5801SOL     OW18843   4.368   5.880   7.689 -0.3606 -0.1591 -0.4247
 5801SOL    HW118844   4.418   5.961   7.701 -0.8013  0.0565  0.0126
 5801SOL    HW218845   4.422   5.812   7.729  0.3417 -0.2018 -1.4272
 5802SOL     OW18846   0.037   7.726   6.761 -0.6174 -0.4979  0.2468
 5802SOL    HW118847  -0.011   7.684   6.689 -0.1450  0.1093 -0.4368
 5802SOL    HW218848   0.058   7.813   6.728 -0.0544 -0.3467  0.9848
 5803SOL     OW18849   4.129   0.977  10.574  0.0503 -0.1508  0.6406
 5803SOL    HW118850   4.071   1.022  10.634  0.8330  0.5564  0.8907
 5803SOL    HW218851   4.192   0.931  10.630  1.0755  0.8950  0.3956
 5804SOL     OW18852   4.295   5.919  10.935 -0.2459  0.0355  0.1892
 5804SOL    HW118853   4.263   6.008  10.943 -1.3832 -0.4918  1.9656
 5804SOL    HW218854   4.308   5.889  11.025 -1.5968 -2.1508 -0.2641
 5805SOL     OW18855   3.014   6.525   8.965  0.4847 -0.1979  0.8202
 5805SOL    HW118856   2.972   6.596   8.917 -0.0189  0.3764  2.0476
 5805SOL    HW218857   3.084   6.567   9.015  1.6991 -0.9496 -0.1936
 5806SOL     OW18858   1.205   3.716   2.122  0.7281 -0.0355  0.0426
 5806SOL    HW118859   1.159   3.796   2.148  1.2604  0.3278 -0.1026
 5806SOL    HW218860   1.258   3.693   2.199  1.1356  0.1710 -0.1743
 5807SOL     OW18861   3.017   3.220  10.504  0.6775 -0.6375  0.4315
 5807SOL    HW118862   3.036   3.188  10.592  2.9754 -2.6350 -0.6575
 5807SOL    HW218863   3.094   3.271  10.479 -0.8605  1.7915  0.2882
 5808SOL     OW18864   7.319   0.372   7.919  0.6732 -0.4960 -0.5035
 5808SOL    HW118865   7.408   0.345   7.898  0.9336 -1.1847  1.3144
 5808SOL    HW218866   7.280   0.297   7.963 -0.8854 -0.2595 -1.3883
 5809SOL     OW18867   5.303   5.702   1.143  0.2627  0.6638  0.2793
 5809SOL    HW118868   5.248   5.780   1.156  1.8524  1.6578  1.3459
 5809SOL    HW218869   5.367   5.705   1.214  2.6759  0.4369 -1.7358
 5810SOL     OW18870   3.394   6.225   9.092 -0.3635  0.1363  0.7660
 5810SOL    HW118871   3.466   6.163   9.104 -0.2040 -0.1860 -1.4162
 5810SOL    HW218872   3.359   6.205   9.005 -0.4687  2.9177  0.0553
 5811SOL     OW18873   4.929   1.110   0.042 -0.0327  0.2018 -0.0214
 5811SOL    HW118874   4.987   1.136   0.114  0.5437  2.3757 -1.1940
 5811SOL    HW218875   4.841   1.129   0.074  0.0367 -0.8656  0.8745
 5812SOL     OW18876   7.590   4.605   4.231  0.0757  0.5471 -0.2519
 5812SOL    HW118877   7.647   4.681   4.226  0.1086  0.5088 -0.4677
 5812SOL    HW218878   7.502   4.641   4.223 -0.0450  0.7958  1.8071
 5813SOL     OW18879   7.138   7.283   6.272  0.0718  0.4370  0.3068
 5813SOL    HW118880   7.125   7.334   6.192 -0.5916  1.2984  0.9351
 5813SOL    HW218881   7.215   7.321   6.313  0.3741  0.0380  0.1147
 5814SOL     OW18882   3.077   0.365  10.049  0.0155  0.0950  0.1715
 5814SOL    HW118883   2.996   0.317  10.035 -0.4810  0.9961 -0.1429
 5814SOL    HW218884   3.057   0.425  10.122 -0.0284  1.2102 -0.7262
 5815SOL     OW18885   0.956   6.176   5.776  0.2860 -0.5339  0.3232
 5815SOL    HW118886   0.931   6.233   5.704  0.9033  0.0343  0.5429
 5815SOL    HW218887   0.939   6.228   5.855  0.7595 -0.6818  0.5312
 5816SOL     OW18888   6.744   7.350   2.238 -0.3549 -0.2648  0.3077
 5816SOL    HW118889   6.703   7.271   2.273 -1.3962 -0.6648 -1.6601
 5816SOL    HW218890   6.829   7.354   2.281 -1.0143 -1.4084  1.8370
 5817SOL     OW18891   7.642   3.416   7.805 -0.4057  0.3145  0.2361
 5817SOL    HW118892   7.651   3.404   7.899 -0.8480  0.0465  0.2487
 5817SOL    HW218893   7.688   3.342   7.767 -1.1468 -0.1724  0.2676
 5818SOL     OW18894   2.603   2.762   9.507 -0.7947  0.0009 -0.0179
 5818SOL    HW118895   2.575   2.839   9.457  1.8870  1.4010  0.4385
 5818SOL    HW218896   2.658   2.713   9.446 -2.6645 -1.7941 -0.3772
 5819SOL     OW18897   4.074   1.961   4.098  0.0230  0.1247  0.0063
 5819SOL    HW118898   4.021   1.962   4.177 -0.0736  0.1104 -0.0582
 5819SOL    HW218899   4.095   1.868   4.085  1.8324  0.3214  1.2123
 5820SOL     OW18900   0.582   6.153  11.189 -0.0267  0.0242 -0.0599
 5820SOL    HW118901   0.663   6.155  11.139 -0.1223 -1.0506 -0.2890
 5820SOL    HW218902   0.530   6.084  11.149 -0.9977  0.5807  0.1883
 5821SOL     OW18903   7.947   5.404   9.429 -0.0926 -0.0464  0.7023
 5821SOL    HW118904   8.038   5.378   9.417  0.4558  1.5361  1.1829
 5821SOL    HW218905   7.898   5.321   9.434  0.8611 -0.9335 -2.5928
 5822SOL     OW18906   5.837   1.624   1.474 -0.6752  0.1252  0.2396
 5822SOL    HW118907   5.812   1.553   1.415  0.3664 -0.2462  0.2232
 5822SOL    HW218908   5.917   1.659   1.437 -1.8661  2.2371 -0.5170
 5823SOL     OW18909   3.850   7.420   9.538 -0.7312 -0.4869 -0.1943
 5823SOL    HW118910   3.768   7.378   9.510 -0.5067 -1.3008  0.3623
 5823SOL    HW218911   3.908   7.411   9.462 -0.7541 -1.0059 -0.1561
 5824SOL     OW18912   3.346   1.368   2.675  0.6782 -0.2666  0.3091
 5824SOL    HW118913   3.353   1.411   2.590  1.7912  0.2426  0.6417
 5824SOL    HW218914   3.367   1.276   2.658 -4.8412 -1.6379 -1.0248
 5825SOL     OW18915   1.140   2.214   5.385 -0.6118  0.3248 -0.3585
 5825SOL    HW118916   1.195   2.291   5.396  0.1099 -0.2964  0.5007
 5825SOL    HW218917   1.201   2.144   5.362 -1.4626  0.3818 -3.2831
 5826SOL     OW18918   4.015   1.081   2.155 -0.0063  0.2626  0.1217
 5826SOL    HW118919   4.011   1.021   2.081  0.7249  0.5795 -0.1820
 5826SOL    HW218920   4.023   1.168   2.116  2.1108  0.3118  0.5367
 5827SOL     OW18921   1.245   5.678   4.512  0.0536 -0.0911 -0.2833
 5827SOL    HW118922   1.279   5.731   4.440  1.0510  0.5582  0.6396
 5827SOL    HW218923   1.305   5.694   4.584 -0.7996 -0.9063  0.6352
 5828SOL     OW18924   6.281   0.026   6.447 -0.0018  0.6520 -0.6571
 5828SOL    HW118925   6.192  -0.000   6.472  0.8851 -1.7509  0.2229
 5828SOL    HW218926   6.331   0.024   6.529  1.0284  1.3083 -1.2472
 5829SOL     OW18927   3.440   5.004   5.076 -0.3953  0.2262  0.3294
 5829SOL    HW118928   3.469   5.087   5.037  2.8450 -0.6529  0.5903
 5829SOL    HW218929   3.472   4.937   5.016 -0.8165 -0.9314  1.3540
 5830SOL     OW18930   7.575   5.164   7.575  0.0956  0.0002 -0.1272
 5830SOL    HW118931   7.537   5.209   7.499 -0.7978 -0.7480 -0.1434
 5830SOL    HW218932   7.615   5.085   7.538 -0.6979 -0.5770  0.2034
 5831SOL     OW18933   7.098   1.977   6.304  0.0135  0.2095 -0.1370
 5831SOL    HW118934   7.092   1.882   6.302 -0.2780  0.1261  1.8728
 5831SOL    HW218935   7.011   2.005   6.334  0.2966  1.0537 -0.0749
 5832SOL     OW18936   6.164   5.036   6.875  0.2023  0.3553 -0.5810
 5832SOL    HW118937   6.109   4.969   6.836  1.1333 -1.9181  1.7238
 5832SOL    HW218938   6.119   5.060   6.956  0.3531  1.8641 -0.9162
 5833SOL     OW18939   2.284   1.549   9.663  0.1239  0.1513 -0.0955
 5833SOL    HW118940   2.224   1.474   9.663  0.7726 -0.3671 -0.2064
 5833SOL    HW218941   2.330   1.544   9.579  1.6785 -0.5436  0.7614
 5834SOL     OW18942   0.420   7.020   7.180  0.4020  0.1975 -0.1194
 5834SOL    HW118943   0.391   6.984   7.263  1.2036 -0.8865 -0.2838
 5834SOL    HW218944   0.341   7.054   7.138 -0.4889 -1.8036 -0.1514
 5835SOL     OW18945   4.616   6.476   7.246  0.4257  0.0612 -0.5836
 5835SOL    HW118946   4.709   6.459   7.231  0.9056  0.8127  1.3182
 5835SOL    HW218947   4.599   6.443   7.334 -1.5781 -1.6971 -1.5289
 5836SOL     OW18948   5.133   3.565   7.138  0.2545 -0.5772  0.2073
 5836SOL    HW118949   5.096   3.477   7.142 -1.7608  0.2056  0.3423
 5836SOL    HW218950   5.058   3.623   7.154  1.7802  1.1405  1.6803
 5837SOL     OW18951   5.704   7.791   4.026  0.3869 -0.6660 -0.6049
 5837SOL    HW118952   5.637   7.730   4.057  1.2770 -2.2108 -1.5389
 5837SOL    HW218953   5.732   7.754   3.941  0.8291  1.1750 -1.3055
 5838SOL     OW18954   6.233   4.156   8.423 -0.1945 -0.6330 -0.3404
 5838SOL    HW118955   6.183   4.109   8.490  0.4700 -1.0602 -0.1353
 5838SOL    HW218956   6.179   4.151   8.345  0.2943 -2.6028 -0.5845
 5839SOL     OW18957   3.643   2.407   6.072  0.0365 -0.3103  0.2304
 5839SOL    HW118958   3.595   2.445   5.999  1.4856 -1.0447 -1.1784
 5839SOL    HW218959   3.701   2.477   6.102  0.3987 -0.4163 -0.2206
 5840SOL     OW18960   1.793   1.536  10.306  0.4261 -0.3547  0.4580
 5840SOL    HW118961   1.754   1.502  10.225  0.1103 -1.2637  0.9816
 5840SOL    HW218962   1.718   1.553  10.363  0.3946  2.8637 -0.3344
 5841SOL     OW18963   5.977   6.876  11.289 -0.0394 -0.1485 -0.4092
 5841SOL    HW118964   6.051   6.846  11.237  0.0303 -0.1898 -0.2864
 5841SOL    HW218965   5.995   6.845  11.378  0.6988  1.3506  0.0119
 5842SOL     OW18966   5.089   6.571   3.597  0.1857 -0.3870  0.0297
 5842SOL    HW118967   5.109   6.485   3.561 -0.4129  0.2447 -1.9516
 5842SOL    HW218968   5.060   6.553   3.687 -0.2012 -2.2741 -0.4208
 5843SOL     OW18969   7.204   2.797   1.838 -0.0149 -0.0099 -0.2991
 5843SOL    HW118970   7.219   2.711   1.877 -0.2711  0.5896  1.1970
 5843SOL    HW218971   7.112   2.796   1.811 -0.2436  0.0568  0.4542
 5844SOL     OW18972   7.285   7.714   9.321 -0.1962  0.6186 -0.0825
 5844SOL    HW118973   7.219   7.685   9.258 -1.0159 -3.0625  2.1393
 5844SOL    HW218974   7.368   7.685   9.284 -0.3601  0.8646 -0.6556
 5845SOL     OW18975   4.235   2.296   8.355  0.1219 -0.0272  0.2992
 5845SOL    HW118976   4.178   2.355   8.404  2.4912  1.2530  1.7170
 5845SOL    HW218977   4.177   2.255   8.290 -2.6000  0.2166  2.4070
 5846SOL     OW18978   7.026   4.291   0.897  0.0494  0.0050 -0.8393
 5846SOL    HW118979   7.010   4.384   0.878  1.5351  0.2244 -1.1833
 5846SOL    HW218980   6.950   4.246   0.861  0.6149  0.8336 -3.2992
 5847SOL     OW18981   0.712   7.366   3.381 -0.5069 -0.4142 -0.4884
 5847SOL    HW118982   0.797   7.402   3.408 -0.3041 -1.9629  1.1482
 5847SOL    HW218983   0.701   7.396   3.291  1.4376  0.4167 -0.5101
 5848SOL     OW18984   5.741   4.521   9.864  0.2549 -0.9536  0.1523
 5848SOL    HW118985   5.803   4.450   9.849  0.8458 -0.6192  0.9048
 5848SOL    HW218986   5.659   4.491   9.825  0.9637 -1.2857 -1.1193
 5849SOL     OW18987   1.712   0.158   0.871 -0.4639  0.2577  0.5468
 5849SOL    HW118988   1.620   0.180   0.878 -0.9862 -1.9368  1.2950
 5849SOL    HW218989   1.717   0.095   0.799 -0.2672 -2.6297  2.8763
 5850SOL     OW18990   6.030   1.714  11.986 -0.5219 -0.1370  0.5278
 5850SOL    HW118991   6.003   1.746  12.073  0.0642  0.8655  0.3601
 5850SOL    HW218992   5.972   1.759  11.925 -1.2909 -1.2537  0.4201
 5851SOL     OW18993   2.781   3.720   8.659 -0.4248  0.1005  0.3472
 5851SOL    HW118994   2.710   3.782   8.639 -1.3480 -0.6969  1.0421
 5851SOL    HW218995   2.850   3.743   8.597 -1.9550 -0.2200 -1.5947
 5852SOL     OW18996   5.749   0.796  11.454  0.1197 -0.2964  0.1073
 5852SOL    HW118997   5.770   0.823  11.364 -0.4285 -0.7879 -0.1735
 5852SOL    HW218998   5.788   0.864  11.509  0.7629 -0.1717 -0.4849
 5853SOL     OW18999   5.095   5.127   1.729  0.7101  0.5548  0.4594
 5853SOL    HW119000   5.012   5.102   1.687  0.7417 -0.4197  0.9482
 5853SOL    HW219001   5.146   5.167   1.658 -1.2208  3.8667  0.7547
 5854SOL     OW19002   4.220   0.714  10.247  0.7855  0.1962  0.1493
 5854SOL    HW119003   4.269   0.682  10.322  0.4658  0.3086  0.4049
 5854SOL    HW219004   4.183   0.635  10.207  1.1371  0.1138 -0.0238
 5855SOL     OW19005   1.746   2.585   4.265 -0.4554  0.5659  0.2377
 5855SOL    HW119006   1.796   2.664   4.247  0.9940 -0.4620 -0.4129
 5855SOL    HW219007   1.757   2.570   4.359 -1.1011  1.3451  0.4519
 5856SOL     OW19008   0.000   0.552   0.909 -0.5529 -0.7720  0.1956
 5856SOL    HW119009  -0.018   0.568   1.002  0.6738 -2.8107  0.8496
 5856SOL    HW219010   0.024   0.459   0.905 -3.7783 -1.6794 -2.6702
 5857SOL     OW19011   6.285   7.689   0.032 -0.5228 -0.2255  1.2410
 5857SOL    HW119012   6.366   7.727   0.065 -0.3029  1.0628 -0.6122
 5857SOL    HW219013   6.229   7.764   0.014 -0.6709 -0.7959 -1.0595
 5858SOL     OW19014   0.707   2.130   5.020 -0.0109 -0.3527 -0.0435
 5858SOL    HW119015   0.798   2.109   5.044  0.6817 -0.4907 -2.4960
 5858SOL    HW219016   0.669   2.046   4.995 -1.0846 -0.4015  1.5705
 5859SOL     OW19017   1.776   2.509  12.058 -0.3365 -0.4786 -0.2751
 5859SOL    HW119018   1.790   2.581  12.120 -0.8680 -1.3292  0.8767
 5859SOL    HW219019   1.685   2.517  12.030 -0.4655 -0.8250  0.0330
 5860SOL     OW19020   7.285   7.871   0.350 -0.1410 -0.6913  0.7785
 5860SOL    HW119021   7.241   7.899   0.270  0.7069 -1.9190 -0.1613
 5860SOL    HW219022   7.287   7.949   0.406 -0.0760  0.3992 -0.7021
 5861SOL     OW19023   7.301   2.981   3.711 -0.3840 -0.1264  0.3053
 5861SOL    HW119024   7.265   2.906   3.758 -1.8996  0.9932  1.0205
 5861SOL    HW219025   7.270   2.971   3.621  1.9439 -1.9025 -0.4084
 5862SOL     OW19026   7.654   0.641  11.269 -0.3028  0.1021  0.7952
 5862SOL    HW119027   7.652   0.620  11.175 -2.1585 -0.8030  0.9917
 5862SOL    HW219028   7.727   0.588  11.303 -2.2120 -2.9951  0.5165
 5863SOL     OW19029   5.285   0.333   5.677  0.2404  0.2911  0.7761
 5863SOL    HW119030   5.193   0.354   5.692 -0.1983 -0.1314 -1.0455
 5863SOL    HW219031   5.322   0.414   5.641 -0.3871 -0.5826 -2.0672
 5864SOL     OW19032   7.230   1.241   9.182  0.6222  0.7590 -0.1002
 5864SOL    HW119033   7.318   1.231   9.218  1.0494 -0.2573 -1.3418
 5864SOL    HW219034   7.183   1.163   9.213  0.7694  0.2743 -1.0537
 5865SOL     OW19035   2.251   4.901   7.304 -0.3303 -0.0804 -1.0031
 5865SOL    HW119036   2.251   4.828   7.367  1.0015 -0.4887 -1.4391
 5865SOL    HW219037   2.176   4.883   7.247 -1.1193 -0.0985 -0.0040
 5866SOL     OW19038   5.890   3.268   4.621  0.1099  0.2478  0.2696
 5866SOL    HW119039   5.907   3.192   4.676 -0.7484 -1.0633 -1.2147
 5866SOL    HW219040   5.818   3.314   4.665 -0.9945 -1.1281 -0.0511
 5867SOL     OW19041   1.110   3.130   9.914  0.1682  0.2896  0.2690
 5867SOL    HW119042   1.166   3.053   9.921 -0.1128  0.1558  1.2169
 5867SOL    HW219043   1.166   3.197   9.875 -0.3638 -1.1529 -3.3379
 5868SOL     OW19044   2.192   3.306  11.887  0.2433  0.3377  0.1250
 5868SOL    HW119045   2.263   3.249  11.917  0.8983 -0.1828 -2.1565
 5868SOL    HW219046   2.234   3.391  11.873 -0.6772  1.4322  3.2699
 5869SOL     OW19047   2.332   4.020   8.636  0.6225  0.0404 -0.5579
 5869SOL    HW119048   2.262   4.031   8.700  1.4512  0.3908  0.3001
 5869SOL    HW219049   2.328   4.100   8.583  0.1467 -0.1061 -0.7508
 5870SOL     OW19050   2.496   2.486   3.922  0.0600 -0.5551  0.1275
 5870SOL    HW119051   2.528   2.573   3.945 -0.5447 -0.0909 -0.7317
 5870SOL    HW219052   2.403   2.488   3.944 -0.2308 -0.5549 -1.0530
 5871SOL     OW19053   0.899   1.988  10.151 -0.5875  0.2008  0.6523
 5871SOL    HW119054   0.863   1.953  10.069  1.0735 -1.6651  0.6445
 5871SOL    HW219055   0.937   2.072  10.127 -1.0056  0.1381 -0.2701
 5872SOL     OW19056   2.740   0.002   8.503 -0.0213 -0.1205 -0.0828
 5872SOL    HW119057   2.712   0.076   8.557  1.6861  0.0374  0.6461
 5872SOL    HW219058   2.678   0.001   8.430 -0.1652  1.9553 -0.0485
 5873SOL     OW19059   5.188   0.988  10.702  0.7551 -0.4515  0.3419
 5873SOL    HW119060   5.188   0.916  10.639  1.1838 -0.1964  0.0454
 5873SOL    HW219061   5.248   1.053  10.664 -1.8648  1.3995 -0.9492
 5874SOL     OW19062   1.403   2.716   5.833 -0.0723  0.5491 -0.3644
 5874SOL    HW119063   1.442   2.723   5.746 -1.3230 -0.3717 -1.0305
 5874SOL    HW219064   1.466   2.758   5.891  2.5009 -1.8032 -1.1921
 5875SOL     OW19065   1.836   7.957   1.796  0.4484  0.0969  0.0117
 5875SOL    HW119066   1.761   7.926   1.847 -0.6580  0.5415 -1.3057
 5875SOL    HW219067   1.843   7.895   1.723 -0.2967  1.5324 -1.3239
 5876SOL     OW19068   6.872   7.355  10.090 -0.4375 -0.4431  0.0459
 5876SOL    HW119069   6.843   7.349   9.999 -2.5951  0.6258  0.6124
 5876SOL    HW219070   6.966   7.372  10.084 -0.6743  0.4438 -2.0020
 5877SOL     OW19071   0.180   1.525   3.194  0.3477  0.3497  0.5267
 5877SOL    HW119072   0.270   1.494   3.201  0.2800  0.0460  0.0414
 5877SOL    HW219073   0.168   1.545   3.101 -0.2535 -0.1130  0.4992
 5878SOL     OW19074   0.788   1.610  11.815 -0.0911  0.3791 -0.1275
 5878SOL    HW119075   0.860   1.548  11.822  1.1486  1.7821  0.1941
 5878SOL    HW219076   0.709   1.556  11.815  0.9729 -1.4300 -3.0795
 5879SOL     OW19077   5.051   1.773   1.638  0.1042  0.0573 -0.2055
 5879SOL    HW119078   5.053   1.719   1.558  0.3565  0.4923 -0.4937
 5879SOL    HW219079   4.980   1.736   1.690  1.0944 -1.3962  0.1900
 5880SOL     OW19080   5.842   5.858   0.134 -0.2442  0.0498  0.6499
 5880SOL    HW119081   5.804   5.788   0.082  1.2943 -0.9121  0.7804
 5880SOL    HW219082   5.908   5.816   0.188  0.0505  1.4513  1.4445
 5881SOL     OW19083   7.748   5.615   5.622  0.0354  0.2660  0.6218
 5881SOL    HW119084   7.737   5.525   5.592  2.8119  0.4496 -1.2533
 5881SOL    HW219085   7.744   5.609   5.717 -0.2401 -1.7607  0.5281
 5882SOL     OW19086   4.559   7.016   6.397 -1.2523 -0.6705 -0.3120
 5882SOL    HW119087   4.640   7.011   6.448 -1.3788 -3.1165 -0.2709
 5882SOL    HW219088   4.489   7.000   6.461 -1.7213  0.3882 -0.5372
 5883SOL     OW19089   2.072   2.032   6.720  0.1723  0.1533  0.5742
 5883SOL    HW119090   2.165   2.020   6.741  0.3611  1.0827  0.3245
 5883SOL    HW219091   2.073   2.080   6.636 -0.5106  0.8273  0.9409
 5884SOL     OW19092   3.886   4.961  11.004 -0.4501 -0.3315 -0.5853
 5884SOL    HW119093   3.894   4.998  10.916  0.1614  0.6982 -0.1114
 5884SOL    HW219094   3.931   4.877  10.999 -0.3914 -0.2610 -1.2521
 5885SOL     OW19095   4.230   6.205   8.044 -0.3479  0.7815 -0.1542
 5885SOL    HW119096   4.163   6.272   8.057 -0.2333  0.5926  1.6196
 5885SOL    HW219097   4.264   6.222   7.956 -2.0744  1.4398 -0.7375
 5886SOL     OW19098   5.766   2.150   1.468 -0.3606  0.1870  0.3315
 5886SOL    HW119099   5.712   2.205   1.523 -0.7940 -0.9554  1.0775
 5886SOL    HW219100   5.854   2.156   1.506 -0.2881  0.7911  0.0734
 5887SOL     OW19101   1.700   6.277   4.699 -0.9318  0.2638  0.2187
 5887SOL    HW119102   1.624   6.329   4.669 -1.5543 -0.6893  0.0947
 5887SOL    HW219103   1.703   6.292   4.793  0.3346  2.3639 -0.0725
 5888SOL     OW19104   4.422   0.147   7.743  0.4391  0.2774 -0.1046
 5888SOL    HW119105   4.349   0.091   7.770  1.4441 -1.6990 -1.2368
 5888SOL    HW219106   4.473   0.160   7.822 -1.1337  1.7635  0.7288
 5889SOL     OW19107   6.867   2.624   8.293  0.2808  0.0783 -0.4430
 5889SOL    HW119108   6.822   2.673   8.225 -1.3220  1.0521  1.2227
 5889SOL    HW219109   6.815   2.639   8.372  2.7713  0.0923  1.3116
 5890SOL     OW19110   1.445   5.284   4.535 -0.1997 -0.0760  0.2010
 5890SOL    HW119111   1.366   5.246   4.573 -0.8532  1.2862  0.2625
 5890SOL    HW219112   1.433   5.275   4.440 -0.8179  0.8378  0.1807
 5891SOL     OW19113   0.465   3.151   3.251  0.0304 -0.2379 -0.3771
 5891SOL    HW119114   0.511   3.067   3.257  1.1449  0.4215  1.0173
 5891SOL    HW219115   0.387   3.139   3.304  0.0111 -0.4893 -0.4575
 5892SOL     OW19116   0.974   7.835   0.549  0.0022  0.2219 -0.2621
 5892SOL    HW119117   0.919   7.903   0.589  1.9211  0.7702  1.6527
 5892SOL    HW219118   0.916   7.760   0.539 -1.7926  1.6208 -0.9875
 5893SOL     OW19119   6.214   5.633   5.736  0.3743  0.0109 -0.2316
 5893SOL    HW119120   6.265   5.557   5.707  0.6114 -0.3871  1.1951
 5893SOL    HW219121   6.149   5.598   5.797  0.3013  0.9176  0.2303
 5894SOL     OW19122   3.891   4.254   8.318 -0.4245 -0.1521 -0.1715
 5894SOL    HW119123   3.885   4.168   8.276 -0.9895  0.6476 -1.8118
 5894SOL    HW219124   3.804   4.292   8.307 -0.9599 -0.2682  2.7054
 5895SOL     OW19125   1.817   3.885   8.449 -0.0407 -0.1159 -0.4182
 5895SOL    HW119126   1.882   3.816   8.452 -0.4506 -0.5459 -1.0419
 5895SOL    HW219127   1.773   3.882   8.534  0.5053 -0.0653 -0.1352
 5896SOL     OW19128   0.189   7.438   5.235  0.7223 -0.0565  0.3591
 5896SOL    HW119129   0.101   7.474   5.223  0.9005  0.3012  0.0791
 5896SOL    HW219130   0.228   7.441   5.148  1.6687  1.5861  0.7794
 5897SOL     OW19131   6.892   0.510   4.162 -0.0487 -0.3441  1.1164
 5897SOL    HW119132   6.941   0.432   4.137  1.4642  0.4357  1.5317
 5897SOL    HW219133   6.942   0.582   4.123 -1.6327  0.4086  0.4072
 5898SOL     OW19134   6.018   3.263   0.532 -0.0892 -0.1409  0.1436
 5898SOL    HW119135   5.992   3.337   0.478 -0.2951  0.8190  1.5092
 5898SOL    HW219136   6.097   3.293   0.577  1.2722 -1.6458 -1.0846
 5899SOL     OW19137   2.990   2.854   4.276 -0.0078  0.3799 -0.6981
 5899SOL    HW119138   2.946   2.855   4.192 -1.2115  1.5998 -0.0924
 5899SOL    HW219139   2.929   2.895   4.336  1.2858  0.5856  0.5487
 5900SOL     OW19140   2.211   6.203  10.028 -0.1102 -0.2559 -0.1809
 5900SOL    HW119141   2.284   6.147  10.056 -1.0110 -1.3966 -0.0250
 5900SOL    HW219142   2.218   6.207   9.933 -0.3068 -1.0338 -0.2317
 5901SOL     OW19143   7.669   4.585  12.441  0.1921 -0.4640  0.5149
 5901SOL    HW119144   7.589   4.636  12.430  0.5136  0.7542  3.0720
 5901SOL    HW219145   7.640   4.494  12.439 -1.1250 -0.0669  0.5449
 5902SOL     OW19146   6.934   5.758   5.829 -0.1390  0.1050 -0.1564
 5902SOL    HW119147   6.962   5.784   5.741 -1.4495 -1.8549 -1.2220
 5902SOL    HW219148   6.852   5.804   5.843 -0.5227 -0.4684 -0.4685
 5903SOL     OW19149   6.754   5.719   3.246  0.0095 -0.0129  0.3181
 5903SOL    HW119150   6.742   5.642   3.301 -1.2439  0.2416  0.4318
 5903SOL    HW219151   6.736   5.793   3.304  1.2236  0.3762  0.2148
 5904SOL     OW19152   5.809   1.829   1.697 -0.2059  0.0237 -0.5377
 5904SOL    HW119153   5.718   1.855   1.694 -0.2902 -0.2211 -0.1544
 5904SOL    HW219154   5.825   1.786   1.612  0.0926  1.7969 -1.4219
 5905SOL     OW19155   1.903   7.583   9.752 -0.4825  0.5952  0.0195
 5905SOL    HW119156   1.899   7.575   9.656 -2.6390  0.5066  0.0628
 5905SOL    HW219157   1.916   7.493   9.782  0.1479  0.6153 -0.1824
 5906SOL     OW19158   3.362   4.057   5.174 -0.0067 -0.3321  0.0936
 5906SOL    HW119159   3.274   4.056   5.137 -0.9255 -0.6799  2.1781
 5906SOL    HW219160   3.396   3.969   5.158  0.1557 -0.0641 -1.1006
 5907SOL     OW19161   1.909   4.455   4.485  0.5053  0.1843 -0.0957
 5907SOL    HW119162   1.833   4.397   4.471  1.1011 -0.5127 -0.5088
 5907SOL    HW219163   1.872   4.531   4.530 -0.0786 -1.1083  1.7370
 5908SOL     OW19164   3.168   7.095   0.583  0.0682 -0.3426  0.0465
 5908SOL    HW119165   3.139   7.162   0.521 -0.9574 -1.8487 -1.2022
 5908SOL    HW219166   3.199   7.023   0.527 -1.6870 -2.1115  1.2215
 5909SOL     OW19167   7.405   2.510   2.903  0.2870 -1.0081 -0.6902
 5909SOL    HW119168   7.396   2.490   2.810 -0.6169  0.1755 -0.8824
 5909SOL    HW219169   7.455   2.437   2.939  0.7786 -1.4027 -2.1316
 5910SOL     OW19170   4.226   6.896   7.802  0.1458  0.0901  0.2198
 5910SOL    HW119171   4.132   6.906   7.795  0.2756 -0.0492 -2.7474
 5910SOL    HW219172   4.254   6.969   7.857 -1.7384 -0.4947  2.0799
 5911SOL     OW19173   3.974   7.213   1.263 -0.4531 -0.4387  0.1270
 5911SOL    HW119174   3.898   7.211   1.206  0.2624 -0.1131 -0.8651
 5911SOL    HW219175   3.979   7.124   1.300 -1.1092 -0.5554 -0.0574
 5912SOL     OW19176   0.787   4.490   4.216  0.0458 -0.0967 -0.2177
 5912SOL    HW119177   0.823   4.521   4.300 -0.6141  1.5246 -0.4931
 5912SOL    HW219178   0.730   4.561   4.187 -1.3430 -1.5090 -1.0665
 5913SOL     OW19179   5.069   6.542   0.096 -0.2318 -0.3168  0.0805
 5913SOL    HW119180   5.056   6.525   0.003 -2.5802  0.1105  0.2678
 5913SOL    HW219181   4.991   6.591   0.123  1.2426  1.2123  1.8830
 5914SOL     OW19182   0.955   6.924   3.750  0.1404  0.6228 -0.0221
 5914SOL    HW119183   0.992   6.972   3.676 -0.4851  2.2859  0.6947
 5914SOL    HW219184   0.893   6.985   3.790 -0.2702 -0.5879  1.2932
 5915SOL     OW19185   4.370   0.613   4.768 -0.7082 -0.0420 -0.1232
 5915SOL    HW119186   4.286   0.658   4.771 -0.0721  1.1217  1.1509
 5915SOL    HW219187   4.360   0.540   4.830 -0.5655  0.5355  0.6020
 5916SOL     OW19188   1.913   3.198   0.980 -0.1585  0.8041 -1.1193
 5916SOL    HW119189   1.986   3.213   1.040 -0.2434 -0.6937 -0.5941
 5916SOL    HW219190   1.837   3.190   1.037 -0.4043  0.3845 -1.5026
 5917SOL     OW19191   4.077   7.856   3.384  0.1537  0.2147  0.0948
 5917SOL    HW119192   4.125   7.937   3.402 -0.7360  0.3282  2.2996
 5917SOL    HW219193   4.108   7.795   3.450 -1.7108 -0.1205  0.7300
 5918SOL     OW19194   4.357   1.921   3.567  0.2121 -0.1352  0.0690
 5918SOL    HW119195   4.307   1.976   3.627 -0.2643 -1.0687  0.5483
 5918SOL    HW219196   4.424   1.880   3.621  2.2389  1.9109 -0.7574
 5919SOL     OW19197   7.728   7.960   1.262  0.4781 -0.0049  0.0195
 5919SOL    HW119198   7.725   8.024   1.191  0.0684 -0.7931 -0.6921
 5919SOL    HW219199   7.805   7.907   1.243 -0.4399 -1.1335 -0.6706
 5920SOL     OW19200   4.284   1.297   8.836 -0.3621  0.2562 -0.0324
 5920SOL    HW119201   4.308   1.303   8.929 -2.2005  0.9653  0.4329
 5920SOL    HW219202   4.288   1.387   8.804 -0.2905  0.0878 -0.5018
 5921SOL     OW19203   3.435   0.550  11.605  0.1348 -0.1871  0.2805
 5921SOL    HW119204   3.506   0.572  11.665 -0.7273 -0.2458  1.3490
 5921SOL    HW219205   3.399   0.635  11.577 -0.3331 -0.1638  0.9270
 5922SOL     OW19206   0.320   4.815   7.366 -0.5377  0.2767 -0.1051
 5922SOL    HW119207   0.255   4.809   7.435 -0.2970  1.5010  0.2511
 5922SOL    HW219208   0.283   4.877   7.303  1.1016  2.5768  1.0878
 5923SOL     OW19209   7.721   0.292   4.169 -0.2347  0.2466  0.2128
 5923SOL    HW119210   7.707   0.230   4.240  0.3919  0.5892  0.6473
 5923SOL    HW219211   7.740   0.375   4.213 -1.8034  0.9473 -0.3536
 5924SOL     OW19212   6.015   2.090   0.834 -0.0594  0.5544  0.0968
 5924SOL    HW119213   5.947   2.035   0.796 -0.8728  1.7785 -0.2569
 5924SOL    HW219214   5.997   2.178   0.801  2.0238  0.8349 -0.4860
 5925SOL     OW19215   4.360   7.359   5.104 -0.5958  0.4481 -0.0260
 5925SOL    HW119216   4.422   7.349   5.176 -0.5351  1.5346  0.0866
 5925SOL    HW219217   4.360   7.453   5.085 -0.2640  0.1412 -1.7448
 5926SOL     OW19218   7.152   0.511   6.520 -0.2092 -0.2123  0.7016
 5926SOL    HW119219   7.241   0.522   6.553 -0.1662  0.7702  0.2977
 5926SOL    HW219220   7.163   0.467   6.436 -0.2940 -2.3627  1.7459
 5927SOL     OW19221   7.769   1.542   2.469 -0.2231  0.1546  0.2320
 5927SOL    HW119222   7.702   1.488   2.511  1.7771 -1.9886  0.8407
 5927SOL    HW219223   7.735   1.559   2.381 -1.6780 -0.6187  0.6266
 5928SOL     OW19224   2.059   5.916   8.568  0.1315  0.2593  0.1929
 5928SOL    HW119225   2.107   5.975   8.511 -1.0110  1.1040  0.0708
 5928SOL    HW219226   2.098   5.830   8.552  0.5096  0.6497 -1.1072
 5929SOL     OW19227   4.143   2.751   0.715 -0.4404 -0.5785  0.1326
 5929SOL    HW119228   4.090   2.732   0.638 -0.0717 -0.1689 -0.2284
 5929SOL    HW219229   4.216   2.804   0.682  0.5818 -1.7002  0.4986
 5930SOL     OW19230   0.112   1.110   8.094 -0.1210 -0.2706  1.1469
 5930SOL    HW119231   0.086   1.026   8.056  0.2585 -0.9684  2.3560
 5930SOL    HW219232   0.207   1.105   8.102 -0.1779 -0.1244  2.0735
 5931SOL     OW19233   6.969   0.624   1.906 -0.6881  0.5935  0.4211
 5931SOL    HW119234   7.045   0.600   1.958 -0.9162  0.1803  0.5754
 5931SOL    HW219235   6.976   0.718   1.893 -0.1596  0.5552  0.4423
 5932SOL     OW19236   5.334   2.420   2.133  0.0998 -0.1183  0.0242
 5932SOL    HW119237   5.371   2.493   2.083 -1.6399  1.4072  0.8629
 5932SOL    HW219238   5.267   2.384   2.075  1.1955 -1.3485 -0.5348
 5933SOL     OW19239   1.681   0.614   0.038  0.4388  0.3178 -0.0570
 5933SOL    HW119240   1.751   0.656   0.088  2.0696 -1.2941 -0.8464
 5933SOL    HW219241   1.668   0.670  -0.038  1.5966  0.1543 -0.4003
 5934SOL     OW19242   4.542   1.347   9.576 -0.2696 -0.2466 -0.4369
 5934SOL    HW119243   4.469   1.403   9.548 -0.3801 -0.0855  0.1500
 5934SOL    HW219244   4.619   1.404   9.572 -0.1873 -0.3975 -0.9938
 5935SOL     OW19245   5.549   3.069   0.584  0.1190  0.0904  0.0388
 5935SOL    HW119246   5.454   3.068   0.570 -0.0489 -1.6100  0.9821
 5935SOL    HW219247   5.570   3.160   0.604 -1.4435  0.3752  0.5190
 5936SOL     OW19248   0.615   0.310   9.452 -0.2056 -0.0564  0.5007
 5936SOL    HW119249   0.627   0.223   9.413  1.4610 -0.2517  1.3500
 5936SOL    HW219250   0.642   0.299   9.544 -0.4277  1.2376  0.7381
 5937SOL     OW19251   3.155   3.480   2.870 -0.5211  0.0941 -0.1497
 5937SOL    HW119252   3.070   3.458   2.909 -0.5119  1.0142  0.4149
 5937SOL    HW219253   3.219   3.435   2.927 -0.5851  0.0885 -0.0817
 5938SOL     OW19254   3.577   7.400   4.272  0.0104 -0.6337 -0.1592
 5938SOL    HW119255   3.540   7.340   4.338  2.1888 -1.4038  0.4625
 5938SOL    HW219256   3.652   7.440   4.316  0.3946  0.2862 -1.5851
 5939SOL     OW19257   3.368   2.529   4.759 -0.2048 -0.1801 -0.1871
 5939SOL    HW119258   3.280   2.568   4.760 -0.0477  0.1700  0.1632
 5939SOL    HW219259   3.375   2.485   4.844 -1.2445 -2.9578 -1.4091
 5940SOL     OW19260   2.562   5.097   4.426  0.0699 -0.1339  0.2322
 5940SOL    HW119261   2.503   5.061   4.492  0.0619 -0.5804 -0.0133
 5940SOL    HW219262   2.541   5.048   4.346  1.0006 -0.5326  0.2198
 5941SOL     OW19263   1.285   0.692   6.853 -0.1026  0.5982 -0.5509
 5941SOL    HW119264   1.353   0.729   6.797 -0.0931  0.8407 -0.3809
 5941SOL    HW219265   1.323   0.693   6.940 -0.3754  0.8622 -0.4345
 5942SOL     OW19266   4.618   4.858   5.459  0.0791  0.0655 -0.2684
 5942SOL    HW119267   4.676   4.784   5.480  1.5702  1.1087 -0.5520
 5942SOL    HW219268   4.668   4.936   5.483 -1.0869  1.0338 -0.8514
 5943SOL     OW19269   1.862   2.342   6.896 -0.3274  0.3989 -0.0267
 5943SOL    HW119270   1.769   2.359   6.887 -0.3581  0.3639  0.2131
 5943SOL    HW219271   1.904   2.397   6.830 -0.7018 -1.7855 -2.2380
 5944SOL     OW19272   6.107   0.294   7.165 -0.2212 -0.0921  0.0952
 5944SOL    HW119273   6.163   0.217   7.171  0.9494  0.6827 -0.4679
 5944SOL    HW219274   6.156   0.355   7.110 -0.2852  1.7640  1.9490
 5945SOL     OW19275   7.010   3.928  10.234 -0.4973 -0.1227 -0.1402
 5945SOL    HW119276   6.974   3.923  10.322 -1.7733  2.4566 -0.4094
 5945SOL    HW219277   7.105   3.927  10.246 -0.6550  0.2679  1.2823
 5946SOL     OW19278   5.747   0.003   8.390 -0.4329  0.0115  0.4369
 5946SOL    HW119279   5.656   0.010   8.420 -0.7504 -0.9574 -0.2455
 5946SOL    HW219280   5.750   0.055   8.310  0.1336  1.6836  1.5114
 5947SOL     OW19281   4.959   0.043   8.473  0.1802 -0.3690 -0.4689
 5947SOL    HW119282   4.881   0.044   8.418  0.1101  0.6036 -0.3666
 5947SOL    HW219283   4.935   0.092   8.551  0.4623 -1.2540  0.1950
 5948SOL     OW19284   3.486   0.301   6.946 -0.2807 -0.4493 -0.0964
 5948SOL    HW119285   3.569   0.342   6.973 -0.6810  1.2046 -1.2684
 5948SOL    HW219286   3.485   0.309   6.851 -0.8880 -2.3001 -0.2896
 5949SOL     OW19287   1.684   4.261   2.095  0.4186  0.5146  0.0134
 5949SOL    HW119288   1.615   4.210   2.054  1.2306  0.6629 -1.6302
 5949SOL    HW219289   1.669   4.351   2.064  1.5238  0.4865 -0.6422
 5950SOL     OW19290   1.419   2.060   5.694  0.2136  0.3748  0.0897
 5950SOL    HW119291   1.328   2.032   5.699  0.2628  0.0871 -0.5813
 5950SOL    HW219292   1.450   2.055   5.785 -0.8604  1.9672  0.6031
 5951SOL     OW19293   3.289   4.070   9.273 -0.5801 -0.1369  0.4132
 5951SOL    HW119294   3.216   4.023   9.314 -1.0767 -0.2900 -0.6078
 5951SOL    HW219295   3.255   4.096   9.188  0.4377  0.1310  0.0783
 5952SOL     OW19296   2.706   3.633   9.936 -0.0856  0.0451 -0.1090
 5952SOL    HW119297   2.614   3.650   9.919 -0.2574 -0.9276 -0.1782
 5952SOL    HW219298   2.725   3.681  10.017 -1.2298 -1.5378  1.1455
 5953SOL     OW19299   6.540   5.986   8.276  0.8283 -0.2756 -0.7842
 5953SOL    HW119300   6.480   6.060   8.283  0.2581 -0.8693  1.7581
 5953SOL    HW219301   6.613   6.018   8.224  0.3813  1.9234 -0.1384
 5954SOL     OW19302   1.320   0.407   0.997  0.3593  0.2361  0.3489
 5954SOL    HW119303   1.341   0.494   0.964 -0.1778  0.7879  1.4076
 5954SOL    HW219304   1.357   0.405   1.085 -0.3852 -0.2885  0.6562
 5955SOL     OW19305   2.283   0.194   3.689  0.0696 -0.1739  0.4575
 5955SOL    HW119306   2.191   0.219   3.685 -0.1771 -1.0200  0.5734
 5955SOL    HW219307   2.285   0.118   3.748 -0.0148 -3.7422 -3.6203
 5956SOL     OW19308   4.018   2.179   4.488  0.6923 -0.5417  0.1917
 5956SOL    HW119309   3.967   2.119   4.433  0.8938  0.2335 -0.8665
 5956SOL    HW219310   4.099   2.131   4.507  0.7022 -0.7470 -0.3435
 5957SOL     OW19311   5.198   3.501   7.858  0.0665 -0.4673 -0.3109
 5957SOL    HW119312   5.132   3.446   7.816  0.1560 -1.5499  0.8698
 5957SOL    HW219313   5.282   3.460   7.835  0.3045  0.5355 -1.2927
 5958SOL     OW19314   3.424   7.682   6.923 -0.5725  0.2806  0.4828
 5958SOL    HW119315   3.453   7.606   6.872 -0.6781  1.0226 -0.7428
 5958SOL    HW219316   3.354   7.648   6.979 -1.6571 -0.2727 -1.1157
 5959SOL     OW19317   0.002   7.865   4.357 -0.5892  0.0538 -0.4437
 5959SOL    HW119318   0.075   7.823   4.312 -0.4667 -1.6563  1.2038
 5959SOL    HW219319   0.022   7.959   4.354  2.4088 -0.4105  1.0649
 5960SOL     OW19320   7.170   4.960  10.853  0.0545 -0.1367  0.1410
 5960SOL    HW119321   7.117   5.040  10.863 -0.1432 -0.1527 -0.7420
 5960SOL    HW219322   7.257   4.986  10.882  0.3504  0.8239 -1.4879
 5961SOL     OW19323   0.394   7.458  10.649  0.4364  0.0337 -0.0721
 5961SOL    HW119324   0.485   7.441  10.676  0.1410 -0.1666  0.8312
 5961SOL    HW219325   0.379   7.549  10.675  0.7349  0.4316 -1.2568
 5962SOL     OW19326   5.107   2.673  11.628  0.5035  0.2493  0.3623
 5962SOL    HW119327   5.168   2.744  11.647  1.4209 -0.8850  1.9561
 5962SOL    HW219328   5.163   2.594  11.628 -0.7876 -0.7006  0.8046
 5963SOL     OW19329   7.680   3.836   6.361 -0.8870  0.1552  0.3172
 5963SOL    HW119330   7.659   3.927   6.337 -1.6716 -0.3494 -1.0421
 5963SOL    HW219331   7.714   3.798   6.280 -1.0669 -0.9116  0.7380
 5964SOL     OW19332   0.309   3.216   9.645  0.2278 -0.0726 -0.6833
 5964SOL    HW119333   0.253   3.285   9.681  0.0791 -0.6509  0.2333
 5964SOL    HW219334   0.257   3.177   9.575 -0.5024 -0.5614  0.1156
 5965SOL     OW19335   7.819   7.436   1.937 -0.2916 -0.1890 -0.2804
 5965SOL    HW119336   7.818   7.346   1.971  0.2404  0.1821  0.7758
 5965SOL    HW219337   7.876   7.484   1.998 -0.7053  0.9032 -0.7247
 5966SOL     OW19338   3.141   4.059   2.976 -0.1085  0.2263 -0.4591
 5966SOL    HW119339   3.223   4.025   3.011 -0.9096 -1.0494  0.2892
 5966SOL    HW219340   3.156   4.065   2.881  1.3471  1.5685 -0.1770
 5967SOL     OW19341   2.458   0.082   6.743 -0.3137 -0.2966 -0.1613
 5967SOL    HW119342   2.434   0.115   6.829  0.6105 -0.7933  0.3028
 5967SOL    HW219343   2.536   0.028   6.758 -1.2867 -2.0370 -0.9997
 5968SOL     OW19344   0.780   5.666   3.641  0.2918  0.3237  0.1065
 5968SOL    HW119345   0.813   5.643   3.729 -0.8933  0.2747  0.5541
 5968SOL    HW219346   0.737   5.750   3.652  1.1432  0.8784 -0.6936
 5969SOL     OW19347   5.423   4.051  11.138 -0.0275  0.4452 -0.6612
 5969SOL    HW119348   5.405   4.145  11.142  1.2868  0.8083 -2.2842
 5969SOL    HW219349   5.413   4.022  11.229 -0.2968  2.1783 -0.0798
 5970SOL     OW19350   3.185   0.412   9.268  0.0408  0.3141 -0.5719
 5970SOL    HW119351   3.258   0.364   9.231 -0.0044 -1.2650  1.2294
 5970SOL    HW219352   3.225   0.482   9.319  0.4280 -1.1358  1.2198
 5971SOL     OW19353   6.646   1.305   0.791 -0.4105  0.2668  0.2878
 5971SOL    HW119354   6.573   1.356   0.755 -1.4249 -1.2858  0.0869
 5971SOL    HW219355   6.723   1.361   0.776 -1.4580  1.7132  0.0377
 5972SOL     OW19356   4.437   7.297   3.786 -0.2942  0.1232  0.1329
 5972SOL    HW119357   4.349   7.268   3.812 -0.5898 -0.1542 -1.1127
 5972SOL    HW219358   4.431   7.392   3.785 -0.6237  0.1051 -0.0515
 5973SOL     OW19359   0.799   0.446   4.091 -0.8034  0.0603  0.0954
 5973SOL    HW119360   0.717   0.402   4.069 -1.5955  1.2638  0.5100
 5973SOL    HW219361   0.818   0.501   4.014 -2.0785  2.1303  1.1630
 5974SOL     OW19362   3.964   0.483   7.997  0.7292  0.5150  0.1761
 5974SOL    HW119363   3.971   0.390   8.019  1.1081  0.4304 -0.2798
 5974SOL    HW219364   4.006   0.528   8.070 -0.7419  0.4274  1.1254
 5975SOL     OW19365   0.044   6.601  11.439  0.1312 -0.1976 -0.3572
 5975SOL    HW119366   0.073   6.512  11.423 -0.2010 -0.4083  0.1927
 5975SOL    HW219367  -0.042   6.606  11.399 -0.3782 -0.5008  0.6660
 5976SOL     OW19368   3.385   0.884   9.435  0.1183 -0.1169  0.6087
 5976SOL    HW119369   3.351   0.927   9.513 -1.1052  0.0749 -0.0174
 5976SOL    HW219370   3.479   0.905   9.435 -0.6530  4.1896 -0.6483
 5977SOL     OW19371   0.644   4.337   5.121 -0.6764 -0.1905  0.3657
 5977SOL    HW119372   0.562   4.305   5.160 -0.5050  0.2964  1.1646
 5977SOL    HW219373   0.691   4.377   5.195  0.9711 -1.7868  0.2674
 5978SOL     OW19374   0.762   7.234   5.824 -0.2576 -0.2004 -0.5913
 5978SOL    HW119375   0.787   7.273   5.907  2.1445 -0.2433 -1.2235
 5978SOL    HW219376   0.747   7.308   5.765 -1.1125 -0.1847 -0.3648
 5979SOL     OW19377   5.304   2.174   1.763 -0.1219 -0.0206 -0.3647
 5979SOL    HW119378   5.223   2.136   1.729 -0.1813  0.2173 -0.4877
 5979SOL    HW219379   5.338   2.108   1.824  1.1697 -1.4825 -2.5577
 5980SOL     OW19380   5.310   7.853   4.128  0.0874 -0.6200 -0.0279
 5980SOL    HW119381   5.374   7.856   4.199  0.5739  0.1801 -0.4880
 5980SOL    HW219382   5.230   7.888   4.166  0.2120 -0.6401  0.2592
 5981SOL     OW19383   7.635   2.955   9.346  0.3444  0.2522  0.4024
 5981SOL    HW119384   7.543   2.969   9.323 -0.1093 -2.6689  0.1543
 5981SOL    HW219385   7.674   3.042   9.337 -2.0719  1.3242 -0.8679
 5982SOL     OW19386   3.422   5.389   4.522  0.5438 -0.0968 -0.8302
 5982SOL    HW119387   3.493   5.453   4.536 -0.3839  0.6598  0.7399
 5982SOL    HW219388   3.371   5.393   4.603 -0.2389 -1.9881 -1.1884
 5983SOL     OW19389   3.488   1.734  11.029  0.2679 -0.0596  0.2099
 5983SOL    HW119390   3.577   1.770  11.029 -0.4666  1.8795  1.0274
 5983SOL    HW219391   3.463   1.734  10.936  1.5659 -1.9467 -0.2010
 5984SOL     OW19392   0.116   0.557   7.155  0.2012 -0.1189 -0.7385
 5984SOL    HW119393   0.025   0.576   7.132  0.5245  3.3442  0.2239
 5984SOL    HW219394   0.167   0.597   7.084  0.9695  0.4051  0.0915
 5985SOL     OW19395   4.688   6.335   5.796  0.0569 -0.3809  0.5321
 5985SOL    HW119396   4.659   6.336   5.888  0.8772  0.6839  0.8014
 5985SOL    HW219397   4.783   6.338   5.800  0.0990 -0.1487 -0.3597
 5986SOL     OW19398   1.654   2.095   3.633  0.6100 -0.0789  0.1819
 5986SOL    HW119399   1.651   2.007   3.671 -0.4258 -0.7418 -1.3306
 5986SOL    HW219400   1.568   2.106   3.593  0.9925  1.3395 -0.2913
 5987SOL     OW19401   0.735   0.429   2.959  0.3015 -0.5331 -0.3133
 5987SOL    HW119402   0.698   0.484   2.889 -0.9014 -1.0274 -0.0881
 5987SOL    HW219403   0.821   0.467   2.976 -0.4387  1.2037 -0.2510
 5988SOL     OW19404   6.973   4.249   1.897 -0.3893 -0.3518  0.3799
 5988SOL    HW119405   7.000   4.260   1.806 -0.8817 -0.4656  0.2158
 5988SOL    HW219406   6.987   4.335   1.937 -0.4437 -0.2225  0.1215
 5989SOL     OW19407   4.270   0.336   0.692  0.2086 -0.2958  0.1590
 5989SOL    HW119408   4.247   0.422   0.658 -0.1775  0.1604  1.5391
 5989SOL    HW219409   4.187   0.287   0.692  0.4541 -0.7555 -0.7770
 5990SOL     OW19410   4.100   7.093   7.534  0.0290 -0.3600  0.9837
 5990SOL    HW119411   4.080   7.165   7.475 -0.7776 -0.6368  0.9075
 5990SOL    HW219412   4.190   7.109   7.562  1.4520 -1.6282 -2.3316
 5991SOL     OW19413   3.915   6.496   2.920  0.0373 -0.1229 -0.1139
 5991SOL    HW119414   3.847   6.556   2.889  1.8490  1.9010 -0.3657
 5991SOL    HW219415   3.911   6.422   2.859 -1.7029  0.0832 -0.2931
 5992SOL     OW19416   2.831   1.247   4.595  0.2764 -0.1618 -0.1878
 5992SOL    HW119417   2.851   1.339   4.576 -0.8578 -0.1860 -1.6432
 5992SOL    HW219418   2.902   1.198   4.553 -0.8049 -0.0701 -2.2755
 5993SOL     OW19419   6.589   1.816   8.952 -0.3303  0.2716  0.2086
 5993SOL    HW119420   6.611   1.906   8.929  0.9751 -0.0282  0.1825
 5993SOL    HW219421   6.496   1.808   8.934 -0.3012  1.3930 -0.5310
 5994SOL     OW19422   6.682   4.652  11.013 -0.1472  0.0667  0.2171
 5994SOL    HW119423   6.605   4.620  11.060  0.1460 -2.0670 -0.6490
 5994SOL    HW219424   6.744   4.676  11.083 -0.6351 -0.6875  0.9292
 5995SOL     OW19425   6.683   4.801   3.596 -0.4032  0.1402  0.4942
 5995SOL    HW119426   6.626   4.870   3.628  1.4710  0.8504  2.6006
 5995SOL    HW219427   6.759   4.847   3.559  0.4911 -0.7618  1.1539
 5996SOL     OW19428   4.034   5.635   6.053 -0.1926 -0.1686  0.3344
 5996SOL    HW119429   4.009   5.691   5.979 -0.0466 -0.1886  0.2710
 5996SOL    HW219430   3.975   5.560   6.046 -1.4540  0.6887  1.3113
 5997SOL     OW19431   2.165   0.621   1.481  0.4768 -0.5634 -0.8043
 5997SOL    HW119432   2.118   0.693   1.438 -2.1403 -1.0831  0.9086
 5997SOL    HW219433   2.231   0.594   1.418  1.5515  3.2369 -1.5639
 5998SOL     OW19434   4.422   6.649   1.199  0.0306  0.1114 -0.2230
 5998SOL    HW119435   4.482   6.627   1.271  1.2919  0.7449 -1.0553
 5998SOL    HW219436   4.403   6.742   1.211  0.8775  0.4166 -1.1388
 5999SOL     OW19437   2.621   6.974   0.914  0.2701  0.2553 -0.1819
 5999SOL    HW119438   2.536   6.928   0.914  0.4889 -0.1763  0.5182
 5999SOL    HW219439   2.614   7.035   0.987  0.8085 -0.2803  0.3358
 6000SOL     OW19440   5.065   6.197   4.348  0.0168 -0.1155  0.9002
 6000SOL    HW119441   5.067   6.164   4.259 -2.3672 -0.5907  0.9457
 6000SOL    HW219442   5.117   6.135   4.398  0.5122 -0.4240  0.0218
 6001SOL     OW19443   4.948   1.554   2.290  1.0439 -0.5246 -0.3347
 6001SOL    HW119444   4.975   1.492   2.357  0.4450 -0.4647 -0.0272
 6001SOL    HW219445   5.018   1.619   2.287  1.7805 -1.3194 -0.8109
 6002SOL     OW19446   7.236   3.700   8.688 -0.2034  0.5887  0.1978
 6002SOL    HW119447   7.324   3.691   8.726  0.8831  2.5237 -1.6273
 6002SOL    HW219448   7.236   3.641   8.613 -0.2071  1.0603 -0.1796
 6003SOL     OW19449   5.910   5.016   8.313 -0.2197 -0.4611  0.5097
 6003SOL    HW119450   5.858   5.093   8.294 -0.5967 -1.1348 -1.4685
 6003SOL    HW219451   5.878   4.985   8.398  0.3993  1.8595  1.6779
 6004SOL     OW19452   4.272   5.579  10.779  0.2486  0.1179 -0.2410
 6004SOL    HW119453   4.324   5.609  10.854 -0.5489  1.2985 -0.1196
 6004SOL    HW219454   4.269   5.484  10.788  1.5031  0.1082  0.3168
 6005SOL     OW19455   6.437   0.874   7.258 -0.2651 -0.5341  1.1956
 6005SOL    HW119456   6.515   0.889   7.313  1.6492  0.8957 -1.6519
 6005SOL    HW219457   6.438   0.780   7.241  1.6331 -0.3842  0.2271
 6006SOL     OW19458   0.423   4.633   5.845  0.0240  0.0690  0.2408
 6006SOL    HW119459   0.492   4.569   5.825  2.4070  0.0387  6.4156
 6006SOL    HW219460   0.459   4.717   5.817  1.3503 -0.2739  0.8579
 6007SOL     OW19461   0.827   7.540   5.694  0.2207 -0.0972 -0.3866
 6007SOL    HW119462   0.862   7.612   5.642  0.6732  0.3388  0.5050
 6007SOL    HW219463   0.904   7.494   5.727 -0.0390 -1.8034 -1.9916
 6008SOL     OW19464   5.483   0.839  10.449 -0.0116  0.4622 -0.1425
 6008SOL    HW119465   5.503   0.903  10.516  1.7304  0.5410 -0.6952
 6008SOL    HW219466   5.454   0.762  10.497  0.6649  0.7072  0.6765
 6009SOL     OW19467   4.186   6.316   5.168 -0.4997  0.5028 -0.1018
 6009SOL    HW119468   4.158   6.293   5.079  2.1664 -2.1715 -0.4230
 6009SOL    HW219469   4.174   6.235   5.218  0.3484  1.2473  1.3544
 6010SOL     OW19470   6.234   0.386   5.879 -0.3510  0.0739 -0.8829
 6010SOL    HW119471   6.249   0.446   5.953 -1.5151 -1.1010  0.3516
 6010SOL    HW219472   6.217   0.444   5.804 -1.5807  1.3187  0.2998
 6011SOL     OW19473   7.123   4.859   9.665  0.3866  0.2890 -0.1485
 6011SOL    HW119474   7.149   4.767   9.673 -2.0406 -0.5459 -0.8943
 6011SOL    HW219475   7.031   4.860   9.692  0.2476  2.4404 -0.5488
 6012SOL     OW19476   4.024   0.839   2.953 -0.3716 -0.0455 -0.0689
 6012SOL    HW119477   4.015   0.751   2.918  0.9314  0.0578 -0.7452
 6012SOL    HW219478   4.111   0.840   2.993  0.3081  1.3646 -1.4696
 6013SOL     OW19479   2.651   3.547   8.395 -0.6330  0.1954  0.1453
 6013SOL    HW119480   2.720   3.583   8.339  0.6178  0.7669  1.9818
 6013SOL    HW219481   2.679   3.457   8.412  0.2644  0.7454  1.7481
 6014SOL     OW19482   5.529   4.539  12.204  0.5038  0.6669 -0.0228
 6014SOL    HW119483   5.560   4.449  12.195 -1.1314 -0.2975  2.7243
 6014SOL    HW219484   5.442   4.538  12.163  0.4201  0.9712  0.1471
 6015SOL     OW19485   3.387   4.175   8.112  0.4508 -0.1769  0.2302
 6015SOL    HW119486   3.392   4.207   8.202  0.2767  0.7963 -0.1009
 6015SOL    HW219487   3.473   4.137   8.096  0.0676 -1.5693  1.2332
 6016SOL     OW19488   7.453   6.534  11.512  0.1313 -0.0534 -0.0147
 6016SOL    HW119489   7.521   6.527  11.445  1.8555 -2.6342  1.8269
 6016SOL    HW219490   7.406   6.451  11.507 -0.1461 -0.0052  1.4881
 6017SOL     OW19491   5.911   5.309   3.244 -0.3121  0.1324  0.3381
 6017SOL    HW119492   5.967   5.333   3.170 -0.2154  0.0009  0.3694
 6017SOL    HW219493   5.872   5.392   3.272  0.6370  0.3932  0.9521
 6018SOL     OW19494   3.353   2.470   3.571  0.7839 -0.0132 -0.7440
 6018SOL    HW119495   3.322   2.397   3.518 -0.0240  0.4245 -0.8786
 6018SOL    HW219496   3.437   2.439   3.605  0.4325 -1.0296 -0.7430
 6019SOL     OW19497   7.217   4.686   8.261 -0.1348 -0.1739  0.3625
 6019SOL    HW119498   7.281   4.724   8.202 -0.4512 -1.9174 -1.1956
 6019SOL    HW219499   7.190   4.758   8.317  2.0936  0.9389  0.1097
 6020SOL     OW19500   0.513   6.945   3.771  0.0629 -0.4738  0.0077
 6020SOL    HW119501   0.574   6.971   3.702 -2.8040  1.6374 -1.9427
 6020SOL    HW219502   0.540   6.857   3.795  1.2718 -1.3064 -3.7886
 6021SOL     OW19503   1.751   4.081   9.175 -0.2062 -0.1316 -0.1106
 6021SOL    HW119504   1.841   4.055   9.197 -0.4741  0.6289  2.1903
 6021SOL    HW219505   1.744   4.171   9.206 -1.6946 -0.0829 -0.5020
 6022SOL     OW19506   7.451   6.909   1.702 -0.2204  0.5136 -0.0007
 6022SOL    HW119507   7.510   6.956   1.762  0.5215  0.5058 -0.7008
 6022SOL    HW219508   7.419   6.835   1.754 -0.7213  1.3039  0.8343
 6023SOL     OW19509   3.886   1.975  10.507  0.1291  0.0722  0.2551
 6023SOL    HW119510   3.918   2.046  10.452 -0.2579  0.3917  0.4317
 6023SOL    HW219511   3.836   2.019  10.576 -0.5427 -0.3926  0.0778
 6024SOL     OW19512   6.370   2.653   3.651  0.4519  0.1702 -0.1313
 6024SOL    HW119513   6.365   2.698   3.567  0.6937 -0.5796 -0.5628
 6024SOL    HW219514   6.433   2.582   3.636 -0.7644 -1.0069  0.1904
 6025SOL     OW19515   6.770   6.493   9.516 -0.2245  0.3781  0.4742
 6025SOL    HW119516   6.777   6.432   9.443  0.2108  1.8990 -0.8273
 6025SOL    HW219517   6.791   6.442   9.594 -0.6629 -1.2831 -0.4571
 6026SOL     OW19518   1.843   7.119   1.850 -0.0569  0.1138  0.0374
 6026SOL    HW119519   1.748   7.107   1.851 -0.1275  0.6331 -0.0882
 6026SOL    HW219520   1.855   7.213   1.835  0.4965 -0.1859 -1.5483
 6027SOL     OW19521   5.041   3.259   2.172  0.2546  0.2847  0.0344
 6027SOL    HW119522   4.970   3.219   2.122 -0.3222  2.8797 -1.3825
 6027SOL    HW219523   5.073   3.188   2.229 -1.0154 -1.9764 -1.8801
 6028SOL     OW19524   6.364   3.977   8.839  0.0083 -0.3491  0.0652
 6028SOL    HW119525   6.378   3.931   8.923 -0.4184  1.7377  1.3444
 6028SOL    HW219526   6.350   3.906   8.776  2.1131 -2.0871  1.3745
 6029SOL     OW19527   4.994   7.694   9.372  0.2029 -0.1934 -0.1216
 6029SOL    HW119528   5.080   7.678   9.335 -0.4749 -0.2364 -1.7309
 6029SOL    HW219529   4.984   7.789   9.371  0.8714 -0.0687  1.6331
 6030SOL     OW19530   1.829   3.273   8.834 -0.2252  0.0703 -1.1960
 6030SOL    HW119531   1.745   3.277   8.878  1.5173 -0.8016  2.5829
 6030SOL    HW219532   1.859   3.364   8.831 -1.1480  0.3504 -2.3377
 6031SOL     OW19533   1.430   4.651   0.798 -0.7633 -0.0805 -0.0039
 6031SOL    HW119534   1.474   4.609   0.723 -2.9908 -1.0898 -0.8469
 6031SOL    HW219535   1.418   4.580   0.861  0.3680  0.5912  1.0241
 6032SOL     OW19536   1.407   5.993   4.541 -0.1583  0.0558  0.0439
 6032SOL    HW119537   1.358   5.984   4.459 -0.0203 -1.9312  0.1364
 6032SOL    HW219538   1.400   5.907   4.582  1.3115  0.4821  1.2596
 6033SOL     OW19539   4.369   7.952   4.612  0.2003 -0.3157 -0.1037
 6033SOL    HW119540   4.293   7.898   4.636  0.9497 -0.9298  0.9535
 6033SOL    HW219541   4.443   7.910   4.656  1.3378 -0.3090 -1.9137
 6034SOL     OW19542   3.153   1.704   0.360  0.0700 -0.8201  0.5823
 6034SOL    HW119543   3.144   1.723   0.266 -0.9985  0.3667  0.9041
 6034SOL    HW219544   3.234   1.653   0.366  0.2335 -0.7910 -0.9643
 6035SOL     OW19545   5.678   2.010   5.918  0.0683 -0.2148  0.0531
 6035SOL    HW119546   5.653   1.977   6.004  0.0746  0.0610  0.1611
 6035SOL    HW219547   5.728   2.090   5.936 -0.6198  0.2955 -0.2249
 6036SOL     OW19548   5.441   6.614   0.968 -0.4318  0.6584 -0.1389
 6036SOL    HW119549   5.486   6.544   0.921  1.8833  0.8215  1.6133
 6036SOL    HW219550   5.360   6.629   0.919  0.3893 -1.2095 -2.2203
 6037SOL     OW19551   2.910   7.922   5.906  0.4577  0.1298  0.8014
 6037SOL    HW119552   3.000   7.913   5.874 -0.5030 -0.0768 -2.1871
 6037SOL    HW219553   2.913   7.993   5.970  2.9924 -1.0086  2.0602
 6038SOL     OW19554   4.472   6.295   2.157 -0.1651  0.1330  0.2127
 6038SOL    HW119555   4.549   6.249   2.191  0.0010  1.0792  1.1997
 6038SOL    HW219556   4.466   6.269   2.065  2.4140  1.4060 -0.4028
 6039SOL     OW19557   1.475   7.504   5.690 -0.6056 -0.0590  0.4598
 6039SOL    HW119558   1.529   7.429   5.666 -0.4153 -0.1558  1.1879
 6039SOL    HW219559   1.400   7.500   5.630 -0.7068 -0.9496  0.6363
 6040SOL     OW19560   5.918   7.854   4.269 -0.0075  0.1363 -0.2064
 6040SOL    HW119561   5.923   7.835   4.176 -2.9650 -1.4742 -0.1769
 6040SOL    HW219562   6.007   7.841   4.302  0.6729 -1.4123 -2.4551
 6041SOL     OW19563   0.469   6.592   6.196 -0.3629  0.2400  0.4065
 6041SOL    HW119564   0.502   6.681   6.183 -1.3190  0.9668  2.4406
 6041SOL    HW219565   0.381   6.593   6.159 -0.8143  0.5239  1.4455
 6042SOL     OW19566   6.453   2.480   6.849 -0.2541  0.5198 -0.3498
 6042SOL    HW119567   6.394   2.544   6.887 -2.0727 -1.1926 -0.1315
 6042SOL    HW219568   6.529   2.531   6.820 -0.7737  2.4768  1.4980
 6043SOL     OW19569   0.042   6.761   5.272  0.5337  0.2293 -0.2369
 6043SOL    HW119570   0.010   6.747   5.361 -3.4764  0.2422 -1.4842
 6043SOL    HW219571   0.107   6.693   5.259  0.8202 -0.1370  2.4645
 6044SOL     OW19572   2.062   3.881   8.090  0.2159 -0.3090  0.2221
 6044SOL    HW119573   2.040   3.859   8.000 -1.3439 -0.4100  0.5969
 6044SOL    HW219574   2.023   3.968   8.104  1.8613  0.4482  0.3211
 6045SOL     OW19575   1.752   1.298   8.552 -0.0257 -0.1757  0.2805
 6045SOL    HW119576   1.772   1.391   8.547  0.5855 -0.3596 -1.1915
 6045SOL    HW219577   1.835   1.254   8.531 -0.5691 -1.0188 -0.1880
 6046SOL     OW19578   1.046   4.424  12.296  0.6053  0.0283 -0.8643
 6046SOL    HW119579   1.011   4.490  12.237 -0.9185  0.7467  0.7275
 6046SOL    HW219580   1.029   4.459  12.384  1.8418 -1.4402  0.0194
 6047SOL     OW19581   3.982   4.005   1.585  0.3005 -0.6311  0.2209
 6047SOL    HW119582   3.931   4.011   1.665 -0.1545 -2.9271  0.1725
 6047SOL    HW219583   4.030   3.922   1.593  1.0608 -0.3864 -1.4076
 6048SOL     OW19584   0.238   5.975   4.483 -0.5787 -0.2553  0.5338
 6048SOL    HW119585   0.277   5.934   4.560 -1.0646 -1.1874  0.3101
 6048SOL    HW219586   0.158   5.924   4.467  0.0522 -0.7770 -1.2123
 6049SOL     OW19587   1.568   5.246   7.845  0.2119 -0.4955  0.7203
 6049SOL    HW119588   1.583   5.225   7.752 -1.9571  1.4491 -0.1527
 6049SOL    HW219589   1.532   5.165   7.882 -1.1915 -0.5923 -0.7610
 6050SOL     OW19590   0.592   7.848   7.231 -0.4823  0.3306  0.5316
 6050SOL    HW119591   0.650   7.924   7.239  0.9405 -0.4988 -1.1912
 6050SOL    HW219592   0.534   7.869   7.158 -0.5325  0.0534  0.4907
 6051SOL     OW19593   5.532   6.525   3.867  0.2776 -0.2626 -0.4136
 6051SOL    HW119594   5.581   6.600   3.834  1.1018 -0.4300  0.3902
 6051SOL    HW219595   5.531   6.463   3.795  0.4815  0.1035 -0.7335
 6052SOL     OW19596   4.869   1.777   3.120 -0.3465  0.1370  0.1662
 6052SOL    HW119597   4.940   1.792   3.057 -1.2298 -1.2086 -1.2155
 6052SOL    HW219598   4.825   1.861   3.126  0.1052  0.4464 -0.5927
 6053SOL     OW19599   7.451   2.493  10.460 -0.7408 -0.4598 -0.4492
 6053SOL    HW119600   7.425   2.581  10.486 -0.4270  0.0465 -1.7688
 6053SOL    HW219601   7.459   2.445  10.542 -4.2793 -0.2377  0.1632
 6054SOL     OW19602   4.701   4.760   6.394 -0.3238  0.4643 -0.5088
 6054SOL    HW119603   4.722   4.680   6.443  0.1467  1.7135  1.4807
 6054SOL    HW219604   4.607   4.772   6.407 -0.0632  1.2314  0.8912
 6055SOL     OW19605   7.148   4.776   3.747  0.3505 -0.3647  0.2320
 6055SOL    HW119606   7.094   4.818   3.814  1.9541  0.2304  1.2250
 6055SOL    HW219607   7.223   4.742   3.796  0.7598 -1.3783 -1.0516
 6056SOL     OW19608   6.159   6.792   7.640 -0.2364  0.1634  0.0364
 6056SOL    HW119609   6.153   6.700   7.615 -0.9472  0.2486 -0.1305
 6056SOL    HW219610   6.160   6.791   7.736  0.6260 -0.0605  0.0306
 6057SOL     OW19611   4.783   4.582   0.140  0.3299 -0.0097 -0.6908
 6057SOL    HW119612   4.761   4.557   0.230 -1.2439 -0.0943 -1.0792
 6057SOL    HW219613   4.791   4.499   0.093  1.6872  0.0095 -0.5386
 6058SOL     OW19614   2.788   2.362   2.505 -0.5806  0.2965  0.1568
 6058SOL    HW119615   2.768   2.273   2.474  2.0664 -0.0788 -0.7237
 6058SOL    HW219616   2.809   2.410   2.425  1.5382  0.6936  0.9067
 6059SOL     OW19617   2.208   3.750   7.867 -0.5826 -0.2322 -0.0382
 6059SOL    HW119618   2.259   3.723   7.944 -1.6107 -0.6778  0.5093
 6059SOL    HW219619   2.181   3.668   7.826  1.2609 -0.0215 -1.8107
 6060SOL     OW19620   0.266   7.748   0.926  0.3209  0.5130  0.3886
 6060SOL    HW119621   0.353   7.709   0.917  1.5347  3.2243 -0.5594
 6060SOL    HW219622   0.233   7.757   0.837 -1.5898 -1.6038  0.7617
 6061SOL     OW19623   4.336   4.926  10.646 -0.2598  0.1509  0.0108
 6061SOL    HW119624   4.249   4.913  10.608 -0.2880 -0.6020  0.3137
 6061SOL    HW219625   4.370   4.837  10.658  1.0017  0.4489 -1.1136
 6062SOL     OW19626   0.757   5.502  11.592 -0.1857 -0.6099 -0.3165
 6062SOL    HW119627   0.826   5.520  11.655  0.4666 -0.3076 -1.0979
 6062SOL    HW219628   0.714   5.423  11.625 -1.3952  0.8364  1.7632
 6063SOL     OW19629   1.524   7.312   4.516 -0.0328 -0.7168  0.0000
 6063SOL    HW119630   1.518   7.357   4.601 -0.2347 -1.3624  0.3390
 6063SOL    HW219631   1.602   7.349   4.474 -2.5556  3.2632 -1.7334
 6064SOL     OW19632   0.952   1.122   3.255 -0.2590  0.0743 -1.0847
 6064SOL    HW119633   0.865   1.146   3.223 -0.4128 -1.2851 -1.7377
 6064SOL    HW219634   1.012   1.179   3.207 -0.8170  1.8470  0.2134
 6065SOL     OW19635   4.356   5.668   3.416  0.1323  0.1014 -0.1087
 6065SOL    HW119636   4.376   5.724   3.491 -1.9815  0.5554  0.1769
 6065SOL    HW219637   4.329   5.585   3.455 -1.1194  0.3847 -0.3072
 6066SOL     OW19638   4.384   3.862   8.269 -0.9088 -0.2177 -0.1504
 6066SOL    HW119639   4.442   3.804   8.318 -2.2123 -1.8910 -0.4920
 6066SOL    HW219640   4.413   3.951   8.292  0.3323 -0.9856  1.3954
 6067SOL     OW19641   1.399   6.187   1.719  0.2279  0.1910  0.1485
 6067SOL    HW119642   1.478   6.142   1.749 -0.4172  0.1886  1.9929
 6067SOL    HW219643   1.405   6.275   1.757 -0.4075  0.3647 -0.1326
 6068SOL     OW19644   0.391   4.166   8.160  0.1879 -0.3536  0.0828
 6068SOL    HW119645   0.375   4.217   8.239 -0.9068 -0.7480  0.1259
 6068SOL    HW219646   0.329   4.200   8.096  0.1577 -0.9259 -0.1987
 6069SOL     OW19647   7.577   7.046   0.638  0.6628  0.1554  0.6440
 6069SOL    HW119648   7.659   6.997   0.637  0.3407 -0.3904  0.9679
 6069SOL    HW219649   7.583   7.103   0.714  0.5491 -0.2158  0.9321
 6070SOL     OW19650   4.448   4.621  12.085  0.2899 -0.3583  0.2634
 6070SOL    HW119651   4.521   4.579  12.039  1.0847  1.5096 -0.2945
 6070SOL    HW219652   4.374   4.562  12.074  0.4415 -0.0608 -3.4024
 6071SOL     OW19653   4.845   0.911   9.476  0.2602  0.0470 -0.3578
 6071SOL    HW119654   4.780   0.981   9.483  0.7079  0.5059 -0.7014
 6071SOL    HW219655   4.847   0.871   9.563  0.9007  1.2764  0.2156
 6072SOL     OW19656   4.268   1.685   7.054  0.3802  0.3187  0.3982
 6072SOL    HW119657   4.232   1.674   6.966 -0.0394 -0.4088  0.6519
 6072SOL    HW219658   4.200   1.732   7.102 -0.1821 -0.8770  0.8209
 6073SOL     OW19659   2.633   2.584   8.080 -0.3179  0.1001  0.6354
 6073SOL    HW119660   2.714   2.606   8.127  0.8994 -0.3602 -1.1317
 6073SOL    HW219661   2.616   2.660   8.024 -1.9550  0.7973  1.9940
 6074SOL     OW19662   4.491   7.427   7.301 -0.6580  0.6008  0.1968
 6074SOL    HW119663   4.448   7.472   7.373 -0.4182 -0.9631  1.3706
 6074SOL    HW219664   4.459   7.337   7.306  1.3682 -0.1878  0.0208
 6075SOL     OW19665   6.887   3.326   7.011  0.2058 -0.0863  0.4052
 6075SOL    HW119666   6.885   3.250   7.070 -1.7085  0.1284  0.6895
 6075SOL    HW219667   6.924   3.293   6.930 -0.0847 -1.2034  0.7104
 6076SOL     OW19668   1.361   3.603   3.718 -0.2045  0.4906  0.1730
 6076SOL    HW119669   1.270   3.617   3.689  0.3947  2.4659 -0.9599
 6076SOL    HW219670   1.408   3.580   3.637  0.7469  1.9561  0.2857
 6077SOL     OW19671   7.662   1.353   9.124  0.4196  0.2577 -0.5318
 6077SOL    HW119672   7.686   1.445   9.110  1.5088 -0.2546 -2.2712
 6077SOL    HW219673   7.613   1.328   9.046 -0.7555 -0.4004  0.3730
 6078SOL     OW19674   0.812   1.899   6.643  0.2203  0.0786  0.3827
 6078SOL    HW119675   0.837   1.819   6.690 -0.8500  0.2651  1.3246
 6078SOL    HW219676   0.742   1.937   6.697  1.2800  2.1138  0.4179
 6079SOL     OW19677   0.127   7.260  11.602  0.1942  0.5062  0.0473
 6079SOL    HW119678   0.190   7.195  11.632 -0.6014 -0.5757 -0.5835
 6079SOL    HW219679   0.156   7.282  11.513 -1.4660 -1.5824 -1.0928
 6080SOL     OW19680   4.232   0.008   0.891  0.7385 -0.2224 -0.3179
 6080SOL    HW119681   4.180   0.066   0.836 -0.0574  1.2844  1.9035
 6080SOL    HW219682   4.307   0.061   0.918 -0.1579 -0.0219  2.0061
 6081SOL     OW19683   2.635   6.802   1.465  0.1774  0.3963  0.7224
 6081SOL    HW119684   2.596   6.725   1.423 -1.5717  1.2749  0.6555
 6081SOL    HW219685   2.727   6.798   1.440  0.0120 -1.3476  0.2341
 6082SOL     OW19686   4.571   6.440   6.079  0.3448 -0.0657 -0.2263
 6082SOL    HW119687   4.480   6.472   6.078 -0.5797 -2.4416  0.1613
 6082SOL    HW219688   4.586   6.415   6.170  2.3942  2.6855  0.3146
 6083SOL     OW19689   1.808   2.749  12.301 -0.0847  0.0927  0.2265
 6083SOL    HW119690   1.778   2.814  12.239 -0.3735 -0.3852 -0.1391
 6083SOL    HW219691   1.898   2.775  12.322  0.1802 -0.0043 -0.7520
 6084SOL     OW19692   5.785   1.295  11.784  0.3987 -0.1682  0.1595
 6084SOL    HW119693   5.792   1.368  11.845  0.2726  1.9488 -2.2284
 6084SOL    HW219694   5.696   1.301  11.748  1.2723  0.2580 -2.0783
 6085SOL     OW19695   7.398   6.387   3.082  0.3740  0.0602  0.3788
 6085SOL    HW119696   7.486   6.407   3.114  0.6006 -0.9668  0.4341
 6085SOL    HW219697   7.375   6.305   3.126 -0.3598 -0.0043 -0.1145
 6086SOL     OW19698   2.671   7.494  11.798  0.7140  0.0451 -0.2872
 6086SOL    HW119699   2.588   7.466  11.761  1.7277 -2.1147 -1.1446
 6086SOL    HW219700   2.650   7.571  11.850 -1.5875  0.3019 -1.4732
 6087SOL     OW19701   1.628   4.284   3.424  0.2317 -0.3771 -0.2007
 6087SOL    HW119702   1.578   4.217   3.470  0.5539 -0.0870  0.5845
 6087SOL    HW219703   1.713   4.285   3.467  0.3942  0.2055 -0.5168
 6088SOL     OW19704   3.144   7.189   8.076  0.2156  0.1947  0.4800
 6088SOL    HW119705   3.231   7.185   8.118  0.7889  2.8818 -0.2512
 6088SOL    HW219706   3.159   7.156   7.988  0.4475  0.3712  0.4506
 6089SOL     OW19707   0.565   5.843  11.344 -0.0603 -0.2050 -0.1197
 6089SOL    HW119708   0.626   5.777  11.379 -0.1141 -0.7130 -0.9637
 6089SOL    HW219709   0.531   5.887  11.422  0.5314 -0.6817  0.4231
 6090SOL     OW19710   7.384   5.937  12.299 -0.2107 -0.2624  0.0145
 6090SOL    HW119711   7.360   5.963  12.388 -1.0969  1.1360 -0.5930
 6090SOL    HW219712   7.307   5.960  12.247  1.2912  1.5338 -1.5436
 6091SOL     OW19713   4.403   6.284  10.660 -0.6501  0.2821  0.4381
 6091SOL    HW119714   4.457   6.341  10.605 -2.2179  2.0432  0.5753
 6091SOL    HW219715   4.449   6.281  10.744  0.4634 -0.3089 -0.1793
 6092SOL     OW19716   4.945   3.749   7.199  0.1182 -0.1622  0.3012
 6092SOL    HW119717   4.857   3.732   7.166 -0.2687 -0.2991  1.3572
 6092SOL    HW219718   4.946   3.843   7.216  0.3380 -0.0810 -0.1382
 6093SOL     OW19719   2.297   0.168   1.811 -0.0603  0.0794  0.1065
 6093SOL    HW119720   2.239   0.114   1.756  0.6385  0.5868 -1.1867
 6093SOL    HW219721   2.338   0.228   1.749  0.5299  0.8932  1.2604
 6094SOL     OW19722   5.247   7.176   8.040 -0.0065 -0.3607 -0.3253
 6094SOL    HW119723   5.288   7.163   8.125 -0.1076 -1.8730 -0.4928
 6094SOL    HW219724   5.191   7.100   8.028 -2.3065  1.2426 -0.4458
 6095SOL     OW19725   3.561   4.047   1.588  0.1628  0.1364 -0.4665
 6095SOL    HW119726   3.627   4.087   1.645  0.6048 -1.7283  0.4236
 6095SOL    HW219727   3.529   4.119   1.534  3.1504  1.1070 -1.1614
 6096SOL     OW19728   7.673   7.921   8.985 -0.7327  0.1908  0.3047
 6096SOL    HW119729   7.617   7.995   8.960  2.0758  2.9059  1.4354
 6096SOL    HW219730   7.690   7.934   9.078  1.1070 -0.9544  0.1797
 6097SOL     OW19731   2.166   6.558  10.775  0.2882 -0.9862 -0.5381
 6097SOL    HW119732   2.107   6.484  10.793  0.2503 -0.9595 -0.5527
 6097SOL    HW219733   2.190   6.591  10.861 -0.0918 -0.7007 -0.5406
 6098SOL     OW19734   2.479   3.663   8.711 -0.7021  0.3714  0.1619
 6098SOL    HW119735   2.514   3.641   8.625 -1.4707 -0.2265 -0.0121
 6098SOL    HW219736   2.544   3.721   8.750  0.3907 -0.5641 -0.2067
 6099SOL     OW19737   6.628   6.152  11.816  0.3280 -0.3690  0.2033
 6099SOL    HW119738   6.723   6.150  11.804  0.4736 -0.3927  1.2891
 6099SOL    HW219739   6.611   6.089  11.886 -0.3862  0.4202  0.7532
 6100SOL     OW19740   6.884   2.458   1.917 -0.0364  0.2030  0.4147
 6100SOL    HW119741   6.825   2.462   1.992 -1.6113  0.5759 -0.7834
 6100SOL    HW219742   6.949   2.392   1.941 -2.0783 -1.7062  1.0235
 6101SOL     OW19743   0.069   3.870   4.952 -1.0308  0.0392 -0.9324
 6101SOL    HW119744  -0.020   3.874   4.917 -2.8279 -0.4772  3.0160
 6101SOL    HW219745   0.062   3.907   5.040  3.1256  1.6903 -1.0441
 6102SOL     OW19746   3.177   3.869   6.476  0.4664 -0.0095 -1.1580
 6102SOL    HW119747   3.092   3.835   6.504  1.3029 -0.8745  0.4891
 6102SOL    HW219748   3.231   3.790   6.462  1.1423  0.5325 -1.6830
 6103SOL     OW19749   7.172   4.273   8.202 -0.2044 -0.0490  0.1077
 6103SOL    HW119750   7.100   4.271   8.266  0.2936  0.5423  0.6988
 6103SOL    HW219751   7.242   4.322   8.246 -0.5639  2.1920 -1.6640
 6104SOL     OW19752   1.927   5.926  11.632  0.2062 -0.5195  0.7835
 6104SOL    HW119753   1.963   6.004  11.589  0.2818 -1.1008 -0.2389
 6104SOL    HW219754   1.860   5.894  11.572  0.3800 -1.4082  1.0547
 6105SOL     OW19755   4.519   6.166   0.604 -0.1858  0.4820  0.2439
 6105SOL    HW119756   4.469   6.129   0.677 -0.5747  0.4710 -0.0251
 6105SOL    HW219757   4.572   6.093   0.572  0.0711  0.5136  0.5814
 6106SOL     OW19758   7.768   0.536   9.723  0.2441 -0.5384 -0.2193
 6106SOL    HW119759   7.681   0.495   9.724 -0.7988  1.3070 -2.9816
 6106SOL    HW219760   7.806   0.511   9.639  2.7242 -1.7385  1.1426
 6107SOL     OW19761   4.694   4.552   1.752  0.1484  0.4069 -0.8222
 6107SOL    HW119762   4.630   4.511   1.809  1.5076  1.3850  1.5797
 6107SOL    HW219763   4.723   4.482   1.694 -0.7197 -0.8773  0.2338
 6108SOL     OW19764   7.895   3.286   6.629 -0.2020  0.7134  0.3539
 6108SOL    HW119765   7.809   3.268   6.667 -0.1831  0.1368  0.1255
 6108SOL    HW219766   7.953   3.294   6.705  0.1782 -2.1085  0.4546
 6109SOL     OW19767   2.991   0.402   6.985  0.5034 -0.1732 -0.2145
 6109SOL    HW119768   3.064   0.434   7.039  1.2328 -0.7777 -0.8042
 6109SOL    HW219769   2.980   0.469   6.917 -1.6040  1.4897  1.6415
 6110SOL     OW19770   4.549   0.083   0.122  0.0783  0.2970  0.1008
 6110SOL    HW119771   4.623   0.113   0.175  0.3545  1.7607 -1.0416
 6110SOL    HW219772   4.544   0.146   0.050 -1.6739 -0.3418 -0.3896
 6111SOL     OW19773   4.929   6.447  11.897  0.4116 -0.4205  0.1792
 6111SOL    HW119774   5.020   6.476  11.903  0.5461 -0.9332  0.7072
 6111SOL    HW219775   4.880   6.525  11.870  0.9602 -0.0590  0.2188
 6112SOL     OW19776   0.560   1.471   9.083  0.0801  0.3156 -0.4114
 6112SOL    HW119777   0.593   1.445   8.997  1.6842  0.7489  0.0269
 6112SOL    HW219778   0.637   1.508   9.128 -0.5782 -0.4018  1.4123
 6113SOL     OW19779   1.616   5.884   3.676 -0.1988  0.0281  0.0654
 6113SOL    HW119780   1.645   5.828   3.747  1.2501  1.0391  0.2941
 6113SOL    HW219781   1.614   5.972   3.713 -0.3954  0.4324 -0.8670
 6114SOL     OW19782   1.564   4.122   5.689 -0.1012 -0.6398 -0.1734
 6114SOL    HW119783   1.494   4.129   5.624  1.0004 -1.2863 -1.4732
 6114SOL    HW219784   1.519   4.099   5.770 -1.5746  0.7293 -0.5418
 6115SOL     OW19785   7.733   4.388   8.684 -0.2648 -0.0570  0.1583
 6115SOL    HW119786   7.695   4.345   8.760 -0.6004 -0.1821 -0.0762
 6115SOL    HW219787   7.746   4.478   8.711 -2.5369  0.5023 -0.3393
 6116SOL     OW19788   3.155   4.632   8.425 -0.5795  0.3959 -0.7075
 6116SOL    HW119789   3.110   4.699   8.477 -0.4201  0.5082 -0.7150
 6116SOL    HW219790   3.141   4.551   8.473  0.8328  0.7274  0.3127
 6117SOL     OW19791   7.168   7.980   6.255  0.0007 -0.0023 -0.0029
 6117SOL    HW119792   7.207   7.932   6.182 -0.2479  0.7875 -0.6713
 6117SOL    HW219793   7.229   8.053   6.270 -0.2642  0.1790  0.1863
 6118SOL     OW19794   0.617   6.881   0.439 -0.2105  0.0893 -0.6022
 6118SOL    HW119795   0.521   6.887   0.449 -0.0599  0.1512  1.1838
 6118SOL    HW219796   0.637   6.789   0.457  0.1383  0.2566 -0.1224
 6119SOL     OW19797   7.648   5.420   4.663 -0.0983  0.3453 -0.2035
 6119SOL    HW119798   7.637   5.459   4.576  1.8491 -1.7653 -1.4964
 6119SOL    HW219799   7.737   5.443   4.689  0.4943 -1.7158 -0.2665
 6120SOL     OW19800   2.910   3.115   5.209 -0.2043 -0.0242 -0.0989
 6120SOL    HW119801   2.880   3.205   5.222  0.5457  0.5352 -1.9324
 6120SOL    HW219802   3.005   3.119   5.221 -0.1405 -0.5189 -0.3964
 6121SOL     OW19803   1.563   4.199   4.645  0.7661  0.2484 -0.1063
 6121SOL    HW119804   1.544   4.165   4.733  0.7103  0.9120  0.1380
 6121SOL    HW219805   1.540   4.291   4.649  0.7968  0.2890 -0.8147
 6122SOL     OW19806   3.861   1.913  12.335  0.4317  0.0178  0.3066
 6122SOL    HW119807   3.854   1.950  12.423 -0.3739  1.2298 -0.2371
 6122SOL    HW219808   3.920   1.839  12.345  1.6284  1.0874  1.5703
 6123SOL     OW19809   1.025   5.216   9.645 -0.0943 -0.1650  0.6010
 6123SOL    HW119810   0.944   5.265   9.631 -0.6957 -0.8349  1.5530
 6123SOL    HW219811   1.095   5.281   9.636 -0.6514  0.2350 -1.2135
 6124SOL     OW19812   6.561   5.777   2.257 -0.0165  0.5303 -0.7747
 6124SOL    HW119813   6.618   5.767   2.333 -1.2622  0.2203  0.1606
 6124SOL    HW219814   6.603   5.726   2.188 -0.3439 -1.6932  0.5711
 6125SOL     OW19815   2.762   6.368  11.850  0.2252  0.3301 -0.2201
 6125SOL    HW119816   2.784   6.285  11.893 -1.4210 -0.7022 -1.2601
 6125SOL    HW219817   2.718   6.419  11.918  0.5870  0.0720  0.2190
 6126SOL     OW19818   6.327   5.606   3.510  0.4600 -0.2559 -0.3155
 6126SOL    HW119819   6.334   5.584   3.418  1.0975 -0.0494 -0.3247
 6126SOL    HW219820   6.303   5.698   3.512 -0.1900 -0.4223 -0.2731
 6127SOL     OW19821   4.576   2.519   5.458  0.0204 -0.1836 -0.0954
 6127SOL    HW119822   4.548   2.550   5.543  1.6341  0.0415  0.3965
 6127SOL    HW219823   4.544   2.584   5.396 -0.1372  0.2902  0.4797
 6128SOL     OW19824   0.148   3.608  10.827  0.3385  0.3520 -0.0848
 6128SOL    HW119825   0.151   3.515  10.849  0.8059  0.1955 -0.7857
 6128SOL    HW219826   0.230   3.625  10.780 -0.2290  0.8628 -0.9290
 6129SOL     OW19827   1.476   3.551   3.476  0.0874 -0.1072 -0.1845
 6129SOL    HW119828   1.414   3.557   3.403  1.7111  0.1464 -1.6206
 6129SOL    HW219829   1.479   3.458   3.497 -1.0000 -0.0864  0.1371
 6130SOL     OW19830   3.566   3.968   2.939 -0.4413  0.4209 -0.1203
 6130SOL    HW119831   3.565   4.034   2.870  1.1133 -0.1027 -0.7012
 6130SOL    HW219832   3.579   3.885   2.893 -2.5866 -0.3600  0.5801
 6131SOL     OW19833   1.034   2.333   2.830  0.1842 -0.1780  0.0320
 6131SOL    HW119834   1.101   2.390   2.868 -0.5614  0.8438 -0.1462
 6131SOL    HW219835   0.964   2.332   2.895  0.1225 -0.7758 -0.0380
 6132SOL     OW19836   6.331   6.391   1.848  0.4045 -0.4896 -0.1332
 6132SOL    HW119837   6.285   6.334   1.910  0.9727 -1.5311 -0.6356
 6132SOL    HW219838   6.420   6.398   1.882  0.2413  0.4303  0.1296
 6133SOL     OW19839   7.573   6.107   7.981 -0.2323 -0.2856  0.3540
 6133SOL    HW119840   7.485   6.097   8.016  0.1069 -0.3734  1.1923
 6133SOL    HW219841   7.575   6.197   7.948 -0.5975 -0.2481  0.4289
 6134SOL     OW19842   1.719   2.916  12.121  0.2445 -0.2110  0.5009
 6134SOL    HW119843   1.707   2.893  12.029  1.4986 -0.4546  0.3776
 6134SOL    HW219844   1.764   3.000  12.120  0.4150 -0.2923  0.8875
 6135SOL     OW19845   1.133   6.170   1.614  0.2333 -0.5087 -0.2800
 6135SOL    HW119846   1.092   6.255   1.600 -0.5993 -0.7573  0.5886
 6135SOL    HW219847   1.210   6.189   1.667  0.1342 -0.2718 -0.2165
 6136SOL     OW19848   5.907   7.598   5.835  0.6531 -0.3251  0.3464
 6136SOL    HW119849   5.856   7.656   5.891  1.4401  1.0785 -0.3533
 6136SOL    HW219850   5.998   7.626   5.847  1.0370 -1.2774 -0.1796
 6137SOL     OW19851   5.133   1.708  11.145  0.5391 -0.0858 -0.0513
 6137SOL    HW119852   5.057   1.762  11.124 -1.5329 -1.8377  2.2891
 6137SOL    HW219853   5.206   1.769  11.149 -0.9480  1.8798 -1.1747
 6138SOL     OW19854   0.470   5.145   4.473  0.0172 -0.5170 -0.4388
 6138SOL    HW119855   0.440   5.087   4.543  3.2045 -3.1780 -0.9703
 6138SOL    HW219856   0.542   5.096   4.432  2.2691  3.4029 -1.7065
 6139SOL     OW19857   4.796   1.798   1.981  0.3579  0.0913  0.1077
 6139SOL    HW119858   4.733   1.740   2.022  1.4340 -1.1979  0.0295
 6139SOL    HW219859   4.797   1.876   2.036 -2.4104  0.8576 -0.7552
 6140SOL     OW19860   7.871   5.794   2.513 -0.6205  0.0148  0.1261
 6140SOL    HW119861   7.921   5.873   2.493 -0.0615 -0.5049 -0.5673
 6140SOL    HW219862   7.783   5.813   2.480 -0.1859 -0.0991 -1.1529
 6141SOL     OW19863   5.808   1.291   1.258 -0.3331 -0.8809 -0.1420
 6141SOL    HW119864   5.860   1.318   1.182  1.1930  0.2777  1.2273
 6141SOL    HW219865   5.873   1.261   1.322 -1.3413  0.3319  1.5409
 6142SOL     OW19866   7.410   2.811   2.591 -0.5676 -0.2505  0.2341
 6142SOL    HW119867   7.317   2.804   2.571 -1.0948 -1.5588  2.8132
 6142SOL    HW219868   7.418   2.891   2.643 -0.4356 -0.7215  0.9420
 6143SOL     OW19869   3.514   2.376   3.916  0.0811  0.2926  0.0688
 6143SOL    HW119870   3.454   2.417   3.978  0.3945 -0.8677  1.1659
 6143SOL    HW219871   3.568   2.317   3.969  0.2566 -0.8464 -1.3084
 6144SOL     OW19872   6.786   0.993   7.826 -0.0381 -0.1546  0.4956
 6144SOL    HW119873   6.761   0.944   7.904 -0.3501  0.0727  0.5411
 6144SOL    HW219874   6.784   0.928   7.756  0.3619 -0.3846  0.6984
 6145SOL     OW19875   0.381   7.590   1.285  0.0453 -0.3996  0.0036
 6145SOL    HW119876   0.354   7.676   1.253  1.0391 -0.3574 -0.7857
 6145SOL    HW219877   0.474   7.584   1.263 -0.0037 -1.6778  0.0376
 6146SOL     OW19878   5.622   5.506   1.596 -0.5537 -1.0011 -0.1507
 6146SOL    HW119879   5.601   5.446   1.524  2.0115 -1.6997 -0.4300
 6146SOL    HW219880   5.711   5.481   1.622 -0.5862  0.7055  1.7924
 6147SOL     OW19881   1.569   4.141  11.828 -0.2127  0.9939 -0.4098
 6147SOL    HW119882   1.603   4.226  11.857 -0.1032  0.9019 -0.2685
 6147SOL    HW219883   1.504   4.163  11.761  0.9032  1.1346 -1.4859
 6148SOL     OW19884   5.438   1.118   5.436  0.0494 -0.4180  0.3351
 6148SOL    HW119885   5.485   1.194   5.472 -0.6801  1.4673 -2.3730
 6148SOL    HW219886   5.507   1.065   5.396  0.4274 -0.5450  1.1283
 6149SOL     OW19887   3.375   6.889   5.316  0.4495  0.5455  0.0902
 6149SOL    HW119888   3.434   6.828   5.361  1.5529  1.1004 -0.5570
 6149SOL    HW219889   3.428   6.926   5.246 -0.7580  0.8904 -0.6748
 6150SOL     OW19890   1.746   6.868   3.094  0.2474 -0.5878  0.0862
 6150SOL    HW119891   1.752   6.775   3.114 -0.9129 -0.5490  0.7499
 6150SOL    HW219892   1.714   6.908   3.175  0.7032  0.3825 -0.1979
 6151SOL     OW19893   5.773   5.630   5.930 -0.1212 -0.3263  0.3267
 6151SOL    HW119894   5.812   5.688   5.996 -0.7272 -0.0680  0.4720
 6151SOL    HW219895   5.814   5.655   5.848  0.3151 -0.3426  0.5392
 6152SOL     OW19896   7.112   2.309   4.004  0.1548 -0.1074  0.2004
 6152SOL    HW119897   7.102   2.216   3.983  1.4503 -0.3838  0.7212
 6152SOL    HW219898   7.025   2.336   4.035 -0.7713 -0.6423 -1.7449
 6153SOL     OW19899   5.507   2.039   0.190  0.1012  0.2791  0.1934
 6153SOL    HW119900   5.477   2.085   0.268 -0.4224  2.4785 -1.2033
 6153SOL    HW219901   5.557   2.104   0.141 -1.3731 -0.3317 -2.3110
 6154SOL     OW19902   3.256   1.582   4.354  0.4082  0.5030 -0.1714
 6154SOL    HW119903   3.284   1.665   4.391  2.1738 -0.5011  0.8912
 6154SOL    HW219904   3.168   1.599   4.322 -0.2283  2.1515  2.1479
 6155SOL     OW19905   5.318   1.980   8.053 -0.3225  0.1302 -0.2608
 6155SOL    HW119906   5.287   1.890   8.066  1.3957 -0.1524  2.7672
 6155SOL    HW219907   5.238   2.032   8.047 -1.3634 -1.5038 -1.9823
 6156SOL     OW19908   5.886   2.328   4.149  0.3089  0.1520  0.2841
 6156SOL    HW119909   5.964   2.383   4.154 -0.8966  2.0497 -0.3425
 6156SOL    HW219910   5.890   2.272   4.226  2.3349  0.1020  0.1787
 6157SOL     OW19911   3.965   7.456  12.170 -0.7758 -0.1098  0.4761
 6157SOL    HW119912   3.996   7.447  12.079  0.1120 -1.6897  0.8968
 6157SOL    HW219913   4.039   7.496  12.216 -1.5436  1.5045  0.3632
 6158SOL     OW19914   4.733   5.627   8.230  0.3840  0.4866 -0.2855
 6158SOL    HW119915   4.694   5.562   8.171 -1.3622  0.1130  1.1925
 6158SOL    HW219916   4.658   5.676   8.264  1.0075 -0.6132  3.0850
 6159SOL     OW19917   4.957   7.042   7.891 -0.1843 -0.2596  0.2681
 6159SOL    HW119918   4.944   7.122   7.942 -0.5101 -0.0787 -0.0966
 6159SOL    HW219919   5.046   7.013   7.914  0.1770  0.5488 -0.0775
 6160SOL     OW19920   5.511   7.609   4.515  0.1517  0.0592 -0.5339
 6160SOL    HW119921   5.443   7.545   4.492  0.3988 -0.6195  0.5592
 6160SOL    HW219922   5.532   7.590   4.606  0.7554  1.2444 -0.4096
 6161SOL     OW19923   2.450   5.747   9.485  0.0184  0.7726  0.1730
 6161SOL    HW119924   2.533   5.747   9.438  0.0782  1.6562  0.2613
 6161SOL    HW219925   2.474   5.726   9.575 -0.0780 -0.7666 -0.1308
 6162SOL     OW19926   0.734   1.814   8.692  0.5627 -0.3775  0.3768
 6162SOL    HW119927   0.776   1.822   8.606 -1.6257 -2.5976 -1.0694
 6162SOL    HW219928   0.713   1.904   8.717  0.7643  0.3108 -1.7287
 6163SOL     OW19929   6.829   3.893   7.331 -0.0262 -0.5239  0.4177
 6163SOL    HW119930   6.765   3.825   7.347 -1.6824  0.3388 -1.9253
 6163SOL    HW219931   6.903   3.848   7.292  0.8245 -1.4978  2.9330
 6164SOL     OW19932   2.193   3.260   6.573 -0.4404  0.3458 -0.2329
 6164SOL    HW119933   2.219   3.325   6.638  0.4747  0.0503 -0.2818
 6164SOL    HW219934   2.272   3.208   6.559 -1.3198 -1.1948  0.2895
 6165SOL     OW19935   5.199   4.572   6.710 -0.0906 -0.0310 -0.0320
 6165SOL    HW119936   5.112   4.601   6.738 -0.1501 -1.5177  1.5449
 6165SOL    HW219937   5.184   4.523   6.630 -0.8624 -0.9337  0.6393
 6166SOL     OW19938   5.327   4.939   9.562  0.4592 -0.1691 -0.1708
 6166SOL    HW119939   5.267   4.913   9.492  0.3920  1.1307 -0.6257
 6166SOL    HW219940   5.269   4.968   9.633  0.3914  3.6446 -1.5616
 6167SOL     OW19941   4.959   4.697   6.786  0.1157 -0.4205  0.1739
 6167SOL    HW119942   4.933   4.636   6.856  1.3526 -0.3691  0.7056
 6167SOL    HW219943   4.998   4.771   6.833 -1.5825  0.9417 -0.4471
 6168SOL     OW19944   2.856   1.036   3.697 -0.7141  0.2174 -1.0408
 6168SOL    HW119945   2.940   1.074   3.674 -1.4245  0.3505 -3.6995
 6168SOL    HW219946   2.874   0.981   3.774  1.3063  1.9695 -0.1758
 6169SOL     OW19947   1.424   7.823   0.417  0.3435  0.4165 -0.3792
 6169SOL    HW119948   1.460   7.742   0.381 -0.5245 -0.3025  0.3236
 6169SOL    HW219949   1.382   7.866   0.343 -1.1423 -0.8925 -0.3615
 6170SOL     OW19950   7.719   6.659   9.097 -0.4500  0.4161 -0.1770
 6170SOL    HW119951   7.791   6.679   9.157 -0.7055 -1.0161  0.6610
 6170SOL    HW219952   7.759   6.661   9.010  0.6412 -0.4040  0.2734
 6171SOL     OW19953   4.324   1.051   7.246 -0.5374 -0.1221  0.3812
 6171SOL    HW119954   4.240   1.019   7.277 -0.6962  0.1634  0.2556
 6171SOL    HW219955   4.304   1.137   7.209 -0.2188 -0.1227  0.2056
 6172SOL     OW19956   6.038   6.512  12.218  0.6787 -0.2809 -0.3156
 6172SOL    HW119957   6.128   6.522  12.187  0.6302 -0.3521 -0.4767
 6172SOL    HW219958   5.989   6.482  12.142  0.2307  1.1379 -0.6266
 6173SOL     OW19959   2.229   6.608   2.667  0.3425 -0.3554 -0.0443
 6173SOL    HW119960   2.311   6.601   2.716 -0.7077  0.5140  1.9990
 6173SOL    HW219961   2.225   6.700   2.640  0.5300 -0.6460 -1.1153
 6174SOL     OW19962   0.873   4.076   4.696 -0.2081 -0.1539 -0.1374
 6174SOL    HW119963   0.948   4.074   4.637 -0.5770 -1.7694 -0.6067
 6174SOL    HW219964   0.910   4.093   4.782  1.0623 -3.2420  0.0589
 6175SOL     OW19965   3.041   7.304   4.924 -0.2051 -0.1167  0.3444
 6175SOL    HW119966   3.096   7.301   5.002 -1.8368  0.0427  1.5385
 6175SOL    HW219967   2.957   7.268   4.952 -0.1404 -2.3423 -1.9567
 6176SOL     OW19968   0.068   5.805   4.835  0.1450 -0.5784  0.2585
 6176SOL    HW119969  -0.001   5.748   4.866 -1.3347  0.6106 -0.7047
 6176SOL    HW219970   0.032   5.893   4.842  1.7361  0.1259  0.1526
 6177SOL     OW19971   6.687   4.856   7.389  0.0285 -0.5217 -0.1133
 6177SOL    HW119972   6.650   4.858   7.477 -0.4475 -0.0071 -0.3134
 6177SOL    HW219973   6.634   4.790   7.343  0.2452 -0.7554 -0.0249
 6178SOL     OW19974   1.454   6.743   7.384 -0.7074  0.5007  0.1842
 6178SOL    HW119975   1.382   6.760   7.445 -0.5314 -0.0654  0.5639
 6178SOL    HW219976   1.412   6.711   7.305 -0.8609 -0.3598  0.5943
 6179SOL     OW19977   1.530   2.727   5.591  0.1708  0.2846 -0.2191
 6179SOL    HW119978   1.590   2.781   5.539 -0.2976  0.6657 -0.3700
 6179SOL    HW219979   1.582   2.650   5.615  0.5063  0.2752 -0.9456
 6180SOL     OW19980   2.646   7.170   8.160  0.0395 -0.3500  0.2212
 6180SOL    HW119981   2.617   7.261   8.163 -0.0785 -0.3951  0.5410
 6180SOL    HW219982   2.586   7.124   8.219 -0.4212 -0.7807 -0.5721
 6181SOL     OW19983   4.362   2.560   1.974  0.0999 -0.9857 -0.2955
 6181SOL    HW119984   4.316   2.643   1.957 -0.1990 -1.2923 -1.0443
 6181SOL    HW219985   4.428   2.582   2.039 -1.1277 -0.5266  0.8541
 6182SOL     OW19986   1.850   6.768   8.261 -0.1136  0.8298  0.2998
 6182SOL    HW119987   1.874   6.824   8.335 -0.3544  2.0497 -0.5093
 6182SOL    HW219988   1.820   6.829   8.194 -1.5219 -0.3575 -0.2125
 6183SOL     OW19989   1.060   3.053  11.165  0.3028  0.3144  0.3334
 6183SOL    HW119990   1.089   3.137  11.130 -1.3896  0.9052  0.2726
 6183SOL    HW219991   1.141   3.011  11.196  1.2637  1.6477 -0.2736
 6184SOL     OW19992   7.674   0.130   9.683 -0.3807  0.0297  0.0410
 6184SOL    HW119993   7.760   0.133   9.641 -0.9107 -0.6332 -1.1487
 6184SOL    HW219994   7.679   0.058   9.745  0.6189  1.4211  1.6660
 6185SOL     OW19995   7.564   5.802   5.750 -0.0354  0.1770  0.3822
 6185SOL    HW119996   7.551   5.820   5.657 -3.1179  1.6844  0.9560
 6185SOL    HW219997   7.621   5.872   5.780 -0.1635  0.5143 -0.1471
 6186SOL     OW19998   4.525   3.116  11.148  0.6984  0.2225 -0.2528
 6186SOL    HW119999   4.562   3.104  11.236 -0.4161 -2.6772 -0.0660
 6186SOL    HW220000   4.431   3.103  11.160  0.3056  1.6050 -1.6352
 6187SOL     OW20001   6.169   0.555   1.330 -0.2647 -0.3707  0.1914
 6187SOL    HW120002   6.157   0.499   1.253 -0.8875  0.1638 -0.1057
 6187SOL    HW220003   6.208   0.635   1.296 -1.4959  0.2754  0.2703
 6188SOL     OW20004   6.217   3.807  10.609  0.4773 -0.3988  0.2209
 6188SOL    HW120005   6.287   3.872  10.618  0.7192 -0.5668 -0.4110
 6188SOL    HW220006   6.137   3.859  10.597  0.5551 -0.2120  0.4961
 6189SOL     OW20007   2.702   4.312   6.016 -0.5130  0.1053  0.2338
 6189SOL    HW120008   2.768   4.314   5.947 -0.1791 -1.1423  0.4915
 6189SOL    HW220009   2.697   4.402   6.048  1.5724  0.1096  0.6777
 6190SOL     OW20010   6.292   3.655   4.789 -0.6141  0.1671 -0.4841
 6190SOL    HW120011   6.253   3.652   4.876 -1.0070 -0.3679 -0.6681
 6190SOL    HW220012   6.380   3.619   4.800 -0.0739  1.5849 -0.0250
 6191SOL     OW20013   2.553   0.172   4.284  0.1036 -0.1322 -0.3710
 6191SOL    HW120014   2.628   0.204   4.334 -0.8539  1.5963  0.0181
 6191SOL    HW220015   2.586   0.164   4.194  1.0443 -0.4558 -0.0060
 6192SOL     OW20016   7.540   1.789  10.668 -0.0354 -0.1188 -0.4489
 6192SOL    HW120017   7.612   1.844  10.697  1.4250 -1.4934 -1.3299
 6192SOL    HW220018   7.478   1.849  10.626  0.2238  1.1728  0.9416
 6193SOL     OW20019   4.926   7.432   7.468  0.0731  0.4017  0.1951
 6193SOL    HW120020   4.943   7.370   7.539 -0.5482  1.2262  1.0866
 6193SOL    HW220021   4.931   7.379   7.388  3.1414 -0.1418  0.6039
 6194SOL     OW20022   2.633   4.631   1.172 -0.3602  0.6372 -0.3484
 6194SOL    HW120023   2.561   4.576   1.203 -0.3977 -0.4788 -2.2474
 6194SOL    HW220024   2.601   4.721   1.183 -2.1208  0.1617 -1.1961
 6195SOL     OW20025   2.189   1.615   6.120 -0.4345 -0.0996 -0.0521
 6195SOL    HW120026   2.157   1.586   6.206  0.1257  0.1990  0.2658
 6195SOL    HW220027   2.125   1.581   6.058  0.2322 -2.1628  0.2850
 6196SOL     OW20028   5.658   0.995   1.147 -0.6793  0.1294 -0.0584
 6196SOL    HW120029   5.691   1.016   1.234  1.8525 -0.8756 -0.6891
 6196SOL    HW220030   5.672   1.075   1.096  1.5659 -0.4350 -0.4614
 6197SOL     OW20031   2.195   7.890   7.938 -0.0855 -0.0629  0.0166
 6197SOL    HW120032   2.223   7.882   7.847  0.5334 -0.1290  0.2112
 6197SOL    HW220033   2.133   7.963   7.938 -1.6010 -1.3056 -0.8033
 6198SOL     OW20034   1.604   3.727  12.369 -0.6051 -0.1126 -0.2643
 6198SOL    HW120035   1.682   3.782  12.366  0.4224 -1.5177 -0.2527
 6198SOL    HW220036   1.566   3.735  12.281 -0.2072  0.2468 -0.4043
 6199SOL     OW20037   5.017   1.749   2.782  0.0020 -0.1634  0.1715
 6199SOL    HW120038   4.949   1.714   2.724 -1.4943 -3.3654  3.4523
 6199SOL    HW220039   4.976   1.825   2.823 -0.5021 -0.3479  0.0208
 6200SOL     OW20040   3.397   2.243   6.988 -0.1921 -0.2755  0.5515
 6200SOL    HW120041   3.389   2.291   7.071 -0.8360  0.9676 -0.2000
 6200SOL    HW220042   3.490   2.245   6.969 -0.0850 -0.2168  1.0530
 6201SOL     OW20043   4.356   2.750   3.288  0.2231 -0.1705 -0.4306
 6201SOL    HW120044   4.337   2.674   3.342 -1.0287 -1.2470 -2.2716
 6201SOL    HW220045   4.319   2.824   3.337 -1.0679 -1.1285  0.1015
 6202SOL     OW20046   7.766   5.504   3.258  0.1262 -0.6235  0.1357
 6202SOL    HW120047   7.838   5.545   3.307 -0.1050 -0.9419  0.7515
 6202SOL    HW220048   7.687   5.536   3.301 -0.0795 -0.9610  0.0098
 6203SOL     OW20049   3.011   3.007   8.419  0.1186  0.3238  0.0953
 6203SOL    HW120050   3.042   3.034   8.506  0.0103  0.2498  0.1582
 6203SOL    HW220051   3.040   2.916   8.411 -0.8760 -0.0546  0.5479
 6204SOL     OW20052   0.855   0.660   0.865  0.1305 -0.2317 -0.0456
 6204SOL    HW120053   0.856   0.630   0.956  1.8312  0.4554  0.1985
 6204SOL    HW220054   0.873   0.582   0.813  1.1634 -0.2678  0.3547
 6205SOL     OW20055   4.312   0.563  11.658  0.2483 -0.0652 -0.2821
 6205SOL    HW120056   4.293   0.656  11.644  2.6967  0.3015 -1.8164
 6205SOL    HW220057   4.288   0.546  11.749  1.2131  2.4810  0.5065
 6206SOL     OW20058   0.473   0.401   6.329 -0.0881 -0.5759 -0.1987
 6206SOL    HW120059   0.565   0.387   6.305  0.3882 -0.2501  1.2953
 6206SOL    HW220060   0.423   0.368   6.255  1.2658  0.7523 -1.7721
 6207SOL     OW20061   7.917   4.961   4.990  0.5305 -0.4440 -0.1021
 6207SOL    HW120062   7.835   5.002   4.964  0.4649 -0.8118 -0.4935
 6207SOL    HW220063   7.916   4.964   5.086  0.6386  0.6626 -0.1215
 6208SOL     OW20064   0.796   6.975   9.061  0.0610  0.8244 -0.4583
 6208SOL    HW120065   0.875   6.927   9.084 -0.4501  0.5053  0.7029
 6208SOL    HW220066   0.766   6.933   8.980 -1.1186 -1.8452  1.2225
 6209SOL     OW20067   2.512   7.011   9.411  0.3398  0.2853  0.3569
 6209SOL    HW120068   2.608   7.015   9.417  0.4682  0.3577 -1.2123
 6209SOL    HW220069   2.481   7.067   9.481  1.4736  0.9201  0.3733
 6210SOL     OW20070   4.598   3.500   3.143 -0.2169 -0.5964  0.0379
 6210SOL    HW120071   4.685   3.534   3.166 -0.5231  0.3964 -0.2645
 6210SOL    HW220072   4.603   3.485   3.049 -0.8756  0.9905 -0.2725
 6211SOL     OW20073   4.352   7.714   9.593  0.4185 -0.2086  0.2267
 6211SOL    HW120074   4.264   7.734   9.627  0.9465  0.1032  1.4511
 6211SOL    HW220075   4.400   7.796   9.601  1.2137 -0.7164  0.8410
 6212SOL     OW20076   1.515   3.825   5.798  0.0894  0.3165 -0.3386
 6212SOL    HW120077   1.473   3.902   5.834 -0.7227 -0.1125 -0.3382
 6212SOL    HW220078   1.476   3.815   5.711  2.7280  1.9044 -1.8147
 6213SOL     OW20079   3.082   2.879   5.369  0.5898  0.0104  0.3548
 6213SOL    HW120080   2.993   2.843   5.373 -0.0333  1.5178  0.9496
 6213SOL    HW220081   3.069   2.971   5.343  1.8352  0.7003  1.9762
 6214SOL     OW20082   7.815   6.738   6.658  0.2522  0.4805  0.6210
 6214SOL    HW120083   7.766   6.808   6.701 -0.0922 -0.3304  1.5719
 6214SOL    HW220084   7.903   6.746   6.694  0.1436  0.2480  0.9361
 6215SOL     OW20085   7.081   1.087   1.141  0.2645 -0.2978 -0.4243
 6215SOL    HW120086   7.098   1.091   1.047 -0.4343  1.7996 -0.5100
 6215SOL    HW220087   7.075   1.179   1.169 -0.3430 -0.8671  1.5139
 6216SOL     OW20088   5.615   4.606   2.117 -0.3001  0.2597 -0.0086
 6216SOL    HW120089   5.573   4.588   2.201 -0.5811 -1.9638 -0.5698
 6216SOL    HW220090   5.708   4.616   2.138 -0.0674 -2.2076  0.3986
 6217SOL     OW20091   0.617   6.205   9.774 -0.3295  0.5323  0.0686
 6217SOL    HW120092   0.575   6.182   9.857  1.9229 -1.4100  0.7695
 6217SOL    HW220093   0.602   6.129   9.718  1.7712 -0.0035  0.1841
 6218SOL     OW20094   0.791   2.548  12.201 -0.0898  0.0356 -0.5273
 6218SOL    HW120095   0.735   2.503  12.265  0.4854  0.2159  0.1167
 6218SOL    HW220096   0.875   2.503  12.209  0.2574  0.6890 -0.4636
 6219SOL     OW20097   6.030   5.773   5.387 -0.3003  0.0552  0.3476
 6219SOL    HW120098   5.998   5.684   5.371  0.7082 -0.2387 -0.0780
 6219SOL    HW220099   5.984   5.800   5.466 -0.4491 -0.9391  0.6186
 6220SOL     OW20100   4.211   5.087   8.275  0.1665  0.0355 -0.0492
 6220SOL    HW120101   4.271   5.015   8.293  0.1067  0.6111  2.9480
 6220SOL    HW220102   4.268   5.160   8.251  0.5306  0.0439  0.8148
 6221SOL     OW20103   4.668   5.074  10.062  0.1790  0.2209  0.1502
 6221SOL    HW120104   4.734   5.132  10.099  0.4738  0.6814 -1.0322
 6221SOL    HW220105   4.678   5.084   9.967 -1.4383  0.1156 -0.0570
 6222SOL     OW20106   0.558   7.435   4.725  0.0401  0.2215  0.3297
 6222SOL    HW120107   0.488   7.499   4.730  0.1499  0.4467 -0.8073
 6222SOL    HW220108   0.514   7.353   4.700  0.0335  0.0920  0.7620
 6223SOL     OW20109   3.356   2.518  10.057  0.3441  0.0880  0.4060
 6223SOL    HW120110   3.330   2.569   9.980  0.3118  0.6650  0.7849
 6223SOL    HW220111   3.281   2.525  10.117  0.6633  0.2835  0.7926
 6224SOL     OW20112   3.599   6.958   2.297  0.1048  0.1970  0.4612
 6224SOL    HW120113   3.530   6.924   2.353  0.3919  0.3085  0.8819
 6224SOL    HW220114   3.553   6.985   2.217 -0.7247  2.5776  1.6639
 6225SOL     OW20115   7.176   3.440   6.731  0.2178  0.1756 -0.2402
 6225SOL    HW120116   7.105   3.503   6.749 -1.8465 -1.8360 -0.8351
 6225SOL    HW220117   7.152   3.402   6.646  0.0195 -3.0949  1.1462
 6226SOL     OW20118   2.580   2.555   6.561  1.3668 -0.1703 -0.1451
 6226SOL    HW120119   2.559   2.576   6.652  2.2096 -1.6663  0.4286
 6226SOL    HW220120   2.587   2.640   6.518 -1.1768  0.5170  0.6452
 6227SOL     OW20121   3.135   4.029   8.128  0.0195 -0.8691  0.3188
 6227SOL    HW120122   3.208   4.081   8.096 -1.1309 -0.8046 -2.5734
 6227SOL    HW220123   3.163   3.938   8.117 -0.2040 -0.8415 -0.6299
 6228SOL     OW20124   5.256   7.810   6.401  0.1926  0.1604 -0.8554
 6228SOL    HW120125   5.180   7.835   6.350 -0.2037  1.9121  0.5095
 6228SOL    HW220126   5.315   7.885   6.395  0.3252  0.2339  0.8344
 6229SOL     OW20127   1.987   0.617   8.572 -0.1449  0.0412 -0.1649
 6229SOL    HW120128   2.003   0.674   8.648  0.0575  0.4206 -0.4858
 6229SOL    HW220129   2.070   0.571   8.560  0.3714  1.1488 -1.1158
 6230SOL     OW20130   6.867   0.071   3.012  0.6295  0.1362 -0.2328
 6230SOL    HW120131   6.809   0.095   3.084  1.1736 -0.1356  0.3145
 6230SOL    HW220132   6.810   0.062   2.936 -0.1052 -0.5224  0.3789
 6231SOL     OW20133   7.982   5.582   4.141  0.1395 -0.8886 -0.2407
 6231SOL    HW120134   7.913   5.568   4.076 -0.1798 -2.1996  0.3384
 6231SOL    HW220135   8.063   5.588   4.091 -0.3732  0.6335 -0.9319
 6232SOL     OW20136   7.150   0.824   3.629  0.1599 -0.2298  0.2399
 6232SOL    HW120137   7.104   0.899   3.592 -0.5547 -0.2536  1.0530
 6232SOL    HW220138   7.084   0.777   3.679  1.1657  0.0621  1.9346
 6233SOL     OW20139   4.922   5.218   1.231  0.3145 -0.4838 -0.2427
 6233SOL    HW120140   4.852   5.244   1.171 -0.4577  0.9523  1.1853
 6233SOL    HW220141   4.943   5.298   1.279 -0.4964 -1.9554  2.7632
 6234SOL     OW20142   0.263   4.729  12.368  1.0814 -0.2271  0.1991
 6234SOL    HW120143   0.171   4.732  12.344  0.4613  1.3642  2.5041
 6234SOL    HW220144   0.274   4.648  12.418  0.2388  0.8516  2.2373
 6235SOL     OW20145   4.144   4.700   4.101  0.0871  0.4416 -0.2285
 6235SOL    HW120146   4.070   4.649   4.134 -0.1952  1.0808  0.1341
 6235SOL    HW220147   4.146   4.778   4.156  2.8965 -0.8859  1.8084
 6236SOL     OW20148   5.655   6.125   9.543  0.0017  0.2512 -0.3741
 6236SOL    HW120149   5.604   6.183   9.599  0.0979  0.6822 -0.7240
 6236SOL    HW220150   5.715   6.081   9.603 -1.0221 -0.5406  0.0931
 6237SOL     OW20151   2.975   6.662   4.284 -0.0824 -0.8238  0.0477
 6237SOL    HW120152   3.039   6.601   4.320 -0.0408 -0.7846  0.0406
 6237SOL    HW220153   3.007   6.749   4.310 -0.1997 -0.8113  0.1504
 6238SOL     OW20154   1.494   2.424   7.629 -0.2448 -0.3125 -0.3506
 6238SOL    HW120155   1.403   2.396   7.619 -0.3309  0.1211 -0.7860
 6238SOL    HW220156   1.490   2.519   7.630  0.0294 -0.2919  1.3554
 6239SOL     OW20157   0.588   6.553   7.519  0.2761  0.3272 -0.3368
 6239SOL    HW120158   0.551   6.614   7.582 -0.2748 -0.2169 -0.1252
 6239SOL    HW220159   0.526   6.553   7.446 -0.9742 -1.6725  0.6302
 6240SOL     OW20160   4.198   5.431  11.168 -0.4022  0.0870 -0.9460
 6240SOL    HW120161   4.257   5.358  11.188 -0.4936  0.7195  2.0430
 6240SOL    HW220162   4.252   5.493  11.119 -0.1701 -1.6281 -3.0219
 6241SOL     OW20163   6.034   3.239   7.946  0.6355 -0.1980 -0.0100
 6241SOL    HW120164   6.089   3.260   8.021 -0.4977  0.8430  0.5675
 6241SOL    HW220165   5.969   3.177   7.980  0.3725 -0.0533 -0.2461
 6242SOL     OW20166   1.994   6.210   5.566 -0.3781  0.4616  0.4972
 6242SOL    HW120167   1.997   6.263   5.487 -2.5566 -1.8060 -1.2711
 6242SOL    HW220168   2.045   6.132   5.544  1.3691  0.9750  2.4199
 6243SOL     OW20169   7.955   3.335   2.939 -0.0625  0.1361  0.4321
 6243SOL    HW120170   8.026   3.383   2.896 -0.0974  0.5967  0.8756
 6243SOL    HW220171   7.985   3.244   2.939 -0.1864  0.0726 -0.8002
 6244SOL     OW20172   3.493   5.191  11.061 -0.1348 -0.5710  0.0946
 6244SOL    HW120173   3.564   5.129  11.073  1.2481  0.7767 -0.7771
 6244SOL    HW220174   3.525   5.252  10.994 -1.0249  1.6742  1.6069
 6245SOL     OW20175   6.094   7.861   0.525 -0.2986  0.0818 -0.1106
 6245SOL    HW120176   6.035   7.933   0.547 -0.4350 -0.1793  0.3972
 6245SOL    HW220177   6.176   7.882   0.568 -0.0849  0.3308 -0.6289
 6246SOL     OW20178   1.791   2.457   8.620 -0.1867 -0.1841  0.2644
 6246SOL    HW120179   1.736   2.515   8.673  0.4935  0.5296  0.2095
 6246SOL    HW220180   1.730   2.391   8.586 -0.7099 -0.4341  1.5993
 6247SOL     OW20181   0.567   7.339   5.403  0.0642  0.4681  0.3913
 6247SOL    HW120182   0.489   7.296   5.368 -1.2559  2.8291  0.2291
 6247SOL    HW220183   0.533   7.401   5.467  2.0616 -0.3071  2.3207
 6248SOL     OW20184   7.750   4.886   5.875 -0.2918  0.2417  0.3378
 6248SOL    HW120185   7.837   4.849   5.892 -0.3271  0.5838  1.2791
 6248SOL    HW220186   7.766   4.979   5.859 -0.3960  0.1486 -0.3374
 6249SOL     OW20187   5.242   6.303  11.622  0.1575 -0.2306  0.2186
 6249SOL    HW120188   5.286   6.384  11.593  0.3684 -0.5509 -0.3659
 6249SOL    HW220189   5.174   6.289  11.557  0.5237 -0.8627 -0.0333
 6250SOL     OW20190   7.902   0.471  11.836 -0.3365  0.1726 -0.1981
 6250SOL    HW120191   7.834   0.438  11.895 -0.1471 -0.4633 -0.3227
 6250SOL    HW220192   7.963   0.518  11.893  1.2726 -2.6489  0.5959
 6251SOL     OW20193   2.804   1.327   0.230 -0.1516  0.1362 -0.4790
 6251SOL    HW120194   2.852   1.255   0.271  1.0088  1.6766  0.9889
 6251SOL    HW220195   2.870   1.394   0.215 -0.9291  0.4329 -3.1293
 6252SOL     OW20196   4.096   3.897   7.404 -0.2910 -0.0512  0.0107
 6252SOL    HW120197   4.157   3.877   7.333 -1.8077 -1.3816 -0.9744
 6252SOL    HW220198   4.139   3.864   7.483  0.9145  0.4179 -0.4335
 6253SOL     OW20199   2.482   1.778   5.739  0.5395 -0.2552  0.5259
 6253SOL    HW120200   2.405   1.746   5.692 -0.5679  3.1971 -0.2819
 6253SOL    HW220201   2.552   1.779   5.674  0.2809  0.0168  0.2492
 6254SOL     OW20202   4.688   1.222   0.336 -0.6887 -0.3324  0.1922
 6254SOL    HW120203   4.727   1.296   0.291 -1.4027  0.1632  0.3621
 6254SOL    HW220204   4.622   1.261   0.393  0.0519 -0.9657  1.5220
 6255SOL     OW20205   5.020   0.253   9.007 -0.2349  0.0109 -0.3867
 6255SOL    HW120206   4.960   0.187   8.970  0.6065 -0.4040 -1.0443
 6255SOL    HW220207   4.970   0.334   9.006 -0.5467 -0.1757 -1.6260
 6256SOL     OW20208   4.590   5.682  12.213 -0.3678  0.0402  0.1156
 6256SOL    HW120209   4.623   5.650  12.297  1.2245 -0.6639 -0.7435
 6256SOL    HW220210   4.668   5.699  12.160 -1.3094 -2.1278 -2.1792
 6257SOL     OW20211   7.714   3.194   1.216 -0.2165  0.3337 -0.5870
 6257SOL    HW120212   7.729   3.111   1.262  2.0133  0.1989 -1.4218
 6257SOL    HW220213   7.621   3.192   1.192 -0.4059 -1.5243  0.1600
 6258SOL     OW20214   1.569   5.149  10.719  0.5000 -0.0817  0.4827
 6258SOL    HW120215   1.557   5.120  10.629 -1.7191  1.9270  0.0054
 6258SOL    HW220216   1.480   5.150  10.756  0.7570  2.9986  1.3246
 6259SOL     OW20217   5.727   1.831   0.139 -0.8205 -0.0647 -0.2141
 6259SOL    HW120218   5.665   1.902   0.126 -0.8380  0.1103  0.7499
 6259SOL    HW220219   5.689   1.756   0.093 -2.1680 -0.1896  1.0645
 6260SOL     OW20220   0.558   2.963   6.763  0.0497 -0.0569 -0.0973
 6260SOL    HW120221   0.487   2.910   6.797 -0.9724  1.4538  0.2515
 6260SOL    HW220222   0.516   3.026   6.704  0.1789  3.9004  3.5009
 6261SOL     OW20223   2.729   2.954   1.750 -0.2617 -0.1526  0.4611
 6261SOL    HW120224   2.814   2.912   1.737  0.8033  2.0022 -0.1519
 6261SOL    HW220225   2.689   2.956   1.663 -0.2654  0.1394  0.4678
 6262SOL     OW20226   0.674   0.574   7.599  0.4479  0.4017 -0.2466
 6262SOL    HW120227   0.611   0.527   7.544 -0.8096  1.7517 -0.0292
 6262SOL    HW220228   0.738   0.610   7.537  1.6664 -1.8298 -0.3880
 6263SOL     OW20229   4.541   5.585   9.065 -0.3847 -0.1206  0.1446
 6263SOL    HW120230   4.532   5.623   9.152  0.9237  0.8220 -0.1125
 6263SOL    HW220231   4.623   5.535   9.068 -2.2797 -3.5277  0.6499
 6264SOL     OW20232   2.598   2.969   7.037 -0.2025  0.0105 -0.3127
 6264SOL    HW120233   2.543   2.930   7.104  1.1471  2.6427  2.5901
 6264SOL    HW220234   2.668   2.905   7.023  1.2167  0.5368  3.2783
 6265SOL     OW20235   2.393   5.378   1.082  0.3340  0.4489  0.0027
 6265SOL    HW120236   2.378   5.401   0.990  0.5900 -2.2035 -0.7978
 6265SOL    HW220237   2.306   5.381   1.122 -0.3301 -1.3575 -1.1606
 6266SOL     OW20238   4.351   1.385   2.211  0.3524  0.0048 -0.8627
 6266SOL    HW120239   4.288   1.408   2.278 -1.1742  0.1958 -2.2944
 6266SOL    HW220240   4.362   1.465   2.159  1.4091 -0.1648 -0.9229
 6267SOL     OW20241   5.809   3.463  10.150 -0.2138 -0.0729 -0.4397
 6267SOL    HW120242   5.801   3.548  10.194  1.6721  0.3360 -0.8063
 6267SOL    HW220243   5.736   3.411  10.185 -1.3831  1.6559 -0.1780
 6268SOL     OW20244   6.153   7.694   5.922  0.1875  0.3839  0.2467
 6268SOL    HW120245   6.118   7.664   6.006  0.6643  0.0587  0.3326
 6268SOL    HW220246   6.221   7.757   5.945  1.0658 -0.5074  0.1423
 6269SOL     OW20247   2.992   4.436   4.066  0.7204 -0.2106 -0.3763
 6269SOL    HW120248   3.060   4.380   4.027  1.4465  0.3293  0.0866
 6269SOL    HW220249   2.910   4.400   4.033  1.2373 -0.7532 -1.1212
 6270SOL     OW20250   7.405   4.486   5.888 -0.7271  0.3222 -0.0581
 6270SOL    HW120251   7.415   4.393   5.867 -0.5967 -0.0720  1.6581
 6270SOL    HW220252   7.470   4.530   5.833 -0.5120 -0.6357 -0.5942
 6271SOL     OW20253   5.338   7.242   6.185  0.3267  0.1187  0.2725
 6271SOL    HW120254   5.431   7.227   6.167  0.7828  1.7352  1.1049
 6271SOL    HW220255   5.337   7.281   6.273 -1.0780  0.7116  0.0102
 6272SOL     OW20256   3.479   3.904   5.483  0.3155 -0.6231  0.4573
 6272SOL    HW120257   3.403   3.878   5.536 -1.2634 -2.0655 -2.2626
 6272SOL    HW220258   3.516   3.822   5.453  1.2155  0.1278 -0.5461
 6273SOL     OW20259   3.667   1.583   8.051  0.4248 -0.7560  0.3300
 6273SOL    HW120260   3.713   1.664   8.031  1.3686 -1.4057 -0.2093
 6273SOL    HW220261   3.711   1.516   7.998 -0.6057 -1.5500  0.4416
 6274SOL     OW20262   1.003   5.468   7.728  0.1385  0.0831  0.2500
 6274SOL    HW120263   1.053   5.540   7.689 -1.4458  1.4364  0.6274
 6274SOL    HW220264   0.933   5.450   7.665 -0.9961  0.6472  1.3128
 6275SOL     OW20265   6.377   6.596   5.667 -0.1574 -0.0440  0.1408
 6275SOL    HW120266   6.463   6.587   5.708 -0.4005 -0.6714  0.5261
 6275SOL    HW220267   6.394   6.639   5.583  0.8012 -2.1001 -0.7766
 6276SOL     OW20268   1.811   0.977   7.494  0.7068 -0.0952 -0.3322
 6276SOL    HW120269   1.886   0.986   7.435  0.0081 -1.4314 -1.4947
 6276SOL    HW220270   1.824   0.891   7.535  1.6047  1.1435  2.1596
 6277SOL     OW20271   6.133   1.057   6.161 -0.3315 -0.4016 -0.5102
 6277SOL    HW120272   6.215   1.037   6.205  0.1686  0.6669 -0.9357
 6277SOL    HW220273   6.127   0.991   6.091  0.3716 -0.2288 -0.7392
 6278SOL     OW20274   4.866   0.092  10.536  0.0642 -0.0482  0.3159
 6278SOL    HW120275   4.913   0.012  10.516  1.1850  0.7157 -0.1962
 6278SOL    HW220276   4.785   0.086  10.486 -0.2926 -1.2646  1.0107
 6279SOL     OW20277   0.587   5.828   8.343 -0.3495 -0.2643  0.0915
 6279SOL    HW120278   0.571   5.746   8.390 -2.9862  0.4837  0.6001
 6279SOL    HW220279   0.575   5.805   8.251  0.8619 -0.8310  0.0472
 6280SOL     OW20280   5.336   5.409  12.223  0.1448  0.4355  0.2368
 6280SOL    HW120281   5.283   5.414  12.303 -1.0442  2.2370 -0.5953
 6280SOL    HW220282   5.356   5.500  12.202  1.3707 -0.0664 -0.9504
 6281SOL     OW20283   5.634   3.671   3.233  0.1417 -0.3952  0.5799
 6281SOL    HW120284   5.642   3.759   3.270 -0.3876  0.7895 -1.8799
 6281SOL    HW220285   5.555   3.675   3.179  0.1700 -2.3497  0.3167
 6282SOL     OW20286   7.901   0.411   2.951  0.0619 -0.0515  0.7748
 6282SOL    HW120287   7.939   0.479   2.894 -0.7656  1.2354  1.7041
 6282SOL    HW220288   7.947   0.331   2.926  1.1135  0.8493 -0.3267
 6283SOL     OW20289   7.445   2.109   1.935 -0.6204  0.1497  0.2593
 6283SOL    HW120290   7.440   2.046   1.863  0.4628 -0.6824  0.8785
 6283SOL    HW220291   7.367   2.163   1.925 -2.1566 -1.9191  0.2716
 6284SOL     OW20292   2.719   1.688   9.220 -0.4291  0.3254  0.0794
 6284SOL    HW120293   2.708   1.625   9.149  1.1948 -1.2564  1.1320
 6284SOL    HW220294   2.804   1.729   9.204 -0.3315  0.3987  0.7289
 6285SOL     OW20295   2.182   1.462   0.774  0.1719 -0.0453  0.2550
 6285SOL    HW120296   2.235   1.452   0.695  0.2969  0.6007  0.2465
 6285SOL    HW220297   2.196   1.381   0.823  1.7385  0.3803  0.5827
 6286SOL     OW20298   0.941   3.598  11.641  0.8508  0.2017 -0.0097
 6286SOL    HW120299   1.028   3.565  11.663  0.3235 -0.5800  1.0078
 6286SOL    HW220300   0.950   3.634  11.553  1.8330 -1.2819 -0.5509
 6287SOL     OW20301   6.392   6.633   9.933  0.1593  0.4855  0.2850
 6287SOL    HW120302   6.438   6.622   9.849 -0.4029 -3.0969  0.2791
 6287SOL    HW220303   6.456   6.605   9.999  0.8604  3.9921  1.2826
 6288SOL     OW20304   3.474   0.376   7.641  0.3874  0.3926  0.3414
 6288SOL    HW120305   3.560   0.351   7.675  0.1558  0.0210  0.6621
 6288SOL    HW220306   3.491   0.455   7.589  0.8453  0.6126  0.8079
 6289SOL     OW20307   1.335   3.757   1.232  0.1967  0.0567 -0.4882
 6289SOL    HW120308   1.277   3.755   1.156 -0.3390  2.8167 -0.2420
 6289SOL    HW220309   1.278   3.776   1.306  1.0153 -0.2888  0.2513
 6290SOL     OW20310   6.029   5.377   2.385  0.0513  0.0835  0.3367
 6290SOL    HW120311   6.001   5.446   2.445 -0.0310 -0.4916  0.9706
 6290SOL    HW220312   6.108   5.412   2.343 -0.0048  0.5707  0.6338
 6291SOL     OW20313   2.248   5.869  10.505  0.1194 -0.2124  0.1033
 6291SOL    HW120314   2.159   5.903  10.494 -0.4159 -1.2210  1.0842
 6291SOL    HW220315   2.289   5.927  10.568  0.3535  0.5717 -0.7515
 6292SOL     OW20316   4.241   6.013   6.444 -0.1144  0.4567  0.5067
 6292SOL    HW120317   4.272   5.960   6.518 -1.7803  0.2870  1.1100
 6292SOL    HW220318   4.316   6.070   6.424  1.0660 -0.8382  1.0277
 6293SOL     OW20319   3.742   0.336   5.853 -0.2868  0.4196  0.2391
 6293SOL    HW120320   3.663   0.338   5.800 -0.3871 -1.9625  0.2270
 6293SOL    HW220321   3.763   0.429   5.868 -3.9989  1.1844  1.7034
 6294SOL     OW20322   3.524   5.991   7.711 -0.6604 -0.2695  0.0201
 6294SOL    HW120323   3.537   6.003   7.617  0.3554  0.9161  0.2843
 6294SOL    HW220324   3.432   6.010   7.726 -0.6230  0.4423 -0.6150
 6295SOL     OW20325   7.502   0.721   0.371  0.1448  0.2963 -0.1077
 6295SOL    HW120326   7.544   0.700   0.454  1.6045  0.6056 -0.7455
 6295SOL    HW220327   7.409   0.701   0.385  0.0879  1.8266  2.0931
 6296SOL     OW20328   3.694   5.842   6.547 -0.0150 -0.3919  0.0440
 6296SOL    HW120329   3.645   5.797   6.616  0.9738 -0.7245  0.5456
 6296SOL    HW220330   3.710   5.775   6.481  0.8591 -0.6089  0.4704
 6297SOL     OW20331   2.499   7.402   4.304  0.5959 -0.3909  0.2567
 6297SOL    HW120332   2.582   7.383   4.348  0.4147  0.3716  0.9603
 6297SOL    HW220333   2.434   7.355   4.357  0.5193 -0.5332  0.0350
 6298SOL     OW20334   7.216   7.748   1.877 -0.4962  0.1001 -0.4146
 6298SOL    HW120335   7.308   7.771   1.863 -0.1504 -1.6555 -1.2157
 6298SOL    HW220336   7.217   7.689   1.952 -0.8823 -0.4589 -0.8404
 6299SOL     OW20337   1.847   7.441   7.035  0.2287 -0.1309  0.1511
 6299SOL    HW120338   1.795   7.392   6.971  0.3521  2.2334 -1.9257
 6299SOL    HW220339   1.782   7.482   7.091  0.0218 -0.4831  0.1723
 6300SOL     OW20340   3.242   5.770   3.100 -0.2126  0.7684  0.3833
 6300SOL    HW120341   3.308   5.756   3.033  0.5516 -2.5344  1.6305
 6300SOL    HW220342   3.161   5.786   3.051  0.5602 -0.1700 -1.2755
 6301SOL     OW20343   5.329   0.625   3.759  0.0575  0.5083  0.2073
 6301SOL    HW120344   5.387   0.565   3.712  0.7879  2.5016 -1.6285
 6301SOL    HW220345   5.368   0.633   3.845  1.1014 -0.0813 -0.1934
 6302SOL     OW20346   4.984   4.118   6.236 -0.3332  0.2306  0.4421
 6302SOL    HW120347   4.955   4.034   6.201  1.1004 -0.9519  1.9368
 6302SOL    HW220348   4.911   4.148   6.290  0.6573 -2.2968  3.4952
 6303SOL     OW20349   5.903   2.921   6.541  0.5683 -0.0744  0.1996
 6303SOL    HW120350   5.857   2.878   6.613  2.1797 -0.2056  1.1887
 6303SOL    HW220351   5.933   3.004   6.578  1.0445  0.0485 -0.4519
 6304SOL     OW20352   1.120   5.863  11.127  0.5896 -0.1611  0.2146
 6304SOL    HW120353   1.156   5.907  11.050  0.4491  3.5140  2.0463
 6304SOL    HW220354   1.028   5.890  11.130  0.2332 -1.3579  0.9570
 6305SOL     OW20355   5.420   3.153   6.619 -0.1017  0.1379  0.5241
 6305SOL    HW120356   5.326   3.144   6.636 -0.0188  0.0503  0.9759
 6305SOL    HW220357   5.459   3.076   6.661  0.3079  0.8942  1.5869
 6306SOL     OW20358   5.163   4.694   7.074 -0.2105 -0.6058 -0.0102
 6306SOL    HW120359   5.189   4.603   7.086  1.9890  0.2462  2.6401
 6306SOL    HW220360   5.104   4.712   7.147  2.0502  0.8969  1.5876
 6307SOL     OW20361   4.421   5.159   4.790 -0.5196 -0.5980  0.2882
 6307SOL    HW120362   4.455   5.159   4.880  0.4532 -1.4555 -0.0642
 6307SOL    HW220363   4.409   5.252   4.770 -0.8582 -0.3941  1.3359
 6308SOL     OW20364   1.835   1.393  11.980 -0.3190 -0.1718  0.5425
 6308SOL    HW120365   1.744   1.419  11.970  0.3617  3.0691  1.5400
 6308SOL    HW220366   1.885   1.471  11.956  2.1708 -1.5917  0.7555
 6309SOL     OW20367   2.986   4.764  11.644  0.1444 -0.0040  0.3076
 6309SOL    HW120368   3.005   4.678  11.680 -1.6530 -0.9728 -0.9160
 6309SOL    HW220369   3.010   4.825  11.714 -0.5423 -1.6194  2.0228
 6310SOL     OW20370   0.351   7.610   2.031  0.2994 -0.1180 -0.2452
 6310SOL    HW120371   0.360   7.607   2.127 -2.5294  2.1523  0.2344
 6310SOL    HW220372   0.441   7.618   2.000  1.3938 -1.9107  2.0985
 6311SOL     OW20373   5.851   1.513   8.293  0.1036 -0.5900 -0.2978
 6311SOL    HW120374   5.873   1.579   8.227  0.6626  2.0983  2.3413
 6311SOL    HW220375   5.755   1.515   8.297  0.1365  0.8190  0.3796
 6312SOL     OW20376   0.187   5.302   8.455  0.0446 -0.3382  0.4956
 6312SOL    HW120377   0.177   5.243   8.530 -1.0188 -0.2129  0.4716
 6312SOL    HW220378   0.256   5.363   8.483  0.3784 -0.9077  0.9570
 6313SOL     OW20379   7.171   7.198   8.992 -0.6333  0.1190  0.0189
 6313SOL    HW120380   7.156   7.103   9.000 -0.6819 -0.4311 -4.0986
 6313SOL    HW220381   7.088   7.237   9.017 -1.3971 -1.1544 -0.3981
 6314SOL     OW20382   2.333   6.010  10.728  0.0686 -0.4062  0.1636
 6314SOL    HW120383   2.375   5.969  10.804 -1.3053  1.3253  1.9785
 6314SOL    HW220384   2.371   6.098  10.725 -2.3272  0.7667  1.0816
 6315SOL     OW20385   0.478   4.792  10.693 -0.3434  0.7476 -0.1585
 6315SOL    HW120386   0.469   4.698  10.701  1.9488  0.6521  4.1454
 6315SOL    HW220387   0.396   4.828  10.726 -0.7183  0.2599 -0.5586
 6316SOL     OW20388   7.787   0.658   3.242 -0.3945  0.0164  0.1228
 6316SOL    HW120389   7.736   0.738   3.233 -0.8095 -0.2067  0.4680
 6316SOL    HW220390   7.757   0.602   3.171 -2.6202 -1.1752  1.8681
 6317SOL     OW20391   7.534   3.304   9.236  0.6432 -0.3431 -0.3286
 6317SOL    HW120392   7.611   3.284   9.183 -0.0525 -1.5264 -0.9253
 6317SOL    HW220393   7.489   3.372   9.186  1.1531  0.1765 -0.1012
 6318SOL     OW20394   3.143   1.544   1.131 -0.0202 -0.5077  0.4114
 6318SOL    HW120395   3.117   1.537   1.039 -1.6424  0.6902  0.7324
 6318SOL    HW220396   3.088   1.480   1.176  0.5944 -0.9133  0.6049
 6319SOL     OW20397   7.196   1.331  11.405  0.1864  0.2331 -0.0987
 6319SOL    HW120398   7.228   1.296  11.322  1.4779 -1.7426  1.1643
 6319SOL    HW220399   7.260   1.398  11.429  0.2543  0.2419 -0.3013
 6320SOL     OW20400   0.723   1.164   3.096 -0.4081 -0.3900  0.5290
 6320SOL    HW120401   0.729   1.259   3.106  0.4136 -0.4807  0.9945
 6320SOL    HW220402   0.696   1.150   3.005 -2.2221  0.3274  0.9367
 6321SOL     OW20403   2.563   2.472   5.691 -0.0194  0.0522  0.0232
 6321SOL    HW120404   2.584   2.562   5.669  0.9679  0.3226  1.9088
 6321SOL    HW220405   2.647   2.426   5.690 -0.3973 -0.6540 -0.0936
 6322SOL     OW20406   5.985   6.035  11.049 -0.1057 -0.2144 -0.0215
 6322SOL    HW120407   5.976   6.023  11.143 -1.3710 -1.5255 -0.2680
 6322SOL    HW220408   6.004   6.128  11.038  0.4612 -0.1192  1.5359
 6323SOL     OW20409   1.261   6.676   4.878 -0.5790  0.5512  1.1552
 6323SOL    HW120410   1.225   6.689   4.791  0.3913 -0.5405  0.5677
 6323SOL    HW220411   1.263   6.764   4.916 -5.6183  0.5666  2.0678
 6324SOL     OW20412   3.750   6.801   6.178  0.5922 -0.1998  0.0841
 6324SOL    HW120413   3.845   6.792   6.182  0.9718  2.7290 -0.2786
 6324SOL    HW220414   3.734   6.895   6.183 -2.3058 -0.5845  0.0121
 6325SOL     OW20415   4.715   5.024   6.804  0.2522  0.0816  0.4436
 6325SOL    HW120416   4.790   5.055   6.854  1.7353 -1.7634 -0.4678
 6325SOL    HW220417   4.718   4.929   6.814 -0.2011 -0.2455 -1.9573
 6326SOL     OW20418   4.345   6.829  10.089  0.3789 -0.0775  0.1127
 6326SOL    HW120419   4.412   6.895  10.075 -0.9269  1.6121  1.4664
 6326SOL    HW220420   4.370   6.757  10.031  2.6334  0.9957 -0.3400
 6327SOL     OW20421   7.042   7.310   1.562  0.0399 -0.3301 -0.1448
 6327SOL    HW120422   7.125   7.352   1.585 -0.3896 -0.1335  1.1640
 6327SOL    HW220423   7.067   7.225   1.526  0.8719  0.5161 -1.6642
 6328SOL     OW20424   6.871   7.694   7.713  0.3340 -0.6149 -0.0253
 6328SOL    HW120425   6.806   7.691   7.643  0.7478  0.0702 -0.4498
 6328SOL    HW220426   6.833   7.751   7.779  0.1123 -0.9524  0.1442
 6329SOL     OW20427   0.516   1.439   5.100 -0.2949 -0.2923  0.1814
 6329SOL    HW120428   0.484   1.374   5.163 -0.6364 -1.9869 -1.6448
 6329SOL    HW220429   0.611   1.430   5.102 -0.4013 -2.2452 -1.3949
 6330SOL     OW20430   1.560   4.424  12.006  0.1909 -0.3122 -0.4331
 6330SOL    HW120431   1.595   4.372  12.078  1.0808 -0.3786 -0.9090
 6330SOL    HW220432   1.472   4.449  12.036  0.0308 -1.4525  0.1148
 6331SOL     OW20433   2.615   5.073   6.599  0.1355  0.4268  0.0446
 6331SOL    HW120434   2.611   5.056   6.693 -0.0028  1.2828  0.2010
 6331SOL    HW220435   2.647   4.991   6.561  3.1437  1.0080  1.1169
 6332SOL     OW20436   0.402   7.823   2.806 -0.5906  0.0673  0.2743
 6332SOL    HW120437   0.435   7.734   2.801 -0.2113  0.1008  1.8929
 6332SOL    HW220438   0.349   7.825   2.886 -1.6512  0.9635 -0.4104
 6333SOL     OW20439   1.019   2.496   0.574 -0.3901 -0.5565  0.0673
 6333SOL    HW120440   1.013   2.544   0.491  1.0825  0.6879  0.6198
 6333SOL    HW220441   1.004   2.563   0.641  2.8783 -0.4915  0.9037
 6334SOL     OW20442   6.366   0.043   7.114  0.9665  0.5296  0.2548
 6334SOL    HW120443   6.449   0.031   7.068  0.3449  0.5374 -0.8968
 6334SOL    HW220444   6.310  -0.028   7.082  0.7334  0.0973  1.5389
 6335SOL     OW20445   5.199   5.762  10.081 -0.5172 -0.2637  0.5145
 6335SOL    HW120446   5.203   5.728   9.991 -1.7868  0.7707  0.0367
 6335SOL    HW220447   5.180   5.685  10.135  0.3688 -0.9198 -0.0633
 6336SOL     OW20448   1.267   5.198   7.048  0.4496 -0.2025  0.5966
 6336SOL    HW120449   1.237   5.243   6.969 -0.1879  1.9480  1.9791
 6336SOL    HW220450   1.190   5.149   7.078 -0.1409  1.1306  1.3105
 6337SOL     OW20451   6.982   4.986   6.987  0.1791 -0.0247 -0.6850
 6337SOL    HW120452   7.034   5.047   7.039 -0.2552 -0.5782  0.4235
 6337SOL    HW220453   6.902   4.974   7.037 -0.3978 -0.3229 -1.6541
 6338SOL     OW20454   3.338   4.873  11.729 -0.0956 -0.0212  0.4851
 6338SOL    HW120455   3.355   4.792  11.680 -1.0223  0.0216  0.0770
 6338SOL    HW220456   3.423   4.916  11.734  0.0036  0.0353 -1.2182
 6339SOL     OW20457   1.715   0.589   5.664  0.3302 -0.2540 -0.8441
 6339SOL    HW120458   1.716   0.568   5.757 -1.5420  1.7097 -0.3113
 6339SOL    HW220459   1.662   0.520   5.624 -0.6394  0.0482 -0.1018
 6340SOL     OW20460   0.629   3.287   6.436  0.4437 -0.3834 -0.1134
 6340SOL    HW120461   0.691   3.342   6.486  0.4213  0.2721 -0.7829
 6340SOL    HW220462   0.663   3.289   6.347 -0.7943  0.3621 -0.5850
 6341SOL     OW20463   0.028   6.412   7.760 -0.1419 -0.5797 -0.1090
 6341SOL    HW120464   0.109   6.423   7.711  1.1923 -3.3351  1.2510
 6341SOL    HW220465  -0.025   6.353   7.707 -0.6921  0.0604 -0.3002
 6342SOL     OW20466   1.956   0.513   4.911  0.2218 -0.1363  0.1502
 6342SOL    HW120467   1.889   0.495   4.977 -0.6161 -0.3187 -0.7312
 6342SOL    HW220468   1.970   0.607   4.915  3.3121 -0.4999  3.5311
 6343SOL     OW20469   6.376   5.818   0.550  0.2433  0.2509  0.1463
 6343SOL    HW120470   6.458   5.769   0.540 -0.0090 -0.1557  0.0265
 6343SOL    HW220471   6.341   5.790   0.634 -0.2593 -0.3312 -0.2443
 6344SOL     OW20472   6.133   1.394  11.165 -0.4559 -0.4285 -0.3874
 6344SOL    HW120473   6.144   1.406  11.260 -1.1278  1.4328 -0.4984
 6344SOL    HW220474   6.042   1.364  11.155 -0.2523 -1.0540 -0.4376
 6345SOL     OW20475   1.177   7.841  12.387  0.3273  0.3289 -0.5900
 6345SOL    HW120476   1.144   7.767  12.336  0.3136  0.1753 -0.3586
 6345SOL    HW220477   1.107   7.905  12.384 -0.8236 -0.7378  1.5033
 6346SOL     OW20478   2.510   5.593   1.444  0.2136  0.2070  0.8062
 6346SOL    HW120479   2.581   5.570   1.504 -0.7281 -2.4249  1.0347
 6346SOL    HW220480   2.457   5.513   1.437 -1.0809  1.1668 -1.6529
 6347SOL     OW20481   2.247   2.919   6.203  0.5642 -0.3297 -0.7182
 6347SOL    HW120482   2.265   2.940   6.112 -0.7793  0.3307 -0.8712
 6347SOL    HW220483   2.170   2.862   6.199 -2.3006  3.1376  0.0709
 6348SOL     OW20484   5.568   1.305   2.296  0.2880  0.0844 -0.1240
 6348SOL    HW120485   5.504   1.376   2.309  0.3126  0.5041 -2.0498
 6348SOL    HW220486   5.627   1.338   2.229  1.0821 -1.2720 -0.1253
 6349SOL     OW20487   1.780   5.781  10.591  0.4758 -0.1601 -0.5490
 6349SOL    HW120488   1.702   5.830  10.563  0.6989 -0.3675 -1.5411
 6349SOL    HW220489   1.810   5.829  10.668 -0.2361  0.3292 -0.5544
 6350SOL     OW20490   0.492   7.377   7.098  0.3684  0.8470 -0.0351
 6350SOL    HW120491   0.495   7.393   7.193  1.1373  1.5993 -0.1810
 6350SOL    HW220492   0.448   7.292   7.090 -0.2542  1.0553  0.9585
 6351SOL     OW20493   1.663   1.681   3.419  0.0374  0.2647  0.6213
 6351SOL    HW120494   1.657   1.724   3.334  0.2614 -2.5541 -0.9440
 6351SOL    HW220495   1.749   1.708   3.453 -0.6088  2.4765  0.6521
 6352SOL     OW20496   1.030   5.591  12.177 -0.1752  0.8964  0.1783
 6352SOL    HW120497   1.045   5.514  12.123  0.3806  1.0720  0.0810
 6352SOL    HW220498   0.936   5.607  12.170 -0.2037  0.5537 -0.2404
 6353SOL     OW20499   7.015   5.423   4.345  0.2777  0.3513 -0.4421
 6353SOL    HW120500   6.950   5.464   4.402 -1.6668  0.6227 -2.7010
 6353SOL    HW220501   6.988   5.331   4.340  1.3280 -0.0066  0.2225
 6354SOL     OW20502   5.234   0.261  11.993  0.2911 -0.0847 -0.1247
 6354SOL    HW120503   5.264   0.242  11.904  0.4390 -0.1126 -0.0700
 6354SOL    HW220504   5.209   0.353  11.991  0.5341 -0.0185 -0.1301
 6355SOL     OW20505   4.876   0.425   2.141 -0.2107  0.2297 -0.0444
 6355SOL    HW120506   4.802   0.427   2.202 -0.7733 -0.3763 -0.6906
 6355SOL    HW220507   4.938   0.363   2.180 -0.2868  0.3141  0.2132
 6356SOL     OW20508   1.339   4.241   3.895 -0.2054 -0.5911  0.0473
 6356SOL    HW120509   1.342   4.225   3.989 -0.2690  0.7313  0.3030
 6356SOL    HW220510   1.246   4.256   3.876  0.0047  1.0850  0.1675
 6357SOL     OW20511   2.852   5.885   3.453  0.0376  0.3525  0.6435
 6357SOL    HW120512   2.866   5.938   3.532  1.0552  1.2037 -0.0753
 6357SOL    HW220513   2.919   5.817   3.458 -0.7201 -0.3700  1.1384
 6358SOL     OW20514   3.899   5.206  12.332  0.4049 -0.3675 -0.5296
 6358SOL    HW120515   3.937   5.129  12.291 -1.5437 -0.3121 -2.6043
 6358SOL    HW220516   3.804   5.196  12.320 -0.4428 -0.4242  4.1826
 6359SOL     OW20517   5.834   7.309   9.355 -0.1462  0.1848  0.2585
 6359SOL    HW120518   5.741   7.295   9.342 -0.3452  1.3408  0.3314
 6359SOL    HW220519   5.853   7.390   9.307  0.8741 -0.1714  0.0280
 6360SOL     OW20520   7.035   4.615   7.864  0.2912  0.3812 -0.1504
 6360SOL    HW120521   6.956   4.562   7.875  0.0107  0.4378 -1.6434
 6360SOL    HW220522   7.105   4.563   7.903  0.0898 -1.2786 -1.8958
 6361SOL     OW20523   0.222   6.883   1.998  0.3941  0.1228  0.3795
 6361SOL    HW120524   0.304   6.866   2.043  0.1271 -1.0044  0.4532
 6361SOL    HW220525   0.204   6.976   2.016  1.5708  0.3426  0.4643
 6362SOL     OW20526   6.700   1.399  10.288 -0.0814 -0.4779  0.0142
 6362SOL    HW120527   6.626   1.429  10.236 -0.5864 -1.1194  0.3539
 6362SOL    HW220528   6.772   1.390  10.225 -0.5204 -0.6713 -0.4674
 6363SOL     OW20529   6.037   1.269   3.123 -0.9768  0.2002 -0.4524
 6363SOL    HW120530   5.978   1.249   3.050 -0.8841  1.5980 -0.9302
 6363SOL    HW220531   6.023   1.361   3.141  2.6701  1.2942 -2.1598
 6364SOL     OW20532   7.243   7.240   5.133  0.2338  0.2994 -0.3886
 6364SOL    HW120533   7.171   7.177   5.132 -0.6640  1.2862  0.4460
 6364SOL    HW220534   7.219   7.304   5.200  2.7824 -0.3650  1.3049
 6365SOL     OW20535   4.472   3.190   7.818  0.2652 -0.0347 -0.1334
 6365SOL    HW120536   4.421   3.271   7.818  0.9210  0.4032  1.4151
 6365SOL    HW220537   4.409   3.122   7.845  0.8793  0.8729  4.3571
 6366SOL     OW20538   6.316   4.746   6.295 -0.0466 -0.9030 -0.0360
 6366SOL    HW120539   6.410   4.768   6.291 -0.3382  0.7513  1.2413
 6366SOL    HW220540   6.282   4.777   6.211  0.4616 -1.1421 -0.3421
 6367SOL     OW20541   0.011   3.146   0.608  0.1581  0.3639 -0.3374
 6367SOL    HW120542  -0.027   3.232   0.593  1.3694  1.0476  0.3438
 6367SOL    HW220543  -0.038   3.111   0.683  1.9503  2.0273  1.7805
 6368SOL     OW20544   6.535   2.424   7.321  0.3952  0.1551 -0.4379
 6368SOL    HW120545   6.567   2.434   7.232  1.6860  1.7157  0.1590
 6368SOL    HW220546   6.560   2.335   7.347  2.4469  0.6241 -0.7136
 6369SOL     OW20547   6.937   2.650  12.317  0.0023  0.1717  0.2604
 6369SOL    HW120548   6.903   2.719  12.374 -0.3213  0.3031 -0.0872
 6369SOL    HW220549   6.973   2.697  12.242  0.1688 -0.0149  0.2231
 6370SOL     OW20550   1.336   5.637   9.121  0.6042  0.2883 -0.2168
 6370SOL    HW120551   1.405   5.666   9.181 -0.1556  0.2838  0.6820
 6370SOL    HW220552   1.370   5.657   9.034  1.6503  0.4742  0.2247
 6371SOL     OW20553   0.412   5.685   4.402  0.0856  0.0364  0.0939
 6371SOL    HW120554   0.359   5.688   4.481  1.8816  0.2261  1.3399
 6371SOL    HW220555   0.464   5.605   4.411  0.5815  0.2525 -0.7356
 6372SOL     OW20556   0.290   0.179   9.940  0.0668 -0.2939  0.6362
 6372SOL    HW120557   0.268   0.243  10.008  0.9438  0.3148  0.3649
 6372SOL    HW220558   0.320   0.102   9.989  1.9085  0.5808  0.9655
 6373SOL     OW20559   6.823   7.974   0.867  0.4595 -0.0668  0.0692
 6373SOL    HW120560   6.807   8.038   0.936  0.1255  0.5931 -0.6096
 6373SOL    HW220561   6.885   7.912   0.906 -0.7233 -0.4630  1.4031
 6374SOL     OW20562   6.397   4.107   1.822  0.1412 -0.3412 -0.1833
 6374SOL    HW120563   6.414   4.056   1.901 -0.4117 -2.6985 -1.5029
 6374SOL    HW220564   6.308   4.084   1.797  0.4418  0.0405 -1.7026
 6375SOL     OW20565   5.330   3.282   4.336 -0.2179  0.0184 -0.0965
 6375SOL    HW120566   5.388   3.212   4.368 -0.3775  0.1230  0.4375
 6375SOL    HW220567   5.272   3.300   4.410 -1.7488 -0.9301 -1.0075
 6376SOL     OW20568   1.326   4.316   3.031  0.3958  0.3558 -0.3578
 6376SOL    HW120569   1.320   4.283   3.121  2.1453  1.7084  0.3110
 6376SOL    HW220570   1.400   4.268   2.993 -0.4149 -0.3019 -1.1531
 6377SOL     OW20571   7.396   3.529   1.937 -0.5761 -0.0728  0.2367
 6377SOL    HW120572   7.472   3.522   1.879 -0.9183  0.0278 -0.2372
 6377SOL    HW220573   7.410   3.461   2.003 -0.9985 -1.3876 -0.9531
 6378SOL     OW20574   5.719   5.980   2.458 -0.1223  0.2444  0.9811
 6378SOL    HW120575   5.656   5.929   2.407 -1.0834 -0.2479  2.6044
 6378SOL    HW220576   5.703   5.955   2.549  0.4969  2.2154  1.6847
 6379SOL     OW20577   2.231   3.672   9.035  0.0024 -0.0892  0.2504
 6379SOL    HW120578   2.147   3.711   9.010  0.5007  0.3531 -0.8319
 6379SOL    HW220579   2.217   3.577   9.028  0.0456  0.0080 -1.6135
 6380SOL     OW20580   3.097   2.753   0.264 -0.4464 -0.3827 -0.3297
 6380SOL    HW120581   3.012   2.728   0.227  0.2880 -1.6160 -1.2666
 6380SOL    HW220582   3.161   2.712   0.206  0.8490  1.9078 -0.6276
 6381SOL     OW20583   0.181   6.762  10.649  0.0150 -0.3121 -0.3148
 6381SOL    HW120584   0.229   6.829  10.600  0.6743 -1.3027 -1.0765
 6381SOL    HW220585   0.172   6.690  10.586 -1.2630 -0.6775  0.2703
 6382SOL     OW20586   3.122   1.430  12.446  0.1479  0.7196  0.3769
 6382SOL    HW120587   3.200   1.485  12.434  0.1133  0.5281 -0.8227
 6382SOL    HW220588   3.154   1.341  12.433 -0.7964  0.7874 -3.4410
 6383SOL     OW20589   4.150   7.788   6.741 -0.0819  0.0122  0.8270
 6383SOL    HW120590   4.174   7.697   6.758  0.8232  0.3033  1.1268
 6383SOL    HW220591   4.170   7.835   6.822  1.3180  0.8321  0.0339
 6384SOL     OW20592   0.948   1.745   3.032  0.5691  0.2601 -0.1771
 6384SOL    HW120593   0.885   1.761   2.962  0.0910 -1.5629 -0.2147
 6384SOL    HW220594   1.020   1.807   3.015 -0.8718  1.9249 -0.5162
 6385SOL     OW20595   0.144   5.078   4.618 -0.2455 -0.3359  0.3689
 6385SOL    HW120596   0.117   5.133   4.692  0.8238 -0.0967  0.5995
 6385SOL    HW220597   0.215   5.024   4.654  0.3087 -0.1946 -0.4855
 6386SOL     OW20598   5.008   1.310   8.682  0.1963  0.7746 -0.2867
 6386SOL    HW120599   4.978   1.397   8.658 -1.4304  1.1171  2.5982
 6386SOL    HW220600   5.075   1.325   8.749  0.7869 -0.1792 -0.6388
 6387SOL     OW20601   2.020   5.216   4.774  0.0542  0.2267  0.2888
 6387SOL    HW120602   2.016   5.302   4.733 -1.9266 -0.8084 -1.9795
 6387SOL    HW220603   2.073   5.228   4.852  0.8807  3.2024 -0.6195
 6388SOL     OW20604   1.820   7.533   3.525 -0.3446  0.1583  0.2118
 6388SOL    HW120605   1.916   7.530   3.535 -0.4279 -0.2963  1.0408
 6388SOL    HW220606   1.791   7.447   3.557 -0.8513 -0.7712 -2.5383
 6389SOL     OW20607   5.219   6.667   4.317 -0.2285  0.3406 -0.2852
 6389SOL    HW120608   5.162   6.589   4.318 -0.0766  0.1512 -2.1879
 6389SOL    HW220609   5.198   6.713   4.398 -0.0718 -1.8471  1.0767
 6390SOL     OW20610   6.129   5.416   6.441  0.1837  0.4092 -0.7482
 6390SOL    HW120611   6.108   5.339   6.493  1.9074  1.3664  1.5942
 6390SOL    HW220612   6.048   5.436   6.393 -0.7340 -1.9714 -0.3150
 6391SOL     OW20613   2.755   7.538   7.526  0.5938 -0.8094 -0.3208
 6391SOL    HW120614   2.796   7.625   7.534 -1.3547  0.1780 -0.4268
 6391SOL    HW220615   2.818   7.479   7.566  1.9135  0.6773 -0.0719
 6392SOL     OW20616   7.484   6.767   4.405 -0.0357  0.6021 -0.2657
 6392SOL    HW120617   7.476   6.859   4.430  0.5899  0.8819 -1.0641
 6392SOL    HW220618   7.568   6.739   4.442 -0.2458  0.3226  0.0170
 6393SOL     OW20619   6.639   1.144   6.903  0.0865  0.1454  0.0088
 6393SOL    HW120620   6.575   1.187   6.847  0.0824 -0.7698 -0.7198
 6393SOL    HW220621   6.720   1.192   6.888 -0.4405  1.4144  1.0618
 6394SOL     OW20622   0.608   0.396   2.548  0.2651 -0.0259 -0.4397
 6394SOL    HW120623   0.671   0.334   2.585 -0.3196 -0.2173  0.2442
 6394SOL    HW220624   0.619   0.476   2.600  1.2839  0.6070 -1.5595
 6395SOL     OW20625   4.275   3.773   5.422 -0.1640  0.1355 -0.1676
 6395SOL    HW120626   4.303   3.848   5.475  1.6497  0.1037 -1.0132
 6395SOL    HW220627   4.201   3.806   5.372  0.7008  1.4494 -0.6446
 6396SOL     OW20628   3.502   7.971   8.484 -0.5709 -0.2167 -0.1146
 6396SOL    HW120629   3.486   8.024   8.563 -0.3000  0.7279 -0.6707
 6396SOL    HW220630   3.416   7.937   8.459 -0.5497 -1.1504  1.0048
 6397SOL     OW20631   7.615   6.802  12.115  0.4443  0.4855 -0.2017
 6397SOL    HW120632   7.689   6.778  12.171 -0.8232 -0.6984  1.0205
 6397SOL    HW220633   7.642   6.885  12.075  1.4532  1.3296  2.0791
 6398SOL     OW20634   4.583   2.990  11.391 -0.1113 -0.3288 -0.2931
 6398SOL    HW120635   4.499   2.947  11.407 -0.8841  1.2319  0.0095
 6398SOL    HW220636   4.648   2.919  11.397 -1.3395 -1.4686 -0.0270
 6399SOL     OW20637   0.977   4.258  10.281  0.3335  0.2334  0.1717
 6399SOL    HW120638   0.956   4.299  10.365  0.8199 -0.5869  0.7059
 6399SOL    HW220639   1.038   4.319  10.240 -1.4827  1.6757 -0.5441
 6400SOL     OW20640   5.898   7.405   7.162 -0.2634  0.1584  0.0071
 6400SOL    HW120641   5.828   7.341   7.149  0.1763 -0.1091 -1.0990
 6400SOL    HW220642   5.956   7.393   7.087  1.3619 -0.1356  1.2479
 6401SOL     OW20643   3.403   1.871   0.083  0.2325  0.2909 -0.5497
 6401SOL    HW120644   3.378   1.937   0.018  0.6775 -0.0841 -1.1089
 6401SOL    HW220645   3.489   1.900   0.113 -0.2753  0.8654  0.4236
 6402SOL     OW20646   3.045   2.203   7.074  0.5562 -0.0817  0.2943
 6402SOL    HW120647   3.008   2.265   7.012 -0.4275 -0.0750  0.8570
 6402SOL    HW220648   3.103   2.255   7.129 -0.1235  0.3251  0.6471
 6403SOL     OW20649   2.252   6.692  11.007  0.5052 -0.2096  0.5755
 6403SOL    HW120650   2.210   6.715  11.090  1.0727 -0.0313  0.8165
 6403SOL    HW220651   2.324   6.634  11.032  0.5351 -0.3463  0.1828
 6404SOL     OW20652   5.645   5.958   8.879 -0.2782 -0.6545  0.0089
 6404SOL    HW120653   5.554   5.983   8.896  0.3432  0.1203  2.5870
 6404SOL    HW220654   5.667   6.004   8.798 -1.1157  2.1417  1.2415
 6405SOL     OW20655   4.824   3.820  12.135 -0.3076  0.8004  0.6062
 6405SOL    HW120656   4.852   3.798  12.224  0.4782  2.1586  0.7229
 6405SOL    HW220657   4.845   3.912  12.125 -3.6345  1.6747  0.2474
 6406SOL     OW20658   0.082   3.435  11.530 -0.6824 -0.1953  0.0945
 6406SOL    HW120659   0.023   3.410  11.458  0.1041 -0.1869 -0.5621
 6406SOL    HW220660   0.151   3.370  11.529 -0.7251 -0.2683  0.9426
 6407SOL     OW20661   5.559   2.854   6.544 -0.7826 -0.1854  0.1682
 6407SOL    HW120662   5.577   2.761   6.558 -0.4925  0.0124  1.1651
 6407SOL    HW220663   5.505   2.856   6.465 -0.3447 -1.1557 -0.1718
 6408SOL     OW20664   1.241   7.663  10.693  0.4041  0.5680  0.1216
 6408SOL    HW120665   1.244   7.689  10.785 -0.4021  3.7524 -0.6141
 6408SOL    HW220666   1.291   7.731  10.648 -1.9040  0.9736 -2.0679
 6409SOL     OW20667   2.325   5.162   3.341  0.3272  0.5747 -0.5252
 6409SOL    HW120668   2.251   5.218   3.317  0.4707  0.6564 -0.7785
 6409SOL    HW220669   2.289   5.073   3.336 -0.1099  0.6745  0.6211
 6410SOL     OW20670   7.421   5.227   4.473  0.0745  0.0566 -0.6787
 6410SOL    HW120671   7.459   5.209   4.386 -0.3724  0.0774 -0.8781
 6410SOL    HW220672   7.393   5.318   4.468  2.0854  0.7816  0.2419
 6411SOL     OW20673   3.978   7.478   8.276  0.2353  0.1189  0.2247
 6411SOL    HW120674   3.942   7.473   8.187 -0.1065 -1.3736  0.4202
 6411SOL    HW220675   3.922   7.541   8.321 -0.5752 -0.2821 -0.1973
 6412SOL     OW20676   6.538   3.868   4.924  0.2070  0.0254  0.0617
 6412SOL    HW120677   6.558   3.777   4.904  1.9005  0.3640  0.1141
 6412SOL    HW220678   6.555   3.876   5.018  1.1714  0.6517 -0.1544
 6413SOL     OW20679   0.680   4.967   4.426  0.1728  0.0016 -0.1962
 6413SOL    HW120680   0.611   4.900   4.423  1.0635 -0.9637  0.0219
 6413SOL    HW220681   0.729   4.954   4.345  0.0217  0.7734 -0.4151
 6414SOL     OW20682   4.481   6.821  12.280  0.6491  0.3011  0.5176
 6414SOL    HW120683   4.399   6.836  12.326  1.2208  3.0626  0.8201
 6414SOL    HW220684   4.541   6.790  12.348  0.9895  2.5889  1.3614
 6415SOL     OW20685   4.832   1.162   8.445  0.1118 -0.2991 -0.5197
 6415SOL    HW120686   4.922   1.174   8.416  0.6371 -1.4503  0.5393
 6415SOL    HW220687   4.779   1.210   8.381  1.5076  1.0107 -0.7571
 6416SOL     OW20688   2.647   4.962  12.264 -0.1548 -0.5676 -0.7406
 6416SOL    HW120689   2.582   4.963  12.334  0.3780  2.0715 -0.1741
 6416SOL    HW220690   2.596   4.965  12.183 -0.7344 -1.2949 -0.4148
 6417SOL     OW20691   2.831   6.918   0.722  0.1064  0.0705 -0.1825
 6417SOL    HW120692   2.798   6.828   0.721 -1.8017  0.7309 -0.0340
 6417SOL    HW220693   2.769   6.966   0.777  2.0064  1.1683  1.1132
 6418SOL     OW20694   0.550   5.366  10.924  0.4933 -0.3968  0.3124
 6418SOL    HW120695   0.558   5.385  11.018  0.0673 -0.3844  0.3525
 6418SOL    HW220696   0.455   5.361  10.909  0.5689 -1.1034  0.0201
 6419SOL     OW20697   5.461   7.473   5.929 -0.1504  0.0356 -0.1707
 6419SOL    HW120698   5.394   7.406   5.912  0.9857 -1.3452  0.5942
 6419SOL    HW220699   5.418   7.555   5.907 -2.7504 -0.6090  1.9783
 6420SOL     OW20700   0.115   6.831   9.680  0.2077  0.0768  0.4166
 6420SOL    HW120701   0.090   6.820   9.588  1.1714 -0.6158  0.2265
 6420SOL    HW220702   0.033   6.819   9.728  0.1596 -2.4400 -0.1651
 6421SOL     OW20703   5.532   4.547   1.746  0.2495 -0.3084  0.1867
 6421SOL    HW120704   5.537   4.627   1.799  0.6097  0.3143 -0.7454
 6421SOL    HW220705   5.618   4.541   1.704  0.3069 -1.3281  0.4327
 6422SOL     OW20706   4.483   6.165   7.739 -0.0307 -0.1428 -0.1195
 6422SOL    HW120707   4.579   6.155   7.739 -0.0514 -0.3798  0.3085
 6422SOL    HW220708   4.468   6.245   7.789  0.0228  0.8687 -1.6694
 6423SOL     OW20709   1.328   6.843   7.981 -0.5165  0.1457  0.2019
 6423SOL    HW120710   1.413   6.888   7.985 -0.9136  0.9723 -0.4315
 6423SOL    HW220711   1.284   6.867   8.063 -0.8142  1.0914 -0.2347
 6424SOL     OW20712   0.449   3.422  11.693 -0.1949 -0.2950  0.4911
 6424SOL    HW120713   0.429   3.404  11.601  0.6557 -0.7041  0.3715
 6424SOL    HW220714   0.402   3.503  11.712 -0.3000 -0.1456 -0.3374
 6425SOL     OW20715   7.940   7.519  12.366 -0.0923 -0.0969  0.1721
 6425SOL    HW120716   7.943   7.564  12.451 -0.5531 -0.8104  0.5730
 6425SOL    HW220717   8.029   7.485  12.354  1.0186  2.9626 -1.2930
 6426SOL     OW20718   1.059   5.142  11.224  0.3284 -0.1597 -0.0288
 6426SOL    HW120719   1.043   5.211  11.160  0.8658 -0.0845 -0.0787
 6426SOL    HW220720   1.062   5.188  11.308  0.6595 -0.1257 -0.0591
 6427SOL     OW20721   3.654   4.906   0.293 -0.0380  0.6364  0.0928
 6427SOL    HW120722   3.645   5.000   0.276 -0.1323  0.5098 -0.5879
 6427SOL    HW220723   3.684   4.901   0.384 -0.1968  1.3173  0.1898
 6428SOL     OW20724   2.638   5.774   9.076  0.0538 -0.6557  0.2272
 6428SOL    HW120725   2.544   5.789   9.062 -0.3029 -2.1661  0.7564
 6428SOL    HW220726   2.642   5.727   9.159  1.2864 -0.7056  0.1559
 6429SOL     OW20727   7.927   0.150  12.393 -0.0517 -0.1934  0.2423
 6429SOL    HW120728   7.966   0.064  12.403 -0.2431 -0.2835  0.2158
 6429SOL    HW220729   7.893   0.151  12.304 -0.3127 -0.2004  0.3397
 6430SOL     OW20730   3.414   2.062   4.493 -0.5057 -0.3680  0.0893
 6430SOL    HW120731   3.424   2.136   4.552  0.2275 -0.6811  0.3702
 6430SOL    HW220732   3.404   2.102   4.406  2.7233  0.0766 -0.1867
 6431SOL     OW20733   2.019   3.257  10.455  0.0818  0.3981 -0.1061
 6431SOL    HW120734   2.033   3.172  10.415 -1.4855 -0.5392  1.2062
 6431SOL    HW220735   1.943   3.293  10.410 -0.3757  0.2729  0.5396
 6432SOL     OW20736   3.628   2.605  11.208 -0.0989 -0.3641  0.2812
 6432SOL    HW120737   3.594   2.635  11.292  0.7772  0.6653  0.3012
 6432SOL    HW220738   3.723   2.604  11.221 -0.0302 -1.6362 -0.2454
 6433SOL     OW20739   4.119   1.143   4.123  0.6435 -0.2410  0.1316
 6433SOL    HW120740   4.113   1.157   4.218 -1.9042  3.4832 -0.3655
 6433SOL    HW220741   4.047   1.084   4.103  1.9925 -2.1138  0.5712
 6434SOL     OW20742   4.963   5.252   5.894 -0.1527  0.1009 -0.7843
 6434SOL    HW120743   5.044   5.221   5.852  0.4529 -1.0974  1.1265
 6434SOL    HW220744   4.991   5.276   5.982 -1.6221  1.2568 -0.6065
 6435SOL     OW20745   0.560   6.273   6.786  0.1181 -0.4563  0.0420
 6435SOL    HW120746   0.475   6.316   6.802 -0.3745 -0.8790 -1.2962
 6435SOL    HW220747   0.538   6.196   6.734  1.1310 -1.6860  1.3843
 6436SOL     OW20748   7.362   4.985   4.018 -0.1100 -0.1744  0.0391
 6436SOL    HW120749   7.382   4.967   4.110  0.4129 -0.4904 -0.1348
 6436SOL    HW220750   7.422   5.056   3.994 -1.3921  1.0747  0.4058
 6437SOL     OW20751   0.970   7.278   8.029  0.4651 -0.4734  0.4414
 6437SOL    HW120752   0.963   7.279   8.125 -1.0147  0.2169  0.3477
 6437SOL    HW220753   1.040   7.215   8.012  0.8587 -0.5121  1.9795
 6438SOL     OW20754   4.326   0.610   0.091  0.0078  0.7070 -0.3397
 6438SOL    HW120755   4.310   0.552   0.165  0.9105  0.7046 -0.1378
 6438SOL    HW220756   4.381   0.560   0.032 -0.7155  0.7051 -1.0362
 6439SOL     OW20757   0.632   7.002   2.034  0.2514  0.3368 -0.5781
 6439SOL    HW120758   0.708   6.981   1.981 -0.2701  1.2479 -1.7233
 6439SOL    HW220759   0.558   6.994   1.974 -0.2715  2.2294 -0.2445
 6440SOL     OW20760   4.825   3.628  11.106 -0.3578  0.1633  0.0950
 6440SOL    HW120761   4.899   3.567  11.103  0.4870  1.1978 -0.7619
 6440SOL    HW220762   4.748   3.572  11.113  0.5154 -0.9362  1.7048
 6441SOL     OW20763   0.238   4.158   5.927 -0.4271  0.5247  0.3476
 6441SOL    HW120764   0.210   4.248   5.945 -0.5015  0.2659  1.6275
 6441SOL    HW220765   0.171   4.103   5.967  0.0243 -0.1108  0.2567
 6442SOL     OW20766   3.952   1.807   1.174  0.0812 -0.2640  0.7477
 6442SOL    HW120767   3.878   1.755   1.205 -0.1737  0.5249  1.4951
 6442SOL    HW220768   3.968   1.870   1.244  0.2125  0.8481 -0.2581
 6443SOL     OW20769   7.410   1.606   9.640  0.1253 -0.6044  0.4035
 6443SOL    HW120770   7.354   1.684   9.641  0.1179 -0.6161  0.8925
 6443SOL    HW220771   7.464   1.617   9.562 -0.1095 -0.2736  0.2846
 6444SOL     OW20772   3.440   5.290   0.254  0.0776  0.3710  0.0208
 6444SOL    HW120773   3.527   5.294   0.292 -0.8944  0.8948  2.3419
 6444SOL    HW220774   3.425   5.196   0.237  1.5452  0.3936 -1.6896
 6445SOL     OW20775   2.166   6.832   5.035 -0.0681 -0.1902 -0.2748
 6445SOL    HW120776   2.200   6.832   4.945 -0.1569 -1.1641 -0.3233
 6445SOL    HW220777   2.075   6.803   5.025 -0.3422  0.5356  0.0514
 6446SOL     OW20778   0.422   6.338   3.048  0.2786 -0.4828  0.7993
 6446SOL    HW120779   0.490   6.298   3.102  0.4347  0.8268  1.6302
 6446SOL    HW220780   0.462   6.419   3.016 -0.6133 -0.0769  0.6704
 6447SOL     OW20781   0.322   2.927   3.396 -0.0890 -0.2113  0.1700
 6447SOL    HW120782   0.323   2.881   3.312 -0.9802 -0.4845  0.2956
 6447SOL    HW220783   0.233   2.961   3.404  0.6624  2.0047 -0.1476
 6448SOL     OW20784   0.277   7.822   1.187 -0.3438  0.1014  0.2905
 6448SOL    HW120785   0.196   7.854   1.228 -1.4224 -2.3985  0.3188
 6448SOL    HW220786   0.249   7.788   1.102  1.2486  1.8274 -1.0068
 6449SOL     OW20787   3.632   0.653   8.037  0.3592 -0.2662 -0.2315
 6449SOL    HW120788   3.681   0.688   7.962 -0.3142  1.4819  0.1121
 6449SOL    HW220789   3.663   0.703   8.112 -2.5259  1.5652 -0.1252
 6450SOL     OW20790   1.548   0.490   7.371 -0.5580  0.7365  0.0542
 6450SOL    HW120791   1.585   0.572   7.403  1.6961 -0.8674  1.8396
 6450SOL    HW220792   1.469   0.477   7.424  0.1456  0.8236  1.1509
 6451SOL     OW20793   3.802   3.228   0.137 -0.2360  0.0029 -0.8864
 6451SOL    HW120794   3.760   3.300   0.091 -1.1905  0.9889  1.4064
 6451SOL    HW220795   3.730   3.178   0.175  0.5427  0.0213  0.6837
 6452SOL     OW20796   2.299   6.024   1.330 -0.0125 -0.1929  0.3475
 6452SOL    HW120797   2.335   5.948   1.375  1.2882  0.8930  1.2472
 6452SOL    HW220798   2.270   5.991   1.245 -0.8057 -1.9414  1.2586
 6453SOL     OW20799   1.409   2.043   2.770 -0.3432  0.2839 -0.6542
 6453SOL    HW120800   1.492   2.025   2.727 -0.0186  1.4177 -0.5352
 6453SOL    HW220801   1.428   2.033   2.864 -0.7137 -0.8597 -0.6837
 6454SOL     OW20802   6.567   6.512   2.598 -0.5320  0.3035  0.0148
 6454SOL    HW120803   6.485   6.530   2.645 -0.7334 -2.3945  0.8461
 6454SOL    HW220804   6.612   6.447   2.652  1.3415  0.3776 -1.3457
 6455SOL     OW20805   4.906   4.106   1.296  0.0265  0.1622  0.0299
 6455SOL    HW120806   4.888   4.179   1.238  1.1387  0.7212  0.3583
 6455SOL    HW220807   4.860   4.127   1.377  2.2132  1.7281  0.9729
 6456SOL     OW20808   5.924   7.116   2.861  0.1354 -0.3665 -0.9839
 6456SOL    HW120809   5.891   7.204   2.876  0.0133 -0.2375 -1.9382
 6456SOL    HW220810   5.847   7.059   2.866  0.0847 -0.3162 -1.2071
 6457SOL     OW20811   2.004   4.408   7.657  0.5379 -0.1735 -0.1207
 6457SOL    HW120812   2.018   4.429   7.565  0.3667  0.7966  0.0571
 6457SOL    HW220813   2.013   4.313   7.663  0.9011 -0.2015 -1.0721
 6458SOL     OW20814   7.707   1.993   7.036 -0.6653  0.0641 -0.0180
 6458SOL    HW120815   7.619   2.004   7.000 -0.7490 -0.6520 -0.0610
 6458SOL    HW220816   7.738   1.911   6.998 -0.3421 -0.1695  0.7219
 6459SOL     OW20817   1.960   6.245  10.145 -0.0782 -0.2361 -0.5409
 6459SOL    HW120818   2.044   6.224  10.103 -0.7229  0.5533 -2.3138
 6459SOL    HW220819   1.983   6.309  10.212  0.6868  0.5085 -1.4780
 6460SOL     OW20820   4.223   3.304   4.423  0.1789 -0.3328 -0.1206
 6460SOL    HW120821   4.266   3.320   4.507 -1.7795 -1.6209  1.1847
 6460SOL    HW220822   4.195   3.213   4.427 -0.8481 -0.1266 -1.7667
 6461SOL     OW20823   7.616   1.924   2.198  0.0590 -0.4115  0.2713
 6461SOL    HW120824   7.634   2.017   2.185  0.0038 -0.4537 -0.1179
 6461SOL    HW220825   7.701   1.881   2.192  0.1278 -0.3556  0.7689
 6462SOL     OW20826   0.134   0.465   9.184 -0.3085  0.3883 -0.1309
 6462SOL    HW120827   0.168   0.378   9.163 -2.3058 -0.5021  0.1270
 6462SOL    HW220828   0.155   0.519   9.108  1.7880 -0.0320  0.0952
 6463SOL     OW20829   3.226   6.061   6.491 -1.0014  0.1123 -0.3624
 6463SOL    HW120830   3.138   6.071   6.527 -1.5163 -0.1433 -1.5048
 6463SOL    HW220831   3.214   6.069   6.397  0.2648  0.4712 -0.5111
 6464SOL     OW20832   3.993   0.488   2.140 -0.1324 -0.3058 -0.2679
 6464SOL    HW120833   3.901   0.465   2.153 -0.2857 -0.7054 -1.9165
 6464SOL    HW220834   4.004   0.569   2.190 -1.2925 -0.4173  0.2066
 6465SOL     OW20835   4.976   0.702   1.540  0.6089 -0.4835  0.1714
 6465SOL    HW120836   4.973   0.606   1.531  2.5159 -0.7583  1.7732
 6465SOL    HW220837   5.045   0.718   1.605  0.5573  2.0118 -0.2882
 6466SOL     OW20838   5.737   2.570   0.740  0.6312 -0.0818 -0.3965
 6466SOL    HW120839   5.742   2.647   0.684 -0.3091 -0.2306 -0.7070
 6466SOL    HW220840   5.682   2.598   0.813 -1.5800 -1.0561 -1.5886
 6467SOL     OW20841   1.593   3.075   6.662 -0.2554  0.2798 -0.2608
 6467SOL    HW120842   1.506   3.114   6.668 -0.4114  0.0781 -1.0870
 6467SOL    HW220843   1.587   2.994   6.712 -0.3827  0.5280  0.1329
 6468SOL     OW20844   7.794   0.120   3.227 -0.3461 -0.2772  0.4174
 6468SOL    HW120845   7.820   0.061   3.156 -0.0794 -0.8034  0.9486
 6468SOL    HW220846   7.756   0.063   3.294  1.8774 -0.1569  1.8828
 6469SOL     OW20847   0.876   0.625   1.159 -0.6410  0.7310  0.0657
 6469SOL    HW120848   0.904   0.652   1.246 -1.5060  0.5751  0.3976
 6469SOL    HW220849   0.927   0.546   1.141 -1.9924 -0.5039  1.3533
 6470SOL     OW20850   3.726   1.805   3.244 -0.5582 -0.4818 -0.5023
 6470SOL    HW120851   3.727   1.834   3.335 -1.3359 -1.1308 -0.2759
 6470SOL    HW220852   3.697   1.714   3.248  0.2400 -0.7833 -1.3360
 6471SOL     OW20853   2.530   3.248   3.384  0.3498  0.7024  0.6675
 6471SOL    HW120854   2.442   3.267   3.353  0.6350  0.6210 -0.2440
 6471SOL    HW220855   2.536   3.153   3.385  0.3564  0.7042  0.9492
 6472SOL     OW20856   7.705   5.435  10.737 -0.8519  0.6975 -0.3929
 6472SOL    HW120857   7.665   5.522  10.727 -2.2521  0.1265 -0.0794
 6472SOL    HW220858   7.641   5.386  10.788 -0.2757 -0.6451 -0.9305
 6473SOL     OW20859   1.044   6.419   4.399 -0.2646 -0.3095  0.7040
 6473SOL    HW120860   1.023   6.326   4.396 -0.3622 -0.3454  1.8535
 6473SOL    HW220861   1.078   6.439   4.312 -2.7010 -0.8023 -0.4279
 6474SOL     OW20862   1.025   5.818   8.055  0.2763 -0.3119 -0.0128
 6474SOL    HW120863   0.959   5.880   8.024 -0.5662 -0.3727  1.5252
 6474SOL    HW220864   0.986   5.732   8.040 -0.0860 -0.3447  1.0281
 6475SOL     OW20865   1.676   0.498   2.215 -0.4717 -0.2883  0.1009
 6475SOL    HW120866   1.716   0.533   2.295 -0.3525  2.1338 -0.9257
 6475SOL    HW220867   1.585   0.528   2.220 -0.4615 -0.1265 -0.6579
 6476SOL     OW20868   6.685   6.386   3.234 -0.1463  0.0894 -0.4826
 6476SOL    HW120869   6.726   6.304   3.260  0.3183  0.5045  0.1032
 6476SOL    HW220870   6.636   6.364   3.154 -2.5928 -1.4904  1.3175
 6477SOL     OW20871   5.141   6.777   0.958  0.1353  0.3377  0.1357
 6477SOL    HW120872   5.171   6.863   0.927  1.4990  0.2780  1.2196
 6477SOL    HW220873   5.086   6.797   1.034 -1.0788  0.3216 -0.6941
 6478SOL     OW20874   6.423   0.383  11.622  0.3542 -0.3387 -0.2857
 6478SOL    HW120875   6.470   0.446  11.567 -1.1990 -0.1173 -1.4736
 6478SOL    HW220876   6.488   0.317  11.645  1.7499  1.0821  0.0319
 6479SOL     OW20877   6.248   4.777  12.411  0.5639 -0.4147  0.0080
 6479SOL    HW120878   6.267   4.741  12.324 -0.7565  1.0000 -0.9233
 6479SOL    HW220879   6.180   4.720  12.447 -0.0689 -0.0483 -0.5941
 6480SOL     OW20880   5.233   2.758   4.627  0.3121 -0.0461 -0.4698
 6480SOL    HW120881   5.277   2.683   4.587 -1.2072 -0.7605 -0.8712
 6480SOL    HW220882   5.221   2.732   4.718 -0.4372 -0.4157 -0.6659
 6481SOL     OW20883   7.882   7.279  11.735  0.1688 -0.6111 -0.3826
 6481SOL    HW120884   7.967   7.279  11.690 -0.5664 -0.7086 -1.8351
 6481SOL    HW220885   7.818   7.279  11.664 -1.0708  1.0550  0.6796
 6482SOL     OW20886   6.203   0.403   3.353 -0.0954  0.2313 -0.1776
 6482SOL    HW120887   6.185   0.339   3.422 -1.1100  0.0579 -0.5855
 6482SOL    HW220888   6.240   0.478   3.399  1.5120 -0.7704  0.2685
 6483SOL     OW20889   3.992   0.220   7.734 -0.2476 -0.2741 -0.1428
 6483SOL    HW120890   3.988   0.193   7.826  0.3772 -0.6381 -0.2161
 6483SOL    HW220891   3.958   0.144   7.686 -0.9333  0.0573 -0.1965
 6484SOL     OW20892   6.988   7.057  11.680 -0.4146  0.2833 -0.1483
 6484SOL    HW120893   6.999   7.030  11.771 -1.1842 -0.9170 -0.3881
 6484SOL    HW220894   6.930   7.134  11.685 -0.0976  0.4942  0.3914
 6485SOL     OW20895   3.155   1.085   6.738  0.5048  0.7439 -0.1665
 6485SOL    HW120896   3.154   1.064   6.644  2.3008 -1.1291  0.1492
 6485SOL    HW220897   3.105   1.015   6.779  2.0537 -0.0564  0.4603
 6486SOL     OW20898   5.386   7.744   9.516  0.4005 -0.2086  0.0385
 6486SOL    HW120899   5.404   7.752   9.422 -0.5172  1.0667 -0.0516
 6486SOL    HW220900   5.332   7.820   9.537  0.1508 -0.7549  1.5040
 6487SOL     OW20901   7.918   5.881   9.144  0.5728 -0.6481 -0.0015
 6487SOL    HW120902   7.843   5.865   9.087 -0.4679  1.2877  0.7561
 6487SOL    HW220903   7.911   5.813   9.212 -0.5436 -0.4452  0.1000
 6488SOL     OW20904   1.333   0.822   8.685 -0.1515 -0.1420 -0.1331
 6488SOL    HW120905   1.428   0.835   8.677  0.1896 -2.4486 -0.4450
 6488SOL    HW220906   1.320   0.789   8.774 -0.7505  0.7096  0.1046
 6489SOL     OW20907   5.714   2.424   1.859 -0.1789 -0.2126 -0.0600
 6489SOL    HW120908   5.738   2.429   1.951 -0.4354 -0.2018  0.0068
 6489SOL    HW220909   5.743   2.337   1.831  1.0228  0.2325 -0.2949
 6490SOL     OW20910   1.223   5.405  11.199  0.5500  0.3779 -0.1444
 6490SOL    HW120911   1.191   5.381  11.285 -1.3016  1.1302 -0.5842
 6490SOL    HW220912   1.266   5.326  11.166 -1.2553 -0.8360  0.3156
 6491SOL     OW20913   5.100   5.012   9.694 -0.1700  0.3353 -0.3728
 6491SOL    HW120914   5.038   5.082   9.673 -0.7744  0.2940  1.1253
 6491SOL    HW220915   5.107   5.015   9.789  0.6697 -0.9161 -0.3777
 6492SOL     OW20916   1.758   3.818   1.654 -0.3096  0.3388  0.3828
 6492SOL    HW120917   1.801   3.868   1.585 -0.2638  0.8134  0.7458
 6492SOL    HW220918   1.798   3.850   1.735  0.9594 -1.4845  0.5557
 6493SOL     OW20919   1.465   3.385   5.673  0.4212  0.0577  0.4800
 6493SOL    HW120920   1.444   3.309   5.727 -1.7349  1.2075  1.3901
 6493SOL    HW220921   1.531   3.432   5.723  0.2050 -0.1308  0.9464
 6494SOL     OW20922   5.751   7.051   9.567 -0.1313 -0.5468  0.0903
 6494SOL    HW120923   5.843   7.023   9.559  0.3069  0.5047  1.1801
 6494SOL    HW220924   5.712   6.988   9.628  0.6639  0.7088  1.9660
 6495SOL     OW20925   6.014   3.382   8.744 -0.0681 -0.5756  0.4254
 6495SOL    HW120926   6.078   3.327   8.699 -0.5881 -2.4645  1.8606
 6495SOL    HW220927   5.931   3.361   8.703  0.1312  1.9456 -1.4972
 6496SOL     OW20928   3.361   7.458   7.374  0.0240 -0.1414  0.4817
 6496SOL    HW120929   3.438   7.455   7.318  0.3049  1.5578  0.7202
 6496SOL    HW220930   3.300   7.395   7.334 -0.5071  2.2017 -2.8938
 6497SOL     OW20931   5.578   3.594   1.970  0.0325  0.6778 -0.1484
 6497SOL    HW120932   5.492   3.635   1.976 -0.2506  0.2921 -1.2393
 6497SOL    HW220933   5.562   3.509   1.929  0.9688  0.7644 -0.7454
 6498SOL     OW20934   3.433   6.162   2.525  0.2922  0.0317 -0.1017
 6498SOL    HW120935   3.452   6.109   2.603  1.6263  0.3275 -0.1975
 6498SOL    HW220936   3.421   6.098   2.455 -3.1893 -0.3674  0.7192
 6499SOL     OW20937   5.191   2.701   8.925 -0.4728  0.4194 -0.0823
 6499SOL    HW120938   5.194   2.673   9.016  0.4865 -0.4031 -0.3516
 6499SOL    HW220939   5.239   2.784   8.924 -0.7781  0.6051  0.2067
 6500SOL     OW20940   4.574   7.143  11.530  0.6126  0.0356  0.0749
 6500SOL    HW120941   4.523   7.219  11.502  1.1303  1.6353  3.1063
 6500SOL    HW220942   4.546   7.126  11.620  1.6151 -2.4593  0.0017
 6501SOL     OW20943   7.575   6.171   2.049  0.5494 -0.1662  0.7165
 6501SOL    HW120944   7.618   6.197   2.131  0.0935  1.0279  0.6095
 6501SOL    HW220945   7.486   6.206   2.057  0.3285 -0.5268 -0.0547
 6502SOL     OW20946   7.007   4.886   0.432  0.5252  0.2063  0.4046
 6502SOL    HW120947   6.942   4.942   0.390  0.0739 -0.7956 -0.2832
 6502SOL    HW220948   7.063   4.856   0.361 -0.4540 -1.7800  0.3913
 6503SOL     OW20949   5.982   2.567  12.198  0.2719 -0.3761 -0.1131
 6503SOL    HW120950   5.892   2.592  12.178 -0.2236  1.3695  3.4734
 6503SOL    HW220951   6.032   2.593  12.121 -1.9459  0.8711 -1.2284
 6504SOL     OW20952   1.702   4.905  12.395 -0.1101  0.0667  0.1198
 6504SOL    HW120953   1.775   4.948  12.439 -0.5066  0.6356  0.2469
 6504SOL    HW220954   1.624   4.947  12.433 -0.4637  0.4347 -0.9693
 6505SOL     OW20955   6.595   5.414   7.116 -0.0960  0.1251  0.0513
 6505SOL    HW120956   6.553   5.343   7.069  1.6216 -0.2381 -1.0328
 6505SOL    HW220957   6.523   5.465   7.153 -1.3983 -1.2708 -0.4745
 6506SOL     OW20958   7.262   3.216   3.113  0.0280  0.2679 -0.2985
 6506SOL    HW120959   7.233   3.305   3.097  0.0761  0.5638  1.1871
 6506SOL    HW220960   7.350   3.225   3.149  0.2106 -0.4072 -0.5556
 6507SOL     OW20961   6.920   5.962  10.576 -0.8634 -0.7124 -0.4462
 6507SOL    HW120962   6.863   6.013  10.633  0.0035 -1.9010  1.5959
 6507SOL    HW220963   6.906   5.998  10.488 -1.8076  1.5916  0.5904
 6508SOL     OW20964   6.497   7.441   2.656 -0.5476 -0.2885  0.5126
 6508SOL    HW120965   6.538   7.366   2.614 -2.9045 -1.4626  0.1515
 6508SOL    HW220966   6.455   7.489   2.584  1.5652  1.9176  0.6150
 6509SOL     OW20967   4.130   3.050   2.738 -0.0177 -0.1308 -0.4182
 6509SOL    HW120968   4.140   3.110   2.812 -0.0827  0.1324 -0.6202
 6509SOL    HW220969   4.104   3.106   2.665 -3.2592 -0.7867  0.1179
 6510SOL     OW20970   3.287   6.860   8.115  0.0498 -0.0937 -0.2368
 6510SOL    HW120971   3.229   6.885   8.186 -1.1352 -0.9950 -0.8524
 6510SOL    HW220972   3.353   6.929   8.112 -1.1093  1.0832  0.3542
 6511SOL     OW20973   1.491   6.933   9.248  0.6560  0.3815  0.0172
 6511SOL    HW120974   1.490   7.006   9.185  0.6183  0.7737  0.4656
 6511SOL    HW220975   1.510   6.974   9.332  1.0629 -0.1877  0.2094
 6512SOL     OW20976   3.097   0.972   0.396  0.4394  0.2608  0.2462
 6512SOL    HW120977   3.161   1.032   0.433  1.5120  0.1786 -1.3983
 6512SOL    HW220978   3.031   0.962   0.465  1.5379  1.3237  1.4963
 6513SOL     OW20979   6.500   0.731   0.306  0.1698 -0.1955 -0.0410
 6513SOL    HW120980   6.461   0.651   0.270 -0.2060 -0.2994  0.5883
 6513SOL    HW220981   6.452   0.801   0.263  0.9452 -0.2850 -1.0934
 6514SOL     OW20982   5.358   6.383  11.169 -0.5162 -0.6088 -0.0401
 6514SOL    HW120983   5.423   6.320  11.139  0.6526 -0.1490  1.4036
 6514SOL    HW220984   5.409   6.459  11.197 -1.6340 -0.3174  1.3616
 6515SOL     OW20985   3.803   5.380   4.930 -0.0430 -0.2077 -0.2366
 6515SOL    HW120986   3.880   5.328   4.954 -0.8330 -1.1509  0.3359
 6515SOL    HW220987   3.802   5.380   4.835  0.1339 -1.0198 -0.2446
 6516SOL     OW20988   7.169   5.584   9.280  0.6452  0.4841  0.1640
 6516SOL    HW120989   7.095   5.552   9.331  1.9151 -0.2687  1.5923
 6516SOL    HW220990   7.204   5.658   9.331  1.3131  0.3725 -0.1127
 6517SOL     OW20991   3.302   2.218  10.276  0.2281  0.9571  0.4497
 6517SOL    HW120992   3.348   2.134  10.271 -0.1638  0.6543  1.5780
 6517SOL    HW220993   3.214   2.195  10.306 -0.5933  1.5589 -1.3814
 6518SOL     OW20994   3.108   2.623   4.196  0.0095 -0.3180 -0.0430
 6518SOL    HW120995   3.039   2.608   4.132 -0.9581  1.4432  0.5219
 6518SOL    HW220996   3.079   2.699   4.246  0.9567 -1.3153  2.1823
 6519SOL     OW20997   6.236   5.251   6.129 -0.5710 -0.4343 -0.6163
 6519SOL    HW120998   6.311   5.231   6.074  1.4853  2.2290  0.9426
 6519SOL    HW220999   6.198   5.331   6.091 -0.1451  0.4778  0.7934
 6520SOL     OW21000   0.199   4.512   6.748  0.2204  0.1666 -0.2411
 6520SOL    HW121001   0.109   4.479   6.755  1.0045 -1.7593  1.9152
 6520SOL    HW221002   0.212   4.527   6.654 -1.7445 -1.2732 -0.8023
 6521SOL     OW21003   5.109   7.433  12.019 -0.3224 -0.6480  0.0051
 6521SOL    HW121004   5.162   7.356  11.996 -1.3028 -1.4981  0.4917
 6521SOL    HW221005   5.028   7.396  12.055 -0.5519  0.6280  0.8547
 6522SOL     OW21006   4.077   0.499  10.474  0.3628  0.7374  0.2601
 6522SOL    HW121007   4.051   0.591  10.464 -0.3128  0.5705  0.4155
 6522SOL    HW221008   3.994   0.452  10.480  0.7112  0.1685  0.6702
 6523SOL     OW21009   2.770   5.392   1.243  0.5441 -0.2659  0.0806
 6523SOL    HW121010   2.707   5.454   1.208  0.4034 -0.6862 -0.4231
 6523SOL    HW221011   2.842   5.392   1.181  0.6788 -0.3784  0.2345
 6524SOL     OW21012   2.513   5.147  10.476  0.5109  0.0781 -0.6242
 6524SOL    HW121013   2.513   5.052  10.466  3.2263 -0.1778  0.9842
 6524SOL    HW221014   2.605   5.172  10.476 -0.1001  2.6542 -0.2854
 6525SOL     OW21015   3.374   7.585   9.891  0.4241 -0.3202 -0.3351
 6525SOL    HW121016   3.464   7.558   9.869  1.4015  2.2524  0.1408
 6525SOL    HW221017   3.373   7.679   9.876 -0.2163  1.0286  5.6531
 6526SOL     OW21018   2.679   7.839  11.678  0.0011  0.1979  0.3215
 6526SOL    HW121019   2.587   7.821  11.656  0.0336 -1.1061  1.1994
 6526SOL    HW221020   2.717   7.753  11.696  1.5614  0.6645 -0.5964
 6527SOL     OW21021   2.870   6.261  10.259  0.0845 -0.3095 -0.2038
 6527SOL    HW121022   2.902   6.212  10.184  1.8832 -1.3559  1.1446
 6527SOL    HW221023   2.910   6.348  10.250  0.4434 -0.4913 -0.3685
 6528SOL     OW21024   3.588   0.968   3.878 -0.5121 -0.3663  0.2708
 6528SOL    HW121025   3.618   1.058   3.890  0.8188 -0.8489  0.7608
 6528SOL    HW221026   3.667   0.920   3.850 -1.3757 -1.2188 -0.7905
 6529SOL     OW21027   5.699   2.940   2.133 -0.2712 -0.0912 -0.0156
 6529SOL    HW121028   5.773   2.972   2.185 -0.9512 -0.5871  1.3296
 6529SOL    HW221029   5.644   3.017   2.119 -0.6624 -0.1543  1.0503
 6530SOL     OW21030   7.667   7.152  11.089  0.4208 -0.0012  0.2405
 6530SOL    HW121031   7.616   7.214  11.141  1.4246 -0.1210  1.4107
 6530SOL    HW221032   7.757   7.180  11.099  0.6614  0.0379 -1.5746
 6531SOL     OW21033   3.196   6.287   0.461 -0.3879  0.3582 -0.2703
 6531SOL    HW121034   3.112   6.270   0.503 -0.4907 -0.9486 -0.9451
 6531SOL    HW221035   3.184   6.371   0.417 -0.2399  1.8263  2.3003
 6532SOL     OW21036   6.131   4.445  11.753  0.5009 -0.0986  0.0776
 6532SOL    HW121037   6.216   4.472  11.717  1.2024 -2.2677 -0.0243
 6532SOL    HW221038   6.154   4.389  11.828 -0.8660  0.1084  0.6750
 6533SOL     OW21039   1.164   5.473   9.949  0.1905  0.1054  0.6987
 6533SOL    HW121040   1.219   5.427  10.012 -0.1263 -0.8990  0.2537
 6533SOL    HW221041   1.098   5.517  10.002 -0.1316 -0.8063  1.0633
 6534SOL     OW21042   7.166   5.037   8.110  0.0072 -0.3272  0.1778
 6534SOL    HW121043   7.246   4.987   8.124  0.3986  0.7660  2.3054
 6534SOL    HW221044   7.111   4.981   8.056  2.3748 -0.9009 -1.8087
 6535SOL     OW21045   3.018   0.751   7.758  0.5442  0.0869  0.0748
 6535SOL    HW121046   3.082   0.817   7.733 -0.2555  1.0093  0.3661
 6535SOL    HW221047   3.069   0.681   7.799  1.2858  1.2607  1.2440
 6536SOL     OW21048   0.721   6.625   0.473 -0.1198 -0.0722 -0.2274
 6536SOL    HW121049   0.713   6.594   0.563  0.1453  0.6281  0.0423
 6536SOL    HW221050   0.724   6.545   0.421 -0.6674 -0.4748  0.3472
 6537SOL     OW21051   6.687   7.203   6.240 -0.2862 -0.3048  0.1444
 6537SOL    HW121052   6.697   7.288   6.284  0.3293  0.9425 -2.2536
 6537SOL    HW221053   6.620   7.219   6.174 -0.5731 -1.8837  0.0341
 6538SOL     OW21054   4.281   4.494   7.837 -0.1863  0.5236  0.0725
 6538SOL    HW121055   4.225   4.537   7.772 -0.1297 -1.0197 -1.0455
 6538SOL    HW221056   4.268   4.545   7.917 -2.0354  1.1157 -0.5547
 6539SOL     OW21057   1.914   2.896   2.718  0.2346  0.2150 -0.5655
 6539SOL    HW121058   1.978   2.966   2.702  0.1465  0.0359 -1.8515
 6539SOL    HW221059   1.866   2.889   2.635 -2.2076  1.0987  0.6789
 6540SOL     OW21060   4.266   6.828   2.694 -0.0020  0.2576  0.5193
 6540SOL    HW121061   4.287   6.794   2.780 -0.8830 -0.3430  0.5128
 6540SOL    HW221062   4.189   6.882   2.708  0.5378  1.1009  0.2887
 6541SOL     OW21063   5.637   3.624   3.785 -0.1178 -0.8236 -0.3321
 6541SOL    HW121064   5.575   3.617   3.857  1.7746 -0.0203  1.4746
 6541SOL    HW221065   5.636   3.538   3.743 -0.9225 -1.4556  0.9477
 6542SOL     OW21066   7.635   0.593   8.844  0.1492 -0.1658  0.3537
 6542SOL    HW121067   7.552   0.569   8.802  0.3630 -1.3706  0.5984
 6542SOL    HW221068   7.686   0.512   8.846  0.5900  0.1126  1.9120
 6543SOL     OW21069   3.583   2.446   9.401 -0.4353 -0.2362  0.3052
 6543SOL    HW121070   3.626   2.431   9.485 -1.1285  0.7676  0.8622
 6543SOL    HW221071   3.650   2.487   9.346 -0.0617 -0.6389  0.4604
 6544SOL     OW21072   7.225   5.151   7.468 -0.3595  0.2057 -0.0433
 6544SOL    HW121073   7.161   5.094   7.510  2.1561 -2.4256  0.4764
 6544SOL    HW221074   7.301   5.096   7.453  2.5609  3.5536  1.0793
 6545SOL     OW21075   4.538   3.160   3.225 -0.1965  0.3895  0.0538
 6545SOL    HW121076   4.527   3.064   3.226 -2.7415  0.6084  0.7138
 6545SOL    HW221077   4.598   3.176   3.153  3.0522 -1.8881  1.9813
 6546SOL     OW21078   6.967   7.298   4.494 -0.4646  0.3550 -0.4963
 6546SOL    HW121079   6.918   7.372   4.530  0.7363  0.9437 -0.0126
 6546SOL    HW221080   7.053   7.335   4.472  1.4045 -1.5546  2.9239
 6547SOL     OW21081   6.514   0.859   5.802  0.5993  0.1929  0.3628
 6547SOL    HW121082   6.439   0.801   5.816  0.8429  0.3291  2.5795
 6547SOL    HW221083   6.476   0.946   5.791  0.3090 -0.1318 -1.7681
 6548SOL     OW21084   6.347   0.327  11.991  0.1337  0.1412 -0.2634
 6548SOL    HW121085   6.394   0.266  11.934 -0.7915  1.3942 -2.5279
 6548SOL    HW221086   6.256   0.298  11.987  0.0915  0.0941  0.8437
 6549SOL     OW21087   3.834   4.741   7.205 -0.4071 -0.3173 -0.0578
 6549SOL    HW121088   3.746   4.704   7.213 -0.4730 -0.3042 -0.6703
 6549SOL    HW221089   3.877   4.720   7.288  0.0162 -2.9969 -0.8626
 6550SOL     OW21090   0.763   4.004   1.054  0.3548  0.7822 -0.3291
 6550SOL    HW121091   0.733   4.083   1.098  1.4570  0.9509  0.1441
 6550SOL    HW221092   0.682   3.954   1.038 -0.3172  1.8562 -0.3835
 6551SOL     OW21093   3.937   5.470   6.319 -0.7461  0.3108  0.3063
 6551SOL    HW121094   4.007   5.535   6.320 -2.1556  1.9068  0.0780
 6551SOL    HW221095   3.940   5.434   6.230  0.6548 -0.6761  0.7248
 6552SOL     OW21096   1.260   4.113   8.125  0.1571  0.2392  0.4431
 6552SOL    HW121097   1.232   4.204   8.113  3.3752  1.4195  0.9286
 6552SOL    HW221098   1.239   4.070   8.042 -1.8819  1.2494  0.3914
 6553SOL     OW21099   0.029   7.064   8.354  0.0368  0.4212 -0.4198
 6553SOL    HW121100   0.106   7.105   8.393 -0.3176  0.1603  0.5997
 6553SOL    HW221101   0.057   7.036   8.267  1.0192  0.5510 -0.1530
 6554SOL     OW21102   5.633   6.329   1.496  0.8056  0.0105  0.3435
 6554SOL    HW121103   5.678   6.332   1.581  0.3574  0.8507  0.5590
 6554SOL    HW221104   5.616   6.420   1.475 -0.5292 -0.2739  0.1237
 6555SOL     OW21105   5.528   2.295   4.276 -0.4526  0.0549  0.4537
 6555SOL    HW121106   5.597   2.245   4.320 -0.2077  1.1035  1.2924
 6555SOL    HW221107   5.572   2.337   4.203  0.0688  1.5405  1.5728
 6556SOL     OW21108   5.831   3.958   4.385  0.1308 -0.3550  0.6454
 6556SOL    HW121109   5.910   4.008   4.402  0.2384 -0.9117  1.8533
 6556SOL    HW221110   5.771   3.982   4.456  0.2853 -2.1283  1.4144
 6557SOL     OW21111   4.094   1.227   1.095  0.2349  0.0833  0.1888
 6557SOL    HW121112   4.146   1.305   1.070  1.2815 -0.4247  0.7237
 6557SOL    HW221113   4.159   1.165   1.127 -0.6429 -0.8755  0.1406
 6558SOL     OW21114   4.578   4.599   8.347 -0.1381 -0.1639 -0.1280
 6558SOL    HW121115   4.547   4.533   8.409  0.9339 -0.8495 -0.2911
 6558SOL    HW221116   4.626   4.662   8.400  0.6196 -0.6496 -0.2289
 6559SOL     OW21117   1.616   4.435   5.514  0.1267 -0.2454 -0.5022
 6559SOL    HW121118   1.557   4.436   5.439 -0.3017 -0.0099 -0.1666
 6559SOL    HW221119   1.682   4.369   5.493  0.4760  0.3951 -1.4455
 6560SOL     OW21120   1.895   1.736   8.453  0.0619 -0.9804  0.2406
 6560SOL    HW121121   1.854   1.798   8.392  2.2976 -0.2681 -0.6276
 6560SOL    HW221122   1.867   1.766   8.539  0.2716  0.6573 -0.2189
 6561SOL     OW21123   2.747   3.827  10.576  0.8734 -0.4563  0.2076
 6561SOL    HW121124   2.671   3.874  10.610  1.2847  0.1283  0.3235
 6561SOL    HW221125   2.742   3.838  10.481  0.2745 -1.2544  0.1335
 6562SOL     OW21126   0.935   2.707   1.972  0.4474 -0.3548 -0.3214
 6562SOL    HW121127   0.899   2.631   1.926 -0.3634 -0.8441  1.0688
 6562SOL    HW221128   0.891   2.782   1.932  0.5347 -0.6802 -1.0486
 6563SOL     OW21129   6.277   3.386   1.986  0.5277  0.3895 -0.4353
 6563SOL    HW121130   6.351   3.330   1.962  0.5452  0.9636 -1.7872
 6563SOL    HW221131   6.208   3.325   2.011  0.6883 -0.2268 -1.4447
 6564SOL     OW21132   3.093   1.746   7.509  0.1546 -0.0836  0.1073
 6564SOL    HW121133   3.021   1.805   7.534  0.4819  0.1980  0.4031
 6564SOL    HW221134   3.143   1.797   7.445 -1.5160 -1.3449 -2.3392
 6565SOL     OW21135   6.885   3.714   5.725  0.4592  0.0418  0.2726
 6565SOL    HW121136   6.929   3.637   5.690 -0.6095 -0.1419 -0.7309
 6565SOL    HW221137   6.901   3.711   5.820  0.5572 -1.3278  0.2240
 6566SOL     OW21138   2.836   6.824  12.024 -0.2717 -0.0975 -0.1785
 6566SOL    HW121139   2.780   6.752  11.994  0.2895 -0.7636  0.3562
 6566SOL    HW221140   2.775   6.890  12.056 -0.8414  0.0999 -1.5740
 6567SOL     OW21141   7.855   0.259   6.184 -0.3074  0.0824 -0.3161
 6567SOL    HW121142   7.927   0.305   6.142  0.9772  0.1960  1.8775
 6567SOL    HW221143   7.877   0.166   6.176  1.1247  0.1587  1.9440
 6568SOL     OW21144   3.740   7.173   8.423  0.2234 -0.3789 -0.1287
 6568SOL    HW121145   3.823   7.212   8.453  0.8250 -2.2158  0.7326
 6568SOL    HW221146   3.767   7.100   8.367 -0.7666 -1.8825  1.2878
 6569SOL     OW21147   1.864   0.383   3.442  0.1124 -0.7507 -0.3406
 6569SOL    HW121148   1.958   0.384   3.425 -0.1131 -0.6856 -1.7172
 6569SOL    HW221149   1.827   0.333   3.370 -1.1334  1.2991 -1.2257
 6570SOL     OW21150   4.300   1.118   0.424  0.4506 -1.1244 -0.1657
 6570SOL    HW121151   4.242   1.043   0.419 -1.6251  0.3649  0.3262
 6570SOL    HW221152   4.249   1.185   0.469  1.3713  1.3070 -2.4406
 6571SOL     OW21153   3.931   6.310   2.729  0.2536 -0.0487 -0.7244
 6571SOL    HW121154   3.924   6.318   2.634 -1.5622 -0.3366 -0.6432
 6571SOL    HW221155   3.864   6.245   2.753  0.8291 -0.1533  0.7355
 6572SOL     OW21156   4.289   7.984   8.237  0.3824 -0.0149 -0.1034
 6572SOL    HW121157   4.341   7.929   8.179 -0.3477 -1.6131  0.6695
 6572SOL    HW221158   4.230   7.922   8.281  0.9298  1.0967  2.3457
 6573SOL     OW21159   0.210   3.814   7.206  0.0466 -0.1919  0.1323
 6573SOL    HW121160   0.171   3.737   7.247  2.5212 -1.1778  0.8596
 6573SOL    HW221161   0.201   3.883   7.271 -1.0337 -0.1982  0.0036
 6574SOL     OW21162   2.682   4.085   9.562 -0.2257  0.8165 -0.3354
 6574SOL    HW121163   2.643   4.152   9.618  1.3487 -0.3913  2.3954
 6574SOL    HW221164   2.768   4.068   9.601 -0.1500 -2.0857 -1.4959
 6575SOL     OW21165   7.321   2.124   1.500 -0.2501 -0.2279 -0.3536
 6575SOL    HW121166   7.270   2.156   1.425  1.7402  0.6508 -1.3883
 6575SOL    HW221167   7.335   2.032   1.482 -1.6346 -0.5554  0.0801
 6576SOL     OW21168   6.097   0.436   7.707  0.1342  0.3584 -0.5911
 6576SOL    HW121169   6.142   0.482   7.778 -1.5242 -0.2189  0.9028
 6576SOL    HW221170   6.071   0.505   7.646  1.3825  0.8887 -0.5432
 6577SOL     OW21171   1.515   2.374   4.220 -0.6474 -0.2054 -0.0545
 6577SOL    HW121172   1.454   2.371   4.293  0.3923 -2.3234  0.8216
 6577SOL    HW221173   1.575   2.446   4.241 -0.0512 -1.1025  1.5032
 6578SOL     OW21174   0.338   0.759   3.702  0.0559  0.3233  0.4047
 6578SOL    HW121175   0.381   0.741   3.786 -0.6220 -1.7709  0.3670
 6578SOL    HW221176   0.409   0.762   3.638  0.3635 -0.7972  0.6758
 6579SOL     OW21177   5.607   6.111   9.278  0.0092  0.2189 -0.2014
 6579SOL    HW121178   5.598   6.016   9.276  1.0001  0.1205 -0.6741
 6579SOL    HW221179   5.629   6.131   9.369 -1.7414  0.1829  0.2774
 6580SOL     OW21180   2.925   2.692  12.173  0.5521  0.7378  0.2537
 6580SOL    HW121181   2.967   2.757  12.118  0.6755 -0.6039 -1.3183
 6580SOL    HW221182   2.996   2.636  12.204  0.2466  0.1209 -0.1306
 6581SOL     OW21183   2.924   2.140  10.985  0.3089  0.5799 -0.4952
 6581SOL    HW121184   2.840   2.172  10.952 -1.3985 -1.2186  1.7265
 6581SOL    HW221185   2.934   2.053  10.947  1.8109  1.2179 -1.6578
 6582SOL     OW21186   0.666   3.985   9.446 -0.3746  0.5458  0.6295
 6582SOL    HW121187   0.627   4.062   9.488 -1.6430  0.1655  0.2200
 6582SOL    HW221188   0.706   3.937   9.518 -2.0061  0.2003  1.3720
 6583SOL     OW21189   2.516   7.491   7.169  0.0972  0.1946 -0.3466
 6583SOL    HW121190   2.600   7.446   7.163 -0.1861 -0.4477  0.2903
 6583SOL    HW221191   2.535   7.571   7.218  0.3598  0.1079 -0.3069
 6584SOL     OW21192   5.988   2.380  11.615  0.5879 -0.0083  0.5492
 6584SOL    HW121193   6.016   2.328  11.540  0.5942 -0.4889  0.8781
 6584SOL    HW221194   5.904   2.417  11.589 -0.8569 -2.4987  1.3483
 6585SOL     OW21195   1.209   4.432  10.261  0.0053 -0.5913 -0.2525
 6585SOL    HW121196   1.212   4.528  10.269  0.6076 -0.7503  2.5605
 6585SOL    HW221197   1.300   4.404  10.271 -0.2809 -1.4789 -0.0467
 6586SOL     OW21198   5.340   5.885   3.203  0.5445  0.4064  0.2693
 6586SOL    HW121199   5.399   5.957   3.223 -1.1536  1.5643  1.3387
 6586SOL    HW221200   5.252   5.920   3.220 -0.7360 -0.4028 -3.6416
 6587SOL     OW21201   1.723   3.093   1.191  0.4126  0.3433  0.2612
 6587SOL    HW121202   1.754   3.136   1.270  0.4315 -1.5398  1.3484
 6587SOL    HW221203   1.741   3.000   1.206 -0.8454 -0.2112 -1.3715
 6588SOL     OW21204   6.754   3.130  10.721 -0.0739  0.0103  0.4743
 6588SOL    HW121205   6.688   3.146  10.789 -0.7530 -0.1304 -0.1445
 6588SOL    HW221206   6.820   3.076  10.765 -0.6301 -0.2984  0.9552
 6589SOL     OW21207   7.931   1.056   9.373  0.1979 -0.4884  0.0360
 6589SOL    HW121208   7.885   1.077   9.454 -1.0831 -2.2343 -0.1788
 6589SOL    HW221209   7.898   1.119   9.309  1.2944  0.9626  0.8665
 6590SOL     OW21210   2.960   3.359   4.547  0.1512 -0.1059  0.4827
 6590SOL    HW121211   3.055   3.354   4.559 -0.1840 -1.4715  3.4151
 6590SOL    HW221212   2.924   3.347   4.635 -2.7651  0.9800 -0.4399
 6591SOL     OW21213   0.150   7.947  11.922 -0.0856 -0.2613 -0.1394
 6591SOL    HW121214   0.061   7.911  11.914  0.0380 -0.7799  0.7286
 6591SOL    HW221215   0.154   7.982  12.011  1.2478 -2.1551  0.6197
 6592SOL     OW21216   4.664   1.621   2.189 -0.2161 -0.7824  0.1831
 6592SOL    HW121217   4.583   1.629   2.238 -0.4846  1.3518 -0.4737
 6592SOL    HW221218   4.725   1.579   2.249 -1.1762 -0.3320  1.5097
 6593SOL     OW21219   4.377   4.115   4.790 -0.4880  0.0759  0.2299
 6593SOL    HW121220   4.423   4.196   4.812 -0.1548  0.5343 -1.9127
 6593SOL    HW221221   4.418   4.049   4.845  2.3146  0.6075 -1.0321
 6594SOL     OW21222   3.460   0.224   5.534  0.1462  0.2976 -0.4171
 6594SOL    HW121223   3.512   0.145   5.548 -0.1306 -0.3907 -2.7634
 6594SOL    HW221224   3.437   0.221   5.441 -3.8478  0.6885  0.3638
 6595SOL     OW21225   5.627   7.527   5.296 -0.3010 -0.5319 -0.0190
 6595SOL    HW121226   5.692   7.597   5.297 -0.5647 -0.2681  1.8731
 6595SOL    HW221227   5.559   7.556   5.356 -1.0636 -1.8346 -0.2072
 6596SOL     OW21228   2.867   2.647   1.915 -0.4090  0.5817 -0.3589
 6596SOL    HW121229   2.949   2.651   1.964 -0.0871 -0.1660 -0.8064
 6596SOL    HW221230   2.868   2.724   1.859 -0.0739  0.6443 -0.2681
 6597SOL     OW21231   4.808   5.916  10.164  0.0759  0.0824 -0.2189
 6597SOL    HW121232   4.807   5.953  10.075  2.6660 -2.1062 -1.3281
 6597SOL    HW221233   4.888   5.951  10.203  1.3648 -2.3705 -0.4867
 6598SOL     OW21234   2.512   6.280   8.536  0.3017  0.1969  0.6541
 6598SOL    HW121235   2.417   6.292   8.533  0.4053  1.5861  1.5597
 6598SOL    HW221236   2.530   6.210   8.474 -1.2391  0.3842 -0.0489
 6599SOL     OW21237   7.663   5.345   9.063 -0.4308 -0.4792  0.4320
 6599SOL    HW121238   7.600   5.416   9.076  0.9811  0.6159  1.7415
 6599SOL    HW221239   7.749   5.388   9.067  0.4445 -1.7440 -2.3376
 6600SOL     OW21240   2.143   4.939   4.293  0.6407 -0.6558 -0.5541
 6600SOL    HW121241   2.141   4.968   4.384  1.6073 -1.9921 -0.0699
 6600SOL    HW221242   2.202   5.000   4.249 -1.5440  1.3709 -0.8540
 6601SOL     OW21243   4.898   4.144   8.766  0.6181 -0.2197 -0.7134
 6601SOL    HW121244   4.987   4.139   8.731  0.9830 -0.7299  0.2529
 6601SOL    HW221245   4.880   4.056   8.798  0.5334  0.3807  0.9528
 6602SOL     OW21246   7.512   4.049  11.309 -0.4738  0.0048 -0.4378
 6602SOL    HW121247   7.591   3.996  11.318 -0.5758 -0.1288 -0.3289
 6602SOL    HW221248   7.526   4.122  11.370 -0.7861 -0.4477  0.1827
 6603SOL     OW21249   1.682   2.079   2.646 -0.3642 -0.2166  0.4727
 6603SOL    HW121250   1.712   1.989   2.658  1.0041  0.2375  0.6093
 6603SOL    HW221251   1.709   2.102   2.557  1.5424  0.8387  1.2535
 6604SOL     OW21252   3.653   7.403   1.872  0.6207  0.0300  0.4785
 6604SOL    HW121253   3.600   7.475   1.840 -0.4850 -0.7212  0.5730
 6604SOL    HW221254   3.648   7.336   1.804 -1.1087 -1.2654  1.7788
 6605SOL     OW21255   4.677   7.720  10.353 -0.0408 -0.2508  0.1673
 6605SOL    HW121256   4.684   7.725  10.449  2.1004  0.3217  0.0313
 6605SOL    HW221257   4.717   7.636  10.330  3.1725  1.2947 -0.4183
 6606SOL     OW21258   4.855   0.896   8.175 -0.1559 -0.1174 -0.3126
 6606SOL    HW121259   4.833   0.969   8.116 -0.2362  0.6831  0.6827
 6606SOL    HW221260   4.788   0.899   8.243  0.4012 -0.5125  0.2594
 6607SOL     OW21261   3.086   5.432   2.893 -0.0335 -0.1981 -0.6008
 6607SOL    HW121262   3.166   5.384   2.916  0.3205  1.4560  2.0817
 6607SOL    HW221263   3.018   5.365   2.893  0.7914 -1.0906  0.7799
 6608SOL     OW21264   4.276   0.237   8.576 -0.3242 -0.0884 -0.2749
 6608SOL    HW121265   4.328   0.212   8.652 -0.2966  1.3883  0.2286
 6608SOL    HW221266   4.186   0.243   8.609 -0.7407 -1.8622 -0.9617
 6609SOL     OW21267   4.914   0.919   7.539  0.0742  0.5587 -0.8475
 6609SOL    HW121268   4.964   0.983   7.487 -0.3541  1.7995  0.2129
 6609SOL    HW221269   4.822   0.938   7.520 -0.0902  0.9648  0.2428
 6610SOL     OW21270   0.201   5.781   9.960  0.4264  0.0831  0.2704
 6610SOL    HW121271   0.143   5.783   9.884 -0.4594 -0.0671  0.9256
 6610SOL    HW221272   0.250   5.700   9.950 -0.2399 -0.3260  0.2442
 6611SOL     OW21273   7.897   6.464   2.155 -0.4082 -0.3593 -0.8621
 6611SOL    HW121274   7.972   6.519   2.130 -1.0070  0.7519 -0.2760
 6611SOL    HW221275   7.916   6.435   2.244 -0.4132 -0.5407 -0.9197
 6612SOL     OW21276   7.546   1.755  11.561  0.2302  0.2421  0.1737
 6612SOL    HW121277   7.579   1.789  11.477  0.2376  0.0395  0.0934
 6612SOL    HW221278   7.451   1.766  11.554  0.2294  0.2094  0.1303
 6613SOL     OW21279   4.647   3.482   5.497 -0.3033  0.0911 -0.1273
 6613SOL    HW121280   4.695   3.400   5.512  0.7606  0.6951 -0.1733
 6613SOL    HW221281   4.555   3.457   5.504  0.0040 -1.1344 -0.2514
 6614SOL     OW21282   6.450   6.019   2.424  0.0602  0.1332  0.5983
 6614SOL    HW121283   6.383   5.961   2.461  0.6587  0.2695  1.9486
 6614SOL    HW221284   6.407   6.059   2.348 -1.6437  0.7238  1.7999
 6615SOL     OW21285   2.081   0.062   1.677  0.1299  0.0546 -0.5868
 6615SOL    HW121286   2.044   0.079   1.763 -0.2479  1.6322 -1.0279
 6615SOL    HW221287   2.021  -0.001   1.637  0.4249 -0.8498  0.3606
 6616SOL     OW21288   7.895   0.076   5.250 -0.1563 -0.3499 -0.2589
 6616SOL    HW121289   7.813   0.061   5.298 -0.5614  2.0065 -0.1139
 6616SOL    HW221290   7.867   0.092   5.160  0.0673  1.0432 -0.0943
 6617SOL     OW21291   3.491   3.786   5.157  0.0393  0.5632 -1.0383
 6617SOL    HW121292   3.526   3.803   5.244 -1.8939  1.3833 -0.3600
 6617SOL    HW221293   3.527   3.701   5.132  2.5061  1.3895 -0.4914
 6618SOL     OW21294   2.907   5.181   5.405  0.0743 -0.3772 -0.2199
 6618SOL    HW121295   2.871   5.223   5.483  1.8026  0.0932  0.3680
 6618SOL    HW221296   2.898   5.087   5.422 -2.5603 -0.3403 -0.9462
 6619SOL     OW21297   3.415   7.371   6.212  0.3941 -0.1000 -0.2941
 6619SOL    HW121298   3.387   7.445   6.267 -1.6592 -1.0734  0.0553
 6619SOL    HW221299   3.508   7.387   6.197  0.4945  1.4488  1.5213
 6620SOL     OW21300   2.813   7.440   1.328 -0.1683  0.3376 -0.3245
 6620SOL    HW121301   2.847   7.359   1.289  0.4527  0.5395 -0.2161
 6620SOL    HW221302   2.730   7.414   1.368  0.6688 -0.5842  0.9333
 6621SOL     OW21303   0.047   3.675   5.307 -0.3859 -0.1772  0.1534
 6621SOL    HW121304   0.130   3.636   5.334 -1.2318 -1.7329  0.6029
 6621SOL    HW221305   0.035   3.749   5.367  1.8779  1.7111 -1.5601
 6622SOL     OW21306   0.883   6.727  10.789  0.2775  0.2632 -0.3271
 6622SOL    HW121307   0.813   6.667  10.761 -0.1429  0.2120  0.7698
 6622SOL    HW221308   0.836   6.800  10.829  0.8534 -0.1110  1.0780
 6623SOL     OW21309   0.361   1.518   9.600 -0.0252 -0.6357  0.3817
 6623SOL    HW121310   0.305   1.581   9.645  2.1974  1.1464  0.8727
 6623SOL    HW221311   0.403   1.569   9.531 -0.9406 -2.5577 -1.7118
 6624SOL     OW21312   1.401   5.987   5.129  0.1836  0.3660 -0.1800
 6624SOL    HW121313   1.349   5.985   5.049 -1.3257  3.1267  0.6077
 6624SOL    HW221314   1.483   6.030   5.104  0.2833 -0.0003 -0.4962
 6625SOL     OW21315   7.678   6.591   3.723  0.7456 -0.0952  0.0289
 6625SOL    HW121316   7.612   6.528   3.752  0.7966 -0.4143 -0.5249
 6625SOL    HW221317   7.688   6.651   3.797  0.3467 -0.4547  0.3839
 6626SOL     OW21318   5.770   6.166   7.110  0.2066 -0.5625  0.2769
 6626SOL    HW121319   5.860   6.149   7.081  0.3553  0.3148  0.1959
 6626SOL    HW221320   5.737   6.080   7.137  0.4325 -1.2282 -1.4583
 6627SOL     OW21321   2.655   5.278   1.783 -0.1841  0.0354  0.1316
 6627SOL    HW121322   2.643   5.217   1.710 -1.0255 -1.1059  1.1830
 6627SOL    HW221323   2.573   5.274   1.832  0.6850  0.0490  1.6748
 6628SOL     OW21324   6.061   4.818   7.153  0.6301  0.2205  0.2990
 6628SOL    HW121325   6.105   4.780   7.229  0.7476 -1.3974 -0.5259
 6628SOL    HW221326   5.979   4.769   7.145  1.3315 -0.7716 -1.5018
 6629SOL     OW21327   5.037   3.098   5.598 -0.2295 -0.3237  0.2057
 6629SOL    HW121328   5.118   3.068   5.557  0.7832  1.3081  0.9123
 6629SOL    HW221329   5.039   3.194   5.589 -2.1644 -0.2522  0.0981
 6630SOL     OW21330   1.483   7.856   3.081 -0.0663  0.1920  0.3239
 6630SOL    HW121331   1.492   7.849   3.176  2.4004  1.5846  0.2614
 6630SOL    HW221332   1.550   7.798   3.046 -0.6308  0.0600 -0.5639
 6631SOL     OW21333   2.533   7.390   2.226  0.1884  0.5625  0.1176
 6631SOL    HW121334   2.589   7.447   2.173 -2.1295  0.4028 -2.7964
 6631SOL    HW221335   2.548   7.302   2.192 -0.4210  0.2617  0.6024
 6632SOL     OW21336   6.258   1.413  10.755  0.2795 -0.5140 -0.1151
 6632SOL    HW121337   6.178   1.390  10.708  0.4423 -0.2130 -0.5396
 6632SOL    HW221338   6.294   1.329  10.784  0.4752 -0.7408 -1.0072
 6633SOL     OW21339   4.359   7.549   6.778 -0.5530  0.0549 -0.0943
 6633SOL    HW121340   4.430   7.613   6.789 -1.3262  0.7818  0.8338
 6633SOL    HW221341   4.355   7.535   6.683  0.5331  0.3262 -0.2018
 6634SOL     OW21342   2.700   3.554   3.737 -0.3506 -0.5686 -0.2408
 6634SOL    HW121343   2.677   3.465   3.712  1.0510 -0.8232 -0.7270
 6634SOL    HW221344   2.715   3.599   3.654  0.9346 -0.4650  0.0265
 6635SOL     OW21345   0.098   0.069   3.580 -0.5986  0.0219  0.7222
 6635SOL    HW121346   0.054   0.142   3.535 -0.0751 -0.6033 -0.8859
 6635SOL    HW221347   0.180   0.106   3.610  0.3039 -0.1712 -1.3057
 6636SOL     OW21348   2.855   4.946   1.985  0.2356 -0.5223  0.2275
 6636SOL    HW121349   2.837   4.925   1.893  4.4081 -0.4260 -0.8346
 6636SOL    HW221350   2.842   5.040   1.991 -0.9604 -0.6533  0.0492
 6637SOL     OW21351   4.052   7.739   5.707  0.0150 -0.1313  0.1008
 6637SOL    HW121352   4.048   7.645   5.687 -3.4354 -0.1087  0.0507
 6637SOL    HW221353   4.119   7.747   5.774  0.6321 -2.5794 -0.1433
 6638SOL     OW21354   4.130   0.683   1.645  0.8800  0.1769  0.3103
 6638SOL    HW121355   4.175   0.746   1.701 -1.8204  2.3334  0.3132
 6638SOL    HW221356   4.109   0.610   1.703  0.2569  1.2791  1.5249
 6639SOL     OW21357   2.859   3.279   1.473 -0.4386 -0.3897  0.6047
 6639SOL    HW121358   2.950   3.255   1.456 -0.4539  0.0058 -0.0569
 6639SOL    HW221359   2.861   3.322   1.558 -0.1113 -0.9873  0.9046
 6640SOL     OW21360   2.194   2.614   7.057  0.1760 -0.3789  0.3335
 6640SOL    HW121361   2.266   2.555   7.082  0.8740  0.3496  0.1087
 6640SOL    HW221362   2.185   2.602   6.963  1.0492  0.6340  0.1028
 6641SOL     OW21363   2.030   3.237   6.334 -0.8824  0.5444  0.0761
 6641SOL    HW121364   1.945   3.253   6.376 -0.8526 -1.6357  1.1476
 6641SOL    HW221365   2.094   3.257   6.402 -0.7232 -0.8986  0.3743
 6642SOL     OW21366   4.371   4.785   7.696  0.2137 -0.0211 -0.2913
 6642SOL    HW121367   4.301   4.720   7.689 -1.0280  1.0305  1.4010
 6642SOL    HW221368   4.377   4.823   7.609 -0.4489 -1.0062 -0.7851
 6643SOL     OW21369   0.282   0.188   8.062 -0.2234 -0.4311 -0.0820
 6643SOL    HW121370   0.335   0.170   8.139 -0.8483  2.0677  1.0383
 6643SOL    HW221371   0.214   0.248   8.093 -1.1740 -0.2376 -2.3488
 6644SOL     OW21372   4.695   7.275   0.666  0.5415  0.3650  0.0102
 6644SOL    HW121373   4.603   7.293   0.680  0.7702  0.9659  0.7785
 6644SOL    HW221374   4.699   7.239   0.577 -0.7542 -2.1049  0.8542
 6645SOL     OW21375   7.422   2.261  11.548  0.2439 -0.1177 -0.4596
 6645SOL    HW121376   7.326   2.261  11.551  0.1291 -1.5834 -2.5167
 6645SOL    HW221377   7.448   2.273  11.640 -1.8979 -0.8951  0.3200
 6646SOL     OW21378   6.514   3.172   2.147 -0.0939  0.2465  0.1459
 6646SOL    HW121379   6.602   3.185   2.182 -0.3376 -1.2452  1.4367
 6646SOL    HW221380   6.507   3.078   2.133 -0.4137  0.6026 -3.0246
 6647SOL     OW21381   5.671   4.953   6.475  0.2774  0.4284 -0.2538
 6647SOL    HW121382   5.764   4.947   6.497  0.2725 -0.8264 -0.5109
 6647SOL    HW221383   5.664   5.036   6.427  1.1241  0.8829  0.3671
 6648SOL     OW21384   6.376   1.332   6.272  0.2451 -0.5289  0.0380
 6648SOL    HW121385   6.461   1.375   6.263 -0.2343  0.9781  1.9329
 6648SOL    HW221386   6.395   1.248   6.313  0.8809 -0.5329 -0.2607
 6649SOL     OW21387   4.553   4.980   4.599 -0.1662 -0.6817  0.1152
 6649SOL    HW121388   4.606   4.996   4.521 -0.1656 -2.3074 -0.2618
 6649SOL    HW221389   4.534   5.067   4.634 -0.4480  0.1200 -1.8792
 6650SOL     OW21390   3.609   0.467   8.701  0.2235 -0.5144  0.0587
 6650SOL    HW121391   3.570   0.423   8.626  0.7009 -1.7178  0.4910
 6650SOL    HW221392   3.627   0.555   8.670  1.7121 -1.3719 -1.7282
 6651SOL     OW21393   2.266   7.055   0.532  0.8477 -0.0625  0.0410
 6651SOL    HW121394   2.254   7.032   0.440  1.6182  0.1627 -0.1177
 6651SOL    HW221395   2.181   7.088   0.560  0.4011 -0.8237 -0.3888
 6652SOL     OW21396   6.243   0.458   7.005  0.5542  0.1609 -0.2282
 6652SOL    HW121397   6.286   0.539   6.978  0.2621  0.1481 -0.7427
 6652SOL    HW221398   6.282   0.391   6.949  1.4692 -0.2260  0.8095
 6653SOL     OW21399   6.320   3.098   4.225  0.4510 -0.0204 -0.3075
 6653SOL    HW121400   6.261   3.075   4.296  0.2351 -0.3157 -0.5767
 6653SOL    HW221401   6.383   3.158   4.264  1.4303 -1.5611  0.5993
 6654SOL     OW21402   0.887   3.540   8.770  0.4031  0.4394  0.2942
 6654SOL    HW121403   0.884   3.592   8.851 -0.2172  2.9495 -1.2176
 6654SOL    HW221404   0.978   3.543   8.742  0.4934  0.1320  0.5528
 6655SOL     OW21405   2.026   1.038   7.319  0.1604  0.0316  0.0968
 6655SOL    HW121406   2.121   1.029   7.323  0.1318  0.1201  1.1907
 6655SOL    HW221407   1.998   0.972   7.255  0.7565 -1.6320  1.4927
 6656SOL     OW21408   5.367   6.892   9.150 -0.1149 -0.4858 -0.2591
 6656SOL    HW121409   5.444   6.835   9.153 -0.1272 -0.5507 -0.8719
 6656SOL    HW221410   5.399   6.977   9.179  0.1154 -0.5929 -0.1990
 6657SOL     OW21411   0.869   0.528  10.546  0.2411 -0.2357 -0.3681
 6657SOL    HW121412   0.808   0.591  10.508 -0.0578 -0.6113 -0.5144
 6657SOL    HW221413   0.826   0.498  10.626  0.4890 -0.0811 -0.1729
 6658SOL     OW21414   2.389   0.552   0.099 -0.2333  0.3671 -0.0583
 6658SOL    HW121415   2.455   0.483   0.100 -1.2372 -0.6239  0.4899
 6658SOL    HW221416   2.398   0.594   0.185 -0.5089  0.0172  0.1487
 6659SOL     OW21417   2.961   4.203   9.402  0.3533 -0.0794 -0.1932
 6659SOL    HW121418   2.960   4.108   9.390 -0.3262 -0.0666 -0.2908
 6659SOL    HW221419   3.023   4.218   9.473 -1.3165 -0.8035  1.4993
 6660SOL     OW21420   2.701   1.192   9.201  0.2629 -0.1866  0.5892
 6660SOL    HW121421   2.626   1.145   9.238  0.9996  0.1521  2.6416
 6660SOL    HW221422   2.663   1.263   9.151 -0.8023 -0.6141  0.7619
 6661SOL     OW21423   3.295   4.191  11.586 -0.0740 -0.1373 -0.4371
 6661SOL    HW121424   3.325   4.258  11.524  0.7880  1.3748  1.5265
 6661SOL    HW221425   3.374   4.143  11.609 -0.3279 -0.4569 -0.2241
 6662SOL     OW21426   1.772   1.352   9.381 -0.2065  0.5743 -0.0424
 6662SOL    HW121427   1.740   1.264   9.360 -0.1149  0.1538  1.5191
 6662SOL    HW221428   1.757   1.402   9.300 -0.7135 -0.7343 -0.7933
 6663SOL     OW21429   1.838   2.297   4.201 -0.9253  0.3269 -0.3842
 6663SOL    HW121430   1.807   2.360   4.265 -0.3572  0.7057 -0.4708
 6663SOL    HW221431   1.845   2.347   4.120 -0.5313  0.1449 -0.4664
 6664SOL     OW21432   5.236   2.229   7.839  0.2036  0.4346  0.0186
 6664SOL    HW121433   5.194   2.301   7.790 -0.1615 -0.1969 -0.6138
 6664SOL    HW221434   5.245   2.159   7.775  0.3281 -0.1772  0.6983
 6665SOL     OW21435   7.907   5.848   7.398 -0.0351 -0.0900 -0.4623
 6665SOL    HW121436   7.852   5.786   7.350  1.2647 -1.7762  0.1197
 6665SOL    HW221437   7.850   5.922   7.417 -1.5184 -0.9050 -1.5933
 6666SOL     OW21438   3.044   4.420   4.337 -0.1207 -0.5695  0.3965
 6666SOL    HW121439   3.025   4.424   4.243  1.1313 -0.5035  0.1387
 6666SOL    HW221440   2.960   4.442   4.379 -0.9693 -1.6386 -0.6737
 6667SOL     OW21441   4.016   4.939  11.798  0.4230 -0.0905 -0.3269
 6667SOL    HW121442   4.013   4.948  11.703 -0.2566 -0.6190 -0.3671
 6667SOL    HW221443   4.089   4.880  11.815 -1.7251 -3.1355 -0.8240
 6668SOL     OW21444   6.925   3.282   3.954 -0.3827  0.6080 -0.4747
 6668SOL    HW121445   7.000   3.337   3.930 -0.2973  0.2155 -1.1315
 6668SOL    HW221446   6.958   3.193   3.950 -0.8512  0.4383 -0.6629
 6669SOL     OW21447   2.455   5.588  11.939  0.0447  0.1481 -0.1532
 6669SOL    HW121448   2.516   5.515  11.949 -1.2368 -0.7214  2.1908
 6669SOL    HW221449   2.395   5.560  11.871  0.1554 -0.5484  0.0279
 6670SOL     OW21450   2.469   1.259   7.667  0.1582  0.6036 -0.2051
 6670SOL    HW121451   2.548   1.243   7.615  0.9126 -0.2565  1.1295
 6670SOL    HW221452   2.501   1.291   7.752 -0.8208 -0.8065  0.7539
 6671SOL     OW21453   7.486   3.504  10.244  0.0956 -0.1132 -0.6989
 6671SOL    HW121454   7.503   3.552  10.163  0.8773 -0.6973 -0.8998
 6671SOL    HW221455   7.532   3.421  10.232  0.0995 -0.2629  0.2912
 6672SOL     OW21456   3.422   1.255  10.022  0.6412 -0.1688  0.3778
 6672SOL    HW121457   3.495   1.307   9.988  0.3862 -0.9171 -1.4815
 6672SOL    HW221458   3.367   1.318  10.068  1.8188  0.6411  0.7212
 6673SOL     OW21459   4.618   1.879  10.370  0.3794  0.1723 -0.9953
 6673SOL    HW121460   4.543   1.937  10.386  0.4423  0.3016 -1.1688
 6673SOL    HW221461   4.617   1.864  10.276  0.1243 -0.4404 -0.8965
 6674SOL     OW21462   5.075   7.474   2.385  0.3384 -0.2741 -1.0950
 6674SOL    HW121463   5.097   7.539   2.452  0.4335 -1.1500 -0.2586
 6674SOL    HW221464   4.997   7.509   2.343 -0.0518  0.0238 -0.1524
 6675SOL     OW21465   7.887   2.943   7.538  0.3486  0.3898 -0.2962
 6675SOL    HW121466   7.961   3.000   7.517  1.0595  0.4768  2.1154
 6675SOL    HW221467   7.927   2.859   7.559 -0.4467 -0.1709 -0.9517
 6676SOL     OW21468   7.675   3.383   4.934  0.1638 -0.0889 -0.0921
 6676SOL    HW121469   7.606   3.328   4.897 -0.1364 -0.1352  0.5208
 6676SOL    HW221470   7.732   3.321   4.980 -0.0561  0.0847  0.4185
 6677SOL     OW21471   6.797   1.950   3.785 -0.3251 -0.6458 -0.0609
 6677SOL    HW121472   6.737   1.949   3.860 -0.9435 -1.0818 -0.5516
 6677SOL    HW221473   6.740   1.939   3.709  0.3192 -0.3935 -0.5816
 6678SOL     OW21474   2.673   6.351   6.844 -0.2687 -0.0088  0.3503
 6678SOL    HW121475   2.704   6.297   6.916  0.1559 -0.2331  0.0036
 6678SOL    HW221476   2.623   6.421   6.886  0.5610  0.2669  0.9111
 6679SOL     OW21477   5.469   1.784   4.850  0.1982  0.0489  0.2664
 6679SOL    HW121478   5.465   1.688   4.854  2.8768 -0.1126  0.7354
 6679SOL    HW221479   5.530   1.809   4.919  0.6871  2.0032 -0.7898
 6680SOL     OW21480   3.234   0.347   7.740  0.7349  0.3589  0.1912
 6680SOL    HW121481   3.267   0.298   7.816 -0.3252 -1.7154 -0.6138
 6680SOL    HW221482   3.311   0.366   7.688  1.5104  1.9640  1.8080
 6681SOL     OW21483   4.308   5.854   3.828  0.2407 -0.0649 -0.2303
 6681SOL    HW121484   4.340   5.835   3.739  0.9870  0.6534 -0.1303
 6681SOL    HW221485   4.347   5.785   3.882 -1.4824 -1.4454 -0.6701
 6682SOL     OW21486   3.148   5.452  11.042 -0.0814 -0.3364  0.6046
 6682SOL    HW121487   3.057   5.454  11.012  0.1251 -0.0485 -0.0310
 6682SOL    HW221488   3.181   5.540  11.026  0.9831 -1.0252 -1.3909
 6683SOL     OW21489   6.002   4.143   3.048 -0.0828 -0.1267  0.5994
 6683SOL    HW121490   5.980   4.207   2.980  0.2325  0.2078  0.8056
 6683SOL    HW221491   5.980   4.059   3.009  0.5974  0.0132 -0.1321
 6684SOL     OW21492   2.640   7.487   5.366 -0.3691 -0.6013  0.4585
 6684SOL    HW121493   2.722   7.484   5.317  0.4988 -0.9295  1.8769
 6684SOL    HW221494   2.625   7.580   5.381  0.1035 -0.5687  0.7559
 6685SOL     OW21495   3.282   3.470   4.271 -0.4795 -0.0119 -0.4263
 6685SOL    HW121496   3.250   3.558   4.290  0.0410 -0.1348  1.1975
 6685SOL    HW221497   3.208   3.425   4.232 -0.3053  1.5665 -2.7410
 6686SOL     OW21498   1.519   0.921   5.338 -0.1961  0.1483 -0.0844
 6686SOL    HW121499   1.528   1.014   5.361 -1.4843  0.0791  0.8118
 6686SOL    HW221500   1.562   0.875   5.410  0.1834  0.0376 -0.3795
 6687SOL     OW21501   4.905   5.773   8.810 -0.3934 -0.4047 -0.4168
 6687SOL    HW121502   4.834   5.742   8.754 -0.4454 -0.7141 -0.1798
 6687SOL    HW221503   4.878   5.861   8.837 -0.0658  0.0214 -1.4010
 6688SOL     OW21504   2.402   1.046  10.679  0.0254  0.0252 -0.2103
 6688SOL    HW121505   2.493   1.014  10.682  0.0415  0.0348 -0.6096
 6688SOL    HW221506   2.392   1.095  10.761  0.0909 -0.7646  0.2830
 6689SOL     OW21507   6.017   4.244   9.346  0.0309  0.5170  0.5046
 6689SOL    HW121508   6.020   4.296   9.426  0.9209  1.2293  0.0239
 6689SOL    HW221509   6.027   4.153   9.376 -0.0288  0.7411  1.2242
 6690SOL     OW21510   0.109   3.129   6.051  0.2016  0.3026  0.2078
 6690SOL    HW121511   0.055   3.090   5.982 -0.3368 -0.9832  1.3087
 6690SOL    HW221512   0.172   3.061   6.073  0.1325  0.5604  1.2264
 6691SOL     OW21513   7.149   7.511   3.704  0.1551  0.0024 -0.1319
 6691SOL    HW121514   7.195   7.590   3.731 -0.3653  0.6444 -1.0661
 6691SOL    HW221515   7.106   7.480   3.784 -0.3032  1.1361  0.0781
 6692SOL     OW21516   1.786   4.833   8.240  0.5841 -0.3306 -0.6421
 6692SOL    HW121517   1.753   4.744   8.240  0.9141 -0.4650  0.4143
 6692SOL    HW221518   1.756   4.871   8.322  3.6826 -0.7495  0.8502
 6693SOL     OW21519   4.737   4.406   2.171 -0.1562  0.5621  0.6471
 6693SOL    HW121520   4.793   4.331   2.154  1.7881  1.6804  1.7979
 6693SOL    HW221521   4.648   4.369   2.175  0.2822 -1.0942 -2.3107
 6694SOL     OW21522   6.373   1.785  10.049 -0.1874  0.3586 -0.0854
 6694SOL    HW121523   6.457   1.807  10.009 -0.2007  0.3956 -0.0921
 6694SOL    HW221524   6.314   1.854  10.022 -0.7207 -0.6857 -1.7016
 6695SOL     OW21525   2.323   1.445   6.595 -0.0619  0.0205  0.8902
 6695SOL    HW121526   2.251   1.402   6.641 -0.6781  0.4563  0.3543
 6695SOL    HW221527   2.308   1.423   6.503  0.0520  0.7436  0.6937
 6696SOL     OW21528   2.240   4.202   9.261 -0.2833 -0.7835  0.0740
 6696SOL    HW121529   2.328   4.200   9.224 -0.2799  0.1037  0.0253
 6696SOL    HW221530   2.254   4.206   9.356 -0.2011  1.8434  0.0169
 6697SOL     OW21531   5.625   4.172   8.839 -0.2605  0.1148 -0.1892
 6697SOL    HW121532   5.557   4.108   8.821 -0.5829  0.0737  1.0356
 6697SOL    HW221533   5.674   4.180   8.757 -1.5773 -0.0441 -1.0148
 6698SOL     OW21534   1.805   5.560   9.107 -0.1962 -0.1560  0.0994
 6698SOL    HW121535   1.743   5.530   9.041 -1.0180 -0.5469  1.0342
 6698SOL    HW221536   1.760   5.547   9.190  1.3631 -1.0502  0.8476
 6699SOL     OW21537   0.686   0.180   5.441  0.3053 -0.5700  0.1679
 6699SOL    HW121538   0.685   0.101   5.494 -0.0356 -0.4601  0.3352
 6699SOL    HW221539   0.719   0.153   5.356 -2.5333 -1.5261 -0.7275
 6700SOL     OW21540   0.567   6.379   7.146 -0.4626  0.6653 -0.2821
 6700SOL    HW121541   0.525   6.462   7.172 -1.1510 -0.7741  4.1678
 6700SOL    HW221542   0.494   6.319   7.131 -0.0278 -0.1129  0.6163
 6701SOL     OW21543   2.692   4.555  12.287 -0.0834 -0.0164 -0.4295
 6701SOL    HW121544   2.717   4.561  12.379 -0.5603 -1.0460 -0.2157
 6701SOL    HW221545   2.766   4.592  12.239 -0.1494  1.2335  0.3890
 6702SOL     OW21546   0.653   1.849   4.397  0.0553  0.0909  0.1807
 6702SOL    HW121547   0.587   1.888   4.455 -0.2588  0.3254 -0.3352
 6702SOL    HW221548   0.640   1.892   4.313 -0.2865 -1.1160 -0.4061
 6703SOL     OW21549   2.007   2.628   5.360 -0.0026 -0.0562  0.2153
 6703SOL    HW121550   1.934   2.683   5.330 -0.4467 -0.6814  0.1248
 6703SOL    HW221551   1.994   2.621   5.455 -0.5221 -0.8106  0.0971
 6704SOL     OW21552   1.360   1.065  12.332 -0.0532 -0.5019  0.5645
 6704SOL    HW121553   1.324   0.990  12.379  1.2158 -2.1114 -0.9085
 6704SOL    HW221554   1.454   1.050  12.331  0.2445  1.2006  0.3606
 6705SOL     OW21555   6.952   3.008   2.773 -0.0532  0.0805 -0.1378
 6705SOL    HW121556   7.039   3.026   2.807 -0.1883  0.1519  0.1676
 6705SOL    HW221557   6.898   2.991   2.850 -0.7222  1.7961 -0.1900
 6706SOL     OW21558   6.478   3.075   9.953 -0.4591 -0.7306 -0.0696
 6706SOL    HW121559   6.547   3.141   9.955 -1.9708  0.9216 -0.1111
 6706SOL    HW221560   6.524   2.992   9.962  1.5744  0.2662 -0.7311
 6707SOL     OW21561   7.343   3.043  11.109 -0.4853  0.3165  0.4679
 6707SOL    HW121562   7.312   3.097  11.036  1.0976 -0.8486 -1.1467
 6707SOL    HW221563   7.300   2.959  11.095  1.1014 -0.4327 -0.1568
 6708SOL     OW21564   1.084   7.476   2.961  0.4448 -0.8121 -0.4703
 6708SOL    HW121565   1.008   7.465   3.019  0.4842 -0.2713 -0.3122
 6708SOL    HW221566   1.046   7.503   2.878  0.4926 -0.0619 -0.2539
 6709SOL     OW21567   0.391   3.315   3.694  0.1577 -0.0490  0.5439
 6709SOL    HW121568   0.481   3.346   3.702  1.8422 -4.5450  2.2013
 6709SOL    HW221569   0.360   3.310   3.784 -0.7225 -1.1331  0.1946
 6710SOL     OW21570   3.595   2.818   3.014  0.3688  0.1420  0.6338
 6710SOL    HW121571   3.686   2.798   2.993 -0.0664 -1.9214  0.5237
 6710SOL    HW221572   3.568   2.748   3.073 -1.0335  0.9732  1.0223
 6711SOL     OW21573   2.739   5.101   9.020  0.3917  0.7664 -0.5747
 6711SOL    HW121574   2.777   5.125   9.104 -0.6527  0.0973  0.1096
 6711SOL    HW221575   2.772   5.013   9.002 -0.2798  0.4555 -0.3074
 6712SOL     OW21576   5.657   4.616   4.092 -0.1258  0.2059 -0.4053
 6712SOL    HW121577   5.626   4.595   4.004 -0.6822 -2.4560  0.3311
 6712SOL    HW221578   5.748   4.586   4.093  0.3065  1.4858 -0.4552
 6713SOL     OW21579   0.135   2.279   4.397 -0.1291 -0.2530  0.1210
 6713SOL    HW121580   0.195   2.314   4.462  0.2264 -0.2885 -0.1875
 6713SOL    HW221581   0.159   2.186   4.390  0.0804 -0.1700 -0.3264
 6714SOL     OW21582   3.564   7.727   3.446  0.6784 -0.3572 -0.2056
 6714SOL    HW121583   3.572   7.804   3.502  2.6794 -0.8355  0.2268
 6714SOL    HW221584   3.573   7.761   3.357  0.3115  0.0514 -0.0896
 6715SOL     OW21585   5.096   6.361   8.194  0.1356  0.5595  0.7796
 6715SOL    HW121586   5.128   6.429   8.253 -0.6341 -0.2468  2.1820
 6715SOL    HW221587   5.153   6.367   8.117  0.4890  2.3470  1.1372
 6716SOL     OW21588   3.022   4.537   0.400 -0.3573  0.0385  0.0352
 6716SOL    HW121589   3.108   4.572   0.379  0.3288  0.4609  3.0359
 6716SOL    HW221590   3.038   4.444   0.419 -1.1342 -0.5989 -2.1338
 6717SOL     OW21591   7.283   2.977  10.304  0.5408 -0.0551  0.5112
 6717SOL    HW121592   7.333   3.059  10.296  1.9575 -0.9446 -0.1464
 6717SOL    HW221593   7.198   3.005  10.338  1.0052  1.6842  0.3850
 6718SOL     OW21594   6.639   7.781   6.636  0.0240  0.0673  0.4472
 6718SOL    HW121595   6.725   7.747   6.662  0.5142  1.0088  0.0852
 6718SOL    HW221596   6.577   7.738   6.696  0.7487 -0.5504  0.7662
 6719SOL     OW21597   3.932   3.930   2.386  0.1123  0.4595 -0.1320
 6719SOL    HW121598   3.947   4.004   2.444 -1.5576 -0.3745  1.4536
 6719SOL    HW221599   3.926   3.969   2.299  1.8115  1.8475  0.3088
 6720SOL     OW21600   5.619   6.466   5.320 -0.0298 -0.1462 -0.0172
 6720SOL    HW121601   5.554   6.402   5.350 -0.5659 -0.0884 -1.0130
 6720SOL    HW221602   5.698   6.443   5.369 -1.2139  0.9074  2.5943
 6721SOL     OW21603   4.003   4.467   9.021  0.2244 -0.1250  0.1447
 6721SOL    HW121604   3.929   4.506   8.974  0.1244  2.1081  1.9820
 6721SOL    HW221605   4.066   4.446   8.953 -0.2966  2.0958 -1.1173
 6722SOL     OW21606   3.936   4.408   9.529  0.7475 -0.2556  0.1966
 6722SOL    HW121607   3.862   4.468   9.518  2.4935  2.2857  1.4544
 6722SOL    HW221608   3.977   4.405   9.442 -0.9231 -2.0231 -0.6335
 6723SOL     OW21609   7.859   5.823   0.726 -0.4617 -0.1284 -0.4685
 6723SOL    HW121610   7.871   5.811   0.820 -1.7845 -0.2025 -0.2977
 6723SOL    HW221611   7.776   5.870   0.717 -1.5247 -2.0936 -1.6811
 6724SOL     OW21612   1.635   7.262   3.743  0.0778 -0.4527  0.3359
 6724SOL    HW121613   1.729   7.242   3.736  0.3113  0.8046 -0.2814
 6724SOL    HW221614   1.592   7.188   3.700  0.6331 -2.1260  2.4375
 6725SOL     OW21615   2.011   2.698   3.337  0.5750  0.4107  0.6104
 6725SOL    HW121616   2.080   2.683   3.273  0.9291  4.7954 -0.3268
 6725SOL    HW221617   1.936   2.651   3.302  1.0516  1.7583 -2.6019
 6726SOL     OW21618   1.337   1.278   8.285 -0.0670 -0.1497  0.1309
 6726SOL    HW121619   1.337   1.204   8.345 -0.1965 -0.4692 -0.2537
 6726SOL    HW221620   1.328   1.355   8.341 -2.0507 -0.5352  0.4143
 6727SOL     OW21621   7.727   4.975  11.522 -0.1721  0.0150  0.2285
 6727SOL    HW121622   7.803   5.006  11.571 -1.5462  1.4412  1.5694
 6727SOL    HW221623   7.720   5.035  11.448  0.0475 -0.1539  0.0713
 6728SOL     OW21624   5.076   3.570   4.124 -0.0231 -0.2118  0.2940
 6728SOL    HW121625   5.003   3.525   4.166 -0.3420 -0.6382 -0.6977
 6728SOL    HW221626   5.056   3.663   4.135 -0.5900 -0.3239  0.2375
 6729SOL     OW21627   4.501   1.444   9.882  0.0591 -0.6370  0.9174
 6729SOL    HW121628   4.413   1.478   9.867 -0.1348 -0.6575  1.9393
 6729SOL    HW221629   4.500   1.357   9.842  0.3526  0.2515 -1.1119
 6730SOL     OW21630   3.762   1.155   7.567 -0.8601  0.1209 -0.3647
 6730SOL    HW121631   3.799   1.157   7.655  0.5210 -0.3638 -0.8962
 6730SOL    HW221632   3.707   1.078   7.566 -0.0313 -0.4905 -0.2253
 6731SOL     OW21633   2.333   2.422   9.326 -0.3519 -0.0492 -0.2941
 6731SOL    HW121634   2.407   2.459   9.277 -0.1104 -0.2118 -0.0575
 6731SOL    HW221635   2.277   2.382   9.260 -0.8869  1.1820 -0.6236
 6732SOL     OW21636   3.450   6.293   7.588  0.4484  0.9007  0.1454
 6732SOL    HW121637   3.509   6.308   7.514  0.5923  3.4214  0.6913
 6732SOL    HW221638   3.369   6.261   7.548  0.9144  1.0712 -0.9636
 6733SOL     OW21639   0.437   7.594   0.409 -0.3030 -0.0195 -0.4175
 6733SOL    HW121640   0.437   7.662   0.342 -2.0190 -0.6681 -1.1543
 6733SOL    HW221641   0.349   7.598   0.448  0.5191  0.0615  1.5309
 6734SOL     OW21642   5.980   0.302   5.646 -0.1911 -0.4840 -0.4090
 6734SOL    HW121643   6.052   0.288   5.585 -0.7545 -1.2057 -0.9222
 6734SOL    HW221644   5.987   0.394   5.671  0.6384 -0.4327 -0.7926
 6735SOL     OW21645   0.752   2.859   6.313  0.0013 -0.1012  0.4443
 6735SOL    HW121646   0.812   2.932   6.298  1.8418 -1.4740  0.7355
 6735SOL    HW221647   0.741   2.856   6.408  0.3662 -0.5140  0.4775
 6736SOL     OW21648   3.155   0.853   2.347 -0.8955 -0.0463 -0.0056
 6736SOL    HW121649   3.065   0.880   2.364  0.1341  3.1226  1.1599
 6736SOL    HW221650   3.208   0.926   2.378  2.1349 -1.9488 -0.3007
 6737SOL     OW21651   7.049   1.092   7.946  0.1572 -0.2283  0.6503
 6737SOL    HW121652   6.960   1.071   7.976 -0.5335 -1.0255 -1.7847
 6737SOL    HW221653   7.037   1.129   7.859  2.2243 -0.3683  0.2615
 6738SOL     OW21654   0.457   1.552   6.209  0.6421  0.2821  0.3160
 6738SOL    HW121655   0.552   1.562   6.214  0.6276  0.8608 -0.4705
 6738SOL    HW221656   0.438   1.477   6.266  1.4982  0.5393  0.9620
 6739SOL     OW21657   5.624   1.907   8.427  0.2310 -0.2219  0.1186
 6739SOL    HW121658   5.572   1.967   8.375  0.1851 -0.2558  0.1262
 6739SOL    HW221659   5.642   1.954   8.508  2.0709  0.6686 -0.7468
 6740SOL     OW21660   6.932   0.165   5.114 -0.0586  0.3969  0.2143
 6740SOL    HW121661   6.970   0.081   5.089  0.7082  0.9468 -0.4899
 6740SOL    HW221662   6.839   0.156   5.093  0.5072  0.8151 -2.9468
 6741SOL     OW21663   3.266   3.709   9.041  0.2144  0.2670 -0.2909
 6741SOL    HW121664   3.179   3.710   9.002  0.6218  0.0460 -1.2312
 6741SOL    HW221665   3.323   3.676   8.972  0.7525 -1.6220  0.9726
 6742SOL     OW21666   0.699   2.150   7.934 -0.5413  0.7360  0.6880
 6742SOL    HW121667   0.790   2.137   7.960 -0.9806  0.2102  2.0264
 6742SOL    HW221668   0.698   2.131   7.840  1.0314  2.3485  0.2987
 6743SOL     OW21669   1.412   1.233   7.422  0.0500  0.3911 -0.5044
 6743SOL    HW121670   1.427   1.254   7.514 -1.9056 -3.8697  1.0552
 6743SOL    HW221671   1.346   1.296   7.393 -0.8659  0.5550  1.7391
 6744SOL     OW21672   5.639   4.153   4.121  0.1008 -0.8340 -0.1923
 6744SOL    HW121673   5.549   4.129   4.144 -0.9583  2.1343 -0.8858
 6744SOL    HW221674   5.662   4.224   4.181 -0.2182  2.3482 -3.4934
 6745SOL     OW21675   4.272   3.377   2.369 -0.2509 -0.0195  0.4064
 6745SOL    HW121676   4.256   3.393   2.276 -0.1019  1.4393  0.6061
 6745SOL    HW221677   4.341   3.311   2.371 -1.1327 -0.9944 -0.4961
 6746SOL     OW21678   0.998   6.657   9.660 -0.2507  0.5365 -0.1584
 6746SOL    HW121679   0.930   6.699   9.607 -0.5560 -0.4777 -0.6134
 6746SOL    HW221680   1.040   6.596   9.600 -0.0339 -0.0291  0.5525
 6747SOL     OW21681   1.503   4.262   8.262  0.6678 -0.1030  0.0671
 6747SOL    HW121682   1.535   4.198   8.327 -0.1268 -0.3585  0.2253
 6747SOL    HW221683   1.408   4.259   8.271  0.3107 -2.0907 -2.9219
 6748SOL     OW21684   7.890   2.866  11.079  0.1098 -0.0591 -0.8099
 6748SOL    HW121685   7.938   2.793  11.039  0.2739  0.4184 -1.5003
 6748SOL    HW221686   7.801   2.834  11.090 -0.0746 -0.0164 -2.0774
 6749SOL     OW21687   3.827   7.597  10.466  0.2826  0.3747  0.1801
 6749SOL    HW121688   3.830   7.653  10.543 -1.8673 -0.4238  0.9205
 6749SOL    HW221689   3.740   7.611  10.429  0.9509  0.0875 -1.6322
 6750SOL     OW21690   4.294   0.393   9.207  0.1593  0.3561 -0.2960
 6750SOL    HW121691   4.314   0.327   9.141  0.2305  1.2896 -1.2376
 6750SOL    HW221692   4.305   0.477   9.162 -0.4758  1.0115  0.7073
 6751SOL     OW21693   1.172   3.529   7.063 -0.1290 -0.1761 -0.5257
 6751SOL    HW121694   1.238   3.584   7.106 -2.3650  1.6806  0.8115
 6751SOL    HW221695   1.199   3.439   7.081  2.1734  0.4987 -0.3367
 6752SOL     OW21696   5.316   6.886  10.383  0.0444  0.0657 -0.0428
 6752SOL    HW121697   5.295   6.793  10.394  0.7168 -0.3005 -1.6051
 6752SOL    HW221698   5.258   6.916  10.314  0.4382  0.5863 -0.1505
 6753SOL     OW21699   0.137   7.577   4.557  0.0036  0.3505  0.2418
 6753SOL    HW121700   0.147   7.482   4.551 -0.3403  0.1854  1.7701
 6753SOL    HW221701   0.052   7.595   4.516  0.4802  0.1217 -0.8633
 6754SOL     OW21702   1.056   6.453   1.622  0.3276 -0.2421  0.1425
 6754SOL    HW121703   1.142   6.486   1.597 -0.1465  1.2019  0.2626
 6754SOL    HW221704   1.028   6.511   1.693 -2.2102  1.7722 -2.2575
 6755SOL     OW21705   6.935   6.151  11.834 -0.0218  0.1165  0.2536
 6755SOL    HW121706   6.963   6.196  11.915 -0.5943  0.3537  0.3229
 6755SOL    HW221707   6.933   6.059  11.858  1.9595 -0.0731 -0.1111
 6756SOL     OW21708   6.253   3.237   8.643  0.3235 -0.4421  0.3148
 6756SOL    HW121709   6.344   3.250   8.671  1.1182 -3.5688 -0.4678
 6756SOL    HW221710   6.260   3.193   8.559 -1.9799  0.0280 -0.1947
 6757SOL     OW21711   6.349   6.071   0.095  0.1616 -0.0881  0.1765
 6757SOL    HW121712   6.305   6.144   0.138  0.1195  0.1035 -0.1876
 6757SOL    HW221713   6.284   6.033   0.036  0.4902  0.2376 -0.4113
 6758SOL     OW21714   5.773   4.359   2.751 -0.0629  0.5194  0.3584
 6758SOL    HW121715   5.760   4.328   2.841 -0.3579 -0.5338 -0.0310
 6758SOL    HW221716   5.684   4.378   2.719  0.0412  0.8992  0.2838
 6759SOL     OW21717   6.167   7.140   8.097 -0.7320 -0.0119 -0.0683
 6759SOL    HW121718   6.230   7.207   8.125 -1.2638  1.0959 -1.4156
 6759SOL    HW221719   6.092   7.190   8.063 -1.6039 -1.3015 -0.1327
 6760SOL     OW21720   7.370   7.371  12.471  0.0586 -0.3433 -0.4002
 6760SOL    HW121721   7.359   7.290  12.522 -1.3743  0.1793  0.1771
 6760SOL    HW221722   7.373   7.440  12.536  2.4786  0.0313 -0.8137
 6761SOL     OW21723   2.258   7.028   2.153 -0.4335 -0.5443  0.1233
 6761SOL    HW121724   2.170   6.992   2.165 -0.9921  0.5932 -0.4888
 6761SOL    HW221725   2.261   7.103   2.212  0.8567 -1.7363  1.6721
 6762SOL     OW21726   7.669   2.908   1.229 -0.1111 -0.2922 -0.0500
 6762SOL    HW121727   7.749   2.903   1.280 -0.7703  2.6667  1.5113
 6762SOL    HW221728   7.685   2.852   1.153  4.0122  1.2030 -0.5618
 6763SOL     OW21729   1.162   7.618   0.338 -0.2653  0.2467 -0.3865
 6763SOL    HW121730   1.150   7.606   0.432 -0.0246 -0.3494 -0.4237
 6763SOL    HW221731   1.135   7.708   0.321  1.3856  0.9519  0.5400
 6764SOL     OW21732   0.344   2.161   8.188 -0.6761  0.3769 -0.2088
 6764SOL    HW121733   0.383   2.112   8.116 -0.9726 -0.4812  0.1952
 6764SOL    HW221734   0.319   2.245   8.150 -0.1012  0.2407 -0.9039
 6765SOL     OW21735   7.508   5.606   5.920 -0.1224 -0.1697  0.0059
 6765SOL    HW121736   7.499   5.650   6.005 -3.5470  0.1423 -0.3444
 6765SOL    HW221737   7.534   5.676   5.860 -0.1636  0.1789  0.3844
 6766SOL     OW21738   5.925   4.631  10.311  0.8520 -0.1738  0.3232
 6766SOL    HW121739   5.950   4.574  10.238  1.3028  1.2275 -0.6771
 6766SOL    HW221740   5.949   4.719  10.281 -0.1281  0.5836  1.6683
 6767SOL     OW21741   5.012   4.561   1.600  0.2706 -0.0320  0.3825
 6767SOL    HW121742   5.023   4.515   1.683 -0.4827 -1.0751 -0.0695
 6767SOL    HW221743   5.073   4.517   1.541 -0.3032 -0.3353  0.0021
 6768SOL     OW21744   7.715   7.753   0.948 -0.2368  0.2233  0.2729
 6768SOL    HW121745   7.742   7.786   0.862  0.1753 -0.2898  0.2041
 6768SOL    HW221746   7.790   7.768   1.005 -0.0447 -0.5921  0.2414
 6769SOL     OW21747   0.347   6.399  10.449  0.4908 -0.4140  0.0045
 6769SOL    HW121748   0.375   6.469  10.390  0.6852 -1.6625 -1.4320
 6769SOL    HW221749   0.251   6.404  10.448  0.5036  0.8985  1.2885
 6770SOL     OW21750   1.379   3.701   2.324  0.5535  0.0641  0.0889
 6770SOL    HW121751   1.415   3.788   2.340  0.5670 -0.1498  1.3319
 6770SOL    HW221752   1.351   3.671   2.410 -1.2616 -0.3750 -0.6227
 6771SOL     OW21753   4.298   5.416  12.320 -0.5413 -0.3079 -0.0507
 6771SOL    HW121754   4.359   5.344  12.304 -1.8877 -1.5687  0.2722
 6771SOL    HW221755   4.292   5.461  12.236  0.5225 -0.3903 -0.1887
 6772SOL     OW21756   4.802   1.100   2.926 -0.0890 -0.2745 -0.3347
 6772SOL    HW121757   4.714   1.139   2.928 -0.0028 -0.1173  0.3833
 6772SOL    HW221758   4.821   1.078   3.017 -0.2133 -2.1973 -0.7289
 6773SOL     OW21759   2.173   1.462   8.057 -0.7709 -0.1885  0.2503
 6773SOL    HW121760   2.178   1.424   8.145  0.9217 -0.5459  0.0309
 6773SOL    HW221761   2.143   1.390   8.001  1.8088 -1.1053 -0.0567
 6774SOL     OW21762   7.760   6.108  11.342  0.9399  0.1197 -0.3791
 6774SOL    HW121763   7.716   6.030  11.307 -0.5465  0.3480  0.8951
 6774SOL    HW221764   7.850   6.078  11.358  1.2784 -0.4102 -2.8561
 6775SOL     OW21765   3.559   2.814   4.435  0.2387  0.2728  0.0851
 6775SOL    HW121766   3.580   2.758   4.510 -0.7552 -2.3768 -1.4774
 6775SOL    HW221767   3.464   2.819   4.436  0.0858 -1.1833 -1.8334
 6776SOL     OW21768   5.006   4.273   4.364  0.1657  0.1213  0.2671
 6776SOL    HW121769   4.967   4.350   4.406 -0.7008  0.0896 -0.4540
 6776SOL    HW221770   5.095   4.300   4.341  0.2738  0.5019  1.1037
 6777SOL     OW21771   1.956   6.762   0.754 -0.0555  0.0313  0.3128
 6777SOL    HW121772   1.930   6.751   0.663 -2.2557 -2.7402  1.1660
 6777SOL    HW221773   2.012   6.840   0.753  0.7847 -0.4409 -3.5076
 6778SOL     OW21774   0.495   6.657   6.824  0.1726 -0.6239 -0.2345
 6778SOL    HW121775   0.515   6.671   6.916 -1.5797 -1.0426  0.2486
 6778SOL    HW221776   0.578   6.668   6.779  1.2946 -1.5171  1.5134
 6779SOL     OW21777   2.107   3.558   1.921  0.7193  0.1655  0.2664
 6779SOL    HW121778   2.094   3.652   1.934 -0.2799  0.0882 -0.1103
 6779SOL    HW221779   2.035   3.531   1.864  0.6432 -0.9488  0.8559
 6780SOL     OW21780   1.339   4.066  12.149  0.3974 -0.4958 -0.0933
 6780SOL    HW121781   1.282   4.116  12.207  1.3148  0.2388  0.1890
 6780SOL    HW221782   1.319   3.975  12.168 -2.3830 -0.3350 -1.6542
 6781SOL     OW21783   4.199   4.345   7.021 -0.1109 -0.4634 -1.0287
 6781SOL    HW121784   4.198   4.299   6.937 -1.7155 -2.7620  0.1472
 6781SOL    HW221785   4.110   4.335   7.055  0.8201 -0.7712  1.5376
 6782SOL     OW21786   2.055   5.681  10.677  0.1545 -0.0793  0.3725
 6782SOL    HW121787   1.966   5.649  10.691 -0.3187  1.1684  0.3249
 6782SOL    HW221788   2.051   5.730  10.595  1.0575 -0.5884  0.0058
 6783SOL     OW21789   6.981   3.192   0.935  0.2214 -0.2517 -0.3523
 6783SOL    HW121790   6.888   3.181   0.916  0.1083  1.4219 -0.9643
 6783SOL    HW221791   6.984   3.208   1.030  0.0937 -1.9479 -0.0261
 6784SOL     OW21792   1.688   3.617   8.747  0.0903 -0.4072  0.2374
 6784SOL    HW121793   1.691   3.709   8.718 -1.4805 -0.6757 -0.9091
 6784SOL    HW221794   1.702   3.567   8.667  3.4133 -1.2661  1.1948
 6785SOL     OW21795   0.179   5.216   4.383  0.1168  0.2325  0.0049
 6785SOL    HW121796   0.170   5.153   4.454 -1.2563 -0.2440 -0.5472
 6785SOL    HW221797   0.218   5.293   4.423  3.1541 -1.3654  0.4441
 6786SOL     OW21798   7.943   1.016   0.892 -0.1377  0.5212  0.6934
 6786SOL    HW121799   7.962   0.953   0.823  2.1731  2.1247 -0.2696
 6786SOL    HW221800   8.008   0.998   0.960 -0.5520  0.7915  1.1742
 6787SOL     OW21801   1.152   4.877   9.128 -0.1975 -0.0184 -0.7661
 6787SOL    HW121802   1.152   4.864   9.223  0.7701  0.4930 -0.6828
 6787SOL    HW221803   1.128   4.791   9.092 -0.6730 -0.1863 -0.0634
 6788SOL     OW21804   3.144   0.059  11.265 -0.0492 -0.0196 -0.2775
 6788SOL    HW121805   3.174   0.080  11.176 -1.0484 -0.1798 -0.6642
 6788SOL    HW221806   3.049   0.064  11.260 -0.1705 -1.2312  0.4894
 6789SOL     OW21807   5.385   5.316   5.649  0.3218 -0.3840  0.6589
 6789SOL    HW121808   5.405   5.404   5.681  1.9327  0.1079 -1.4804
 6789SOL    HW221809   5.456   5.295   5.589 -0.4537 -2.8430  0.4843
 6790SOL     OW21810   4.467   7.595  11.617  0.1681 -0.1947  0.1966
 6790SOL    HW121811   4.538   7.582  11.555  0.6694 -1.8706  1.0579
 6790SOL    HW221812   4.405   7.652  11.572  0.3374 -1.6486 -1.9897
 6791SOL     OW21813   6.473   7.389   1.770 -0.2941  0.4417 -0.1040
 6791SOL    HW121814   6.528   7.346   1.836 -2.1576 -0.9408  0.6624
 6791SOL    HW221815   6.514   7.368   1.686 -0.5751 -2.1306  0.3212
 6792SOL     OW21816   3.068   3.984   3.548 -0.2773 -0.1186 -0.1732
 6792SOL    HW121817   3.114   4.029   3.620 -1.4164  2.2538 -0.8471
 6792SOL    HW221818   3.120   3.904   3.534  1.2425  0.4209  1.8032
 6793SOL     OW21819   0.971   7.085   4.049 -0.2725  0.2566 -0.0616
 6793SOL    HW121820   1.023   7.127   4.118  1.0206 -2.5500  0.8315
 6793SOL    HW221821   0.880   7.103   4.073  0.1467 -0.4378  2.3157
 6794SOL     OW21822   3.582   3.517   3.266  0.6043  0.0097 -0.5195
 6794SOL    HW121823   3.666   3.552   3.294  0.7955 -0.2360 -0.7721
 6794SOL    HW221824   3.551   3.466   3.341 -0.1416  1.4905  0.2178
 6795SOL     OW21825   4.522   7.231   0.380  0.0739 -0.7990 -0.3055
 6795SOL    HW121826   4.467   7.163   0.420  0.3853  0.5970  2.7925
 6795SOL    HW221827   4.467   7.309   0.380  0.0391 -0.7459 -2.9563
 6796SOL     OW21828   3.332   2.028   9.855 -0.3443 -0.0327 -0.1900
 6796SOL    HW121829   3.395   1.961   9.830 -2.1287 -1.1272 -1.9600
 6796SOL    HW221830   3.320   2.081   9.776  0.7387  2.2305  1.0468
 6797SOL     OW21831   6.361   5.045  10.485 -0.3100  0.1007  0.0169
 6797SOL    HW121832   6.454   5.054  10.461 -0.9427 -2.0844 -4.2523
 6797SOL    HW221833   6.352   4.954  10.514 -1.1658  0.1243 -0.1379
 6798SOL     OW21834   6.225   7.535   2.583  0.4318  0.3671  0.2703
 6798SOL    HW121835   6.176   7.456   2.607  0.7982  0.1325  0.2484
 6798SOL    HW221836   6.159   7.594   2.547  0.2784 -0.2333 -0.4525
 6799SOL     OW21837   5.437   6.924   6.089  0.1780 -0.1068 -0.3488
 6799SOL    HW121838   5.349   6.922   6.127  0.4008 -2.1186  0.1625
 6799SOL    HW221839   5.427   6.881   6.004  0.3954  1.0778 -0.9938
 6800SOL     OW21840   4.489   7.427   9.053  0.3169 -0.4241 -0.2331
 6800SOL    HW121841   4.574   7.471   9.059  0.4662 -0.6816 -0.4321
 6800SOL    HW221842   4.510   7.334   9.059 -0.0713 -0.4403  0.9525
 6801SOL     OW21843   0.817   4.219   6.283 -0.3632 -0.3144  0.1986
 6801SOL    HW121844   0.727   4.204   6.313 -1.8067  1.1250 -2.8877
 6801SOL    HW221845   0.843   4.300   6.327 -0.7263 -0.5364  0.8334
 6802SOL     OW21846   7.081   1.761  10.576 -0.0857 -0.6893 -0.4448
 6802SOL    HW121847   7.048   1.839  10.621 -0.8639  0.1139 -2.3051
 6802SOL    HW221848   7.162   1.790  10.533  0.5925 -1.4101  0.3166
 6803SOL     OW21849   2.523   4.099   8.300  0.4165 -0.4391  0.0572
 6803SOL    HW121850   2.586   4.117   8.370  1.2240 -0.3870 -0.6624
 6803SOL    HW221851   2.510   4.005   8.303 -0.2529 -0.3377  0.8477
 6804SOL     OW21852   2.909   2.979  10.065 -0.0113  0.8766 -0.0320
 6804SOL    HW121853   2.883   2.914  10.130 -2.1302  1.0331 -0.6624
 6804SOL    HW221854   3.004   2.986  10.075  0.2298 -1.9002  0.4412
 6805SOL     OW21855   1.548   2.839   0.415 -0.2338 -0.1222  0.3329
 6805SOL    HW121856   1.610   2.850   0.343 -0.6946 -0.7864 -0.1903
 6805SOL    HW221857   1.566   2.911   0.475  0.0390  0.5544 -0.5434
 6806SOL     OW21858   5.798   0.659   5.794  0.5158  0.5269 -0.1102
 6806SOL    HW121859   5.845   0.665   5.877  0.0790 -0.4509  0.2281
 6806SOL    HW221860   5.754   0.574   5.798  0.3064  0.5654 -1.2487
 6807SOL     OW21861   4.383   7.784   4.372  0.1541  0.7104  0.3601
 6807SOL    HW121862   4.473   7.778   4.402  0.1885 -0.7851  0.0735
 6807SOL    HW221863   4.338   7.837   4.437  0.4587 -1.5087  2.5182
 6808SOL     OW21864   3.087   5.485   3.668  0.5741 -0.1456  0.0211
 6808SOL    HW121865   3.108   5.569   3.628 -0.1823  0.4719  0.8782
 6808SOL    HW221866   3.100   5.499   3.762  0.3223 -0.9496  0.1855
 6809SOL     OW21867   6.817   4.585   7.277 -0.1129  0.0574 -0.1775
 6809SOL    HW121868   6.846   4.674   7.297  0.1338 -0.3109  1.2501
 6809SOL    HW221869   6.894   4.543   7.240 -0.3599  0.5498 -1.2881
 6810SOL     OW21870   1.983   6.277   9.410 -0.2419 -0.4990 -0.1993
 6810SOL    HW121871   2.003   6.241   9.496 -1.5122  0.1950  0.4105
 6810SOL    HW221872   2.063   6.264   9.359  1.0741  0.4521  1.5288
 6811SOL     OW21873   0.527   4.175   6.298  0.1320  0.3394 -0.0331
 6811SOL    HW121874   0.528   4.199   6.205 -2.2086 -0.9154 -0.4462
 6811SOL    HW221875   0.449   4.216   6.333  0.1182 -0.5378  1.0038
 6812SOL     OW21876   5.304   7.137  10.151 -0.7670  0.0946  0.8069
 6812SOL    HW121877   5.251   7.128  10.073 -0.8293  0.4225  0.8125
 6812SOL    HW221878   5.361   7.060  10.150 -1.1290 -0.1711  0.7173
 6813SOL     OW21879   6.974   5.533   9.893  0.1760  0.2327 -0.0505
 6813SOL    HW121880   6.907   5.483   9.847  0.1344  1.4897 -1.4469
 6813SOL    HW221881   7.024   5.468   9.941  0.0839 -1.1618 -1.7390
 6814SOL     OW21882   1.913   5.653   2.621  0.1946  0.2229 -0.0355
 6814SOL    HW121883   1.941   5.626   2.709 -1.5796 -0.1162  0.4641
 6814SOL    HW221884   1.964   5.732   2.603  1.0199 -0.0378  1.0512
 6815SOL     OW21885   2.677   5.469   9.705 -0.0569  0.3443  0.5861
 6815SOL    HW121886   2.641   5.381   9.713 -2.3502  1.1795  0.0589
 6815SOL    HW221887   2.725   5.468   9.623  0.5631 -0.5883  0.9357
 6816SOL     OW21888   3.693   3.966   4.792  0.2393  0.0404  1.1351
 6816SOL    HW121889   3.727   4.017   4.865  1.8848  2.5944 -1.1969
 6816SOL    HW221890   3.767   3.915   4.762 -0.7244 -1.8655  1.8591
 6817SOL     OW21891   0.269   0.366   2.774 -0.0507  0.2761 -0.3659
 6817SOL    HW121892   0.240   0.411   2.853  2.2439  0.4727  0.4503
 6817SOL    HW221893   0.269   0.273   2.798  1.8893  0.4195  0.3920
 6818SOL     OW21894   4.276   2.973   3.389 -0.0232  0.6641 -0.3596
 6818SOL    HW121895   4.306   3.041   3.450 -0.6031  0.1723  0.4927
 6818SOL    HW221896   4.209   3.015   3.336  0.6006  1.1427 -0.7939
 6819SOL     OW21897   7.089   7.488   6.058  0.1907  0.2582 -0.1290
 6819SOL    HW121898   7.140   7.525   6.130  0.2331 -2.3173  1.2906
 6819SOL    HW221899   7.057   7.564   6.009  1.5036  2.0509  1.6531
 6820SOL     OW21900   5.251   7.932  10.525  0.4814 -0.0273  0.5681
 6820SOL    HW121901   5.157   7.917  10.513  0.5034  0.4203 -0.2577
 6820SOL    HW221902   5.292   7.849  10.502  0.1467 -1.3210  4.0076
 6821SOL     OW21903   7.343   3.132   0.461  0.1387 -0.7840 -0.1551
 6821SOL    HW121904   7.282   3.071   0.501 -0.8127 -0.1323 -0.5966
 6821SOL    HW221905   7.411   3.146   0.528 -1.6079  0.5832  1.4395
 6822SOL     OW21906   2.245   4.141   0.723  0.4439 -0.2913 -0.0573
 6822SOL    HW121907   2.265   4.054   0.755 -1.5688 -0.1927  1.6740
 6822SOL    HW221908   2.239   4.131   0.628  1.9882 -1.6182 -0.0534
 6823SOL     OW21909   5.409   4.384   7.293  0.0620  0.1326 -0.0848
 6823SOL    HW121910   5.389   4.304   7.245  0.0094  0.1334 -0.0641
 6823SOL    HW221911   5.502   4.379   7.311 -0.1863 -0.5762  1.0898
 6824SOL     OW21912   5.033   6.823  11.895 -0.7766  0.3373 -0.0556
 6824SOL    HW121913   4.980   6.863  11.964  0.3609 -1.5469  2.0602
 6824SOL    HW221914   5.085   6.757  11.941  1.9196  0.7145 -2.3234
 6825SOL     OW21915   3.153   6.830   4.872  0.2207 -0.6617  0.2227
 6825SOL    HW121916   3.231   6.787   4.908  0.9705 -0.3234 -0.9632
 6825SOL    HW221917   3.131   6.779   4.794 -0.5204 -0.5180  0.3349
 6826SOL     OW21918   5.122   0.597   8.272 -0.1487 -0.4104 -0.0398
 6826SOL    HW121919   5.117   0.515   8.223 -0.6617 -0.0442 -0.6256
 6826SOL    HW221920   5.129   0.571   8.363  2.9677 -1.1722 -0.3829
 6827SOL     OW21921   3.499   1.339   4.659  0.1018 -0.5150 -0.3652
 6827SOL    HW121922   3.523   1.419   4.614 -0.9291  0.9885  1.5919
 6827SOL    HW221923   3.411   1.319   4.628  0.4229 -1.0006 -0.9765
 6828SOL     OW21924   1.036   1.143   8.897  0.6179 -0.0545 -0.3680
 6828SOL    HW121925   1.062   1.111   8.811 -0.1976  1.4641 -1.2147
 6828SOL    HW221926   0.953   1.097   8.914  0.6224 -0.1237 -0.5257
 6829SOL     OW21927   5.822   4.364   3.581 -0.0671 -0.2052 -0.2324
 6829SOL    HW121928   5.821   4.348   3.676 -0.6184 -1.2360 -0.4046
 6829SOL    HW221929   5.907   4.329   3.552 -0.3100 -0.7877 -0.2585
 6830SOL     OW21930   0.172   4.333   8.750  0.4437  0.4463 -0.2141
 6830SOL    HW121931   0.255   4.286   8.758 -0.0628 -0.1527  2.5902
 6830SOL    HW221932   0.115   4.291   8.815 -1.5946  1.7948 -1.0477
 6831SOL     OW21933   7.836   7.553   4.040 -0.0120  0.0302 -0.3858
 6831SOL    HW121934   7.884   7.582   3.963  0.3208  0.3864 -0.0455
 6831SOL    HW221935   7.751   7.596   4.033  0.4745  1.1268  0.1162
 6832SOL     OW21936   3.169   3.610   5.126 -0.2979  0.1311 -0.2903
 6832SOL    HW121937   3.251   3.648   5.157  0.2613 -1.7676  0.7271
 6832SOL    HW221938   3.101   3.667   5.164  0.4991  0.4512  0.7097
 6833SOL     OW21939   4.814   6.929   3.558 -0.3232  0.2529 -0.3366
 6833SOL    HW121940   4.755   6.905   3.629 -0.7221  0.7227 -0.5039
 6833SOL    HW221941   4.783   7.015   3.529 -0.7640 -0.3306 -1.6962
 6834SOL     OW21942   3.700   5.610   5.004 -0.1142 -0.2454  0.0921
 6834SOL    HW121943   3.740   5.524   4.994 -0.2907 -0.2824 -0.2813
 6834SOL    HW221944   3.735   5.662   4.931 -2.4878 -0.9315 -1.6299
 6835SOL     OW21945   4.390   1.509  10.389 -0.2073  0.2851  0.3888
 6835SOL    HW121946   4.452   1.498  10.461 -1.7310 -1.6061  1.5186
 6835SOL    HW221947   4.400   1.430  10.336  0.3061  1.2769 -1.0705
 6836SOL     OW21948   2.151   4.899  11.381  0.1291 -0.1071 -0.0231
 6836SOL    HW121949   2.189   4.848  11.309 -1.8235  1.9819 -2.7872
 6836SOL    HW221950   2.141   4.837  11.452  0.0379 -3.0029 -2.3712
 6837SOL     OW21951   2.584   3.231   7.137  0.1489 -0.5316 -0.2598
 6837SOL    HW121952   2.609   3.151   7.183  2.5231 -0.1645 -0.7699
 6837SOL    HW221953   2.544   3.201   7.056 -0.2762 -1.1795  0.1766
 6838SOL     OW21954   1.918   7.437   8.562  0.0073 -0.0641  0.2852
 6838SOL    HW121955   1.884   7.354   8.528  2.5645 -1.4355  0.9018
 6838SOL    HW221956   1.866   7.454   8.640 -0.8741 -0.8019 -0.1215
 6839SOL     OW21957   1.151   4.600   2.972  0.1943  0.4684 -0.2842
 6839SOL    HW121958   1.237   4.630   2.941  0.9999 -1.1254  0.2534
 6839SOL    HW221959   1.172   4.535   3.039 -1.3927 -1.4003 -1.4880
 6840SOL     OW21960   5.873   0.291   7.641 -0.4179 -0.4565 -0.6510
 6840SOL    HW121961   5.938   0.355   7.672 -1.7631  0.5818  0.1394
 6840SOL    HW221962   5.885   0.289   7.546  0.4699  0.0448 -0.5663
 6841SOL     OW21963   3.780   2.457   2.767  0.2148  0.6523  0.1946
 6841SOL    HW121964   3.778   2.367   2.800 -1.7354  0.5938  0.0352
 6841SOL    HW221965   3.843   2.502   2.823  2.9992 -1.3066 -1.1647
 6842SOL     OW21966   3.366   0.992  10.201  0.3971 -0.7936  0.5722
 6842SOL    HW121967   3.443   1.021  10.153 -0.6571  2.1150  0.4828
 6842SOL    HW221968   3.345   1.064  10.261 -1.6580 -1.9221  1.3445
 6843SOL     OW21969   2.110   4.311   0.951 -0.3451  0.2085 -0.6560
 6843SOL    HW121970   2.037   4.346   1.002 -0.5906 -0.5155 -0.4907
 6843SOL    HW221971   2.089   4.218   0.940 -0.2934  0.3412 -2.0827
 6844SOL     OW21972   0.089   7.476   9.793  0.1766  0.5468  0.4530
 6844SOL    HW121973   0.140   7.484   9.874 -0.1084  1.2098  0.5663
 6844SOL    HW221974   0.005   7.439   9.821  1.2891 -2.7104  0.0091
 6845SOL     OW21975   0.845   1.319   8.671 -0.2312  0.0278 -0.0133
 6845SOL    HW121976   0.807   1.232   8.653  2.7555 -1.4250  0.1486
 6845SOL    HW221977   0.876   1.350   8.586  1.5816 -0.5925  0.3780
 6846SOL     OW21978   3.487   7.456   7.616  0.4300 -0.6753 -0.0016
 6846SOL    HW121979   3.476   7.385   7.679 -1.6620  0.1440  0.6082
 6846SOL    HW221980   3.444   7.424   7.536 -0.7543 -0.0258  0.3571
 6847SOL     OW21981   2.811   2.752  11.314 -0.1127  0.0801  0.5475
 6847SOL    HW121982   2.865   2.684  11.355  0.8427  0.2257 -0.4076
 6847SOL    HW221983   2.777   2.803  11.387 -0.8315 -1.3887  1.2891
 6848SOL     OW21984   1.269   1.250  12.163 -0.4728 -0.3640 -0.6518
 6848SOL    HW121985   1.318   1.332  12.151  0.1310 -0.8161 -1.3788
 6848SOL    HW221986   1.312   1.208  12.237 -1.4041  0.4089  0.3571
 6849SOL     OW21987   3.623   4.509   1.325  0.3833  0.8186  0.0622
 6849SOL    HW121988   3.578   4.474   1.248  0.9847  1.1522 -0.4540
 6849SOL    HW221989   3.716   4.496   1.306  0.5697  1.6705  0.3560
 6850SOL     OW21990   0.165   2.039   4.943  0.1396 -0.2947  0.3030
 6850SOL    HW121991   0.106   2.014   4.872  1.3809  1.0877 -1.3155
 6850SOL    HW221992   0.248   2.059   4.899  0.7272  1.4248  2.0563
 6851SOL     OW21993   6.621   2.481  11.675 -0.5219  0.7417 -0.1112
 6851SOL    HW121994   6.634   2.408  11.736 -0.1618 -0.1803 -1.2508
 6851SOL    HW221995   6.649   2.446  11.590 -0.5808  2.1377 -0.7277
 6852SOL     OW21996   5.663   0.770   1.542  0.4701 -0.5574 -0.3037
 6852SOL    HW121997   5.691   0.850   1.497  0.3546  0.8240  1.9701
 6852SOL    HW221998   5.698   0.778   1.631 -1.0617 -2.1957  0.5148
 6853SOL     OW21999   1.437   1.532   0.676  0.1921  0.9043 -0.5961
 6853SOL    HW122000   1.487   1.532   0.757 -1.4584 -0.8430  0.4918
 6853SOL    HW222001   1.470   1.457   0.627 -0.6348  0.3523 -0.3239
 6854SOL     OW22002   2.459   7.470  12.365  0.0188  0.4260 -0.2133
 6854SOL    HW122003   2.536   7.417  12.385  0.1784  0.4791 -0.6802
 6854SOL    HW222004   2.407   7.414  12.307  0.2033  0.7897 -0.7335
 6855SOL     OW22005   6.579   4.243   4.792 -0.1144  0.5479  0.3729
 6855SOL    HW122006   6.643   4.278   4.730 -0.3669 -1.0320 -0.8649
 6855SOL    HW222007   6.629   4.185   4.848 -0.2424  0.3043  0.2356
 6856SOL     OW22008   2.397   7.368   0.873  0.0148 -0.4345  0.3743
 6856SOL    HW122009   2.383   7.370   0.778 -0.5840 -1.5506  0.4219
 6856SOL    HW222010   2.474   7.423   0.887 -0.1915  0.1546 -0.6986
 6857SOL     OW22011   5.694   5.380   4.902  0.0110  0.1545 -0.5036
 6857SOL    HW122012   5.630   5.325   4.947 -0.5390  0.6631 -0.6489
 6857SOL    HW222013   5.776   5.366   4.950  0.1755 -1.6827 -1.2373
 6858SOL     OW22014   7.319   4.030  10.944  0.9109 -0.0996 -0.0639
 6858SOL    HW122015   7.384   3.962  10.960  0.1304 -0.9616 -0.4292
 6858SOL    HW222016   7.334   4.095  11.012  1.8510 -0.5056  0.1291
 6859SOL     OW22017   6.337   7.363   8.139  0.0629 -0.3748  0.5064
 6859SOL    HW122018   6.428   7.388   8.149  0.3546 -1.3589  0.4368
 6859SOL    HW222019   6.290   7.414   8.206  0.1471  2.5354 -1.4777
 6860SOL     OW22020   1.094   6.466  11.282  0.2733 -1.3796  0.2078
 6860SOL    HW122021   1.145   6.509  11.350  0.3940  1.1821 -1.3841
 6860SOL    HW222022   1.004   6.468  11.314  0.4501 -1.0586  0.6917
 6861SOL     OW22023   7.020   3.745  10.873 -0.2526 -0.3197 -0.5924
 6861SOL    HW122024   7.044   3.822  10.926 -0.6013  0.7560 -1.9247
 6861SOL    HW222025   7.023   3.672  10.934  0.3289  0.7195  0.6786
 6862SOL     OW22026   3.118   0.326   5.367 -0.2350 -0.3357  0.4507
 6862SOL    HW122027   3.144   0.413   5.337 -0.3138 -0.7753 -0.9693
 6862SOL    HW222028   3.051   0.297   5.305 -1.6805 -0.6249  2.0659
 6863SOL     OW22029   3.206   0.698   5.728  0.2521  0.0400  0.3081
 6863SOL    HW122030   3.180   0.607   5.716  0.5778 -0.1069  0.6904
 6863SOL    HW222031   3.203   0.736   5.640  0.1825 -0.3594  0.1387
 6864SOL     OW22032   0.628   4.755   6.180 -0.1915 -0.1721 -0.0386
 6864SOL    HW122033   0.720   4.752   6.204 -0.2663  0.2372  0.3170
 6864SOL    HW222034   0.593   4.830   6.229 -0.2312  1.0187 -1.7829
 6865SOL     OW22035   5.220   7.619   4.010  0.1640 -0.0350 -0.0007
 6865SOL    HW122036   5.226   7.707   4.047  1.2432  0.6423 -1.6823
 6865SOL    HW222037   5.186   7.565   4.081 -2.8610  2.1594  0.3988
 6866SOL     OW22038   7.444   5.957   3.624  0.0468  0.5231 -0.5221
 6866SOL    HW122039   7.533   5.951   3.658 -0.0049  0.0505 -0.4690
 6866SOL    HW222040   7.427   6.051   3.617 -0.2752  0.6631  1.6334
 6867SOL     OW22041   5.712   7.171   1.411  0.1161  0.1305 -0.2588
 6867SOL    HW122042   5.685   7.092   1.458  0.6767 -0.3461 -0.7133
 6867SOL    HW222043   5.646   7.236   1.433  0.8491  0.2171  1.9329
 6868SOL     OW22044   6.141   2.435   5.428 -0.2112  0.3943 -0.1752
 6868SOL    HW122045   6.045   2.427   5.420 -0.1778  0.2127 -0.4297
 6868SOL    HW222046   6.174   2.396   5.347  0.0960  0.0676  0.1084
 6869SOL     OW22047   7.062   5.479   0.135  0.2585  0.3697  0.2318
 6869SOL    HW122048   7.081   5.386   0.150 -1.1267  0.0206 -0.0097
 6869SOL    HW222049   7.002   5.502   0.206 -0.2431  0.7895 -0.3209
 6870SOL     OW22050   5.214   6.163   0.022 -0.5392  0.2318 -0.4306
 6870SOL    HW122051   5.244   6.168   0.113  0.0173  0.7257 -0.6353
 6870SOL    HW222052   5.255   6.238  -0.021 -2.9627  1.6139 -0.4827
 6871SOL     OW22053   2.048   5.179  11.526 -0.6380  0.1322  0.0022
 6871SOL    HW122054   2.136   5.143  11.535 -0.6983 -0.9879 -2.7748
 6871SOL    HW222055   2.040   5.197  11.432 -2.1694  3.5044  0.6323
 6872SOL     OW22056   0.624   7.003   5.843 -0.0589 -0.5300 -0.3814
 6872SOL    HW122057   0.672   7.086   5.847  0.3643 -0.8009  0.5916
 6872SOL    HW222058   0.570   7.010   5.764 -0.6618  1.0255  0.1140
 6873SOL     OW22059   0.501   1.527   5.396  0.2069 -0.0511 -0.0003
 6873SOL    HW122060   0.540   1.605   5.436  0.3451  0.2305 -0.6670
 6873SOL    HW222061   0.413   1.554   5.371  0.6263  0.2440 -1.2341
 6874SOL     OW22062   6.775   7.684   4.837 -0.2613  0.2906 -0.6334
 6874SOL    HW122063   6.809   7.698   4.925  0.4989 -2.5626 -0.3993
 6874SOL    HW222064   6.681   7.669   4.848 -0.2583  0.4538 -0.3888
 6875SOL     OW22065   7.378   4.927   3.210 -0.3807  0.4720  0.2718
 6875SOL    HW122066   7.404   4.903   3.299 -1.5247  0.6098  0.6633
 6875SOL    HW222067   7.455   4.909   3.157  0.2800  0.2565  1.2668
 6876SOL     OW22068   1.881   5.939   5.093  0.2274 -0.3603 -0.1084
 6876SOL    HW122069   1.912   5.851   5.114  0.2173 -0.0749  1.2400
 6876SOL    HW222070   1.873   5.982   5.179 -0.3897  0.7392 -0.6974
 6877SOL     OW22071   2.649   7.893   5.193 -0.2960  0.5959 -0.4015
 6877SOL    HW122072   2.715   7.829   5.219 -2.0718 -1.2154 -0.1472
 6877SOL    HW222073   2.680   7.928   5.110  1.3525  0.3899  0.0959
 6878SOL     OW22074   1.296   5.043   3.665 -0.0552  0.1309 -0.3901
 6878SOL    HW122075   1.342   4.960   3.673 -0.7850 -0.3339 -0.9180
 6878SOL    HW222076   1.321   5.078   3.580 -0.3188  0.0957 -0.4844
 6879SOL     OW22077   0.068   7.359   7.099 -0.0626  0.1218  0.0215
 6879SOL    HW122078   0.084   7.407   7.180 -2.4338  0.2784  0.4759
 6879SOL    HW222079   0.035   7.425   7.038 -1.1422 -0.4955 -0.0901
 6880SOL     OW22080   0.012   7.183   7.320  1.2111 -0.0270 -0.0051
 6880SOL    HW122081  -0.063   7.124   7.308  2.2742 -1.7262  1.2302
 6880SOL    HW222082   0.003   7.248   7.251 -2.4378  0.9686  1.1887
 6881SOL     OW22083   4.420   2.017   7.242 -0.0768  0.5472  0.2471
 6881SOL    HW122084   4.436   2.050   7.330 -1.1426  0.0685  0.6339
 6881SOL    HW222085   4.374   2.089   7.198 -0.9641  0.2006  0.5883
 6882SOL     OW22086   7.146   1.778  11.227 -0.8615 -0.3125  0.5593
 6882SOL    HW122087   7.239   1.769  11.209 -0.8577 -0.6344  0.7206
 6882SOL    HW222088   7.108   1.694  11.201 -1.0967 -0.2058  0.5510
 6883SOL     OW22089   4.970   7.536   2.688 -0.1759 -0.2762  0.0870
 6883SOL    HW122090   4.984   7.579   2.772  1.1992 -0.1430 -0.1831
 6883SOL    HW222091   4.946   7.607   2.629  2.4252  0.2898 -0.4383
 6884SOL     OW22092   4.274   3.396   8.247 -0.2879  0.5194 -0.3974
 6884SOL    HW122093   4.237   3.391   8.159 -3.0452  1.0504  0.6400
 6884SOL    HW222094   4.290   3.305   8.271 -0.9487  0.2658 -0.8885
 6885SOL     OW22095   0.678   7.657   6.376 -0.4985 -0.5471  0.1356
 6885SOL    HW122096   0.626   7.615   6.445 -0.8843  0.1030  0.2430
 6885SOL    HW222097   0.741   7.711   6.424  0.5987 -1.6714  0.0229
 6886SOL     OW22098   7.881   5.685  12.104 -0.3819 -0.3184 -0.0991
 6886SOL    HW122099   7.960   5.739  12.115  0.2104 -1.3612  0.9737
 6886SOL    HW222100   7.854   5.664  12.193  0.4558 -3.2668 -0.4444
 6887SOL     OW22101   6.772   4.628   3.811 -0.5425 -0.4325  0.8743
 6887SOL    HW122102   6.749   4.669   3.728 -1.2311 -1.1055  0.7243
 6887SOL    HW222103   6.833   4.690   3.852  1.8495 -1.2228 -1.2495
 6888SOL     OW22104   3.871   7.058   3.862  0.0729 -0.2659 -0.4267
 6888SOL    HW122105   3.794   7.007   3.839 -1.2914  1.6578 -0.3201
 6888SOL    HW222106   3.901   7.097   3.780  0.4682 -0.3780 -0.3410
 6889SOL     OW22107   1.689   0.076   5.885 -0.0521 -0.1950  0.6522
 6889SOL    HW122108   1.700  -0.017   5.864  2.1283  0.7012 -3.3132
 6889SOL    HW222109   1.614   0.104   5.833  0.0568  0.4735  0.8412
 6890SOL     OW22110   5.000   7.848   3.089 -0.0074  0.1430  0.0222
 6890SOL    HW122111   4.915   7.873   3.053  0.0208 -0.2167 -0.3060
 6890SOL    HW222112   4.994   7.870   3.182 -1.4617 -2.2941  0.6093
 6891SOL     OW22113   5.559   4.785   9.260 -0.1642  0.6149 -0.3723
 6891SOL    HW122114   5.605   4.783   9.344  2.0746  4.2708 -1.2668
 6891SOL    HW222115   5.615   4.736   9.200  0.8161  2.0350 -0.6739
 6892SOL     OW22116   2.677   4.205  10.908  0.0665 -0.1353  0.4844
 6892SOL    HW122117   2.741   4.139  10.932  0.1143 -0.5045 -0.5947
 6892SOL    HW222118   2.604   4.192  10.968  0.2247 -0.9296  0.5058
 6893SOL     OW22119   1.414   4.046   5.921 -0.0689  0.3690  0.0832
 6893SOL    HW122120   1.483   4.047   5.987  0.8589  0.6247 -0.8701
 6893SOL    HW222121   1.338   4.011   5.967  1.0485 -1.2365  0.8026
 6894SOL     OW22122   5.023   5.360   2.472  0.4006 -0.1192  0.6723
 6894SOL    HW122123   5.015   5.268   2.448 -0.9150  0.4334 -1.3236
 6894SOL    HW222124   5.082   5.397   2.406  0.4308  0.5901  1.0836
 6895SOL     OW22125   6.174   6.426   8.647 -0.4924  0.1320  0.8534
 6895SOL    HW122126   6.264   6.447   8.674 -0.1502 -1.5860  1.1351
 6895SOL    HW222127   6.151   6.349   8.698 -2.4317  0.9597  1.3483
 6896SOL     OW22128   2.383   7.229   8.846  0.0905  0.0546  0.0709
 6896SOL    HW122129   2.469   7.191   8.860 -0.2999 -0.0039  2.6293
 6896SOL    HW222130   2.399   7.323   8.840  0.8007 -0.1133 -4.2688
 6897SOL     OW22131   1.274   7.062   3.014 -0.0152 -0.5492 -0.0072
 6897SOL    HW122132   1.311   7.092   2.931  0.7873 -1.0391  0.1651
 6897SOL    HW222133   1.253   7.143   3.061 -0.3384 -0.2695 -0.6179
 6898SOL     OW22134   4.250   1.130  12.467  0.2251  1.0504 -0.3154
 6898SOL    HW122135   4.206   1.207  12.501  0.0577  0.8251 -0.0187
 6898SOL    HW222136   4.331   1.163  12.429  0.2223  1.3530 -0.0595
 6899SOL     OW22137   3.340   0.539   9.591 -0.3465 -0.2270  0.1434
 6899SOL    HW122138   3.272   0.592   9.549  0.3582  1.8011  1.3927
 6899SOL    HW222139   3.344   0.573   9.681  1.2471 -1.3478  0.5333
 6900SOL     OW22140   2.754   5.291   0.163  0.4379  0.2879 -0.1606
 6900SOL    HW122141   2.685   5.240   0.204  0.4555  1.8509  2.0559
 6900SOL    HW222142   2.776   5.244   0.083 -0.9192 -2.0016  0.7249
 6901SOL     OW22143   6.256   5.919   6.258  0.0186  0.0066  0.0190
 6901SOL    HW122144   6.336   5.961   6.226 -0.6110  0.2814 -1.2524
 6901SOL    HW222145   6.185   5.965   6.213 -0.8340 -0.6474  0.6606
 6902SOL     OW22146   0.444   2.140   4.906 -0.0232  0.4039  0.0710
 6902SOL    HW122147   0.497   2.215   4.879 -0.6602  0.4032 -1.2969
 6902SOL    HW222148   0.505   2.083   4.952  1.5768 -0.2466 -2.6068
 6903SOL     OW22149   0.719   5.371   9.766  0.6905  0.1401  0.0608
 6903SOL    HW122150   0.699   5.348   9.856  0.9822  1.6242  0.5460
 6903SOL    HW222151   0.655   5.324   9.713 -0.0472 -0.0607  1.1112
 6904SOL     OW22152   7.738   6.895   8.767  0.0872  0.2468 -0.1622
 6904SOL    HW122153   7.649   6.877   8.738 -0.8913  2.6052  1.0511
 6904SOL    HW222154   7.739   6.871   8.860  0.6440  0.3805 -0.1271
 6905SOL     OW22155   4.108   6.166   2.994  0.5276  0.2186 -0.3076
 6905SOL    HW122156   4.102   6.122   2.909  0.4711 -1.1567  0.3883
 6905SOL    HW222157   4.199   6.151   3.022  0.3222 -0.0166  0.2315
 6906SOL     OW22158   7.536   1.123  11.273 -0.6889  0.0197  0.0326
 6906SOL    HW122159   7.600   1.129  11.344 -1.5752  0.1100  0.8327
 6906SOL    HW222160   7.532   1.030  11.253 -1.8684 -0.2693  1.4550
 6907SOL     OW22161   7.817   2.393   8.834 -0.3659 -0.1362 -0.5115
 6907SOL    HW122162   7.723   2.386   8.820 -0.2379 -0.3551 -1.3148
 6907SOL    HW222163   7.826   2.415   8.927 -1.1400 -1.5729 -0.0613
 6908SOL     OW22164   3.033   3.481   7.632 -0.2178 -0.0728 -0.1141
 6908SOL    HW122165   2.988   3.478   7.717 -1.8668  0.5834 -0.9111
 6908SOL    HW222166   3.060   3.572   7.621  0.4829 -0.2678 -0.0689
 6909SOL     OW22167   2.486   1.391  10.084 -0.4676  0.1219  0.2429
 6909SOL    HW122168   2.517   1.420   9.999 -1.5057 -0.6931 -0.4331
 6909SOL    HW222169   2.451   1.470  10.126  0.3757  0.5952  0.0943
 6910SOL     OW22170   4.561   1.107   6.251  0.6123  0.1671 -0.3996
 6910SOL    HW122171   4.651   1.127   6.276  0.8192  0.3644 -1.2671
 6910SOL    HW222172   4.539   1.029   6.301  1.2658  0.1185 -0.1785
 6911SOL     OW22173   1.824   1.494   2.982 -0.3325  0.6555  0.2787
 6911SOL    HW122174   1.833   1.499   3.077  0.9706  1.5269  0.1342
 6911SOL    HW222175   1.870   1.571   2.950  1.1552 -0.7606 -1.1654
 6912SOL     OW22176   3.107   2.210   6.345 -0.0532  0.6120  0.6977
 6912SOL    HW122177   3.132   2.284   6.289 -1.7820  0.0898 -0.8400
 6912SOL    HW222178   3.023   2.235   6.382 -0.4689 -0.3959  0.4687
 6913SOL     OW22179   4.455   0.047   1.838  0.5199 -0.1221  0.2590
 6913SOL    HW122180   4.430   0.102   1.764  1.3694  0.5217  0.4346
 6913SOL    HW222181   4.542   0.014   1.816  0.1679 -1.1291  0.3162
 6914SOL     OW22182   5.839   5.942   8.078  0.1046 -0.1442 -0.2000
 6914SOL    HW122183   5.802   6.025   8.108  0.5975  0.3923 -1.0244
 6914SOL    HW222184   5.789   5.922   7.998  0.4312 -0.3068 -0.3641
 6915SOL     OW22185   3.542   5.792  12.352  0.1084  0.3377 -0.2065
 6915SOL    HW122186   3.459   5.835  12.371  0.2862  0.6416 -0.1046
 6915SOL    HW222187   3.594   5.860  12.309  0.3636  0.2006 -0.1142
 6916SOL     OW22188   7.849   3.246  12.170 -0.0254  0.4500  0.0327
 6916SOL    HW122189   7.886   3.163  12.140 -0.4697  0.0870  0.4719
 6916SOL    HW222190   7.873   3.250  12.263 -2.5012 -0.6263  0.7995
 6917SOL     OW22191   6.824   2.278   8.840 -0.1992 -0.1946 -0.2644
 6917SOL    HW122192   6.795   2.369   8.853  1.9095  0.4256  0.4766
 6917SOL    HW222193   6.900   2.285   8.784 -0.0503 -1.5355 -0.2630
 6918SOL     OW22194   7.599   0.267   0.909  0.0474 -0.0133 -0.5152
 6918SOL    HW122195   7.635   0.298   0.826 -0.2168  0.9905 -0.2718
 6918SOL    HW222196   7.515   0.227   0.885  0.3889 -0.5501 -0.8346
 6919SOL     OW22197   5.821   6.066   0.907  0.2248 -0.3212 -0.0110
 6919SOL    HW122198   5.733   6.097   0.926  0.2237 -0.1112 -0.3464
 6919SOL    HW222199   5.837   5.997   0.971 -0.1894 -0.3718  0.0386
 6920SOL     OW22200   6.081   3.959   0.961 -0.0944 -0.3109 -0.4084
 6920SOL    HW122201   6.025   4.015   1.014 -1.1891 -2.7329  1.1975
 6920SOL    HW222202   6.020   3.911   0.904  0.6759 -0.5911 -1.0138
 6921SOL     OW22203   5.703   6.307  11.268 -0.3387  0.2590 -0.6094
 6921SOL    HW122204   5.657   6.354  11.338 -1.6184 -0.2342 -1.0913
 6921SOL    HW222205   5.746   6.375  11.217 -1.1740  0.8090 -0.5919
 6922SOL     OW22206   5.728   7.423   3.843 -0.2254 -0.6081 -0.0377
 6922SOL    HW122207   5.670   7.388   3.774 -1.1989 -0.6485  0.7789
 6922SOL    HW222208   5.746   7.513   3.816  0.6261 -1.0718 -1.1034
 6923SOL     OW22209   3.608   7.062   6.118  0.6309  0.3671 -0.1718
 6923SOL    HW122210   3.524   7.058   6.164  0.1181  0.3321 -1.0666
 6923SOL    HW222211   3.588   7.112   6.038  1.4025  0.1360 -0.5128
 6924SOL     OW22212   3.494   5.547   8.286  0.0128 -0.0400 -0.1516
 6924SOL    HW122213   3.530   5.458   8.280  0.6782  0.2921 -1.5926
 6924SOL    HW222214   3.535   5.584   8.364 -1.2600 -1.3873  1.2415
 6925SOL     OW22215   5.994   0.090   9.464  0.5351  0.4063 -0.2376
 6925SOL    HW122216   5.926   0.135   9.514  1.5522  1.5432  0.1916
 6925SOL    HW222217   5.948   0.050   9.390 -0.8737 -0.6024  1.1451
 6926SOL     OW22218   7.392   4.104   5.045  0.7369  0.0600  0.5505
 6926SOL    HW122219   7.409   4.128   4.954 -0.2573 -0.3390  0.2519
 6926SOL    HW222220   7.374   4.010   5.042  0.1137  0.1584  1.0810
 6927SOL     OW22221   0.515   7.511   2.349  0.8070 -0.1304 -0.3508
 6927SOL    HW122222   0.459   7.589   2.340 -0.6217 -1.2092 -1.1407
 6927SOL    HW222223   0.454   7.438   2.357  2.1106 -1.0849  1.7307
 6928SOL     OW22224   6.133   3.664   3.576 -0.0533  0.0671 -0.3010
 6928SOL    HW122225   6.128   3.598   3.645  2.0959 -0.6297 -0.7450
 6928SOL    HW222226   6.079   3.737   3.608 -1.4855 -1.3878  0.7459
 6929SOL     OW22227   7.318   1.110  10.578  0.5425 -0.0031  0.3129
 6929SOL    HW122228   7.387   1.175  10.590  2.2856 -1.7769  0.3770
 6929SOL    HW222229   7.313   1.097  10.483  0.1018  0.3256  0.2905
 6930SOL     OW22230   1.044   0.544   4.333 -0.5736  0.2448  0.1736
 6930SOL    HW122231   1.104   0.502   4.270 -1.7110 -1.0164 -0.1074
 6930SOL    HW222232   1.028   0.476   4.399 -2.1580  0.3455 -0.0852
 6931SOL     OW22233   1.679   5.225  11.685  0.0653 -0.3838 -0.3275
 6931SOL    HW122234   1.698   5.248  11.594  0.0331  0.1296 -0.2113
 6931SOL    HW222235   1.634   5.141  11.681  1.8675 -1.3789 -0.6503
 6932SOL     OW22236   3.661   1.276  11.683 -0.1662 -0.0011  0.4491
 6932SOL    HW122237   3.671   1.289  11.589 -0.2689  1.9290  0.6789
 6932SOL    HW222238   3.594   1.339  11.710 -1.2218 -1.5291  1.6088
 6933SOL     OW22239   5.615   5.937   4.967 -0.0814  0.2852  0.7324
 6933SOL    HW122240   5.620   5.842   4.978  0.2706  0.2300  0.1495
 6933SOL    HW222241   5.561   5.949   4.888 -0.2081  0.5699  0.8608
 6934SOL     OW22242   3.664   5.850   1.751  0.1148 -0.0222 -0.3551
 6934SOL    HW122243   3.583   5.818   1.792  0.1822 -0.1515 -0.3239
 6934SOL    HW222244   3.639   5.869   1.661  0.2106 -0.6901 -0.5237
 6935SOL     OW22245   3.656   0.567   0.539 -0.0006 -0.1534  0.2138
 6935SOL    HW122246   3.728   0.552   0.600  1.2205 -0.1238 -1.1540
 6935SOL    HW222247   3.617   0.649   0.568  0.8149  0.0688  0.7192
 6936SOL     OW22248   4.931   6.689  11.292  0.3119 -0.0251  0.3365
 6936SOL    HW122249   5.019   6.679  11.255 -0.3100 -0.8764 -1.0107
 6936SOL    HW222250   4.944   6.688  11.386  1.5791 -1.8899  0.1853
 6937SOL     OW22251   3.147   1.904  10.486  0.3189  0.5112 -0.1217
 6937SOL    HW122252   3.218   1.917  10.424  0.1901 -0.0967 -0.3965
 6937SOL    HW222253   3.070   1.943  10.443 -0.5175 -2.6625 -1.8178
 6938SOL     OW22254   4.741   4.833   7.871  0.0094  0.0362  0.7301
 6938SOL    HW122255   4.797   4.756   7.858  0.5962  0.4360  0.8355
 6938SOL    HW222256   4.776   4.899   7.811 -0.6877  0.1280  0.4095
 6939SOL     OW22257   6.072   6.608   2.740 -0.6120 -0.2370  0.1597
 6939SOL    HW122258   6.044   6.557   2.664 -0.4236  0.7344 -0.5780
 6939SOL    HW222259   5.991   6.629   2.787 -0.6257 -1.9611  0.9893
 6940SOL     OW22260   2.162   1.964   9.126  0.1736  0.5076  0.3653
 6940SOL    HW122261   2.256   1.986   9.130  0.0716  0.9763  0.2088
 6940SOL    HW222262   2.138   1.946   9.217  0.3565  0.6420  0.4411
 6941SOL     OW22263   6.657   6.252   6.352  0.3198  0.2210 -0.3816
 6941SOL    HW122264   6.631   6.342   6.333  4.2937  1.7852  0.5915
 6941SOL    HW222265   6.627   6.236   6.442  2.2227  1.8179  0.5938
 6942SOL     OW22266   2.939   2.144  12.316 -0.0661  0.4845 -0.4037
 6942SOL    HW122267   2.934   2.191  12.233  0.9044 -2.4070 -2.2062
 6942SOL    HW222268   2.860   2.090  12.319  0.6606 -0.5889 -0.1995
 6943SOL     OW22269   2.939   2.037  11.312  0.0585 -0.2410 -0.0563
 6943SOL    HW122270   2.919   2.108  11.251  0.5385  0.6267  0.7623
 6943SOL    HW222271   2.861   1.982  11.311  0.5150 -0.9558 -2.3736
 6944SOL     OW22272   0.370   2.791   6.848 -0.0630 -0.2346  0.0822
 6944SOL    HW122273   0.364   2.701   6.816  1.2511  0.4109 -2.1489
 6944SOL    HW222274   0.279   2.819   6.855 -0.4792 -1.5383  0.3396
 6945SOL     OW22275   5.757   1.188   8.270  0.1456  0.6517 -0.5399
 6945SOL    HW122276   5.833   1.141   8.305  0.2422  0.4211 -1.0454
 6945SOL    HW222277   5.792   1.237   8.195  0.0020  1.3650 -0.1547
 6946SOL     OW22278   0.976   2.844   8.225 -0.3887  0.0577 -0.3600
 6946SOL    HW122279   1.061   2.814   8.257 -0.1555 -1.9687 -2.5867
 6946SOL    HW222280   0.913   2.783   8.262 -0.5092 -0.1797 -0.9395
 6947SOL     OW22281   3.747   5.979   3.860 -0.1684 -0.3187  0.2352
 6947SOL    HW122282   3.700   6.054   3.821 -1.4115 -0.9984  0.3659
 6947SOL    HW222283   3.678   5.917   3.882  0.8960 -1.8736 -0.6197
 6948SOL     OW22284   3.304   0.000  11.513 -0.5836 -0.3717  0.3854
 6948SOL    HW122285   3.331  -0.091  11.499 -2.3303 -1.1592  1.7726
 6948SOL    HW222286   3.244   0.019  11.441 -0.3623 -0.3661  0.1995
 6949SOL     OW22287   3.832   0.746   7.458 -0.0051  0.3749 -0.0849
 6949SOL    HW122288   3.915   0.789   7.479  0.0662  0.6884 -0.9604
 6949SOL    HW222289   3.856   0.656   7.437 -0.0345  0.1564  0.8069
 6950SOL     OW22290   7.442   2.608   7.037 -0.5112 -0.6348  0.2927
 6950SOL    HW122291   7.355   2.649   7.035  0.0781  0.6779  0.4947
 6950SOL    HW222292   7.431   2.532   7.095 -1.5130 -0.4958  0.3103
 6951SOL     OW22293   0.093   2.879   6.503  0.0021  0.1505 -0.9467
 6951SOL    HW122294   0.101   2.822   6.426  0.3584  0.7114 -1.3312
 6951SOL    HW222295   0.058   2.961   6.470 -1.5487 -0.1711 -0.2221
 6952SOL     OW22296   7.432   5.457   1.770 -0.2098  0.8571 -0.5624
 6952SOL    HW122297   7.441   5.545   1.806  1.1095  0.4751  0.1051
 6952SOL    HW222298   7.518   5.437   1.731 -0.1472 -0.4860  0.1730
 6953SOL     OW22299   7.046   7.236  12.108 -0.5023 -0.0458 -0.8516
 6953SOL    HW122300   7.099   7.310  12.137 -1.5426  0.3075  0.2369
 6953SOL    HW222301   6.958   7.256  12.139 -1.0166 -1.2267 -1.4908
 6954SOL     OW22302   7.464   3.919  10.049  0.1839 -0.6850 -0.3915
 6954SOL    HW122303   7.511   3.839  10.071  2.0993  0.2888 -0.7676
 6954SOL    HW222304   7.532   3.984  10.036 -1.3430  1.2217  0.6511
 6955SOL     OW22305   0.775   6.938  10.553 -0.4587 -0.0615 -0.0701
 6955SOL    HW122306   0.855   6.886  10.543 -1.5967 -1.8437 -0.3231
 6955SOL    HW222307   0.732   6.900  10.630 -0.4339  1.7743  0.8961
 6956SOL     OW22308   7.134   5.312   1.461  0.0225  0.1703  0.2666
 6956SOL    HW122309   7.172   5.400   1.469  0.2069  0.0941  0.2078
 6956SOL    HW222310   7.111   5.289   1.551 -2.2591  1.2795  0.0493
 6957SOL     OW22311   0.268   3.424   1.913  0.0303  0.1721  0.5169
 6957SOL    HW122312   0.184   3.377   1.917  0.1743 -0.0619  0.8202
 6957SOL    HW222313   0.257   3.496   1.976  0.3176 -0.2866  1.0973
 6958SOL     OW22314   7.901   1.410   7.323 -0.3109 -0.0213 -0.5283
 6958SOL    HW122315   7.903   1.506   7.332 -0.6330 -0.0852  0.3271
 6958SOL    HW222316   7.828   1.383   7.379  0.4260 -0.8465  0.0453
 6959SOL     OW22317   0.995   2.130   0.031 -0.5663  0.2060 -0.1014
 6959SOL    HW122318   0.985   2.176   0.114  0.2322  1.5487 -0.7152
 6959SOL    HW222319   0.987   2.198  -0.035 -0.6081 -0.7461 -1.1115
 6960SOL     OW22320   5.547   1.851   5.497 -0.4518 -0.8882 -0.4277
 6960SOL    HW122321   5.596   1.927   5.529  0.6535 -0.7831 -2.2396
 6960SOL    HW222322   5.532   1.798   5.576  1.0751 -0.0795  0.4709
 6961SOL     OW22323   4.671   1.780  10.095  0.5449  0.6534 -0.5012
 6961SOL    HW122324   4.596   1.822  10.053 -0.4845  0.1023  0.6945
 6961SOL    HW222325   4.676   1.694  10.055 -1.2423 -0.3723  1.2517
 6962SOL     OW22326   3.285   7.175  11.876 -0.0359  0.7360  0.1059
 6962SOL    HW122327   3.283   7.256  11.824 -0.0949  1.0301  0.5541
 6962SOL    HW222328   3.345   7.194  11.948  1.3107 -0.2276 -0.7293
 6963SOL     OW22329   1.118   1.490   0.581 -0.0561 -0.2625  0.0312
 6963SOL    HW122330   1.198   1.528   0.544 -0.8964  0.0741 -1.5142
 6963SOL    HW222331   1.096   1.418   0.522 -0.6908 -0.6000  0.6606
 6964SOL     OW22332   6.862   5.667   4.074 -0.8145 -0.5154 -0.3872
 6964SOL    HW122333   6.833   5.616   3.998 -0.4092 -2.1739  0.5112
 6964SOL    HW222334   6.871   5.756   4.041 -2.4105 -0.8289 -1.8281
 6965SOL     OW22335   2.572   7.560   1.644 -0.2673 -0.2786  0.1811
 6965SOL    HW122336   2.610   7.490   1.591  1.0729  0.4149  0.1782
 6965SOL    HW222337   2.563   7.522   1.732  0.5529 -0.4291  0.2063
 6966SOL     OW22338   2.582   1.570   2.104 -0.2290 -0.1803 -0.1804
 6966SOL    HW122339   2.587   1.665   2.109 -0.8531 -0.1359 -0.3355
 6966SOL    HW222340   2.575   1.541   2.195 -0.4166 -0.0549 -0.1548
 6967SOL     OW22341   5.848   4.638   7.112 -0.3549 -0.8216 -0.1074
 6967SOL    HW122342   5.839   4.549   7.144 -1.3551 -0.2761  1.2080
 6967SOL    HW222343   5.806   4.637   7.026  0.8302 -1.8965 -0.7134
 6968SOL     OW22344   5.677   3.473   8.549 -0.4037 -0.1065 -0.2216
 6968SOL    HW122345   5.615   3.454   8.478 -0.5461 -0.7134  0.0642
 6968SOL    HW222346   5.756   3.502   8.504  0.0536 -2.0181 -0.7047
 6969SOL     OW22347   1.331   2.151  11.935  0.2565  0.2444  0.3112
 6969SOL    HW122348   1.236   2.142  11.946  0.3117 -0.8497  0.0190
 6969SOL    HW222349   1.341   2.209  11.860 -0.2038 -0.5152 -0.3545
 6970SOL     OW22350   2.418   1.428   5.904 -0.0065 -0.1559 -0.0323
 6970SOL    HW122351   2.384   1.479   5.831 -1.1199 -2.5716 -1.3057
 6970SOL    HW222352   2.344   1.376   5.934  1.2519 -1.6290  0.6731
 6971SOL     OW22353   5.911   0.022   6.008  0.1900 -0.5338  0.0766
 6971SOL    HW122354   5.861   0.038   5.928  2.2799  0.3904 -1.1094
 6971SOL    HW222355   5.954   0.105   6.026 -0.1837 -0.7351  2.1736
 6972SOL     OW22356   1.041   1.966   0.866  0.2047  0.0891 -0.1119
 6972SOL    HW122357   1.056   1.984   0.773  1.4162  0.7029  0.1781
 6972SOL    HW222358   1.100   2.027   0.912  2.1653 -2.4440  0.9837
 6973SOL     OW22359   5.647   5.000   7.889  0.0018 -0.5193  0.8015
 6973SOL    HW122360   5.575   4.978   7.830  1.6430 -0.3206 -1.3970
 6973SOL    HW222361   5.724   5.004   7.833  1.2547  2.3942  2.4736
 6974SOL     OW22362   7.826   4.074   0.732 -0.7220  0.1221  0.4387
 6974SOL    HW122363   7.849   4.162   0.761 -0.3011  0.0931  0.1901
 6974SOL    HW222364   7.735   4.063   0.762 -1.0953  0.9796 -0.3137
 6975SOL     OW22365   4.425   6.093   9.636 -0.6475 -0.1516 -0.5779
 6975SOL    HW122366   4.508   6.061   9.598 -1.1541 -0.8798 -1.1081
 6975SOL    HW222367   4.376   6.013   9.654 -1.0050  0.2586  0.2759
 6976SOL     OW22368   4.716   3.157   6.594 -0.2862 -0.4035 -0.2092
 6976SOL    HW122369   4.735   3.197   6.679  1.0573  0.3739 -0.8462
 6976SOL    HW222370   4.727   3.228   6.531 -0.5343 -1.1431 -1.1144
 6977SOL     OW22371   0.090   5.457   2.989  0.2639  0.4596 -0.2492
 6977SOL    HW122372   0.023   5.390   2.978  0.1153  0.5870 -0.1190
 6977SOL    HW222373   0.051   5.537   2.955 -0.1363  0.8207  0.9894
 6978SOL     OW22374   1.817   7.109   9.692 -0.8896 -0.8826  0.0123
 6978SOL    HW122375   1.809   7.196   9.731  1.7680 -1.2304  1.5558
 6978SOL    HW222376   1.800   7.123   9.599  0.5258  1.5278  0.0330
 6979SOL     OW22377   5.902   6.903   4.977  0.8727  0.4660  0.2188
 6979SOL    HW122378   5.898   6.983   4.925 -0.1763  0.5155  0.3481
 6979SOL    HW222379   5.950   6.927   5.056  1.2129  0.7645 -0.0768
 6980SOL     OW22380   5.983   3.926  10.542 -0.1528 -0.5217  0.3223
 6980SOL    HW122381   6.032   3.959  10.467  0.1190 -0.7447  0.4015
 6980SOL    HW222382   5.892   3.924  10.513 -0.0287 -0.7495 -0.0498
 6981SOL     OW22383   3.303   0.387   1.405  0.7297  0.0835 -0.5484
 6981SOL    HW122384   3.222   0.358   1.449 -0.8535  0.5133 -2.9934
 6981SOL    HW222385   3.273   0.424   1.322  3.4417  0.7561 -1.3122
 6982SOL     OW22386   6.808   7.660   6.912  0.7958  0.0483 -0.3545
 6982SOL    HW122387   6.835   7.750   6.893  1.8582  0.0444  0.9334
 6982SOL    HW222388   6.887   7.619   6.948 -0.2504 -0.7349  1.1662
 6983SOL     OW22389   0.920   1.595   7.211 -0.0221  0.2608 -0.1380
 6983SOL    HW122390   0.852   1.594   7.143  0.9391 -0.2939 -1.1279
 6983SOL    HW222391   0.975   1.670   7.187 -2.1317  2.9877  2.6491
 6984SOL     OW22392   5.587   5.118  12.384  0.6773  0.6557 -0.0153
 6984SOL    HW122393   5.508   5.137  12.434  2.7787  3.8011  2.5765
 6984SOL    HW222394   5.629   5.046  12.431  0.7521  0.9767  0.4156
 6985SOL     OW22395   0.526   5.555   6.165  0.2231 -0.2568 -0.0340
 6985SOL    HW122396   0.510   5.482   6.105 -0.9111  0.1798 -0.2867
 6985SOL    HW222397   0.466   5.540   6.238 -1.6740  1.5545 -1.1165
 6986SOL     OW22398   5.167   2.035   6.433  0.2269 -0.1320 -0.0007
 6986SOL    HW122399   5.106   1.985   6.487  0.1037 -1.7535 -1.5509
 6986SOL    HW222400   5.111   2.091   6.378  0.3766  2.1480  2.0236
 6987SOL     OW22401   5.920   6.522   8.350  0.1034 -0.1475  0.0182
 6987SOL    HW122402   5.880   6.436   8.337 -1.1264  0.2579  0.9803
 6987SOL    HW222403   5.915   6.536   8.444  0.4288  0.9296 -0.1167
 6988SOL     OW22404   4.490   2.688   6.572 -0.2150  0.1071 -0.4406
 6988SOL    HW122405   4.521   2.776   6.595  0.0400  0.7609 -2.9557
 6988SOL    HW222406   4.436   2.662   6.646  0.4903  1.9650  0.8273
 6989SOL     OW22407   0.337   2.696   9.485  0.3429 -0.2763  0.5782
 6989SOL    HW122408   0.396   2.622   9.502  0.9280  0.0111 -0.1322
 6989SOL    HW222409   0.380   2.771   9.528  0.4286 -0.0986  0.1933
 6990SOL     OW22410   2.252   4.886   3.295  0.6085 -0.0698 -0.2353
 6990SOL    HW122411   2.297   4.839   3.225 -0.0982 -1.6636  0.3482
 6990SOL    HW222412   2.302   4.865   3.374  0.5877  0.5870 -0.0435
 6991SOL     OW22413   1.822   5.412   8.706 -0.1114  0.6665  0.6876
 6991SOL    HW122414   1.851   5.329   8.745 -2.5124 -0.2759  0.6563
 6991SOL    HW222415   1.856   5.480   8.763 -1.0936 -0.5519  2.8339
 6992SOL     OW22416   7.913   1.212   1.388 -0.6888  0.3719 -0.1591
 6992SOL    HW122417   7.872   1.294   1.360  2.2312  1.9187 -0.3134
 6992SOL    HW222418   7.960   1.181   1.310 -0.4266 -0.5824  0.3563
 6993SOL     OW22419   3.364   2.693  11.110  0.2961 -0.2691  0.4056
 6993SOL    HW122420   3.373   2.757  11.039  0.5425  0.0043  0.6782
 6993SOL    HW222421   3.454   2.675  11.138  0.2211 -0.6528  0.4070
 6994SOL     OW22422   1.268   0.953   3.155  0.0674 -0.7311 -0.2544
 6994SOL    HW122423   1.248   1.043   3.126 -0.0582 -0.7277 -0.1590
 6994SOL    HW222424   1.335   0.964   3.222 -1.2534 -0.5607  1.0882
 6995SOL     OW22425   5.443   4.195   3.643  0.1677 -0.5377 -0.2052
 6995SOL    HW122426   5.376   4.192   3.711 -0.8873 -0.1122 -1.1849
 6995SOL    HW222427   5.493   4.114   3.655 -0.5825 -0.9124  0.4884
 6996SOL     OW22428   4.641   3.244  11.493 -0.1024  0.5617  0.4678
 6996SOL    HW122429   4.618   3.153  11.473  0.2851  0.1271  1.8817
 6996SOL    HW222430   4.691   3.273  11.417 -0.2016 -0.4216  0.0107
 6997SOL     OW22431   5.448   3.777   3.069  0.0823  0.1550 -0.4876
 6997SOL    HW122432   5.384   3.845   3.089 -1.0304 -1.0281  0.1069
 6997SOL    HW222433   5.516   3.823   3.018 -0.4363  1.7656  0.1906
 6998SOL     OW22434   7.380   6.186   6.126 -0.1400  0.6866  0.0206
 6998SOL    HW122435   7.354   6.094   6.132  0.8105  0.4481  0.6995
 6998SOL    HW222436   7.475   6.185   6.136 -0.2409  1.8469  1.3139
 6999SOL     OW22437   2.302   3.873  10.209 -0.3409  0.0876 -0.0180
 6999SOL    HW122438   2.206   3.876  10.214 -0.2623  1.2622  1.9965
 6999SOL    HW222439   2.324   3.927  10.133 -1.2766 -0.1629 -0.4807
 7000SOL     OW22440   5.784   4.361   9.156  0.1569  0.0823  0.4333
 7000SOL    HW122441   5.782   4.443   9.205 -0.6873  0.3002  0.0400
 7000SOL    HW222442   5.838   4.302   9.210  1.0168  0.9684  0.5738
 7001SOL     OW22443   2.340   5.771   6.352  0.1563  0.2024 -0.3620
 7001SOL    HW122444   2.386   5.747   6.433 -0.0234  0.0525 -0.3050
 7001SOL    HW222445   2.357   5.865   6.343  1.5643 -0.0900 -1.0336
 7002SOL     OW22446   5.722   7.903   6.278  0.4266 -0.2852  0.2085
 7002SOL    HW122447   5.636   7.933   6.308 -0.2073 -1.1603 -0.6669
 7002SOL    HW222448   5.750   7.969   6.215  0.1726 -0.2425  0.1389
 7003SOL     OW22449   3.705   1.671   5.137 -0.1992  0.3077 -0.1679
 7003SOL    HW122450   3.756   1.702   5.063 -1.6158 -1.0595 -1.8288
 7003SOL    HW222451   3.758   1.601   5.175 -0.9844 -1.5421 -2.2679
 7004SOL     OW22452   3.719   6.432   6.292 -0.2463 -0.2382  0.3374
 7004SOL    HW122453   3.670   6.515   6.294  0.7713  0.4790 -1.5755
 7004SOL    HW222454   3.740   6.419   6.200  1.4519 -1.5401  0.8497
 7005SOL     OW22455   3.089   2.932  11.390 -0.1261 -0.2682  0.2259
 7005SOL    HW122456   3.112   2.870  11.460  0.4730 -0.9849 -0.5924
 7005SOL    HW222457   3.121   2.891  11.310 -0.1397  0.8941 -0.3907
 7006SOL     OW22458   0.347   2.731  10.997 -0.4345  0.4618  0.0281
 7006SOL    HW122459   0.332   2.824  10.977 -2.3337 -0.0329 -1.1262
 7006SOL    HW222460   0.321   2.723  11.089  0.3764  1.1807  0.3366
 7007SOL     OW22461   4.442   1.917   3.060  0.8723 -0.1360  0.7086
 7007SOL    HW122462   4.505   1.903   2.989 -0.2477  2.3040 -0.9382
 7007SOL    HW222463   4.495   1.932   3.137  2.1959 -1.0869  0.0221
 7008SOL     OW22464   0.931   2.903  12.195 -0.3613 -0.6187 -0.2946
 7008SOL    HW122465   0.998   2.846  12.156  1.2635  0.4317  0.8640
 7008SOL    HW222466   0.945   2.988  12.154 -1.7653 -0.6576 -0.8836
 7009SOL     OW22467   6.928   5.950   0.523  0.7072  0.6295  0.2632
 7009SOL    HW122468   6.887   5.938   0.437 -1.4343 -0.4281  1.3445
 7009SOL    HW222469   6.867   6.006   0.571  1.3288  0.3435  1.4271
 7010SOL     OW22470   7.235   6.300   2.763  0.4453 -0.2442  0.2369
 7010SOL    HW122471   7.329   6.289   2.750  0.4537  0.4670 -0.3473
 7010SOL    HW222472   7.227   6.374   2.822  0.3110 -1.7899  2.2598
 7011SOL     OW22473   6.185   6.522   3.136 -0.2758  0.4898 -0.2322
 7011SOL    HW122474   6.184   6.560   3.224 -0.2039 -1.2365  0.5683
 7011SOL    HW222475   6.271   6.545   3.101  0.2504  0.0402  0.7132
 7012SOL     OW22476   6.976   4.646   1.611  0.7211 -0.7521 -0.0590
 7012SOL    HW122477   6.922   4.715   1.650  0.2733 -1.2425  0.2085
 7012SOL    HW222478   6.921   4.568   1.616  0.2157 -0.6398 -2.6508
 7013SOL     OW22479   6.092   6.148   2.534  0.5839  0.1539  0.0048
 7013SOL    HW122480   6.156   6.210   2.501  0.7652  0.1028  0.2532
 7013SOL    HW222481   6.040   6.122   2.458  0.8877  0.1635 -0.2039
 7014SOL     OW22482   1.324   6.962  10.927  0.5814  0.1547  0.0623
 7014SOL    HW122483   1.299   6.870  10.914  1.1477  0.0819 -0.5364
 7014SOL    HW222484   1.410   6.957  10.968  1.2313  0.4191 -1.2370
 7015SOL     OW22485   4.157   7.638   4.330  0.3887  0.0545  0.3706
 7015SOL    HW122486   4.096   7.706   4.301  0.8848  0.1236 -0.5784
 7015SOL    HW222487   4.240   7.684   4.343  0.6406 -0.2984  0.0607
 7016SOL     OW22488   6.504   6.524   9.372  0.4223 -0.0440  0.2288
 7016SOL    HW122489   6.523   6.494   9.461 -1.0443 -0.1589  0.5358
 7016SOL    HW222490   6.469   6.613   9.384  2.3833  0.8781 -0.4638
 7017SOL     OW22491   3.640   5.721   4.592 -0.4830 -0.0981 -0.0599
 7017SOL    HW122492   3.602   5.764   4.515 -0.9845 -0.5779 -0.0910
 7017SOL    HW222493   3.567   5.717   4.655 -0.9945 -2.4736 -0.6999
 7018SOL     OW22494   1.411   3.516  12.132 -0.3589 -0.3041  0.2272
 7018SOL    HW122495   1.384   3.498  12.222  0.6652 -0.0728  0.6050
 7018SOL    HW222496   1.481   3.581  12.141 -0.0842 -0.4513 -0.7217
 7019SOL     OW22497   7.610   1.113   9.784  0.4917 -0.2752  0.2132
 7019SOL    HW122498   7.539   1.064   9.826  0.6009 -0.8544 -0.2592
 7019SOL    HW222499   7.608   1.199   9.826  0.2940 -0.6803  1.0638
 7020SOL     OW22500   6.957   6.335   3.384 -0.0257  0.3175 -0.2038
 7020SOL    HW122501   7.031   6.395   3.388  0.5066 -0.3860  2.2298
 7020SOL    HW222502   6.943   6.319   3.291  2.5186  0.8809 -0.7393
 7021SOL     OW22503   2.691   5.222   9.312 -0.5048 -0.5365 -0.5938
 7021SOL    HW122504   2.667   5.273   9.235 -1.5186 -1.1108 -0.6797
 7021SOL    HW222505   2.609   5.178   9.338 -0.3080  0.0432  1.1142
 7022SOL     OW22506   2.165   6.817   4.765 -0.3844  0.3902  0.2294
 7022SOL    HW122507   2.077   6.808   4.729 -0.3117 -0.9569  0.3606
 7022SOL    HW222508   2.219   6.759   4.713  0.3192  0.7644  0.5312
 7023SOL     OW22509   2.480   5.268   2.949  0.9064  0.5002  0.0236
 7023SOL    HW122510   2.463   5.179   2.918  1.7134  0.3976 -0.1254
 7023SOL    HW222511   2.520   5.312   2.874 -2.8102  2.1280 -1.2866
 7024SOL     OW22512   2.879   7.219   1.855 -0.2976  0.1486  0.5299
 7024SOL    HW122513   2.956   7.256   1.899  0.2892  0.4222 -0.6848
 7024SOL    HW222514   2.834   7.294   1.817 -1.2560  0.0008  1.3256
 7025SOL     OW22515   4.461   4.680   9.543  0.3475  0.1005 -0.2282
 7025SOL    HW122516   4.379   4.727   9.529 -0.9708 -1.9076  0.3762
 7025SOL    HW222517   4.473   4.681   9.638  0.3956 -0.6320 -0.2264
 7026SOL     OW22518   1.532   5.265   2.062 -0.1814  0.4056 -0.2421
 7026SOL    HW122519   1.582   5.297   2.137  1.2076  0.9776 -1.3658
 7026SOL    HW222520   1.474   5.338   2.040 -1.9139 -0.4053  1.3143
 7027SOL     OW22521   2.114   2.298   3.717 -0.0848  0.1689  0.0663
 7027SOL    HW122522   2.161   2.376   3.689 -0.0008  0.5108  1.1246
 7027SOL    HW222523   2.087   2.317   3.806 -0.4503 -0.8385  0.1824
 7028SOL     OW22524   2.394   5.566   5.785  0.0904 -0.3254 -0.0880
 7028SOL    HW122525   2.394   5.661   5.784  0.7545 -0.3181 -1.1947
 7028SOL    HW222526   2.374   5.542   5.876  1.8570  0.8859  0.6682
 7029SOL     OW22527   2.855   3.769   7.172  0.7362  0.2650 -0.1034
 7029SOL    HW122528   2.914   3.769   7.248  1.9127  0.5786 -0.9874
 7029SOL    HW222529   2.801   3.690   7.184  0.9972  0.2308  0.9713
 7030SOL     OW22530   5.368   3.642   2.182  0.0293 -0.0710 -0.3576
 7030SOL    HW122531   5.323   3.661   2.099  0.0731  0.1722 -0.3272
 7030SOL    HW222532   5.394   3.728   2.215  0.6828 -0.2193 -0.4696
 7031SOL     OW22533   2.141   3.995   6.234  0.2370  0.4024  0.1323
 7031SOL    HW122534   2.089   4.034   6.304 -0.7736  0.5051 -0.6397
 7031SOL    HW222535   2.164   4.069   6.178 -0.5264  0.0953 -0.6089
 7032SOL     OW22536   5.936   3.929   2.443  0.5855 -0.5732  0.4687
 7032SOL    HW122537   5.918   3.861   2.507 -0.8935 -2.3790 -1.7185
 7032SOL    HW222538   5.890   4.006   2.476 -0.2831 -1.5051  1.4983
 7033SOL     OW22539   3.173   4.443  12.091  0.3875 -0.0978  0.1705
 7033SOL    HW122540   3.263   4.456  12.122 -0.0671 -2.0393  2.6565
 7033SOL    HW222541   3.177   4.359  12.044 -0.2227 -0.5256  0.8687
 7034SOL     OW22542   7.882   0.148   0.569 -0.4239  0.1083 -0.2785
 7034SOL    HW122543   7.798   0.191   0.589 -0.9651 -0.6496 -0.8377
 7034SOL    HW222544   7.903   0.177   0.480  0.3326  0.9267  0.1493
 7035SOL     OW22545   2.926   6.295   4.309 -0.7244 -0.0900 -0.7273
 7035SOL    HW122546   3.018   6.291   4.282 -0.1557 -1.8846  1.1936
 7035SOL    HW222547   2.921   6.373   4.365  0.5322 -1.6801  1.8117
 7036SOL     OW22548   1.737   7.798  10.705 -0.0743  0.3035  0.2403
 7036SOL    HW122549   1.781   7.883  10.693  0.2558  0.2888  1.2896
 7036SOL    HW222550   1.783   7.757  10.778 -0.2000 -0.8144 -0.2913
 7037SOL     OW22551   6.420   5.552   0.215  0.5700 -0.0083  0.0844
 7037SOL    HW122552   6.396   5.632   0.260  1.9855 -0.3323  1.5259
 7037SOL    HW222553   6.342   5.498   0.217  0.1680  0.5894  0.8194
 7038SOL     OW22554   1.349   1.020   9.794 -0.0252 -0.0641 -0.7315
 7038SOL    HW122555   1.289   1.058   9.729  1.9483  1.3588 -1.8048
 7038SOL    HW222556   1.391   0.948   9.748  0.5757  0.2487 -0.6769
 7039SOL     OW22557   0.570   3.730   6.671 -0.0908 -0.6054  0.0843
 7039SOL    HW122558   0.625   3.745   6.594 -0.6087 -0.4744 -0.2628
 7039SOL    HW222559   0.590   3.804   6.729  0.2818 -0.6903  0.0680
 7040SOL     OW22560   5.848   3.470   2.627  0.3087 -0.2559  0.1557
 7040SOL    HW122561   5.792   3.459   2.704 -1.0376  0.5862 -0.6540
 7040SOL    HW222562   5.843   3.386   2.581  0.5161 -0.5095  0.5904
 7041SOL     OW22563   1.011   3.368  12.139 -0.1527  0.2310 -0.6036
 7041SOL    HW122564   0.922   3.379  12.104  0.5812 -2.0511 -3.6464
 7041SOL    HW222565   1.065   3.426  12.086  0.3071  1.0553  0.7373
 7042SOL     OW22566   7.026   7.656   8.545 -0.1434  0.0098  0.1369
 7042SOL    HW122567   7.098   7.619   8.494 -0.2715 -0.4565  0.2913
 7042SOL    HW222568   6.957   7.590   8.541 -0.6678  0.5636 -0.2351
 7043SOL     OW22569   4.355   2.201   3.228  0.0766 -0.0391 -0.0734
 7043SOL    HW122570   4.262   2.179   3.238 -0.1527  1.7779  3.4616
 7043SOL    HW222571   4.401   2.134   3.277  0.2521  1.0689  1.3435
 7044SOL     OW22572   4.190   5.318  10.739 -0.0136 -0.2150  0.2762
 7044SOL    HW122573   4.157   5.300  10.826  0.0870  2.1258  0.8830
 7044SOL    HW222574   4.126   5.279  10.680 -0.9730 -0.4149  1.4104
 7045SOL     OW22575   0.546   3.905   6.398 -0.1123 -0.7018 -0.0602
 7045SOL    HW122576   0.634   3.868   6.408 -0.3972 -1.8195 -1.3121
 7045SOL    HW222577   0.561   3.994   6.366  0.5680 -0.8627 -0.2170
 7046SOL     OW22578   2.512   6.599   4.220  0.2503  0.4010 -0.4412
 7046SOL    HW122579   2.546   6.619   4.307  0.4666 -2.4525  0.2146
 7046SOL    HW222580   2.581   6.549   4.178 -0.9160 -0.6507 -1.1920
 7047SOL     OW22581   2.303   7.384   9.189  0.3781  0.0947 -0.1502
 7047SOL    HW122582   2.241   7.311   9.191  0.4890 -0.1569 -2.6080
 7047SOL    HW222583   2.389   7.342   9.180  0.4673  0.4982 -1.2988
 7048SOL     OW22584   2.830   7.500  12.188  0.3809  0.4172  0.3021
 7048SOL    HW122585   2.881   7.421  12.172  0.5368  0.5261  0.2681
 7048SOL    HW222586   2.796   7.488  12.277 -0.3579 -0.1131 -0.0413
 7049SOL     OW22587   6.501   7.812   1.195 -0.1441 -0.0535 -0.4708
 7049SOL    HW122588   6.577   7.809   1.137  0.3325 -1.6763  0.1840
 7049SOL    HW222589   6.533   7.782   1.279 -1.2358  0.5255  0.1805
 7050SOL     OW22590   5.783   1.127   3.426  0.7616 -0.4023  0.6499
 7050SOL    HW122591   5.782   1.069   3.502  0.4258 -0.9232  0.2595
 7050SOL    HW222592   5.810   1.070   3.353  1.5041  0.1882  0.4581
 7051SOL     OW22593   5.195   3.070   1.386  0.0521  0.0462 -0.8076
 7051SOL    HW122594   5.188   2.992   1.330 -0.1584 -1.5392  1.3090
 7051SOL    HW222595   5.286   3.098   1.375  0.7744 -1.8225 -0.0135
 7052SOL     OW22596   3.790   4.298  10.790 -0.0837  0.8691 -0.5903
 7052SOL    HW122597   3.773   4.204  10.796  3.0273  0.2667  0.3898
 7052SOL    HW222598   3.840   4.319  10.868  0.3160  3.1233 -1.3681
 7053SOL     OW22599   5.730   7.948   1.895  0.4084 -0.2579 -0.2405
 7053SOL    HW122600   5.672   8.022   1.881  0.9317  0.2636  0.2752
 7053SOL    HW222601   5.818   7.984   1.884  0.6492 -0.9417 -0.6045
 7054SOL     OW22602   0.091   1.632   6.354 -0.1556  0.3890 -0.5114
 7054SOL    HW122603   0.137   1.673   6.427  0.6805 -0.6183 -0.4605
 7054SOL    HW222604   0.145   1.651   6.277 -0.3996  0.4012 -0.6824
 7055SOL     OW22605   1.044   4.666   4.769 -0.6090  0.0707 -0.2093
 7055SOL    HW122606   0.977   4.703   4.711 -2.0809 -0.6957  0.9207
 7055SOL    HW222607   0.994   4.616   4.833  0.9583  0.8339  1.6898
 7056SOL     OW22608   0.849   2.856   7.830  0.2912 -0.0947  0.1030
 7056SOL    HW122609   0.850   2.793   7.757 -0.2192 -0.3693  0.3268
 7056SOL    HW222610   0.759   2.854   7.862  0.4197  0.3099  0.4974
 7057SOL     OW22611   5.058   0.321   7.755 -0.7317  0.0887  0.2644
 7057SOL    HW122612   5.141   0.336   7.710 -1.5852  0.6871 -1.1820
 7057SOL    HW222613   5.033   0.407   7.787 -1.7600  0.3346 -1.1027
 7058SOL     OW22614   1.369   0.272   1.978 -0.6186 -0.2711  0.2769
 7058SOL    HW122615   1.363   0.193   2.032 -1.3687 -0.2344  0.2669
 7058SOL    HW222616   1.343   0.343   2.037 -0.9140 -0.1633  0.0230
 7059SOL     OW22617   2.719   3.583  12.291  0.3268 -0.7471  0.1883
 7059SOL    HW122618   2.812   3.598  12.312  0.4928 -0.8694 -0.4450
 7059SOL    HW222619   2.682   3.550  12.373  1.1768 -2.1217  0.0575
 7060SOL     OW22620   4.289   6.775   9.544 -0.0868  0.0948 -0.2922
 7060SOL    HW122621   4.294   6.827   9.624 -0.5432  0.2997 -0.3911
 7060SOL    HW222622   4.380   6.763   9.516  0.1363 -0.6915  0.7149
 7061SOL     OW22623   6.629   7.630   9.711  0.1497  0.1032 -0.3921
 7061SOL    HW122624   6.618   7.725   9.710  0.2958  0.1771  1.5192
 7061SOL    HW222625   6.630   7.607   9.804 -1.2642 -1.9342 -0.8077
 7062SOL     OW22626   1.228   7.843  10.223 -0.5819 -0.9107  0.0083
 7062SOL    HW122627   1.173   7.896  10.281 -0.7355  0.0768 -1.0055
 7062SOL    HW222628   1.308   7.829  10.273 -0.3367  0.7158  0.1281
 7063SOL     OW22629   5.092   2.733   6.882 -0.0432  0.2854  0.3129
 7063SOL    HW122630   5.057   2.651   6.848 -0.1722  0.0796  0.9240
 7063SOL    HW222631   5.185   2.731   6.862 -0.1848  0.3598 -0.3896
 7064SOL     OW22632   4.150   4.679   8.263 -0.2124 -0.0276 -0.7564
 7064SOL    HW122633   4.125   4.599   8.309  0.2657  1.4067  2.2229
 7064SOL    HW222634   4.236   4.659   8.225 -0.3123 -1.0493 -0.4696
 7065SOL     OW22635   5.420   6.029   8.228 -0.1374 -0.4445  0.2221
 7065SOL    HW122636   5.422   5.954   8.287  0.5947  0.7194  1.7557
 7065SOL    HW222637   5.331   6.063   8.235  0.0121 -0.1693  0.8734
 7066SOL     OW22638   0.860   7.451   4.554 -0.2067  0.3333  0.0295
 7066SOL    HW122639   0.812   7.485   4.629  1.4538 -0.2234  1.4334
 7066SOL    HW222640   0.853   7.519   4.487 -1.6124  0.9035  0.7253
 7067SOL     OW22641   7.623   3.102   9.970 -0.3650 -0.7808 -0.1046
 7067SOL    HW122642   7.593   3.110   9.880  0.0782  0.9407 -0.1470
 7067SOL    HW222643   7.612   3.010   9.992 -1.8007 -0.9552 -1.4439
 7068SOL     OW22644   7.520   7.463   1.940 -0.0499 -0.1856  0.2809
 7068SOL    HW122645   7.498   7.553   1.918 -1.3375 -1.1665 -3.0116
 7068SOL    HW222646   7.616   7.461   1.940  0.0389  1.3996  1.8116
 7069SOL     OW22647   6.940   4.395   2.863  0.0510  0.4684 -0.0306
 7069SOL    HW122648   6.992   4.408   2.784  1.2625  1.3094  0.8704
 7069SOL    HW222649   6.911   4.303   2.857  1.2086  0.1285 -0.8177
 7070SOL     OW22650   2.105   6.482   6.865 -0.5474 -0.4694 -0.5429
 7070SOL    HW122651   2.099   6.578   6.865 -0.5694 -0.4717 -0.9696
 7070SOL    HW222652   2.085   6.456   6.775  2.5347 -0.6579 -1.3054
 7071SOL     OW22653   1.279   6.705   3.896 -0.2586 -0.1508 -0.5312
 7071SOL    HW122654   1.370   6.705   3.867 -0.2594  0.6722 -0.5635
 7071SOL    HW222655   1.283   6.731   3.988 -0.2776 -2.4712  0.1937
 7072SOL     OW22656   1.517   3.304   7.599 -0.3289 -0.5286 -0.1166
 7072SOL    HW122657   1.519   3.352   7.682  1.2788 -0.7179 -0.0218
 7072SOL    HW222658   1.580   3.233   7.611  2.1462  1.0953 -2.4490
 7073SOL     OW22659   7.938   5.539   2.493 -0.1331 -0.0255  0.2437
 7073SOL    HW122660   7.982   5.514   2.574  1.5284  0.3410 -0.5134
 7073SOL    HW222661   7.933   5.634   2.496  0.3085  0.0195 -0.2602
 7074SOL     OW22662   4.465   7.024   6.742  0.1750 -0.1289  0.3490
 7074SOL    HW122663   4.416   7.041   6.822  0.7014 -1.0934  0.8888
 7074SOL    HW222664   4.434   6.939   6.712 -0.4721  0.4936 -0.8319
 7075SOL     OW22665   6.985   6.001   4.886  0.7786  0.2267  0.7486
 7075SOL    HW122666   6.998   5.946   4.963  1.7917  1.9685  1.9026
 7075SOL    HW222667   7.057   5.977   4.827 -0.2505 -1.4197  0.1015
 7076SOL     OW22668   1.106   7.445   2.421  0.2951  0.4161  0.8330
 7076SOL    HW122669   1.102   7.474   2.330  0.0827 -1.3217  0.2434
 7076SOL    HW222670   1.199   7.426   2.435  0.2841  0.4074  0.8922
 7077SOL     OW22671   2.928   7.981   0.805 -0.6093  0.0198 -0.3250
 7077SOL    HW122672   2.836   7.999   0.824 -0.1340  0.0159  2.4545
 7077SOL    HW222673   2.964   8.065   0.776 -1.1688  0.3993  0.0615
 7078SOL     OW22674   0.402   1.666  11.546 -0.1334 -0.1527  0.3823
 7078SOL    HW122675   0.405   1.581  11.590 -0.4034  0.1106  0.9260
 7078SOL    HW222676   0.414   1.730  11.617 -0.9088  0.2881  0.1270
 7079SOL     OW22677   0.839   5.683   8.767 -0.3853  0.6351  0.3854
 7079SOL    HW122678   0.892   5.659   8.843  0.6571  1.7030  0.0152
 7079SOL    HW222679   0.792   5.761   8.794  1.0336  1.8331 -0.4901
 7080SOL     OW22680   2.359   7.951   3.840  0.0488 -0.0944  0.2603
 7080SOL    HW122681   2.402   7.917   3.919  0.4110 -1.3187 -0.4551
 7080SOL    HW222682   2.386   7.892   3.770 -0.2241  1.0136 -0.8084
 7081SOL     OW22683   5.593   3.175   6.398  0.1538  0.9589  0.2473
 7081SOL    HW122684   5.670   3.130   6.435 -0.2451  0.4164  0.4410
 7081SOL    HW222685   5.538   3.193   6.474  0.3642  1.9138  0.1867
 7082SOL     OW22686   4.418   1.175   5.692 -0.2624 -0.0370  0.1541
 7082SOL    HW122687   4.341   1.185   5.636 -0.7071  1.2033  0.9309
 7082SOL    HW222688   4.384   1.139   5.774  0.2468 -1.0163 -0.0523
 7083SOL     OW22689   0.802   3.682   1.606 -0.2216  0.3620 -0.0930
 7083SOL    HW122690   0.829   3.626   1.534  0.5623 -0.4943  0.8348
 7083SOL    HW222691   0.823   3.771   1.577  1.6370 -0.0914 -0.2938
 7084SOL     OW22692   4.703   0.762  12.315  0.2401 -0.3653  0.7799
 7084SOL    HW122693   4.755   0.842  12.312 -3.0800  2.0384 -2.5973
 7084SOL    HW222694   4.636   0.778  12.381  0.1168 -0.7516  0.7552
 7085SOL     OW22695   2.502   0.669  12.320  0.1957  0.0694 -0.2539
 7085SOL    HW122696   2.586   0.709  12.342 -0.4036  0.5214  1.3551
 7085SOL    HW222697   2.459   0.654  12.405 -1.2738 -0.3225 -1.0260
 7086SOL     OW22698   1.621   4.699  10.328 -0.1386 -0.1145 -0.2600
 7086SOL    HW122699   1.593   4.749  10.251 -1.8533 -1.8032 -0.8051
 7086SOL    HW222700   1.694   4.645  10.295  0.3978  0.5430 -0.1771
 7087SOL     OW22701   5.569   5.279   0.448 -0.2464  0.5189 -0.1381
 7087SOL    HW122702   5.481   5.312   0.431 -0.9683 -0.4687  1.5154
 7087SOL    HW222703   5.556   5.201   0.502  1.6193  0.0235 -0.3310
 7088SOL     OW22704   7.750   6.702  10.507  0.3951 -0.0561 -0.6520
 7088SOL    HW122705   7.795   6.785  10.522  0.1694  0.1069 -0.8638
 7088SOL    HW222706   7.748   6.660  10.593 -0.5607  0.7033 -0.2761
 7089SOL     OW22707   2.600   5.236   8.843 -0.2522  0.5742  0.3956
 7089SOL    HW122708   2.667   5.192   8.894  0.2037 -0.6563 -1.1867
 7089SOL    HW222709   2.646   5.309   8.800 -0.5428  1.3466  1.3512
 7090SOL     OW22710   6.644   1.416   6.386  0.1034  0.1702  0.3819
 7090SOL    HW122711   6.722   1.379   6.344  0.1419 -0.7196  1.1918
 7090SOL    HW222712   6.630   1.361   6.464 -0.4899  1.2087  1.0389
 7091SOL     OW22713   6.224   1.104   9.390  0.1161  0.3744  0.1792
 7091SOL    HW122714   6.299   1.163   9.393  0.0408  0.4356  0.9050
 7091SOL    HW222715   6.166   1.135   9.459 -0.7614  0.5682 -0.6314
 7092SOL     OW22716   5.023   1.024   8.868  0.7332  0.1967  0.3346
 7092SOL    HW122717   4.941   1.068   8.887  1.2253  0.6762  1.4288
 7092SOL    HW222718   5.018   1.004   8.774 -1.3764 -1.3949  0.7074
 7093SOL     OW22719   5.958   6.608  11.660  0.5924  0.1442  0.1277
 7093SOL    HW122720   5.954   6.677  11.594 -1.5800 -0.9644 -1.0178
 7093SOL    HW222721   5.923   6.530  11.616  1.7199 -1.3790  1.7617
 7094SOL     OW22722   3.414   5.499   3.439  0.1393  0.5511  0.1513
 7094SOL    HW122723   3.390   5.410   3.414  2.5770 -1.7758  4.7872
 7094SOL    HW222724   3.498   5.514   3.397 -0.3966  0.8158 -0.8446
 7095SOL     OW22725   6.050   5.127   3.711  0.2029 -0.1168  0.3301
 7095SOL    HW122726   6.018   5.139   3.622  1.5889  0.7376 -0.0863
 7095SOL    HW222727   6.129   5.180   3.715 -0.3065  0.5580  2.3483
 7096SOL     OW22728   6.271   3.797   7.926 -0.0994  0.1313 -0.2043
 7096SOL    HW122729   6.244   3.711   7.895  0.2079 -1.0638  2.5414
 7096SOL    HW222730   6.193   3.852   7.917 -0.1558 -0.2189 -2.4643
 7097SOL     OW22731   7.598   4.302   9.175 -0.1467 -0.4432 -0.3437
 7097SOL    HW122732   7.626   4.249   9.250  1.3704  0.5901 -0.1255
 7097SOL    HW222733   7.603   4.393   9.207  1.8810  0.1134 -2.0595
 7098SOL     OW22734   1.742   3.714   9.338 -0.0337  0.2507  0.1110
 7098SOL    HW122735   1.761   3.790   9.393 -1.8052  0.5167  0.4145
 7098SOL    HW222736   1.673   3.667   9.386  1.3369 -1.8368  0.1802
 7099SOL     OW22737   5.849   7.836  12.276  0.0586 -0.5031 -0.0845
 7099SOL    HW122738   5.798   7.916  12.266  0.1476 -0.4535 -0.1385
 7099SOL    HW222739   5.801   7.785  12.341  0.2424 -0.2170  0.2791
 7100SOL     OW22740   7.403   1.512  11.467  0.4106 -0.4501  0.2242
 7100SOL    HW122741   7.499   1.505  11.470  0.5735  1.5188  0.5828
 7100SOL    HW222742   7.386   1.573  11.396 -0.4390  0.9710  1.5907
 7101SOL     OW22743   5.456   3.575   6.045 -0.2405 -0.3624 -0.3129
 7101SOL    HW122744   5.362   3.582   6.065 -0.3373 -0.4654 -0.7134
 7101SOL    HW222745   5.466   3.626   5.964  0.0065 -0.5395 -0.3929
 7102SOL     OW22746   7.459   3.634   6.258 -0.0925 -0.3177 -0.2264
 7102SOL    HW122747   7.491   3.717   6.293  0.4366 -0.5979 -0.0332
 7102SOL    HW222748   7.529   3.604   6.200 -0.8922  0.0609 -1.4161
 7103SOL     OW22749   0.200   6.812   3.782  1.0330  0.1998 -0.3301
 7103SOL    HW122750   0.172   6.858   3.861 -0.0833  3.0198 -2.1811
 7103SOL    HW222751   0.293   6.796   3.795  0.7998  0.3044  1.6802
 7104SOL     OW22752   6.406   1.098   5.720  0.4763  0.4017 -0.3555
 7104SOL    HW122753   6.322   1.142   5.733 -0.5973 -1.3622 -0.9686
 7104SOL    HW222754   6.415   1.093   5.625  0.6959 -0.4723 -0.2931
 7105SOL     OW22755   3.848   6.993   7.266 -0.0327 -0.2050 -0.2669
 7105SOL    HW122756   3.783   6.927   7.289 -0.8487  0.2635 -1.1800
 7105SOL    HW222757   3.873   6.973   7.176 -1.5281  1.6542 -1.1828
 7106SOL     OW22758   4.199   4.811   0.154 -0.6184 -0.2851 -0.3281
 7106SOL    HW122759   4.209   4.790   0.061  0.7744  0.7362 -0.4399
 7106SOL    HW222760   4.287   4.836   0.182 -0.8184 -1.4788  1.5211
 7107SOL     OW22761   7.693   4.067  10.023 -0.1170  0.0135 -0.3148
 7107SOL    HW122762   7.759   4.052   9.955 -0.3988 -0.6262 -0.4606
 7107SOL    HW222763   7.722   4.012  10.096 -1.1516 -1.2933 -0.8394
 7108SOL     OW22764   4.330   0.709   2.416  0.3172  0.2006 -0.5189
 7108SOL    HW122765   4.346   0.618   2.444  1.9177  0.4359 -0.6033
 7108SOL    HW222766   4.236   0.722   2.432  0.2260 -1.1951  0.2888
 7109SOL     OW22767   0.963   5.459   4.055 -0.3690 -0.0566  0.0754
 7109SOL    HW122768   1.022   5.480   4.127 -0.7469  1.2889  0.0254
 7109SOL    HW222769   0.982   5.368   4.034  1.4680  0.2337  0.2686
 7110SOL     OW22770   6.274   3.494   1.239  0.0344 -0.0005 -0.3668
 7110SOL    HW122771   6.271   3.404   1.208 -0.8460 -0.5711  1.2841
 7110SOL    HW222772   6.327   3.490   1.319  1.4219  1.2664 -1.1552
 7111SOL     OW22773   1.434   4.923   8.853 -0.3848 -0.0938 -0.2958
 7111SOL    HW122774   1.390   4.947   8.772  1.5927 -0.5464 -1.5839
 7111SOL    HW222775   1.454   5.006   8.895 -0.6939  0.1863 -0.6921
 7112SOL     OW22776   5.254   0.699   9.618 -0.0676  0.1066 -0.4870
 7112SOL    HW122777   5.346   0.683   9.597  0.4358  1.0448  0.8904
 7112SOL    HW222778   5.240   0.653   9.701 -0.5275  0.8948 -0.1196
 7113SOL     OW22779   7.815   4.722   4.393  0.1421 -0.1828 -0.2282
 7113SOL    HW122780   7.720   4.731   4.394  0.0654 -0.9057 -0.2392
 7113SOL    HW222781   7.847   4.798   4.441 -0.3574  0.9916 -1.6614
 7114SOL     OW22782   7.606   1.137   4.011  0.6500  0.4977  0.6699
 7114SOL    HW122783   7.649   1.055   3.986  1.4550  0.9979  0.3953
 7114SOL    HW222784   7.544   1.111   4.079  0.2545 -0.4820 -0.0287
 7115SOL     OW22785   4.045   1.471   7.294  0.2932 -0.1247 -0.5525
 7115SOL    HW122786   4.105   1.419   7.241  1.3911 -1.1366  1.5817
 7115SOL    HW222787   3.982   1.408   7.329 -1.2872  0.7348 -1.7098
 7116SOL     OW22788   1.654   3.787   4.792 -0.3376  0.7469 -0.6356
 7116SOL    HW122789   1.673   3.849   4.722  2.7633  1.5383  0.7260
 7116SOL    HW222790   1.722   3.720   4.784 -0.8371  0.0386  0.7009
 7117SOL     OW22791   2.671   5.940   5.428 -0.3827  0.0829 -0.2225
 7117SOL    HW122792   2.656   5.859   5.379 -0.9534  0.4666 -0.6891
 7117SOL    HW222793   2.584   5.970   5.453 -0.2203  0.8832 -0.5899
 7118SOL     OW22794   4.357   4.117   3.126 -0.7801  0.5874 -0.0324
 7118SOL    HW122795   4.275   4.113   3.177 -0.1853 -0.3916  0.8780
 7118SOL    HW222796   4.399   4.032   3.141  0.6672  1.2780 -0.0467
 7119SOL     OW22797   5.435   3.816   3.954 -0.3086  0.3841 -0.0845
 7119SOL    HW122798   5.366   3.849   4.011 -0.9525  0.6627 -1.0007
 7119SOL    HW222799   5.431   3.721   3.965  0.3196  0.4793  1.1534
 7120SOL     OW22800   4.143   4.779  10.102  0.1168  0.3539 -0.0073
 7120SOL    HW122801   4.133   4.777  10.007  1.0893 -0.4676 -0.1194
 7120SOL    HW222802   4.110   4.694  10.131  2.3688 -0.5749  0.0520
 7121SOL     OW22803   2.460   6.874  12.374 -0.2352  0.0659  0.2223
 7121SOL    HW122804   2.463   6.953  12.428  1.7689  0.6079 -0.5593
 7121SOL    HW222805   2.457   6.906  12.284 -0.9634 -0.7862 -0.0718
 7122SOL     OW22806   1.234   7.351   8.301 -0.0496  0.7216 -0.5246
 7122SOL    HW122807   1.171   7.420   8.279  0.0147  0.5961 -1.1365
 7122SOL    HW222808   1.303   7.361   8.235  1.1135  1.5423  0.7529
 7123SOL     OW22809   1.282   5.305   1.072  0.0360  0.0974 -0.0914
 7123SOL    HW122810   1.189   5.304   1.051  0.0417  0.1568 -0.1210
 7123SOL    HW222811   1.308   5.213   1.074 -0.0803  0.0708  0.1717
 7124SOL     OW22812   4.606   0.486   2.851 -0.5086  0.3496  0.3795
 7124SOL    HW122813   4.678   0.423   2.853 -0.4919  0.2540 -1.4337
 7124SOL    HW222814   4.648   0.569   2.828 -0.5530  1.0574  2.5805
 7125SOL     OW22815   7.515   6.250  11.763 -0.2443 -0.1386  0.1810
 7125SOL    HW122816   7.597   6.222  11.721 -1.2542  0.6498 -2.5619
 7125SOL    HW222817   7.521   6.216  11.852  1.5260 -3.1616 -0.9256
 7126SOL     OW22818   1.283   7.050   8.186 -0.2879 -0.4123  0.0452
 7126SOL    HW122819   1.377   7.048   8.173 -0.2404  1.7260 -0.2930
 7126SOL    HW222820   1.270   7.036   8.280  0.5473  1.4162  0.4743
 7127SOL     OW22821   5.967   2.659  10.656  0.1341 -0.3628  0.0383
 7127SOL    HW122822   6.003   2.740  10.690 -0.4547 -0.3153  0.5735
 7127SOL    HW222823   5.946   2.678  10.565 -2.4215  0.9468  0.7986
 7128SOL     OW22824   2.812   7.144   5.244  0.6686  0.0991 -0.3955
 7128SOL    HW122825   2.747   7.166   5.177  0.2295 -0.9099 -0.3212
 7128SOL    HW222826   2.852   7.064   5.212  0.7265 -0.1809  0.3605
 7129SOL     OW22827   0.627   1.740   7.379 -0.4436 -0.3052  0.0603
 7129SOL    HW122828   0.712   1.770   7.347 -1.1599  1.9086  0.1119
 7129SOL    HW222829   0.648   1.661   7.429  1.3192 -0.9240 -1.5066
 7130SOL     OW22830   2.615   2.426   0.651  0.0316  0.1247  0.4564
 7130SOL    HW122831   2.558   2.486   0.602  0.8896  0.2302 -0.4289
 7130SOL    HW222832   2.588   2.339   0.623  0.0901  0.1657  0.2692
 7131SOL     OW22833   3.958   7.416   1.834 -0.0367 -0.2055 -0.2348
 7131SOL    HW122834   4.007   7.441   1.913 -1.1229 -0.5726  0.5887
 7131SOL    HW222835   3.880   7.472   1.837 -0.5002 -0.8302 -0.5868
 7132SOL     OW22836   2.851   1.774  12.408  0.4139 -0.0980 -0.8789
 7132SOL    HW122837   2.874   1.729  12.327  0.0718  0.0815 -1.0802
 7132SOL    HW222838   2.794   1.712  12.454  0.3439 -0.0695 -0.9269
 7133SOL     OW22839   6.756   3.074   9.287 -0.1779 -0.2217 -0.1952
 7133SOL    HW122840   6.667   3.070   9.321  0.7802 -1.1427  2.4706
 7133SOL    HW222841   6.802   3.003   9.332  2.2156  1.0443 -0.4778
 7134SOL     OW22842   2.223   0.504   8.565  0.0406 -0.0503 -0.0586
 7134SOL    HW122843   2.252   0.457   8.487 -1.4924 -1.1122 -0.0435
 7134SOL    HW222844   2.294   0.493   8.628 -0.1503 -2.1457 -0.1566
 7135SOL     OW22845   1.881   5.181   7.732 -0.1225  0.4014  0.4446
 7135SOL    HW122846   1.964   5.214   7.696  0.2176  1.1667  1.8692
 7135SOL    HW222847   1.839   5.137   7.658  1.9270 -0.7418 -0.1060
 7136SOL     OW22848   6.387   3.919   5.602  0.3576  0.0063 -1.0337
 7136SOL    HW122849   6.313   3.862   5.584 -0.0867  0.4212 -0.5496
 7136SOL    HW222850   6.464   3.863   5.593 -0.0536 -0.5857 -0.8680
 7137SOL     OW22851   0.086   6.467   8.593  0.4104 -0.7364  0.2146
 7137SOL    HW122852   0.115   6.547   8.549  1.5527 -0.7751  0.8515
 7137SOL    HW222853   0.156   6.404   8.576 -0.8921 -1.9368 -1.0755
 7138SOL     OW22854   5.105   6.036   3.196 -0.1721 -0.0807  0.7108
 7138SOL    HW122855   5.062   5.987   3.126 -0.9653  1.2220  0.2456
 7138SOL    HW222856   5.037   6.046   3.263 -0.7295  2.1235 -0.0941
 7139SOL     OW22857   1.180   3.506  10.373  0.0509  0.6672 -0.1974
 7139SOL    HW122858   1.159   3.592  10.409 -2.2480 -0.4156  1.2592
 7139SOL    HW222859   1.105   3.451  10.395  0.7210 -1.3625 -2.4612
 7140SOL     OW22860   3.569   6.606   2.837  0.4594  0.9444 -0.5919
 7140SOL    HW122861   3.554   6.608   2.743  2.4374 -1.6349 -1.0838
 7140SOL    HW222862   3.523   6.527   2.867  2.2952  0.0582  0.0204
 7141SOL     OW22863   4.159   5.177   2.318 -0.1019 -0.5917 -0.0187
 7141SOL    HW122864   4.243   5.213   2.291 -0.7886  1.4913  0.3822
 7141SOL    HW222865   4.118   5.147   2.237 -0.9009  2.8301 -1.0597
 7142SOL     OW22866   6.497   7.505  10.404  0.2367 -0.2955 -0.4743
 7142SOL    HW122867   6.589   7.478  10.394  0.0124 -1.3844  0.2285
 7142SOL    HW222868   6.466   7.457  10.481 -0.4845  1.2671  0.2542
 7143SOL     OW22869   5.737   1.618   7.957  0.1639  0.2752  0.3576
 7143SOL    HW122870   5.707   1.661   8.037 -1.3852  0.6130 -0.3837
 7143SOL    HW222871   5.769   1.532   7.986  0.3662  0.6990  1.4244
 7144SOL     OW22872   0.041   3.338  11.005  0.4179 -0.3652 -0.0640
 7144SOL    HW122873   0.062   3.315  11.095 -1.1353 -0.2162  0.3553
 7144SOL    HW222874   0.071   3.263  10.953  0.5054 -0.8429  0.6679
 7145SOL     OW22875   5.690   7.777   4.915  0.8068  0.2035  0.0702
 7145SOL    HW122876   5.720   7.772   4.824  0.7131  0.7662  0.0043
 7145SOL    HW222877   5.759   7.825   4.960 -0.7195  3.0440 -0.4355
 7146SOL     OW22878   1.226   0.360   0.039 -0.4715  0.2076 -0.1601
 7146SOL    HW122879   1.246   0.423   0.108  1.8088 -1.4637  0.8320
 7146SOL    HW222880   1.134   0.375   0.019 -1.2748  0.7874  3.3102
 7147SOL     OW22881   2.204   6.491   3.365  0.7802  0.7332  0.7611
 7147SOL    HW122882   2.294   6.484   3.332  0.4839  0.0545  0.0718
 7147SOL    HW222883   2.205   6.440   3.446  0.7561 -0.2082  0.1821
 7148SOL     OW22884   4.147   1.336  12.270  0.1687  0.0443 -0.2625
 7148SOL    HW122885   4.234   1.362  12.240  0.6041  1.6876  2.1105
 7148SOL    HW222886   4.153   1.241  12.283  0.9608 -0.1637 -1.9617
 7149SOL     OW22887   5.059   7.948   3.350  0.4044 -0.1153 -0.5167
 7149SOL    HW122888   5.141   7.943   3.399  0.6893 -1.4559 -1.0883
 7149SOL    HW222889   5.046   8.042   3.335  3.0947  0.0673 -2.4538
 7150SOL     OW22890   3.925   6.142   0.853 -0.4400  0.1602  0.1133
 7150SOL    HW122891   3.833   6.155   0.832 -0.8848 -2.0016  0.5361
 7150SOL    HW222892   3.967   6.119   0.770 -0.4187  0.3531  0.0684
 7151SOL     OW22893   1.919   6.011   6.690 -0.1514  0.2246 -0.0947
 7151SOL    HW122894   1.908   5.923   6.656 -1.8352  0.5312 -0.4592
 7151SOL    HW222895   1.829   6.042   6.705  0.4297  0.9043  2.5528
 7152SOL     OW22896   3.359   7.114  11.456 -0.3637  0.0118 -0.4037
 7152SOL    HW122897   3.289   7.059  11.490 -0.7767  0.6792 -0.1510
 7152SOL    HW222898   3.318   7.198  11.439  0.2152  0.1931 -0.9685
 7153SOL     OW22899   6.119   0.957  11.130 -0.2322 -0.4426  0.2767
 7153SOL    HW122900   6.025   0.949  11.148 -0.5400  0.9547 -0.5630
 7153SOL    HW222901   6.142   0.876  11.085 -1.2274 -0.4166 -0.2878
 7154SOL     OW22902   0.793   1.632   2.587  0.0853  0.8239  0.0113
 7154SOL    HW122903   0.786   1.659   2.679 -2.8996 -0.1106  0.1693
 7154SOL    HW222904   0.729   1.687   2.542  0.1074 -0.0791 -1.1539
 7155SOL     OW22905   5.173   1.526   7.942 -0.0246 -0.2443  0.2745
 7155SOL    HW122906   5.093   1.571   7.969 -0.0087 -2.0121  3.8002
 7155SOL    HW222907   5.143   1.444   7.905  0.1283  0.1117 -0.6669
 7156SOL     OW22908   1.718   6.106   9.556  0.2348  0.2183  0.0056
 7156SOL    HW122909   1.651   6.097   9.488  0.2040 -0.5288  0.1285
 7156SOL    HW222910   1.686   6.178   9.611 -0.6899 -0.3986  0.3061
 7157SOL     OW22911   0.071   4.173   4.454  0.1750 -0.1135  0.1991
 7157SOL    HW122912   0.008   4.236   4.490  0.1993 -0.1038  0.2245
 7157SOL    HW222913   0.144   4.174   4.516  0.4154  0.2282 -0.0848
 7158SOL     OW22914   4.645   2.349   8.752 -0.0422  0.0777 -0.2956
 7158SOL    HW122915   4.659   2.355   8.846  0.2144 -1.6969 -0.1826
 7158SOL    HW222916   4.609   2.434   8.727  1.1359  1.0612  1.1729
 7159SOL     OW22917   0.189   0.041   7.794  0.0421  0.0249  0.0370
 7159SOL    HW122918   0.255   0.031   7.863  0.1154 -1.0789 -0.1633
 7159SOL    HW222919   0.186   0.134   7.776 -0.4484  0.4495  2.0028
 7160SOL     OW22920   6.615   7.005   3.429  0.0692 -0.3968  0.0780
 7160SOL    HW122921   6.546   7.013   3.364 -0.8437  2.5629  1.2305
 7160SOL    HW222922   6.583   6.938   3.489 -1.2913  0.0811 -0.0608
 7161SOL     OW22923   0.097   0.815   6.078 -0.4575  0.2932  0.3181
 7161SOL    HW122924   0.130   0.725   6.073  0.2324  0.4437  1.7314
 7161SOL    HW222925   0.169   0.869   6.047  0.2538  0.5397  2.2888
 7162SOL     OW22926   4.459   1.670   9.064 -0.1204 -0.2590  0.1093
 7162SOL    HW122927   4.553   1.659   9.053  0.1820 -0.2599  2.2281
 7162SOL    HW222928   4.441   1.757   9.028  0.9212  0.2254  0.6916
 7163SOL     OW22929   0.599   4.157  11.803  0.4805 -0.7229 -0.0657
 7163SOL    HW122930   0.517   4.190  11.839  1.4271  1.2489  0.4157
 7163SOL    HW222931   0.639   4.232  11.759  2.7341 -1.1685  1.0301
 7164SOL     OW22932   7.737   7.671  10.131 -0.2566 -0.2763 -0.0725
 7164SOL    HW122933   7.760   7.738  10.066 -0.2209  0.4434  0.6580
 7164SOL    HW222934   7.803   7.603  10.119 -0.4538 -0.3173 -1.0147
 7165SOL     OW22935   5.450   5.550   2.697  0.2886 -0.8193 -0.4853
 7165SOL    HW122936   5.420   5.637   2.671 -1.5072 -1.7485 -1.7925
 7165SOL    HW222937   5.488   5.562   2.784  0.6706  1.3534 -0.8973
 7166SOL     OW22938   5.447   7.198   4.859 -0.4891  0.4478 -0.2646
 7166SOL    HW122939   5.359   7.199   4.897 -0.4300 -0.8631 -0.0407
 7166SOL    HW222940   5.506   7.212   4.933 -0.3723 -2.1377  0.2314
 7167SOL     OW22941   1.592   0.689   9.861  0.4803  0.8376  0.0684
 7167SOL    HW122942   1.677   0.671   9.821  0.4446 -0.7955  0.6751
 7167SOL    HW222943   1.549   0.749   9.800  0.8733 -0.7054 -1.7950
 7168SOL     OW22944   5.369   4.774   6.773 -0.3025 -0.6197 -0.3760
 7168SOL    HW122945   5.437   4.760   6.707 -0.3103  0.5709 -0.6676
 7168SOL    HW222946   5.317   4.693   6.772  0.0658 -0.8635 -1.3946
 7169SOL     OW22947   2.167   4.141   4.896 -0.8522  0.6911 -0.3695
 7169SOL    HW122948   2.231   4.105   4.834 -1.5411 -3.2741  0.9499
 7169SOL    HW222949   2.091   4.162   4.842 -1.0851 -1.7487 -1.1457
 7170SOL     OW22950   2.277   2.664  10.356  0.3299 -0.1215  0.1178
 7170SOL    HW122951   2.295   2.695  10.444 -0.5143 -0.6320  0.4846
 7170SOL    HW222952   2.313   2.732  10.299  1.4822 -0.1083  0.8298
 7171SOL     OW22953   7.183   0.737   0.117 -0.0763 -0.6113  0.5345
 7171SOL    HW122954   7.124   0.799   0.074  0.4951 -0.9195 -0.7570
 7171SOL    HW222955   7.270   0.778   0.109  0.3743 -1.7467 -0.7473
 7172SOL     OW22956   4.689   5.988   4.911 -0.3433 -0.0602  0.6181
 7172SOL    HW122957   4.654   5.922   4.852 -0.7378 -0.3750  1.1980
 7172SOL    HW222958   4.612   6.032   4.947 -0.1863 -0.9498  2.1241
 7173SOL     OW22959   3.107   6.545   8.259  0.0664 -0.3783 -0.0321
 7173SOL    HW122960   3.192   6.506   8.278 -0.6160 -0.4768  3.6151
 7173SOL    HW222961   3.053   6.472   8.229  1.1124 -0.3391 -2.2339
 7174SOL     OW22962   4.834   4.807   9.172 -0.2165 -0.3996 -0.1184
 7174SOL    HW122963   4.760   4.781   9.116  0.8751 -2.6257 -0.6163
 7174SOL    HW222964   4.829   4.748   9.247  0.3321  0.2964  0.4741
 7175SOL     OW22965   4.524   0.169   6.080 -0.2427  0.0060  0.2171
 7175SOL    HW122966   4.491   0.079   6.072 -0.3726  0.1916 -2.6026
 7175SOL    HW222967   4.605   0.160   6.129 -0.7766 -1.5070  0.8841
 7176SOL     OW22968   2.972   0.456   7.768 -0.3434 -0.3854  0.0010
 7176SOL    HW122969   2.944   0.365   7.777  0.7271 -1.1519 -3.1186
 7176SOL    HW222970   3.067   0.450   7.754  0.4548  1.5971  3.3237
 7177SOL     OW22971   3.697   5.739   5.474 -0.8939  0.1926  0.0626
 7177SOL    HW122972   3.677   5.710   5.386  1.3374  0.8165 -0.7189
 7177SOL    HW222973   3.698   5.658   5.527 -0.9699 -0.3441 -0.7453
 7178SOL     OW22974   6.010   0.168   9.894 -0.2689 -0.6628 -0.1066
 7178SOL    HW122975   5.981   0.209   9.812  0.4423  1.2964  0.5667
 7178SOL    HW222976   5.947   0.098   9.908  0.0271 -1.5823 -2.7059
 7179SOL     OW22977   2.901   2.943   6.230  0.4482  0.0274  0.3576
 7179SOL    HW122978   2.986   2.899   6.234  0.6942  0.5738  1.5720
 7179SOL    HW222979   2.879   2.961   6.322 -0.6814  0.4630  0.0166
 7180SOL     OW22980   0.790   3.690  11.830 -0.4632  0.6712  0.6175
 7180SOL    HW122981   0.850   3.629  11.786  0.0922  1.7110 -0.1083
 7180SOL    HW222982   0.755   3.744  11.760 -0.9709  1.1697  1.2443
 7181SOL     OW22983   5.725   7.111   6.669 -0.0106  0.2858  0.1543
 7181SOL    HW122984   5.725   7.099   6.574  0.4043  0.6997  0.0960
 7181SOL    HW222985   5.797   7.172   6.685 -0.5868  0.8530  0.6546
 7182SOL     OW22986   4.605   4.988   1.503  0.2166  0.0197 -0.3312
 7182SOL    HW122987   4.661   5.018   1.575  1.7512 -0.0758 -1.4337
 7182SOL    HW222988   4.559   5.067   1.473 -0.5379  0.0359  0.7999
 7183SOL     OW22989   3.746   2.176   5.391  0.4956 -0.5130 -0.0678
 7183SOL    HW122990   3.712   2.208   5.308  0.8945  1.8889  0.6148
 7183SOL    HW222991   3.839   2.159   5.374 -0.1098 -3.5773 -0.9774
 7184SOL     OW22992   2.949   6.194   2.698 -0.4291  0.2679  0.1211
 7184SOL    HW122993   2.897   6.242   2.762  0.0190  1.9075 -0.6735
 7184SOL    HW222994   3.025   6.251   2.682  0.8545 -1.3755  0.1497
 7185SOL     OW22995   1.256   7.452   4.394 -0.0194 -0.0678 -0.1010
 7185SOL    HW122996   1.257   7.527   4.335 -2.4462 -2.0400 -2.9454
 7185SOL    HW222997   1.318   7.390   4.355 -1.5944 -1.3693 -0.6078
 7186SOL     OW22998   3.609   2.324   9.665  0.7994 -0.4632  0.7855
 7186SOL    HW122999   3.552   2.248   9.652  2.5178 -1.7714  0.5628
 7186SOL    HW223000   3.692   2.298   9.627  1.8257  1.0388  1.9050
 7187SOL     OW23001   1.270   0.544   3.340  0.2428  0.1187  0.3812
 7187SOL    HW123002   1.319   0.553   3.259  2.0876  2.7730  1.6632
 7187SOL    HW223003   1.304   0.463   3.380 -1.3154 -1.7132 -1.7556
 7188SOL     OW23004   3.179   0.656   8.890  0.4890 -0.1443  0.2985
 7188SOL    HW123005   3.145   0.674   8.978  0.2478 -4.2197  1.2682
 7188SOL    HW223006   3.104   0.624   8.842  0.8822  0.9116 -1.0795
 7189SOL     OW23007   1.012   4.187   1.861 -0.0808 -1.0370  0.1655
 7189SOL    HW123008   1.050   4.151   1.781  1.3286  0.7653 -0.0318
 7189SOL    HW223009   0.984   4.275   1.837  0.7128 -0.3179  1.7199
 7190SOL     OW23010   6.218   5.348   1.376  0.1885  0.1130 -0.1583
 7190SOL    HW123011   6.296   5.299   1.351 -0.1680  0.3166 -1.7421
 7190SOL    HW223012   6.242   5.389   1.459  1.5323 -0.3644 -0.2814
 7191SOL     OW23013   4.034   4.566  10.243 -0.2439 -0.3291 -0.2268
 7191SOL    HW123014   4.100   4.502  10.269 -0.9285 -0.6566  0.7330
 7191SOL    HW223015   3.955   4.515  10.226 -0.6746  0.2084  0.1008
 7192SOL     OW23016   6.634   5.569  11.615 -0.0869  0.2439  0.1230
 7192SOL    HW123017   6.649   5.576  11.520 -1.5274  0.9289 -0.0762
 7192SOL    HW223018   6.645   5.475  11.633 -0.1865  0.0385 -0.7982
 7193SOL     OW23019   0.031   2.907   9.578  0.1265  0.2722  0.3384
 7193SOL    HW123020  -0.025   2.970   9.622 -1.0574 -1.1617  0.9732
 7193SOL    HW223021   0.071   2.956   9.507 -1.3291  1.5448  0.3459
 7194SOL     OW23022   5.604   0.521   7.134 -0.5513  0.2386 -0.0079
 7194SOL    HW123023   5.531   0.463   7.110 -0.8132  0.0248  1.2436
 7194SOL    HW223024   5.572   0.609   7.115 -0.4147  0.0463 -1.2531
 7195SOL     OW23025   1.624   1.366   4.265  0.4679 -0.1745  0.6081
 7195SOL    HW123026   1.577   1.299   4.216  0.1287 -0.0625  0.7784
 7195SOL    HW223027   1.588   1.449   4.232  1.0665 -0.0643  0.2122
 7196SOL     OW23028   6.398   0.138   3.694  0.3830 -0.4519  0.8321
 7196SOL    HW123029   6.475   0.085   3.715  0.7343  0.3568  1.6657
 7196SOL    HW223030   6.335   0.117   3.764 -0.0644 -0.9042  0.3067
 7197SOL     OW23031   4.063   5.350   3.588  0.0893 -0.2168  0.0157
 7197SOL    HW123032   4.036   5.396   3.508  0.1987  1.4122  0.8709
 7197SOL    HW223033   3.994   5.371   3.651  1.5617  1.1480  1.2402
 7198SOL     OW23034   1.097   5.951   0.979 -0.3619  0.1542 -0.3069
 7198SOL    HW123035   1.038   6.013   0.936 -0.0835 -0.2648 -1.3035
 7198SOL    HW223036   1.039   5.892   1.027 -0.6235  1.3328  0.8951
 7199SOL     OW23037   7.633   5.483   6.221 -0.3144 -0.3303 -0.0932
 7199SOL    HW123038   7.640   5.489   6.317  0.5629  1.3821 -0.2337
 7199SOL    HW223039   7.543   5.453   6.206 -0.2120 -1.4046  1.2781
 7200SOL     OW23040   3.410   5.657   2.197  0.9175  0.8508  0.2058
 7200SOL    HW123041   3.421   5.563   2.210  1.9956  0.6456 -1.7524
 7200SOL    HW223042   3.499   5.690   2.186  0.4343  1.5942 -2.0000
 7201SOL     OW23043   4.800   7.594   2.956 -0.4595 -0.0826 -0.3631
 7201SOL    HW123044   4.773   7.601   2.865  2.3792  0.7519 -1.2506
 7201SOL    HW223045   4.818   7.683   2.984 -1.8543 -0.2512  1.2796
 7202SOL     OW23046   2.660   3.850  11.562  0.2225 -0.3687  0.3198
 7202SOL    HW123047   2.695   3.899  11.637  0.3012 -0.3237  0.2542
 7202SOL    HW223048   2.640   3.918  11.497  0.7865 -0.4662  0.0441
 7203SOL     OW23049   2.862   5.555   7.626  0.1128  0.0835  0.2208
 7203SOL    HW123050   2.929   5.572   7.560 -0.4891  0.2460 -0.3654
 7203SOL    HW223051   2.867   5.629   7.686 -0.1284  0.5461 -0.3190
 7204SOL     OW23052   2.553   0.484   5.000 -0.3946  0.2071 -0.1491
 7204SOL    HW123053   2.579   0.576   4.989 -0.9531  0.1872 -1.8794
 7204SOL    HW223054   2.461   0.482   4.976 -0.0702 -1.0249 -1.4008
 7205SOL     OW23055   0.772   7.297   3.815 -0.0490  0.3903  0.2990
 7205SOL    HW123056   0.836   7.367   3.829 -0.5780  1.0073 -0.2802
 7205SOL    HW223057   0.726   7.290   3.898  0.3455  0.3848  0.5189
 7206SOL     OW23058   6.804   5.052   2.741  0.8409 -0.8020 -0.0917
 7206SOL    HW123059   6.871   5.069   2.674  0.6229 -1.9092 -0.6121
 7206SOL    HW223060   6.851   5.007   2.811  0.8449 -0.6512  0.0027
 7207SOL     OW23061   0.966   4.600   7.669  0.2128  0.2751  0.9390
 7207SOL    HW123062   0.933   4.670   7.612 -1.2143 -0.8699  0.3188
 7207SOL    HW223063   1.047   4.636   7.705  0.2147  1.7395 -0.3955
 7208SOL     OW23064   7.627   3.013  11.779 -0.0733  0.5505 -0.0422
 7208SOL    HW123065   7.626   2.998  11.684 -0.7949  0.6895 -0.0616
 7208SOL    HW223066   7.584   2.936  11.816  1.1351 -0.0008  0.2579
 7209SOL     OW23067   5.836   7.094  11.480 -0.0600 -0.7348  0.3738
 7209SOL    HW123068   5.885   7.028  11.430  1.2337 -1.2927  2.2607
 7209SOL    HW223069   5.842   7.173  11.427 -0.7703 -1.8226 -1.4595
 7210SOL     OW23070   0.840   5.072   0.084  0.4630  0.0414  0.5124
 7210SOL    HW123071   0.860   5.080   0.178  0.0832  0.1066  0.5886
 7210SOL    HW223072   0.763   5.127   0.071  0.4775 -0.0184  0.1729
 7211SOL     OW23073   3.790   2.227   2.899  0.3084 -0.0640 -0.3815
 7211SOL    HW123074   3.852   2.155   2.905 -0.2873 -0.6738 -1.2110
 7211SOL    HW223075   3.710   2.193   2.941  0.2550  0.3912 -0.1048
 7212SOL     OW23076   0.010   1.504   9.480 -0.3779  0.5177  0.2730
 7212SOL    HW123077   0.002   1.468   9.391 -0.8262  0.2415  0.4215
 7212SOL    HW223078  -0.064   1.565   9.487  0.2845  1.3673  0.0793
 7213SOL     OW23079   5.342   2.198  11.373 -0.0641 -0.4367 -0.1530
 7213SOL    HW123080   5.363   2.216  11.464  0.4806  3.5876 -0.8754
 7213SOL    HW223081   5.419   2.152  11.339  2.2796  2.8152  0.2713
 7214SOL     OW23082   3.621   5.444   2.012 -0.4345 -0.3525  0.4928
 7214SOL    HW123083   3.581   5.448   1.926  0.8859 -0.1047 -0.1470
 7214SOL    HW223084   3.629   5.535   2.039  2.3441 -0.1152 -0.7394
 7215SOL     OW23085   6.095   1.780   9.694  0.6756 -0.1878  0.4139
 7215SOL    HW123086   6.174   1.824   9.725  1.4698 -2.3251  1.6028
 7215SOL    HW223087   6.027   1.808   9.754  1.0092 -0.0624  0.7382
 7216SOL     OW23088   5.103   5.390   1.509 -0.8526 -0.8736 -0.5806
 7216SOL    HW123089   5.110   5.443   1.588  5.2593 -1.4242 -0.2420
 7216SOL    HW223090   5.099   5.454   1.438  1.4270  0.1054  0.0447
 7217SOL     OW23091   5.303   7.467   9.048 -0.1224  0.1950  0.1445
 7217SOL    HW123092   5.244   7.542   9.036 -1.8390 -1.1902 -0.5531
 7217SOL    HW223093   5.246   7.398   9.084  0.4946 -1.9228 -2.6312
 7218SOL     OW23094   0.965   0.545   2.967  0.1363  0.0500 -0.2193
 7218SOL    HW123095   0.992   0.614   3.029  0.3279 -0.6110  0.4493
 7218SOL    HW223096   0.999   0.574   2.883  0.2102  0.7809  0.0523
 7219SOL     OW23097   7.687   4.185   3.929 -0.1603  0.1672  0.4794
 7219SOL    HW123098   7.768   4.153   3.969 -0.1509 -0.0301  0.3038
 7219SOL    HW223099   7.679   4.275   3.960 -0.5907 -0.2426  1.6013
 7220SOL     OW23100   3.349   1.270  11.061 -0.0970 -0.2501  1.1070
 7220SOL    HW123101   3.282   1.315  11.010  0.5471  0.9815  1.3228
 7220SOL    HW223102   3.311   1.261  11.149  0.1873  0.8797  1.3598
 7221SOL     OW23103   4.010   5.987  10.625 -0.0800  0.4062  0.3935
 7221SOL    HW123104   4.085   5.930  10.640  0.7567  1.3450 -0.1836
 7221SOL    HW223105   4.047   6.074  10.611 -1.0315  0.3829 -3.0348
 7222SOL     OW23106   2.874   7.326  10.671  0.0967  0.4529  0.5616
 7222SOL    HW123107   2.846   7.413  10.701  0.3773  0.7168  0.0762
 7222SOL    HW223108   2.965   7.339  10.643  0.0021  0.0966  0.0820
 7223SOL     OW23109   2.336   2.068  11.442 -0.0534 -0.4659 -0.1869
 7223SOL    HW123110   2.246   2.034  11.444 -0.0921 -0.3436  0.1831
 7223SOL    HW223111   2.381   2.013  11.377 -0.2840 -0.8013 -0.0662
 7224SOL     OW23112   7.092   0.788   4.939  0.0274 -0.0043 -0.4233
 7224SOL    HW123113   7.130   0.871   4.967 -1.4711  1.3018 -1.9838
 7224SOL    HW223114   7.167   0.735   4.913  0.9676  1.5016 -0.9555
 7225SOL     OW23115   0.860   0.285  10.391 -0.0552  0.0006 -0.1217
 7225SOL    HW123116   0.830   0.219  10.453  1.3650  0.2120  0.8329
 7225SOL    HW223117   0.840   0.369  10.432 -2.1072  0.2450 -1.4530
 7226SOL     OW23118   1.867   7.419   7.760 -0.6247  0.3211 -0.0309
 7226SOL    HW123119   1.854   7.500   7.711  0.5862 -0.1650 -1.2013
 7226SOL    HW223120   1.935   7.440   7.824 -1.8244  0.8018  1.1334
 7227SOL     OW23121   0.090   2.637   8.228 -0.1294  0.2952 -0.0035
 7227SOL    HW123122   0.026   2.673   8.288 -4.3818 -0.8132 -3.3582
 7227SOL    HW223123   0.094   2.700   8.156 -1.7409 -2.0021 -2.3142
 7228SOL     OW23124   4.423   0.305   4.838  0.3325 -0.0642  0.1661
 7228SOL    HW123125   4.424   0.209   4.837  0.9093 -0.0611 -0.9246
 7228SOL    HW223126   4.500   0.329   4.889  1.3230 -0.1939 -1.2201
 7229SOL     OW23127   2.221   2.983   3.234  0.0600 -0.3030  0.2040
 7229SOL    HW123128   2.232   2.913   3.299  0.8819 -0.6035 -0.2473
 7229SOL    HW223129   2.140   2.960   3.188 -0.9253  0.2776  1.5374
 7230SOL     OW23130   0.484   3.074  12.218 -0.0958  0.0721  0.0941
 7230SOL    HW123131   0.554   3.024  12.261 -0.5275  1.0155  2.0149
 7230SOL    HW223132   0.526   3.155  12.190 -0.1576  0.1381  0.1905
 7231SOL     OW23133   0.348   0.062   0.598 -0.1589  0.2209 -0.4514
 7231SOL    HW123134   0.264   0.086   0.637 -0.4019 -0.7661 -0.3415
 7231SOL    HW223135   0.361  -0.030   0.624  1.0964  0.4499 -0.2072
 7232SOL     OW23136   4.834   1.539   3.263 -0.0159  0.7877  0.1236
 7232SOL    HW123137   4.904   1.557   3.200  0.5645 -0.0037  0.5157
 7232SOL    HW223138   4.867   1.465   3.314 -0.1051  1.8924  1.8928
 7233SOL     OW23139   0.059   1.525   2.464 -0.0961 -0.2890  0.0404
 7233SOL    HW123140   0.102   1.529   2.378 -1.3252 -0.2080 -0.5912
 7233SOL    HW223141  -0.034   1.540   2.445 -0.6888 -2.2840  1.1369
 7234SOL     OW23142   6.502   4.241   9.665 -0.2285  0.1989  0.6407
 7234SOL    HW123143   6.499   4.273   9.575 -0.8958 -0.2096  0.5089
 7234SOL    HW223144   6.462   4.154   9.661 -1.0971  0.5354  1.4695
 7235SOL     OW23145   2.965   0.852   4.695  0.7411 -0.2527  0.4677
 7235SOL    HW123146   2.874   0.846   4.665  0.2905  2.3871  1.0774
 7235SOL    HW223147   2.959   0.885   4.785  2.3063  0.0118  0.5125
 7236SOL     OW23148   4.601   6.706   4.805 -0.2275  0.2837  0.1703
 7236SOL    HW123149   4.608   6.753   4.888  2.6344  0.0584  0.1525
 7236SOL    HW223150   4.607   6.614   4.829 -2.2236  0.0370 -0.1053
 7237SOL     OW23151   4.673   7.974  11.386 -0.5801 -0.6337 -0.3060
 7237SOL    HW123152   4.583   7.947  11.405 -0.5308  0.3163  1.5276
 7237SOL    HW223153   4.664   8.056  11.337 -0.7818  0.7745  1.9608
 7238SOL     OW23154   6.330   5.671   4.289 -0.0444 -0.3033 -0.3137
 7238SOL    HW123155   6.391   5.629   4.351 -0.0750 -1.4061 -1.0084
 7238SOL    HW223156   6.377   5.750   4.260  1.1716 -1.2564 -1.0177
 7239SOL     OW23157   0.573   4.483   4.666  0.0006  0.1349  0.3178
 7239SOL    HW123158   0.530   4.454   4.586 -0.6821  0.0098  0.7208
 7239SOL    HW223159   0.658   4.438   4.665  0.7915  1.5565 -1.2352
 7240SOL     OW23160   1.229   3.548   9.835 -0.3115  0.0245  0.5179
 7240SOL    HW123161   1.208   3.640   9.816  0.0584  0.1178  0.5546
 7240SOL    HW223162   1.203   3.536   9.927 -1.0880 -0.1264  0.2851
 7241SOL     OW23163   3.066   6.526   3.134 -0.4136  0.4624 -0.2334
 7241SOL    HW123164   3.106   6.606   3.168 -0.4466  0.3633  0.0405
 7241SOL    HW223165   3.080   6.530   3.039 -0.9583  1.0888 -0.2915
 7242SOL     OW23166   1.825   1.375   1.695  0.3355 -0.3037  0.0309
 7242SOL    HW123167   1.878   1.453   1.708 -0.0145 -0.1599  0.6345
 7242SOL    HW223168   1.867   1.329   1.623  1.1924 -0.1212  0.4068
 7243SOL     OW23169   6.388   3.523   0.264  0.2434  0.6415  0.1084
 7243SOL    HW123170   6.302   3.556   0.239  0.3596 -0.4877 -1.9516
 7243SOL    HW223171   6.374   3.429   0.281  0.6904  0.8525  1.8795
 7244SOL     OW23172   4.142   3.765   2.300  0.1743  0.6979  0.2720
 7244SOL    HW123173   4.057   3.808   2.308 -0.1697  0.3517 -1.2648
 7244SOL    HW223174   4.122   3.672   2.294  0.7272  0.5467  0.6783
 7245SOL     OW23175   0.773   6.677   5.253  0.5428  0.2744 -0.3187
 7245SOL    HW123176   0.805   6.600   5.206  1.4512  0.7429 -0.4782
 7245SOL    HW223177   0.778   6.748   5.189  1.4084  0.8352  0.3600
 7246SOL     OW23178   1.883   7.478  11.782 -0.0965  0.1074  0.1654
 7246SOL    HW123179   1.846   7.557  11.821 -0.4005  0.3084 -0.5266
 7246SOL    HW223180   1.815   7.444  11.724 -0.0433 -0.7707  0.5891
 7247SOL     OW23181   0.402   5.058   3.716 -0.3771 -0.1620 -0.2035
 7247SOL    HW123182   0.487   5.102   3.704  0.1553 -1.1058 -0.0144
 7247SOL    HW223183   0.397   4.997   3.643 -0.3387 -0.9609  0.4512
 7248SOL     OW23184   5.051   3.180   1.582  0.1866 -0.1464 -0.1823
 7248SOL    HW123185   5.112   3.153   1.513  0.0882 -0.6384 -0.0802
 7248SOL    HW223186   5.032   3.100   1.630  1.9983  0.5088  1.8317
 7249SOL     OW23187   0.474   6.064   4.343  0.4907 -0.1060  0.0724
 7249SOL    HW123188   0.537   6.001   4.376  0.2611 -1.3422 -1.7145
 7249SOL    HW223189   0.389   6.019   4.349  0.3260  0.0060 -1.2344
 7250SOL     OW23190   0.062   5.657   5.935 -0.3794 -0.0541 -0.0820
 7250SOL    HW123191  -0.033   5.665   5.924 -0.5101  0.0923  1.0305
 7250SOL    HW223192   0.074   5.572   5.976  0.0772 -0.5702 -1.2581
 7251SOL     OW23193   4.748   6.882   8.472 -0.1051 -0.9054  0.3302
 7251SOL    HW123194   4.697   6.820   8.419  1.0263 -1.0137 -0.6771
 7251SOL    HW223195   4.683   6.943   8.506 -1.1220 -2.0625  0.5311
 7252SOL     OW23196   5.273   5.998   1.158  0.0033 -0.0482  0.3562
 7252SOL    HW123197   5.275   6.030   1.068  0.0657  0.8681  0.6783
 7252SOL    HW223198   5.346   6.043   1.201  1.0000 -1.6766  0.4793
 7253SOL     OW23199   0.607   1.413  11.515  0.9278 -0.2337 -0.1596
 7253SOL    HW123200   0.697   1.443  11.504  0.8682  0.8793  1.7860
 7253SOL    HW223201   0.613   1.344  11.581  0.3372  0.1899  0.3589
 7254SOL     OW23202   7.440   5.298   4.833  0.6248  0.1095  0.2480
 7254SOL    HW123203   7.500   5.336   4.770  0.2012  0.4610  0.0542
 7254SOL    HW223204   7.424   5.209   4.800 -0.9650  0.8538 -1.1342
 7255SOL     OW23205   5.221   2.719   4.167  0.4373  0.1303  0.3219
 7255SOL    HW123206   5.172   2.741   4.246  0.3441  0.5434  0.1492
 7255SOL    HW223207   5.173   2.645   4.130  0.3098  0.1264  0.4914
 7256SOL     OW23208   0.212   3.133  12.290 -0.2279  0.4096 -0.3263
 7256SOL    HW123209   0.222   3.204  12.227  0.8226  0.7680  0.2264
 7256SOL    HW223210   0.295   3.085  12.285 -0.5398 -0.1757  0.0348
 7257SOL     OW23211   6.128   2.103   1.685  0.8184 -0.4362  0.1904
 7257SOL    HW123212   6.147   2.019   1.643  0.9749  0.1028 -0.8564
 7257SOL    HW223213   6.122   2.165   1.613  0.6169  0.4438  0.9410
 7258SOL     OW23214   0.533   5.672  11.638 -0.3521 -0.2740 -0.3506
 7258SOL    HW123215   0.614   5.628  11.613 -0.5200 -2.3509  2.2407
 7258SOL    HW223216   0.561   5.742  11.697 -0.4021 -0.8405  0.3566
 7259SOL     OW23217   0.878   4.376   3.207  0.4428 -0.3156 -0.2696
 7259SOL    HW123218   0.816   4.336   3.270  0.9117  1.7451  1.6171
 7259SOL    HW223219   0.964   4.364   3.247  1.2198 -1.9884 -2.2478
 7260SOL     OW23220   1.548   5.159   7.089 -0.3670 -0.4197 -0.0722
 7260SOL    HW123221   1.583   5.219   7.023  1.0800 -1.3284 -0.1837
 7260SOL    HW223222   1.454   5.174   7.088 -0.7124 -1.6930 -3.7731
 7261SOL     OW23223   3.987   7.247   7.032 -0.2802  0.5800 -0.3233
 7261SOL    HW123224   3.986   7.180   6.962  3.1173  1.4285 -1.3997
 7261SOL    HW223225   3.957   7.327   6.989  3.2945  1.4859 -1.5226
 7262SOL     OW23226   2.624   5.610   0.406  0.4042  0.2872  0.8270
 7262SOL    HW123227   2.669   5.603   0.490  2.0866 -2.1737 -0.1458
 7262SOL    HW223228   2.558   5.541   0.408  1.3671 -0.7225 -0.3025
 7263SOL     OW23229   1.798   4.189   5.575  0.1393 -0.4675 -0.4577
 7263SOL    HW123230   1.823   4.133   5.502 -0.1493 -0.6233 -0.4372
 7263SOL    HW223231   1.726   4.143   5.618  0.7861 -0.7224  0.3597
 7264SOL     OW23232   6.330   7.980   6.836 -0.6223 -0.0208  0.5855
 7264SOL    HW123233   6.415   8.006   6.872  0.3544 -0.0406 -1.5192
 7264SOL    HW223234   6.304   8.054   6.781  0.6162 -1.8836 -2.8614
 7265SOL     OW23235   0.619   5.999   2.023 -0.6651 -0.4902 -0.3032
 7265SOL    HW123236   0.540   5.977   2.071 -1.4499  0.7823 -0.9744
 7265SOL    HW223237   0.662   6.066   2.076 -0.8675 -0.0163 -0.7358
 7266SOL     OW23238   5.413   7.329   1.971  0.8783  0.2015 -0.1779
 7266SOL    HW123239   5.472   7.323   1.896  1.2466 -0.2905  0.1486
 7266SOL    HW223240   5.454   7.393   2.029 -0.0198  1.5081 -0.9334
 7267SOL     OW23241   7.849   1.276   5.926 -0.0709  0.1823  0.0828
 7267SOL    HW123242   7.944   1.278   5.933 -0.0268  3.4640  0.0135
 7267SOL    HW223243   7.819   1.244   6.011  1.0454 -1.8622 -0.2366
 7268SOL     OW23244   7.682   6.184   6.816 -0.9365 -0.1613  0.5689
 7268SOL    HW123245   7.747   6.125   6.854 -1.5180 -1.1396  0.0988
 7268SOL    HW223246   7.720   6.271   6.824  0.1498 -0.6500  0.8613
 7269SOL     OW23247   1.447   0.719   0.158 -0.3697 -0.3048  0.4105
 7269SOL    HW123248   1.491   0.775   0.222 -0.5355 -1.4956  1.6012
 7269SOL    HW223249   1.519   0.678   0.109 -0.2500  1.3608 -0.8846
 7270SOL     OW23250   4.845   2.455   5.458  0.4703  0.5839  0.2625
 7270SOL    HW123251   4.844   2.416   5.545  1.7644  1.4725  0.6910
 7270SOL    HW223252   4.753   2.477   5.441  0.2635  0.8259  1.5851
 7271SOL     OW23253   2.837   0.688   5.683 -0.4728  0.7394  0.6697
 7271SOL    HW123254   2.799   0.729   5.760  1.9928  2.5954  1.0349
 7271SOL    HW223255   2.931   0.706   5.690  0.3682 -2.3912 -0.8077
 7272SOL     OW23256   6.553   1.455   2.943 -0.1780  0.8581 -0.4692
 7272SOL    HW123257   6.505   1.519   2.890 -1.3680  1.2253  0.9595
 7272SOL    HW223258   6.516   1.465   3.031  3.3933  2.1126  1.1163
 7273SOL     OW23259   7.368   5.976   9.764  0.1572 -0.2381 -0.8321
 7273SOL    HW123260   7.432   6.047   9.764 -0.5395  0.4110  0.3324
 7273SOL    HW223261   7.387   5.927   9.843 -1.4302  0.5848  0.1128
 7274SOL     OW23262   2.007   4.701   7.459  0.3549 -0.1729  0.1003
 7274SOL    HW123263   2.091   4.730   7.496  0.9994 -0.2968 -1.1891
 7274SOL    HW223264   2.031   4.663   7.374 -1.1082  0.5758 -0.6723
 7275SOL     OW23265   6.698   2.327   6.701  0.5429  0.4303  0.0138
 7275SOL    HW123266   6.761   2.276   6.751  1.1703  0.6292 -0.5606
 7275SOL    HW223267   6.747   2.403   6.671  0.4425 -0.1191 -1.6571
 7276SOL     OW23268   5.103   1.867   8.789 -0.5797  0.1573 -0.0594
 7276SOL    HW123269   5.053   1.787   8.806 -0.6688 -0.1609 -1.6486
 7276SOL    HW223270   5.048   1.938   8.823 -1.1116 -0.3508  0.1609
 7277SOL     OW23271   1.994   6.503   3.988  0.4915 -0.0994  0.3676
 7277SOL    HW123272   1.988   6.533   3.897 -0.6059 -1.3168  0.0078
 7277SOL    HW223273   2.084   6.521   4.014  0.6291  0.9132 -0.7192
 7278SOL     OW23274   4.195   2.710   3.586  0.3990 -0.3227  0.1165
 7278SOL    HW123275   4.116   2.743   3.628 -1.1287 -2.6758 -0.6890
 7278SOL    HW223276   4.181   2.727   3.493  0.5239 -1.2947 -0.0929
 7279SOL     OW23277   4.227   1.812   6.575 -0.2536 -0.1515 -0.0261
 7279SOL    HW123278   4.189   1.746   6.517 -1.2819  1.3590 -1.1642
 7279SOL    HW223279   4.320   1.814   6.552 -0.0081 -1.8156  0.6870
 7280SOL     OW23280   1.267   4.271   4.542  0.3417 -0.0385 -0.0123
 7280SOL    HW123281   1.353   4.314   4.541  1.3087 -1.8649  0.2239
 7280SOL    HW223282   1.265   4.221   4.623 -0.1382 -1.5323 -0.8951
 7281SOL     OW23283   5.900   1.921  10.459  0.3564  0.0474  0.7155
 7281SOL    HW123284   5.837   1.850  10.451  0.9564 -0.3163 -1.5846
 7281SOL    HW223285   5.850   1.999  10.434  0.5711 -0.1182 -0.2749
 7282SOL     OW23286   4.909   6.171  11.494 -0.1075  0.5534 -0.2564
 7282SOL    HW123287   4.930   6.175  11.587 -0.6188  1.3311 -0.1606
 7282SOL    HW223288   4.994   6.178  11.450  0.2698 -1.1044  0.1415
 7283SOL     OW23289   1.554   5.043  10.457 -0.2468 -0.1630  0.1521
 7283SOL    HW123290   1.470   4.999  10.449 -0.9990  1.3997 -1.1085
 7283SOL    HW223291   1.604   5.014  10.381 -0.6736  0.9635 -0.5774
 7284SOL     OW23292   0.983   4.893  12.091 -0.3412 -0.4756  0.0720
 7284SOL    HW123293   0.922   4.921  12.022 -0.3263 -0.3708  0.1017
 7284SOL    HW223294   1.069   4.905  12.052 -0.3387 -0.6184  0.0326
 7285SOL     OW23295   2.208   4.870   6.367  0.4712 -0.6007  0.3858
 7285SOL    HW123296   2.194   4.950   6.316  0.2366  0.3093  1.8064
 7285SOL    HW223297   2.136   4.812   6.341 -0.1579  0.1819  0.3136
 7286SOL     OW23298   3.843   5.096   2.229  0.7876 -0.4872  0.6354
 7286SOL    HW123299   3.873   5.087   2.320 -0.6329 -0.0497  1.1658
 7286SOL    HW223300   3.919   5.132   2.183  2.2586 -2.6725  1.1579
 7287SOL     OW23301   0.897   5.742   7.121  0.3187  0.2452 -0.0241
 7287SOL    HW123302   0.886   5.796   7.200 -1.0024  0.2520 -0.1878
 7287SOL    HW223303   0.888   5.803   7.048  1.2986  0.1973 -0.2007
 7288SOL     OW23304   1.695   0.431   4.412  0.0485  0.4059  0.6666
 7288SOL    HW123305   1.736   0.485   4.345  1.9123 -2.8080 -1.0075
 7288SOL    HW223306   1.752   0.442   4.489  0.1180  1.1854  0.5112
 7289SOL     OW23307   1.384   1.124  10.091  0.2697 -0.8570  0.6093
 7289SOL    HW123308   1.317   1.184  10.058  0.1536 -0.4037  1.6467
 7289SOL    HW223309   1.365   1.041  10.048 -0.0933 -0.3755 -0.1840
 7290SOL     OW23310   3.971   6.321   2.437  0.4709  0.0397  0.2468
 7290SOL    HW123311   3.910   6.292   2.370  1.8591  2.5305 -2.2623
 7290SOL    HW223312   4.037   6.372   2.390  2.6743  0.2381  3.2559
 7291SOL     OW23313   3.194   3.789   9.615 -0.0648 -0.2939 -0.7457
 7291SOL    HW123314   3.208   3.702   9.654 -1.1481  0.7846  2.3616
 7291SOL    HW223315   3.254   3.846   9.663  0.9179  0.6930 -3.0216
 7292SOL     OW23316   2.058   5.290   9.057 -0.1278 -0.0798 -0.1220
 7292SOL    HW123317   2.122   5.328   8.997 -1.1462  0.3812 -0.9472
 7292SOL    HW223318   2.055   5.197   9.034  1.2959 -0.4183  0.9167
 7293SOL     OW23319   3.353   4.261   0.579  0.0022  0.0391  0.1867
 7293SOL    HW123320   3.266   4.235   0.551  0.3673 -0.2280 -0.7591
 7293SOL    HW223321   3.408   4.185   0.559  0.5947  0.5133 -0.0286
 7294SOL     OW23322   0.239   5.680   6.143 -0.0423  0.2698 -0.0179
 7294SOL    HW123323   0.179   5.701   6.071 -1.5008  0.9123  1.3320
 7294SOL    HW223324   0.199   5.605   6.187  0.8106 -0.0891  0.1766
 7295SOL     OW23325   0.345   2.645  11.666 -0.5724 -0.4070 -0.0913
 7295SOL    HW123326   0.326   2.725  11.714 -2.4955 -0.4756 -0.6478
 7295SOL    HW223327   0.394   2.591  11.728 -0.5079  0.6297  0.7930
 7296SOL     OW23328   6.786   0.703   6.212  0.2533 -0.2428  0.2300
 7296SOL    HW123329   6.850   0.711   6.142  0.8397 -2.6651  0.3910
 7296SOL    HW223330   6.712   0.758   6.184  1.2270  0.3219 -1.3409
 7297SOL     OW23331   6.195   3.317   5.295  0.7885  0.0737  0.0501
 7297SOL    HW123332   6.246   3.238   5.281  2.2756  0.8234  0.9050
 7297SOL    HW223333   6.248   3.387   5.256 -0.4830  0.6676 -0.6723
 7298SOL     OW23334   0.678   4.084   0.004 -0.0211  0.7639  0.2268
 7298SOL    HW123335   0.735   4.135  -0.054 -0.4527  0.5730 -0.3831
 7298SOL    HW223336   0.646   4.013  -0.051 -0.7845  0.8245  0.5725
 7299SOL     OW23337   2.059   7.255  11.090  0.4719  0.4552  0.3472
 7299SOL    HW123338   2.108   7.336  11.073  0.0376  0.7576  0.5033
 7299SOL    HW223339   1.969   7.285  11.101  0.1170 -0.1644 -0.6842
 7300SOL     OW23340   5.079   5.260   5.171 -0.1435  0.0979 -0.5137
 7300SOL    HW123341   5.163   5.305   5.161  0.2499 -0.5682 -0.2782
 7300SOL    HW223342   5.020   5.326   5.207  0.9316 -0.0700  1.7057
 7301SOL     OW23343   1.192   4.598  10.864 -0.1728 -0.2144  0.2141
 7301SOL    HW123344   1.165   4.690  10.875 -2.2595 -0.7971  0.2849
 7301SOL    HW223345   1.282   4.604  10.831 -0.5340  1.8657 -0.5621
 7302SOL     OW23346   2.221   1.207   9.017 -0.0024 -0.0838  0.5431
 7302SOL    HW123347   2.171   1.248   9.088 -0.0066  0.6591  0.1221
 7302SOL    HW223348   2.176   1.235   8.937 -0.5564 -1.6643  0.2638
 7303SOL     OW23349   2.893   3.409   3.041 -0.8965 -0.5824  0.0599
 7303SOL    HW123350   2.855   3.403   3.129  0.2490  0.1713  0.6383
 7303SOL    HW223351   2.839   3.473   2.996 -1.0525 -0.4300  0.4577
 7304SOL     OW23352   5.720   6.745   0.742 -0.1115  0.0443 -0.4159
 7304SOL    HW123353   5.659   6.789   0.683  1.2258  1.5031 -0.7765
 7304SOL    HW223354   5.729   6.805   0.816  1.0445 -0.0295 -0.4772
 7305SOL     OW23355   6.593   4.172   5.412  0.7181  0.1396 -0.2973
 7305SOL    HW123356   6.621   4.194   5.501 -0.4496 -1.4632  0.5008
 7305SOL    HW223357   6.662   4.113   5.379  1.1486  0.7323 -0.4821
 7306SOL     OW23358   6.452   5.220  11.376  0.2220  0.2174  0.0272
 7306SOL    HW123359   6.387   5.152  11.393  0.3841  0.0195 -0.1332
 7306SOL    HW223360   6.514   5.179  11.315  1.1305 -0.0085  1.0566
 7307SOL     OW23361   2.009   1.542   7.557  0.4706  0.1424  0.3037
 7307SOL    HW123362   2.011   1.559   7.463  0.1393 -0.7698  0.1169
 7307SOL    HW223363   2.095   1.506   7.577  0.9878  1.5047  0.5999
 7308SOL     OW23364   2.806   3.412   7.067 -0.6590 -0.3438  0.7706
 7308SOL    HW123365   2.767   3.462   6.996  0.8699 -1.1949 -0.7440
 7308SOL    HW223366   2.740   3.346   7.090 -0.4088 -1.4143 -1.3523
 7309SOL     OW23367   5.705   0.829   0.120  0.0522  0.0989  0.5960
 7309SOL    HW123368   5.625   0.808   0.169  0.1097  2.1338  1.6901
 7309SOL    HW223369   5.776   0.793   0.174 -0.0053  0.2631  0.7807
 7310SOL     OW23370   6.787   3.473   9.045 -0.0026  0.1158  0.2840
 7310SOL    HW123371   6.701   3.431   9.041  0.4542 -0.7756 -0.5366
 7310SOL    HW223372   6.796   3.503   9.135 -0.6145 -0.9675  0.7140
 7311SOL     OW23373   2.655   2.432   8.909 -0.2386 -0.1621 -0.5634
 7311SOL    HW123374   2.640   2.526   8.900 -0.3725  0.0834  1.6041
 7311SOL    HW223375   2.744   2.418   8.876 -0.8705  0.3682 -2.6324
 7312SOL     OW23376   0.929   7.761  10.470 -0.1923  0.1866 -0.3026
 7312SOL    HW123377   0.901   7.697  10.405 -0.1851 -0.5496  0.4062
 7312SOL    HW223378   0.850   7.811  10.490 -1.0918 -1.8173  1.6232
 7313SOL     OW23379   0.586   6.654   8.269  0.3719 -0.1340  0.1378
 7313SOL    HW123380   0.662   6.712   8.279  0.7337 -0.7665  1.3531
 7313SOL    HW223381   0.624   6.566   8.263 -0.1992 -0.3152 -0.9486
 7314SOL     OW23382   7.306   5.448  11.557 -0.1463 -0.1357 -0.4518
 7314SOL    HW123383   7.231   5.402  11.597 -0.4269 -0.0832 -0.9054
 7314SOL    HW223384   7.356   5.379  11.514 -1.2393  0.1151 -2.1971
 7315SOL     OW23385   0.752   6.840   0.804  0.2972 -0.2124  0.1066
 7315SOL    HW123386   0.759   6.901   0.731 -0.4547  1.4498  1.3618
 7315SOL    HW223387   0.736   6.895   0.881  0.1065 -1.9536  1.3885
 7316SOL     OW23388   7.833   3.092   0.260  0.3023 -0.0017 -0.1980
 7316SOL    HW123389   7.752   3.109   0.308  0.7667 -0.3968  0.7435
 7316SOL    HW223390   7.860   3.178   0.228 -0.4398  0.1496 -0.4565
 7317SOL     OW23391   1.036   1.026   3.757  0.4884 -0.5921 -0.0939
 7317SOL    HW123392   1.113   1.004   3.705  0.7561 -0.7186  0.3523
 7317SOL    HW223393   1.062   1.010   3.847  0.5182  1.0324  0.2135
 7318SOL     OW23394   2.659   4.463   7.983 -0.2372 -0.0297 -0.4824
 7318SOL    HW123395   2.645   4.499   8.070  0.5938 -1.2276  0.1940
 7318SOL    HW223396   2.641   4.369   7.993  2.5989 -0.7175 -0.8319
 7319SOL     OW23397   2.205   0.789  12.395  0.5895 -0.2298  0.6203
 7319SOL    HW123398   2.225   0.812  12.305  0.0844  0.7989  0.7596
 7319SOL    HW223399   2.275   0.829  12.446  0.1614  0.3062  0.7928
 7320SOL     OW23400   5.826   7.594   2.158 -0.2844  0.1198 -0.0855
 7320SOL    HW123401   5.794   7.666   2.212 -1.3437 -0.1431 -0.3367
 7320SOL    HW223402   5.909   7.626   2.121 -0.0444  0.6648  0.9038
 7321SOL     OW23403   7.488   5.027   9.185 -0.0840  0.0669  0.1546
 7321SOL    HW123404   7.442   5.037   9.101  0.8949  1.7566 -0.2230
 7321SOL    HW223405   7.568   4.979   9.163  0.8410  1.6812 -0.1847
 7322SOL     OW23406   2.483   0.025   8.738 -0.2414  0.3949 -0.1331
 7322SOL    HW123407   2.556   0.055   8.792 -0.1942  0.9779 -0.5056
 7322SOL    HW223408   2.446   0.106   8.701  0.4377 -0.0447 -1.8855
 7323SOL     OW23409   6.184   5.311   3.037 -0.1816 -0.3864 -0.0416
 7323SOL    HW123410   6.265   5.361   3.049 -1.1714  1.0410  1.1009
 7323SOL    HW223411   6.139   5.355   2.965 -1.1768  0.6274  1.1382
 7324SOL     OW23412   0.210   5.564   3.978 -0.3084  0.7910  0.2898
 7324SOL    HW123413   0.270   5.611   3.920 -0.3288 -0.7935 -1.0808
 7324SOL    HW223414   0.266   5.530   4.047 -0.1358  1.8960  0.7235
 7325SOL     OW23415   5.548   7.280   1.704 -0.1339  0.1943 -0.1203
 7325SOL    HW123416   5.589   7.363   1.728 -1.3816  0.5803  0.8007
 7325SOL    HW223417   5.518   7.293   1.614  1.9980 -0.2195 -0.9373
 7326SOL     OW23418   0.386   5.238   1.035  0.4348 -0.3647 -0.0772
 7326SOL    HW123419   0.437   5.200   1.107  0.8385 -1.6629 -0.9958
 7326SOL    HW223420   0.402   5.178   0.961 -0.8938  0.2782 -0.9171
 7327SOL     OW23421   6.892   6.763  12.367 -0.3524  0.2879  0.1227
 7327SOL    HW123422   6.867   6.794  12.280  2.3046 -0.0451 -0.8673
 7327SOL    HW223423   6.815   6.715  12.398 -0.6711 -1.5380 -3.0203
 7328SOL     OW23424   4.925   2.862  11.664  0.3452 -0.5456 -0.0323
 7328SOL    HW123425   4.986   2.792  11.640  0.7776 -0.7253  1.5235
 7328SOL    HW223426   4.844   2.840  11.618  1.4010 -0.3086 -2.1328
 7329SOL     OW23427   5.986   2.279  11.877  0.2725 -0.2912  0.3700
 7329SOL    HW123428   6.014   2.335  11.950  0.3591  0.7361 -0.4197
 7329SOL    HW223429   5.992   2.336  11.801  0.2641 -1.3753 -0.4556
 7330SOL     OW23430   0.164   6.715   8.493  0.7814 -0.5558 -0.0350
 7330SOL    HW123431   0.131   6.788   8.545  0.5275  0.2655 -1.3188
 7330SOL    HW223432   0.257   6.735   8.481  1.1090 -1.3202  1.0003
 7331SOL     OW23433   1.478   1.260   2.313 -0.3876  0.2835 -0.4067
 7331SOL    HW123434   1.505   1.245   2.222 -0.4771  0.1466 -0.4094
 7331SOL    HW223435   1.468   1.355   2.319  1.8130  0.5578  0.0613
 7332SOL     OW23436   1.927   1.607   1.740  0.5697  0.0547  0.1112
 7332SOL    HW123437   1.995   1.636   1.801  0.2833  1.1205 -0.0547
 7332SOL    HW223438   1.858   1.673   1.748  1.5086  1.6219 -3.0458
 7333SOL     OW23439   3.822   3.434   4.274  0.3268  0.5788 -0.5393
 7333SOL    HW123440   3.806   3.346   4.306 -0.1907  0.9043  0.1230
 7333SOL    HW223441   3.911   3.431   4.239  1.2282  0.3819  1.6270
 7334SOL     OW23442   7.594   0.302   2.001 -0.2655  0.3749 -1.2430
 7334SOL    HW123443   7.573   0.209   2.011  1.0383  0.1116 -0.7850
 7334SOL    HW223444   7.531   0.334   1.937  1.6860 -1.7219 -4.5037
 7335SOL     OW23445   4.402   5.112   7.576  0.7625  0.1976  0.7326
 7335SOL    HW123446   4.344   5.052   7.529  0.5463 -0.9001  2.3374
 7335SOL    HW223447   4.436   5.170   7.508 -1.5992  0.3872 -0.3972
 7336SOL     OW23448   2.259   3.778   0.844  0.0845 -0.0001  0.2629
 7336SOL    HW123449   2.350   3.753   0.864  0.6794  1.1908 -0.8113
 7336SOL    HW223450   2.249   3.758   0.751 -1.1578 -1.2231  0.6411
 7337SOL     OW23451   7.824   2.266   4.877  0.0845  0.0392  0.1874
 7337SOL    HW123452   7.757   2.254   4.945  0.0242 -0.5541  0.0351
 7337SOL    HW223453   7.774   2.283   4.797  0.1799  2.4394  0.5592
 7338SOL     OW23454   3.715   5.322   4.105 -0.1518 -0.4944  0.0476
 7338SOL    HW123455   3.632   5.308   4.152 -0.7473 -0.0214 -0.8259
 7338SOL    HW223456   3.723   5.244   4.050 -0.1790 -0.3883 -0.1050
 7339SOL     OW23457   3.928   1.082   6.323 -0.0885  0.3591  0.0060
 7339SOL    HW123458   3.917   0.987   6.310  1.8182  0.3762 -2.2410
 7339SOL    HW223459   3.888   1.098   6.408 -1.2106 -2.3226  0.1034
 7340SOL     OW23460   7.026   4.827   0.698  0.8025 -0.1781  0.8459
 7340SOL    HW123461   7.082   4.752   0.682 -1.9786 -2.0606 -1.0411
 7340SOL    HW223462   7.022   4.873   0.614 -0.9103 -0.4816  0.7228
 7341SOL     OW23463   6.220   7.798   6.229 -0.5138 -0.6938 -0.0982
 7341SOL    HW123464   6.141   7.772   6.276 -0.0043  0.3786  1.4391
 7341SOL    HW223465   6.218   7.894   6.230  0.5656 -0.6535 -0.4591
 7342SOL     OW23466   0.882   0.162   3.848  0.0401 -0.3749 -0.3853
 7342SOL    HW123467   0.968   0.177   3.889  0.1695 -1.8685 -0.0311
 7342SOL    HW223468   0.844   0.091   3.899 -0.7447 -0.7876 -1.5004
 7343SOL     OW23469   7.977   4.573   4.250 -0.0765 -0.2351  0.0848
 7343SOL    HW123470   7.942   4.493   4.290 -1.2409  0.4480  0.5018
 7343SOL    HW223471   7.917   4.642   4.280  0.5788  0.7030 -0.7176
 7344SOL     OW23472   0.995   6.338   0.523 -0.3995  0.1050  0.0135
 7344SOL    HW123473   1.047   6.417   0.537 -1.5597  0.8206  0.3620
 7344SOL    HW223474   0.922   6.346   0.583  0.1996 -1.9357  1.1069
 7345SOL     OW23475   3.871   1.856   8.329 -0.4556 -0.0070  0.4050
 7345SOL    HW123476   3.932   1.815   8.391  0.3257 -1.4289 -1.2158
 7345SOL    HW223477   3.785   1.839   8.366  0.0344  0.4828  1.8469
 7346SOL     OW23478   3.341   3.417   2.557  0.5034 -0.1100  0.0441
 7346SOL    HW123479   3.400   3.341   2.561 -0.2941 -0.7156  0.6713
 7346SOL    HW223480   3.253   3.379   2.549 -0.0727  0.6696  2.0773
 7347SOL     OW23481   3.992   2.752   1.898  0.4438 -0.0830  0.1836
 7347SOL    HW123482   3.996   2.760   1.993 -1.7426 -0.4249  0.3554
 7347SOL    HW223483   3.951   2.834   1.868  1.6123  0.2682 -0.5499
 7348SOL     OW23484   3.018   5.177   9.157  0.7345  0.1033 -0.0839
 7348SOL    HW123485   2.986   5.178   9.247 -0.5640  1.6367 -0.5106
 7348SOL    HW223486   3.083   5.107   9.155 -0.0779 -0.7532  1.7314
 7349SOL     OW23487   1.905   6.576  11.813 -0.0526 -0.3574 -0.3919
 7349SOL    HW123488   1.894   6.661  11.771  1.3134  0.3145  0.5565
 7349SOL    HW223489   1.841   6.519  11.769 -1.7149  1.3738 -0.3594
 7350SOL     OW23490   2.715   6.081   8.520  0.4364 -0.1698  0.2958
 7350SOL    HW123491   2.739   6.117   8.606  1.7569 -0.0704 -0.0978
 7350SOL    HW223492   2.674   5.997   8.541 -0.6111  0.5107  1.0958
 7351SOL     OW23493   7.738   2.747  12.204  0.3037  0.0015  0.1199
 7351SOL    HW123494   7.814   2.796  12.234  0.4772 -0.5729  0.6234
 7351SOL    HW223495   7.669   2.813  12.196  0.6846  0.4189  0.2534
 7352SOL     OW23496   2.920   6.809   3.683  0.7723 -0.8027  0.0328
 7352SOL    HW123497   2.978   6.795   3.757  0.5877 -0.5660  0.2244
 7352SOL    HW223498   2.833   6.819   3.722  0.6423 -0.8986 -0.2315
 7353SOL     OW23499   4.157   5.281   6.069  0.1094 -0.2285 -0.3626
 7353SOL    HW123500   4.221   5.291   6.000 -0.7033 -0.2335 -1.1376
 7353SOL    HW223501   4.189   5.207   6.121  0.3823 -0.6567 -1.1246
 7354SOL     OW23502   7.074   7.973   1.873  0.2148 -0.5897  0.2567
 7354SOL    HW123503   6.983   7.964   1.845  0.2775 -0.5674  0.0386
 7354SOL    HW223504   7.109   7.884   1.873  0.6033 -0.4628 -1.0978
 7355SOL     OW23505   0.782   5.768  12.460  0.0515  0.1038 -0.3976
 7355SOL    HW123506   0.772   5.854  12.420 -0.2629  0.6003  0.7272
 7355SOL    HW223507   0.875   5.747  12.450 -0.1879 -0.2484 -2.2762
 7356SOL     OW23508   7.704   6.960   6.752 -0.4305 -0.0673 -0.0307
 7356SOL    HW123509   7.725   7.035   6.697  1.1220  0.5662  1.3654
 7356SOL    HW223510   7.610   6.969   6.769 -0.6246  0.5540 -1.2982
 7357SOL     OW23511   1.390   5.249   0.012 -0.5911  0.1759  0.0585
 7357SOL    HW123512   1.303   5.280  -0.016 -0.8114 -0.2713  0.2413
 7357SOL    HW223513   1.386   5.249   0.108 -0.5805 -0.3780  0.0617
 7358SOL     OW23514   1.873   7.048   7.289 -0.0480  0.1694  0.8199
 7358SOL    HW123515   1.812   6.990   7.335 -1.1324  0.7278  0.1417
 7358SOL    HW223516   1.935   7.077   7.356  0.9299 -2.2425  1.0614
 7359SOL     OW23517   2.103   0.748   1.978  0.2483  0.1321  0.1743
 7359SOL    HW123518   2.148   0.766   2.061 -0.6960  0.3976  0.6411
 7359SOL    HW223519   2.013   0.729   2.003  0.3730 -1.7905 -0.6141
 7360SOL     OW23520   1.007   1.400   9.379  0.3084 -0.3856  0.2793
 7360SOL    HW123521   0.950   1.323   9.385  0.7572 -0.6994  0.5235
 7360SOL    HW223522   1.053   1.391   9.296  1.1719 -0.9513  0.8053
 7361SOL     OW23523   0.361   7.662   9.633  0.0725  0.0885 -0.2411
 7361SOL    HW123524   0.376   7.595   9.566  0.8787 -0.4141  0.4170
 7361SOL    HW223525   0.362   7.614   9.716 -1.2226  0.6588  0.1173
 7362SOL     OW23526   6.448   2.347   1.282  0.1396  0.6073  0.6606
 7362SOL    HW123527   6.383   2.409   1.249  0.1173  0.4359  0.3845
 7362SOL    HW223528   6.513   2.403   1.327 -0.6490  0.7064  1.7255
 7363SOL     OW23529   0.933   2.375   4.148  0.3008  0.0732 -0.3814
 7363SOL    HW123530   0.972   2.289   4.135  0.8730  0.1205  0.8104
 7363SOL    HW223531   0.844   2.367   4.113  0.6022 -0.7566 -0.9912
 7364SOL     OW23532   5.407   2.654   3.496 -0.4590 -0.1277 -0.2976
 7364SOL    HW123533   5.331   2.694   3.454  0.8429  2.3593 -0.4817
 7364SOL    HW223534   5.477   2.661   3.432  0.1348 -1.8309  0.0919
 7365SOL     OW23535   4.987   7.795  10.798 -0.6807  0.3093  0.3008
 7365SOL    HW123536   4.990   7.770  10.890  0.1302  0.8541  0.4410
 7365SOL    HW223537   4.962   7.888  10.800 -1.1173  0.2012 -0.0570
 7366SOL     OW23538   1.972   1.131   2.354  0.0503 -0.2904 -0.2001
 7366SOL    HW123539   1.980   1.137   2.259 -3.7166  1.0741 -0.5628
 7366SOL    HW223540   1.920   1.052   2.369 -1.7982  1.0076  0.4686
 7367SOL     OW23541   0.237   2.037   6.817  0.1257  0.0174 -0.3991
 7367SOL    HW123542   0.150   2.053   6.855  1.0527  3.5561  0.5968
 7367SOL    HW223543   0.291   2.009   6.891  0.0760 -1.4007 -0.8659
 7368SOL     OW23544   0.563   0.889   6.875 -0.1166  0.0892 -0.3023
 7368SOL    HW123545   0.631   0.942   6.832  1.8275 -1.3537  0.7836
 7368SOL    HW223546   0.507   0.954   6.919  1.2939  1.3385 -0.2331
 7369SOL     OW23547   4.636   5.399   3.376  0.6537  0.3262 -0.2350
 7369SOL    HW123548   4.719   5.369   3.339  0.3916  0.7500 -1.2233
 7369SOL    HW223549   4.605   5.464   3.312 -1.6634 -1.6313 -1.2289
 7370SOL     OW23550   4.863   4.116   0.928 -0.1878  0.2515 -0.3431
 7370SOL    HW123551   4.931   4.053   0.951 -0.3370  0.2789  0.1727
 7370SOL    HW223552   4.821   4.078   0.850 -0.2825 -0.2921 -0.0323
 7371SOL     OW23553   1.740   5.711   3.819  0.0574  0.0034 -0.0549
 7371SOL    HW123554   1.816   5.653   3.817  0.7080  0.8154 -2.6180
 7371SOL    HW223555   1.731   5.736   3.911  1.8891 -1.3896  0.5554
 7372SOL     OW23556   7.259   5.539   1.568 -0.5334 -0.5704 -0.1240
 7372SOL    HW123557   7.252   5.630   1.596 -1.1688 -0.9432  0.9739
 7372SOL    HW223558   7.313   5.497   1.636  0.6094 -0.8090 -1.1417
 7373SOL     OW23559   7.241   3.968  11.325  0.1141 -0.1101 -0.0015
 7373SOL    HW123560   7.208   3.959  11.415 -0.0293  1.8711  0.1998
 7373SOL    HW223561   7.330   4.002  11.336  0.5158 -0.9399 -0.6097
 7374SOL     OW23562   0.031   5.791   8.097 -0.5578  0.0448 -0.3110
 7374SOL    HW123563   0.003   5.720   8.039 -0.1640  1.1241 -1.8869
 7374SOL    HW223564   0.104   5.754   8.146 -1.3747 -1.1350  0.0865
 7375SOL     OW23565   7.494   3.736   4.283 -0.4314  0.4432  0.1082
 7375SOL    HW123566   7.515   3.663   4.225  1.1692 -0.6468  1.9620
 7375SOL    HW223567   7.578   3.763   4.320 -1.3677  1.2545  1.7411
 7376SOL     OW23568   5.382   7.911   0.720  0.6141 -0.4781 -0.0340
 7376SOL    HW123569   5.366   7.904   0.626  0.0123  2.0479 -0.1762
 7376SOL    HW223570   5.475   7.930   0.728  0.1185  2.5701 -0.4177
 7377SOL     OW23571   2.647   2.426   0.912  0.0611 -0.1201  0.1822
 7377SOL    HW123572   2.586   2.399   0.844  0.7999 -0.1118 -0.5031
 7377SOL    HW223573   2.733   2.416   0.872  0.4772  0.5298  0.8902
 7378SOL     OW23574   6.936   5.728   7.219 -0.0851 -0.3546 -0.1944
 7378SOL    HW123575   6.930   5.653   7.159  0.8288  0.3263 -1.1904
 7378SOL    HW223576   7.029   5.749   7.221 -0.2314  0.2509  0.7231
 7379SOL     OW23577   0.291   4.180   4.766 -0.0260 -0.1013  0.6675
 7379SOL    HW123578   0.385   4.177   4.787 -0.1256  1.4315  1.4763
 7379SOL    HW223579   0.271   4.092   4.733  1.8794 -0.1895 -0.3859
 7380SOL     OW23580   6.907   1.988   1.697 -0.3271  0.1582 -0.6629
 7380SOL    HW123581   6.831   1.994   1.756  0.8258 -1.0159  1.0284
 7380SOL    HW223582   6.927   2.080   1.676 -0.5163  0.6677  1.1737
 7381SOL     OW23583   6.595   4.636   5.634 -0.5624 -0.2070 -0.5827
 7381SOL    HW123584   6.555   4.553   5.606 -1.5609  0.1091 -0.1662
 7381SOL    HW223585   6.684   4.613   5.658 -1.1485 -1.3983  0.6016
 7382SOL     OW23586   5.364   0.700   6.135 -0.4485 -0.6109 -0.5382
 7382SOL    HW123587   5.314   0.667   6.060 -0.2648 -1.6042 -0.2317
 7382SOL    HW223588   5.417   0.771   6.099 -1.4892 -0.0450 -1.0300
 7383SOL     OW23589   1.185   6.954   1.008  0.1892  0.3590  0.1427
 7383SOL    HW123590   1.154   6.900   1.081 -0.4971  1.9470  1.0741
 7383SOL    HW223591   1.252   7.011   1.045 -0.3304  1.3523 -0.3804
 7384SOL     OW23592   3.249   0.173   0.761 -0.5515  0.7354 -0.0794
 7384SOL    HW123593   3.180   0.231   0.728 -0.6082  0.8756  0.2820
 7384SOL    HW223594   3.277   0.213   0.843  0.6038  1.1797 -0.6683
 7385SOL     OW23595   6.449   0.745   7.852  0.0604  0.0486 -0.2752
 7385SOL    HW123596   6.411   0.714   7.769 -2.2830  0.1235  0.6824
 7385SOL    HW223597   6.413   0.833   7.862 -1.9370 -0.9063  2.0365
 7386SOL     OW23598   7.286   1.136  12.238 -0.2806 -0.0986  0.0211
 7386SOL    HW123599   7.228   1.107  12.308 -1.0677 -1.2570 -1.0783
 7386SOL    HW223600   7.227   1.165  12.168  0.4176 -1.8029 -1.3298
 7387SOL     OW23601   5.093   1.815   4.515 -0.2829  0.2684 -0.2025
 7387SOL    HW123602   5.019   1.874   4.502  0.2107  0.8829 -0.2556
 7387SOL    HW223603   5.103   1.811   4.610  0.3759  1.1563 -0.2232
 7388SOL     OW23604   3.430   0.146   4.924 -0.0414 -0.3423 -0.0543
 7388SOL    HW123605   3.424   0.235   4.961 -0.3748 -0.3503 -0.0893
 7388SOL    HW223606   3.484   0.157   4.846  1.5447 -0.4873  0.9596
 7389SOL     OW23607   0.729   5.749   2.083 -0.1753  0.0735  0.2819
 7389SOL    HW123608   0.650   5.696   2.073  0.3692 -0.9127  1.0747
 7389SOL    HW223609   0.700   5.838   2.066 -0.5998 -0.6483 -3.8210
 7390SOL     OW23610   2.041   1.220  10.103  0.3900 -0.2528 -0.1091
 7390SOL    HW123611   1.999   1.160  10.041  1.2944  0.0402 -1.0433
 7390SOL    HW223612   2.079   1.164  10.170 -0.2918 -0.6022 -0.0121
 7391SOL     OW23613   6.626   1.594   0.658 -0.4369 -0.0933  0.3472
 7391SOL    HW123614   6.636   1.619   0.750  3.0746 -2.3226  0.7434
 7391SOL    HW223615   6.540   1.553   0.653 -0.6479 -0.0537  2.6790
 7392SOL     OW23616   6.650   4.328   8.231 -0.6403  0.7624  0.4609
 7392SOL    HW123617   6.703   4.249   8.238  0.7249  1.6943  1.0203
 7392SOL    HW223618   6.576   4.312   8.290 -0.0494  0.1635  1.0543
 7393SOL     OW23619   4.260   3.907   2.924  0.1755  0.1734  0.8360
 7393SOL    HW123620   4.192   3.967   2.892  0.7254 -0.5395 -1.8550
 7393SOL    HW223621   4.229   3.820   2.899  1.3117 -0.2985  1.0178
 7394SOL     OW23622   1.338   3.491   0.786  0.1658 -0.4059  0.6582
 7394SOL    HW123623   1.394   3.500   0.863 -0.0159  0.3597  0.7113
 7394SOL    HW223624   1.310   3.581   0.766 -2.6511 -0.8974  1.8391
 7395SOL     OW23625   4.464   1.852   9.952  0.2782  0.3261  0.3185
 7395SOL    HW123626   4.414   1.866   9.872 -0.5254  0.1969  0.7845
 7395SOL    HW223627   4.425   1.912  10.016  1.5589  1.1567  0.3582
 7396SOL     OW23628   3.883   6.071   7.716 -0.0688 -0.2964  0.4879
 7396SOL    HW123629   3.858   6.039   7.629 -1.1371 -0.4791  0.8499
 7396SOL    HW223630   3.953   6.012   7.743  1.2500  0.5893 -0.7909
 7397SOL     OW23631   4.330   6.242   1.657 -0.0193 -0.6109 -0.1875
 7397SOL    HW123632   4.255   6.210   1.606  0.3739  0.5089 -1.5453
 7397SOL    HW223633   4.405   6.227   1.600  0.4440  0.5741  0.0904
 7398SOL     OW23634   5.441   2.562   1.321 -0.4085  0.3143 -0.0461
 7398SOL    HW123635   5.420   2.586   1.230 -3.0696  0.7180  0.5830
 7398SOL    HW223636   5.464   2.644   1.363 -1.8478  0.5973  0.2454
 7399SOL     OW23637   6.177   3.739   9.163 -0.3638  0.4241  0.0627
 7399SOL    HW123638   6.142   3.651   9.173  0.4137 -0.1682 -1.9224
 7399SOL    HW223639   6.101   3.792   9.138 -1.6003  1.2119  4.5844
 7400SOL     OW23640   2.305   7.227  11.369  0.3493 -0.0123 -0.3010
 7400SOL    HW123641   2.388   7.216  11.322  2.1070 -0.2335  2.6071
 7400SOL    HW223642   2.282   7.138  11.397 -0.1782  0.2143 -0.0107
 7401SOL     OW23643   7.237   2.826  12.306 -0.0143 -0.1464 -0.5581
 7401SOL    HW123644   7.157   2.876  12.290 -0.0167  0.4330  1.0465
 7401SOL    HW223645   7.275   2.867  12.384 -0.0636 -2.6455  0.8910
 7402SOL     OW23646   7.714   7.396   2.465 -0.1102 -0.1841  0.2556
 7402SOL    HW123647   7.623   7.390   2.433 -0.6932  1.1931  1.5268
 7402SOL    HW223648   7.710   7.362   2.554  0.7062 -0.4365  0.1991
 7403SOL     OW23649   7.370   5.244  10.701 -0.6358 -0.1770 -0.0837
 7403SOL    HW123650   7.289   5.246  10.650 -0.2934  0.8553 -0.6207
 7403SOL    HW223651   7.434   5.291  10.646  0.5482 -1.6378 -0.0259
 7404SOL     OW23652   1.046   6.183   0.330 -0.2807 -0.0952  0.1818
 7404SOL    HW123653   1.047   6.241   0.406 -0.0299  2.5261 -1.6556
 7404SOL    HW223654   0.969   6.210   0.281 -1.6053 -3.1124  0.3802
 7405SOL     OW23655   3.805   2.169   0.865  0.1367  0.1222  0.4765
 7405SOL    HW123656   3.786   2.075   0.861  0.0191  0.1212  1.0552
 7405SOL    HW223657   3.784   2.201   0.777 -0.2289 -0.3154  0.4020
 7406SOL     OW23658   4.403   4.032   4.299 -0.6679  0.5259  0.0835
 7406SOL    HW123659   4.335   4.060   4.360 -1.1270  1.6671 -0.9029
 7406SOL    HW223660   4.414   4.107   4.240  1.2242  0.2561  0.0237
 7407SOL     OW23661   0.438   3.054   5.728  0.4920  0.2486 -0.5046
 7407SOL    HW123662   0.436   2.993   5.654 -0.4686  0.3862 -0.6051
 7407SOL    HW223663   0.490   3.009   5.795 -0.0642 -0.6074 -0.6416
 7408SOL     OW23664   5.284   1.381   1.453  0.0206 -0.3233 -0.0369
 7408SOL    HW123665   5.323   1.358   1.368  0.5195  1.3538 -0.2986
 7408SOL    HW223666   5.211   1.439   1.430  1.9966  2.6847  0.7238
 7409SOL     OW23667   0.984   0.739   8.725 -0.1081  0.1170  0.5997
 7409SOL    HW123668   0.899   0.745   8.682  0.8779 -0.9078 -1.6400
 7409SOL    HW223669   1.016   0.829   8.727 -0.4919  0.2774 -0.1427
 7410SOL     OW23670   2.879   1.499   9.961 -0.2127  0.7614  0.6057
 7410SOL    HW123671   2.937   1.499   9.884 -2.4592  1.6752 -1.2171
 7410SOL    HW223672   2.908   1.574  10.012 -0.1666  1.6170 -0.6247
 7411SOL     OW23673   1.126   0.796   4.404 -0.6062  0.5279  0.3447
 7411SOL    HW123674   1.078   0.715   4.421 -0.3158  0.4781  0.9611
 7411SOL    HW223675   1.130   0.840   4.489  1.9339 -0.2977  0.7572
 7412SOL     OW23676   7.912   5.279   3.379 -0.3256  0.0679  0.2179
 7412SOL    HW123677   7.843   5.254   3.439 -0.1469  1.1991  0.9347
 7412SOL    HW223678   7.871   5.342   3.320 -0.3101 -0.4797 -0.3883
 7413SOL     OW23679   3.967   1.444   8.215  0.3547  0.1865  0.2202
 7413SOL    HW123680   4.054   1.439   8.176  0.6672  1.4604  0.6971
 7413SOL    HW223681   3.912   1.482   8.146  0.4832  0.6314  0.3569
 7414SOL     OW23682   3.072   0.509   3.521 -0.2233  0.3502  0.4714
 7414SOL    HW123683   3.073   0.418   3.553  1.5880  0.2866  0.3422
 7414SOL    HW223684   3.091   0.501   3.427 -0.2937  0.8420  0.4167
 7415SOL     OW23685   5.527   4.267   1.013  0.2585 -0.2212  0.7046
 7415SOL    HW123686   5.483   4.281   1.097 -0.8412  0.5326  0.0255
 7415SOL    HW223687   5.468   4.209   0.964  1.7197 -2.1129  1.0656
 7416SOL     OW23688   4.509   4.255   6.919  0.0304 -0.0325 -0.3409
 7416SOL    HW123689   4.570   4.215   6.857  0.8323 -1.6950  1.4405
 7416SOL    HW223690   4.426   4.210   6.902  0.5802 -1.5183  0.6531
 7417SOL     OW23691   4.840   3.785   8.259 -0.4497  1.1341  0.5134
 7417SOL    HW123692   4.761   3.782   8.312 -0.4816 -1.1445  0.4140
 7417SOL    HW223693   4.893   3.711   8.289  0.9225  1.6393 -0.5353
 7418SOL     OW23694   6.850   4.759   8.498  0.7617 -0.6396  0.0356
 7418SOL    HW123695   6.874   4.768   8.406  0.6228 -0.4760  0.0164
 7418SOL    HW223696   6.900   4.826   8.543  1.5415 -1.3141  0.2045
 7419SOL     OW23697   0.537   0.543   4.289  0.3766 -0.5601 -0.1151
 7419SOL    HW123698   0.464   0.549   4.350 -0.0579 -1.3286 -0.5428
 7419SOL    HW223699   0.526   0.458   4.246  1.3291 -0.5353 -0.4322
 7420SOL     OW23700   0.052   6.822   0.500 -1.0651  0.1291 -0.6844
 7420SOL    HW123701   0.031   6.906   0.461  0.1426  1.1491  0.7501
 7420SOL    HW223702   0.064   6.763   0.426 -1.8371  1.2327 -1.7147
 7421SOL     OW23703   6.635   5.697   0.520 -0.1255 -0.3748 -0.8431
 7421SOL    HW123704   6.690   5.631   0.477  0.0586 -0.4881 -0.4393
 7421SOL    HW223705   6.643   5.677   0.613  0.3004  0.5050 -0.6795
 7422SOL     OW23706   2.160   2.919  10.078 -0.0014  0.2060  0.0170
 7422SOL    HW123707   2.103   2.991  10.105 -1.9885 -0.8765 -0.9963
 7422SOL    HW223708   2.224   2.910  10.148 -0.9549  1.6459  1.1224
 7423SOL     OW23709   0.034   4.550   8.340  0.1039  0.4075  0.8841
 7423SOL    HW123710   0.079   4.555   8.424 -0.2174 -2.0395  1.2747
 7423SOL    HW223711   0.056   4.463   8.306  0.0776  1.2437 -1.5156
 7424SOL     OW23712   1.974   3.804   8.980 -0.4399 -0.3973 -0.0687
 7424SOL    HW123713   1.909   3.755   9.031 -0.5218 -0.5012 -0.2697
 7424SOL    HW223714   1.924   3.873   8.938 -0.3970 -0.3931 -0.1133
 7425SOL     OW23715   4.672   2.544   7.524 -0.0633  0.4080 -0.0650
 7425SOL    HW123716   4.762   2.512   7.517  0.3391  1.5036 -0.0865
 7425SOL    HW223717   4.619   2.465   7.531  0.9153 -0.2478  0.1227
 7426SOL     OW23718   0.116   6.491   6.964 -0.2252  0.3154 -0.0433
 7426SOL    HW123719   0.160   6.422   6.915 -0.5938  0.4312 -0.5371
 7426SOL    HW223720   0.114   6.458   7.054 -0.0132 -0.1233 -0.1957
 7427SOL     OW23721   5.360   7.892   0.443 -0.1314  0.1081 -0.0165
 7427SOL    HW123722   5.316   7.869   0.361 -0.2017  2.1228 -0.6186
 7427SOL    HW223723   5.446   7.851   0.436 -0.1101  0.2932 -1.1618
 7428SOL     OW23724   1.256   6.490   1.063 -0.1347 -0.7854  0.5881
 7428SOL    HW123725   1.350   6.498   1.080  0.1045 -0.0620 -0.8677
 7428SOL    HW223726   1.241   6.547   0.987 -0.8449 -4.4000 -2.2591
 7429SOL     OW23727   7.314   1.158   6.171  0.2743 -0.3005  0.1420
 7429SOL    HW123728   7.312   1.212   6.250  0.4689 -1.2496  0.8103
 7429SOL    HW223729   7.357   1.077   6.198 -0.2252 -0.8911 -0.7821
 7430SOL     OW23730   4.272   0.809   3.031  0.2620 -0.1397  0.0319
 7430SOL    HW123731   4.296   0.746   2.962 -0.4605 -0.2736 -0.1003
 7430SOL    HW223732   4.353   0.857   3.048  0.5801 -0.4588 -0.5463
 7431SOL     OW23733   3.140   5.229  11.876 -0.7272 -0.1483  0.8748
 7431SOL    HW123734   3.227   5.268  11.886 -0.3899 -1.0694  1.5859
 7431SOL    HW223735   3.088   5.270  11.945 -0.8829  0.4304  0.4269
 7432SOL     OW23736   1.730   6.493   2.792  0.3971  0.2061 -0.0626
 7432SOL    HW123737   1.804   6.535   2.750  0.7437 -0.8791 -0.5780
 7432SOL    HW223738   1.720   6.539   2.875  1.5376  0.4713 -0.0625
 7433SOL     OW23739   5.912   2.268   3.678 -0.0065 -0.0866  0.4933
 7433SOL    HW123740   5.976   2.252   3.747 -1.0608  0.2356  1.5862
 7433SOL    HW223741   5.880   2.357   3.694  0.5580  0.4523 -1.1302
 7434SOL     OW23742   0.452   4.950   3.457 -0.0036 -0.4770 -0.3665
 7434SOL    HW123743   0.451   5.045   3.448 -0.6774 -0.0648  2.9124
 7434SOL    HW223744   0.449   4.918   3.367  0.3012  2.5705 -1.5853
 7435SOL     OW23745   7.651   7.062   2.547 -0.1093 -0.2248  0.3374
 7435SOL    HW123746   7.634   6.968   2.551 -1.6796 -0.0536 -1.2095
 7435SOL    HW223747   7.679   7.078   2.457  3.8729  0.3051  1.4717
 7436SOL     OW23748   0.770   6.688   7.357  0.0145  0.4624 -0.0476
 7436SOL    HW123749   0.702   6.652   7.414 -0.6375  0.3924 -0.8558
 7436SOL    HW223750   0.851   6.644   7.385 -0.2823  0.4598  0.8404
 7437SOL     OW23751   4.502   0.581   1.526  0.4620 -0.9592 -0.3321
 7437SOL    HW123752   4.427   0.524   1.509  1.7136 -2.6575 -0.4350
 7437SOL    HW223753   4.466   0.654   1.575 -1.0414 -2.4017  0.8342
 7438SOL     OW23754   6.990   4.929   5.598 -0.0282  0.0780  0.0926
 7438SOL    HW123755   7.012   4.836   5.590  2.0943  0.6503 -1.3406
 7438SOL    HW223756   6.992   4.946   5.693 -3.0832 -1.8350  0.6417
 7439SOL     OW23757   5.887   4.290   9.775 -1.0045 -0.4914 -1.4553
 7439SOL    HW123758   5.980   4.281   9.753 -0.6016  0.2403 -0.1591
 7439SOL    HW223759   5.865   4.209   9.820 -0.1374  0.5313  0.9660
 7440SOL     OW23760   0.137   1.567   0.256  0.1339  0.0522  0.6415
 7440SOL    HW123761   0.163   1.628   0.325 -1.3380 -0.6298  1.8671
 7440SOL    HW223762   0.041   1.571   0.257  0.0734 -0.8959 -0.5381
 7441SOL     OW23763   2.320   1.948   2.893  0.0668 -0.1991 -0.7352
 7441SOL    HW123764   2.415   1.948   2.882  0.4115  0.9590  1.7130
 7441SOL    HW223765   2.299   1.857   2.917  0.8664 -0.0338  0.6967
 7442SOL     OW23766   1.625   0.757   4.977 -0.5689  0.0602 -0.5305
 7442SOL    HW123767   1.685   0.818   5.020  0.4005 -0.9972 -0.3374
 7442SOL    HW223768   1.663   0.742   4.891 -0.9378 -0.0790 -0.6702
 7443SOL     OW23769   3.985   1.242   0.108 -0.2733 -0.0338  0.2448
 7443SOL    HW123770   4.010   1.251   0.199 -1.3746  1.2414  0.4518
 7443SOL    HW223771   3.994   1.148   0.089  1.7322 -0.0626  1.0976
 7444SOL     OW23772   0.573   4.177   4.803  0.5769 -0.5033 -0.1650
 7444SOL    HW123773   0.617   4.141   4.880 -1.4123  0.7963  1.6953
 7444SOL    HW223774   0.620   4.260   4.786 -0.1800  0.1679  0.9093
 7445SOL     OW23775   5.796   4.557   9.421 -0.2073 -0.1345  0.3153
 7445SOL    HW123776   5.753   4.632   9.461  2.0005 -0.2769  3.3203
 7445SOL    HW223777   5.784   4.486   9.484  3.4111 -0.3923  0.9209
 7446SOL     OW23778   0.856   7.372   9.340  0.0333 -0.3903 -0.5035
 7446SOL    HW123779   0.799   7.426   9.285  0.4007  0.2494 -0.2628
 7446SOL    HW223780   0.899   7.313   9.278  2.2518  1.8945 -1.3003
 7447SOL     OW23781   7.546   6.329   0.694 -0.0688  0.1842 -0.1163
 7447SOL    HW123782   7.579   6.319   0.783 -1.0348  2.6302  0.6155
 7447SOL    HW223783   7.569   6.248   0.650 -0.2522 -1.4540  2.5848
 7448SOL     OW23784   0.146   5.447   2.178 -0.1930 -0.1498  0.9303
 7448SOL    HW123785   0.100   5.437   2.261 -1.2828  2.5203  0.7347
 7448SOL    HW223786   0.194   5.529   2.187  1.5821 -0.9921 -0.2645
 7449SOL     OW23787   0.652   3.543   6.865  0.1753  0.5780  0.1911
 7449SOL    HW123788   0.746   3.557   6.879  0.5605  0.5044 -1.9611
 7449SOL    HW223789   0.619   3.628   6.837 -0.0092  0.1928 -0.8116
 7450SOL     OW23790   5.327   4.438   0.124  0.1986 -0.1527 -0.2643
 7450SOL    HW123791   5.333   4.386   0.044  0.7823 -1.9102  0.8634
 7450SOL    HW223792   5.392   4.507   0.114 -0.7021  0.5153 -1.8650
 7451SOL     OW23793   7.631   4.564   9.251 -0.1458  0.5352  0.0247
 7451SOL    HW123794   7.564   4.601   9.308 -2.3326 -0.7015 -1.5726
 7451SOL    HW223795   7.651   4.632   9.187 -0.7285  0.5279 -0.1631
 7452SOL     OW23796   3.845   7.299   0.051 -0.2318 -0.0338 -0.2238
 7452SOL    HW123797   3.818   7.353   0.125 -1.2071  1.2938 -1.5042
 7452SOL    HW223798   3.928   7.338   0.021  0.7584 -1.2519  0.8086
 7453SOL     OW23799   0.991   0.936   0.137 -0.1640 -0.5656 -0.0838
 7453SOL    HW123800   1.044   0.963   0.213 -1.1170  0.8362  0.1201
 7453SOL    HW223801   0.976   0.843   0.151 -1.6568 -0.0530  2.3383
 7454SOL     OW23802   6.908   7.526   9.145 -0.7508 -0.1041 -0.6335
 7454SOL    HW123803   6.909   7.431   9.156 -0.7088  0.0303  0.7240
 7454SOL    HW223804   6.880   7.559   9.231 -1.7644  1.0694 -1.3832
 7455SOL     OW23805   2.087   5.052   0.882 -0.0153 -0.4434 -0.1837
 7455SOL    HW123806   2.139   4.979   0.914  0.7273 -0.0820 -0.5403
 7455SOL    HW223807   2.026   5.013   0.820  0.3641 -0.7712 -0.3577
 7456SOL     OW23808   5.781   5.392   5.270  0.0474  0.2252 -0.1621
 7456SOL    HW123809   5.781   5.441   5.188 -0.0698  1.4560  0.5559
 7456SOL    HW223810   5.748   5.453   5.335 -1.5494 -1.2589  0.5160
 7457SOL     OW23811   7.006   5.135   5.423 -0.4533  0.4354 -0.0629
 7457SOL    HW123812   6.987   5.046   5.454 -0.1826 -1.0047 -3.5252
 7457SOL    HW223813   6.925   5.184   5.436 -0.7837 -0.4415  1.4049
 7458SOL     OW23814   0.092   7.129  10.750  0.0788  0.3587  0.3046
 7458SOL    HW123815   0.050   7.093  10.829  0.7781  0.9852  0.9836
 7458SOL    HW223816   0.148   7.199  10.783 -1.4926  2.3088 -1.0154
 7459SOL     OW23817   4.966   6.459   1.451 -0.5093  0.5974  0.2058
 7459SOL    HW123818   4.936   6.517   1.521  0.0095 -0.4516  1.3184
 7459SOL    HW223819   5.017   6.516   1.393 -0.8768  1.4591  0.7155
 7460SOL     OW23820   6.975   2.598   3.941 -0.0609 -0.6187  0.1450
 7460SOL    HW123821   6.903   2.659   3.952  0.6158 -0.0231  1.6671
 7460SOL    HW223822   6.940   2.527   3.887 -1.8462 -0.4485  1.0235
 7461SOL     OW23823   0.253   3.518   1.537 -0.3780 -0.1341 -0.3130
 7461SOL    HW123824   0.228   3.601   1.578  0.9714  0.1334  0.0510
 7461SOL    HW223825   0.190   3.454   1.570 -0.6372  0.5075  0.4563
 7462SOL     OW23826   5.214   1.532  11.420  0.0895 -0.9012  0.0350
 7462SOL    HW123827   5.304   1.524  11.389  0.3170  0.1267  0.4139
 7462SOL    HW223828   5.220   1.588  11.498 -1.2111  1.7374 -1.6348
 7463SOL     OW23829   0.054   4.960   4.329 -0.1849 -0.5579  0.3758
 7463SOL    HW123830   0.020   4.933   4.414  0.2112 -0.6506  0.5084
 7463SOL    HW223831   0.056   5.056   4.334 -0.2887 -0.5574  0.4190
 7464SOL     OW23832   2.959   7.955   2.574  0.2368  0.0378  0.0967
 7464SOL    HW123833   2.961   7.964   2.669  1.2435  0.3318  0.0672
 7464SOL    HW223834   3.051   7.964   2.548 -0.0669  0.3009 -0.9275
 7465SOL     OW23835   6.609   4.576   2.928  0.0548  0.5080  0.3060
 7465SOL    HW123836   6.628   4.512   2.998  1.9599 -0.1406 -0.7341
 7465SOL    HW223837   6.571   4.524   2.858 -0.0687  0.8199  0.1410
 7466SOL     OW23838   0.639   3.288   3.434  0.8684 -0.4120  0.2461
 7466SOL    HW123839   0.604   3.239   3.359 -0.2657 -0.9753  1.1192
 7466SOL    HW223840   0.705   3.346   3.396  0.4807 -0.8533 -1.1555
 7467SOL     OW23841   1.681   1.826   0.115  0.2057  0.0446 -0.1067
 7467SOL    HW123842   1.589   1.852   0.108  0.0566  0.4520  2.3581
 7467SOL    HW223843   1.722   1.897   0.164  1.3888 -1.0089  0.4947
 7468SOL     OW23844   2.000   5.162  10.895 -0.2023 -0.5518 -0.3824
 7468SOL    HW123845   2.030   5.252  10.883 -1.5748  0.1056  0.8020
 7468SOL    HW223846   1.969   5.135  10.808 -2.2985  1.1265 -0.2346
 7469SOL     OW23847   6.572   2.335   7.789  0.0153  0.1516 -0.1938
 7469SOL    HW123848   6.621   2.353   7.869  1.0970 -0.9335 -0.5772
 7469SOL    HW223849   6.493   2.290   7.819 -0.2648  0.9717  0.3496
 7470SOL     OW23850   4.226   6.353   5.836 -0.1872  0.8237  0.0667
 7470SOL    HW123851   4.189   6.362   5.924 -0.8786  0.6398 -0.1973
 7470SOL    HW223852   4.269   6.268   5.836 -1.2029  0.2926 -0.1255
 7471SOL     OW23853   0.039   2.635   7.003 -0.3791  0.9804  0.1304
 7471SOL    HW123854   0.027   2.721   6.962  2.3850  1.4783  0.1989
 7471SOL    HW223855   0.099   2.588   6.945 -2.1106 -1.1191 -0.0939
 7472SOL     OW23856   2.430   7.412   6.092  0.3403  0.1445  0.0111
 7472SOL    HW123857   2.416   7.341   6.030 -0.1884  1.3052 -1.2405
 7472SOL    HW223858   2.362   7.401   6.158  1.9058 -2.0827  1.3983
 7473SOL     OW23859   4.795   2.318   5.989  0.0650  0.3949  0.5742
 7473SOL    HW123860   4.701   2.334   5.999  0.2308  1.2596  0.8150
 7473SOL    HW223861   4.803   2.222   5.987 -0.7757  0.3102  0.9219
 7474SOL     OW23862   7.487   3.835  11.039 -0.4766  0.0955 -0.1722
 7474SOL    HW123863   7.562   3.827  10.981 -0.6656  0.3989 -0.4644
 7474SOL    HW223864   7.471   3.747  11.071  0.5994  0.1731  0.6489
 7475SOL     OW23865   0.460   2.003   4.545 -0.0530 -0.1835 -0.2455
 7475SOL    HW123866   0.468   2.004   4.641  0.8210 -0.6035 -0.3070
 7475SOL    HW223867   0.373   2.039   4.528  0.3805  1.3669  0.6271
 7476SOL     OW23868   4.910   1.104  10.429 -0.0172  0.2704 -0.6283
 7476SOL    HW123869   5.000   1.072  10.440 -0.2586  0.4345  3.1698
 7476SOL    HW223870   4.912   1.192  10.465 -1.8197  0.0275  0.1315
 7477SOL     OW23871   1.452   3.854   5.024  0.1292  0.2253 -0.4841
 7477SOL    HW123872   1.426   3.798   5.097  1.6691  0.8724  0.6110
 7477SOL    HW223873   1.480   3.793   4.955  0.3105 -0.3770  0.1124
 7478SOL     OW23874   1.426   5.757   4.686  0.3602  0.1190 -0.0980
 7478SOL    HW123875   1.467   5.684   4.640  0.8815  1.0153 -1.0942
 7478SOL    HW223876   1.471   5.760   4.771  0.4508 -0.5922 -0.1120
 7479SOL     OW23877   7.714   3.136  10.335  0.2963 -0.3832 -0.4367
 7479SOL    HW123878   7.698   3.193  10.260  3.4642 -0.1438 -1.1098
 7479SOL    HW223879   7.691   3.049  10.304 -2.1194  0.1504 -0.2864
 7480SOL     OW23880   1.764   0.082   0.147 -0.0489  0.1889  0.3230
 7480SOL    HW123881   1.758   0.169   0.109 -0.0131  0.1056  0.1266
 7480SOL    HW223882   1.722   0.090   0.233 -0.7214  0.2191 -0.0015
 7481SOL     OW23883   6.220   2.345   1.827  0.0867  0.1559  0.0252
 7481SOL    HW123884   6.151   2.400   1.791 -0.0172  0.4369  0.6463
 7481SOL    HW223885   6.193   2.255   1.806 -1.5353  0.1106  2.0403
 7482SOL     OW23886   3.029   0.520   2.999  0.1552 -0.2287  0.6200
 7482SOL    HW123887   3.011   0.558   2.913  0.9535  3.5947  1.9331
 7482SOL    HW223888   2.942   0.505   3.038 -0.1901 -0.3383 -0.1779
 7483SOL     OW23889   6.867   1.681  11.977 -0.2475 -0.5502 -0.2556
 7483SOL    HW123890   6.837   1.625  12.049 -0.3541  0.9863  0.9488
 7483SOL    HW223891   6.868   1.623  11.900  1.1715 -2.6166  1.1978
 7484SOL     OW23892   6.690   2.456   4.937 -0.0590 -0.0881 -0.0670
 7484SOL    HW123893   6.771   2.413   4.963 -0.5321 -1.2874 -0.4884
 7484SOL    HW223894   6.706   2.485   4.847 -0.3675 -1.1357 -0.4863
 7485SOL     OW23895   5.275   3.370  11.340  0.0845 -0.2698 -0.0434
 7485SOL    HW123896   5.236   3.452  11.371  0.5851  0.0661 -0.2908
 7485SOL    HW223897   5.361   3.367  11.382  0.6601  0.0496 -1.1476
 7486SOL     OW23898   4.096   0.839   7.519  0.3173 -0.3918  0.2554
 7486SOL    HW123899   4.189   0.823   7.509  0.0702 -1.8329  0.0897
 7486SOL    HW223900   4.071   0.887   7.440  0.9794  0.3505  0.4878
 7487SOL     OW23901   3.766   0.590   2.997  0.2504  0.2230  0.1757
 7487SOL    HW123902   3.768   0.610   3.090 -0.5756  0.2467  0.1922
 7487SOL    HW223903   3.683   0.546   2.983  1.2122 -1.5465 -0.2139
 7488SOL     OW23904   5.409   1.506   4.857  0.2992  0.2531  0.0858
 7488SOL    HW123905   5.325   1.512   4.812 -1.7065  1.6753  3.5775
 7488SOL    HW223906   5.386   1.477   4.945  3.7339 -0.9993  0.7029
 7489SOL     OW23907   3.025   5.214  10.761 -0.3753  0.5546  0.0694
 7489SOL    HW123908   2.997   5.235  10.850  1.8953  0.7154  0.8259
 7489SOL    HW223909   3.120   5.208  10.767 -0.0527  1.5620 -2.5675
 7490SOL     OW23910   2.712   3.996   9.290  0.3403  0.8362 -0.0250
 7490SOL    HW123911   2.689   3.912   9.329  0.8687  1.1064  0.8907
 7490SOL    HW223912   2.727   4.054   9.365  0.3057  1.6601 -0.6409
 7491SOL     OW23913   5.280   1.349  12.423 -0.2112 -0.0138 -0.1465
 7491SOL    HW123914   5.258   1.442  12.422  1.2569  0.3618 -0.0443
 7491SOL    HW223915   5.324   1.336  12.507 -0.9415 -0.9386  0.1005
 7492SOL     OW23916   5.639   0.235   3.190  0.7121  0.2457  0.5893
 7492SOL    HW123917   5.544   0.229   3.196  0.6049 -0.3722 -1.3412
 7492SOL    HW223918   5.660   0.318   3.233 -0.5826 -0.0530  1.8655
 7493SOL     OW23919   7.551   0.599   4.981  0.2767  0.4579 -0.2525
 7493SOL    HW123920   7.499   0.556   5.049  2.0583 -0.3726  0.6590
 7493SOL    HW223921   7.612   0.531   4.951  0.6638  1.3049 -1.4768
 7494SOL     OW23922   7.434   2.224  12.254 -0.0258 -0.0423  0.1008
 7494SOL    HW123923   7.422   2.139  12.213 -0.9220  0.1758 -0.1179
 7494SOL    HW223924   7.349   2.244  12.294  0.3283  0.5098  0.5946
 7495SOL     OW23925   4.890   2.329   9.710  0.2443 -0.1448  0.1146
 7495SOL    HW123926   4.882   2.424   9.713 -0.5413 -0.0685 -2.2456
 7495SOL    HW223927   4.876   2.306   9.618  1.1555 -2.4953  0.4762
 7496SOL     OW23928   5.271   0.435   2.289  0.0847 -0.4328 -0.2454
 7496SOL    HW123929   5.232   0.504   2.344  0.8523 -0.0089 -0.2150
 7496SOL    HW223930   5.353   0.414   2.333 -0.4593 -1.8710  0.1178
 7497SOL     OW23931   5.323   5.119   8.220 -0.1554 -0.2234 -0.0944
 7497SOL    HW123932   5.286   5.044   8.174 -1.3040  0.8658 -0.9913
 7497SOL    HW223933   5.296   5.195   8.169  0.4522  0.8649  1.1433
 7498SOL     OW23934   1.532   5.142   9.026 -0.5414 -0.0815  0.1183
 7498SOL    HW123935   1.627   5.155   9.035 -0.3845 -0.4918 -0.8006
 7498SOL    HW223936   1.498   5.155   9.114  0.3466  0.2867  0.4229
 7499SOL     OW23937   3.600   4.955  11.706  0.2705 -0.1045  0.1115
 7499SOL    HW123938   3.619   5.043  11.738 -0.1546  0.2814 -0.6618
 7499SOL    HW223939   3.645   4.950  11.622 -0.3467 -0.3382 -0.2102
 7500SOL     OW23940   3.716   7.597   7.591 -0.0677  0.1009  0.2050
 7500SOL    HW123941   3.626   7.569   7.578 -0.3369  1.0072  0.0033
 7500SOL    HW223942   3.724   7.678   7.540  1.0292 -0.2689 -0.2542
 7501SOL     OW23943   6.459   6.567   6.622  0.1601  0.0788  0.0743
 7501SOL    HW123944   6.383   6.560   6.679 -0.8305  3.5633 -0.6003
 7501SOL    HW223945   6.424   6.557   6.534  0.8316 -0.3026 -0.1541
 7502SOL     OW23946   0.538   7.769   6.819  0.3427  0.1757 -0.2830
 7502SOL    HW123947   0.549   7.849   6.871  2.6662 -0.5721  0.5000
 7502SOL    HW223948   0.484   7.712   6.873 -0.8623  0.9565 -0.6088
 7503SOL     OW23949   0.725   7.718   3.792  0.3626  0.1075 -0.3841
 7503SOL    HW123950   0.690   7.806   3.782  0.3873 -0.0464 -2.1927
 7503SOL    HW223951   0.749   7.692   3.703 -0.1281 -1.9263  0.0382
 7504SOL     OW23952   1.686   1.786   7.985  0.1554 -0.0949 -0.0911
 7504SOL    HW123953   1.652   1.713   7.933  0.5765 -1.1678  1.0805
 7504SOL    HW223954   1.742   1.744   8.050  2.4162  1.4776 -0.9241
 7505SOL     OW23955   7.163   1.529   3.759 -0.0226 -0.7148 -0.7565
 7505SOL    HW123956   7.165   1.625   3.767  0.9552 -0.4821 -3.1225
 7505SOL    HW223957   7.251   1.505   3.731 -0.9799 -1.9972 -2.8821
 7506SOL     OW23958   3.433   3.060  12.203 -0.1188 -0.3192 -0.1495
 7506SOL    HW123959   3.525   3.036  12.214  0.6411  1.7055 -1.4902
 7506SOL    HW223960   3.426   3.083  12.110 -1.7170  0.5736  0.1565
 7507SOL     OW23961   0.761   3.137   5.909 -0.1247  0.0247 -0.0749
 7507SOL    HW123962   0.802   3.132   5.822 -0.4279 -1.7373 -0.1499
 7507SOL    HW223963   0.705   3.060   5.913  0.5140 -0.3816  2.0236
 7508SOL     OW23964   4.354   7.087  11.190  0.4958 -0.2204 -0.0337
 7508SOL    HW123965   4.266   7.051  11.196  0.1058  0.7294  0.1928
 7508SOL    HW223966   4.371   7.095  11.096 -0.1659  0.7358 -0.0916
 7509SOL     OW23967   5.745   1.701  10.436 -0.0912  0.4199 -0.1739
 7509SOL    HW123968   5.663   1.663  10.405  0.8950 -0.5312 -1.7321
 7509SOL    HW223969   5.757   1.665  10.524 -2.0424  1.7593  0.7341
 7510SOL     OW23970   7.923   1.052  11.349  0.0772  0.4262 -0.7292
 7510SOL    HW123971   7.912   1.143  11.373 -0.8011  0.2400 -0.3894
 7510SOL    HW223972   7.999   1.052  11.289 -0.3267  1.4598 -1.2681
 7511SOL     OW23973   3.913   6.025   4.083 -0.3135  0.5425 -0.7362
 7511SOL    HW123974   3.999   6.011   4.042 -0.5029 -1.1402 -0.6194
 7511SOL    HW223975   3.851   6.023   4.011 -0.3996  0.1360 -0.6552
 7512SOL     OW23976   0.783   2.096   3.321 -0.3613  0.2887  0.0864
 7512SOL    HW123977   0.878   2.087   3.312 -0.2276  0.3484  1.2583
 7512SOL    HW223978   0.771   2.186   3.352 -0.8170  0.3125 -0.1513
 7513SOL     OW23979   1.976   7.702   0.719 -0.4821 -0.4054 -0.0444
 7513SOL    HW123980   1.913   7.700   0.792  0.6415  0.4646  0.9916
 7513SOL    HW223981   1.952   7.781   0.670 -0.6458 -0.4628 -0.0570
 7514SOL     OW23982   6.814   2.833   3.996  0.8742 -0.1544  0.0064
 7514SOL    HW123983   6.750   2.867   4.059 -1.1842 -1.7824 -1.0617
 7514SOL    HW223984   6.768   2.835   3.912  1.5339 -2.9994 -0.5366
 7515SOL     OW23985   4.101   3.882   3.522 -0.2543  0.6007  0.5609
 7515SOL    HW123986   4.136   3.879   3.612 -1.0350 -1.4553  0.8560
 7515SOL    HW223987   4.020   3.831   3.527 -0.2864  0.4176 -1.3283
 7516SOL     OW23988   0.385   3.575  10.696  0.9028 -0.4269 -0.2411
 7516SOL    HW123989   0.407   3.634  10.625 -1.1487  2.0287  1.0072
 7516SOL    HW223990   0.431   3.610  10.772 -0.9755  0.1696  0.6915
 7517SOL     OW23991   7.913   4.673   9.810 -0.1979 -0.1058 -0.6161
 7517SOL    HW123992   7.844   4.681   9.743 -0.6113 -2.5865 -0.5775
 7517SOL    HW223993   7.993   4.698   9.765 -0.7311  0.0135 -1.5290
 7518SOL     OW23994   7.817   7.785  11.207  0.1732  0.4586 -0.3831
 7518SOL    HW123995   7.879   7.716  11.183  0.5727  1.0285 -1.0245
 7518SOL    HW223996   7.864   7.838  11.272 -1.1706 -1.5174  2.4068
 7519SOL     OW23997   5.537   1.964   3.803 -0.4171 -0.0157 -0.2600
 7519SOL    HW123998   5.517   2.005   3.886 -1.6462 -1.4980  0.2221
 7519SOL    HW223999   5.472   1.999   3.742 -0.9883 -0.6667 -0.0300
 7520SOL     OW24000   2.169   6.331  11.076 -0.0680 -0.5191  0.0082
 7520SOL    HW124001   2.167   6.250  11.127 -0.5517  0.2476  1.2782
 7520SOL    HW224002   2.101   6.319  11.010  0.3152 -1.4001 -0.2404
 7521SOL     OW24003   0.816   0.114  11.846 -0.0921 -0.0158  0.5889
 7521SOL    HW124004   0.729   0.085  11.874 -0.8109  1.8778  0.4652
 7521SOL    HW224005   0.801   0.153  11.760  0.8005  0.7120  0.7567
 7522SOL     OW24006   5.909   7.201  10.447  0.4861  0.2387 -0.3986
 7522SOL    HW124007   5.972   7.135  10.420  0.7647 -0.4346  1.7172
 7522SOL    HW224008   5.951   7.285  10.426  2.3140 -0.1810  1.2885
 7523SOL     OW24009   5.386   5.947  11.806  0.5734 -0.1455  0.3634
 7523SOL    HW124010   5.340   5.864  11.793  1.1461 -0.2701 -1.0158
 7523SOL    HW224011   5.456   5.947  11.741 -0.2236  2.0097 -0.6066
 7524SOL     OW24012   3.851   2.519   6.246 -0.2060  0.2128 -0.3079
 7524SOL    HW124013   3.902   2.473   6.312  0.6446 -1.2738 -1.9410
 7524SOL    HW224014   3.910   2.587   6.214  0.1034 -0.3198 -0.8895
 7525SOL     OW24015   5.800   2.806   0.083  0.7278  0.2679  0.0259
 7525SOL    HW124016   5.883   2.838   0.119  0.2137  1.1425  0.4686
 7525SOL    HW224017   5.755   2.885   0.053  0.9889 -0.3798 -2.3071
 7526SOL     OW24018   0.930   1.126   6.996 -0.2852 -0.5531  0.2738
 7526SOL    HW124019   0.909   1.205   7.046 -1.2654 -0.7792  0.2346
 7526SOL    HW224020   1.020   1.140   6.968 -0.5495  0.7174 -0.0295
 7527SOL     OW24021   3.841   1.595   7.134 -0.2664  0.1703  0.0744
 7527SOL    HW124022   3.808   1.662   7.194 -0.0432  0.3659 -0.0212
 7527SOL    HW224023   3.892   1.536   7.190 -0.2355  0.2332  0.1128
 7528SOL     OW24024   3.653   2.343   6.916 -0.0349  0.3257  0.7279
 7528SOL    HW124025   3.606   2.426   6.922 -1.8126 -0.5142 -0.5149
 7528SOL    HW224026   3.730   2.363   6.862 -2.6981  0.4516 -3.5367
 7529SOL     OW24027   2.543   0.814   5.910 -1.2594 -0.6551 -0.0249
 7529SOL    HW124028   2.484   0.765   5.853  0.2975 -1.0250 -1.4219
 7529SOL    HW224029   2.569   0.751   5.977 -2.2176 -0.5716  0.4346
 7530SOL     OW24030   6.152   4.393  10.739 -0.1321 -0.5762  0.3882
 7530SOL    HW124031   6.089   4.443  10.687 -0.4145 -0.4663  0.8300
 7530SOL    HW224032   6.108   4.309  10.755  0.3666 -0.9974 -0.4077
 7531SOL     OW24033   2.354   0.548   4.154  0.1798  0.2690 -0.3863
 7531SOL    HW124034   2.361   0.478   4.218 -0.6134 -0.1013 -0.7004
 7531SOL    HW224035   2.441   0.553   4.113  0.8515  0.8447  1.0431
 7532SOL     OW24036   2.706   6.605   0.391 -0.1550 -0.0412 -0.7927
 7532SOL    HW124037   2.740   6.519   0.414  0.6190  0.1329 -1.2396
 7532SOL    HW224038   2.760   6.633   0.318 -0.8890  0.5109 -1.1347
 7533SOL     OW24039   1.376   6.889   1.879 -0.7545  0.1993  0.3790
 7533SOL    HW124040   1.386   6.794   1.867  0.1544  0.3021  0.2565
 7533SOL    HW224041   1.287   6.908   1.849 -1.0815 -0.6692  0.7571
 7534SOL     OW24042   2.333   1.025   4.879 -0.0347 -0.1974  0.0244
 7534SOL    HW124043   2.380   1.099   4.841  1.0100 -0.8485  0.0161
 7534SOL    HW224044   2.250   1.063   4.909  0.9182  1.2123  1.0265
 7535SOL     OW24045   5.370   0.678   0.546 -0.0800  0.3760 -0.4653
 7535SOL    HW124046   5.323   0.600   0.515 -0.6265  0.8527 -0.8446
 7535SOL    HW224047   5.304   0.746   0.550  0.1861  0.5791  0.8406
 7536SOL     OW24048   2.526   7.039   3.900 -0.1001 -0.1645 -0.2497
 7536SOL    HW124049   2.460   7.057   3.967 -1.2080  1.0477 -1.5942
 7536SOL    HW224050   2.502   7.096   3.827  0.9086 -1.6150 -1.7850
 7537SOL     OW24051   4.991   6.355   5.831  0.0123 -0.3955 -0.3816
 7537SOL    HW124052   5.020   6.333   5.919 -0.7074 -0.7049 -0.2160
 7537SOL    HW224053   5.046   6.302   5.773  1.0731  0.4485 -0.1687
 7538SOL     OW24054   2.091   1.655   8.716 -0.3234 -0.5640 -0.3076
 7538SOL    HW124055   2.152   1.608   8.773 -0.8333 -0.8312  0.0349
 7538SOL    HW224056   2.088   1.744   8.753 -0.2453 -0.5888 -0.2403
 7539SOL     OW24057   4.742   7.460  11.949 -0.2138  0.1210 -0.2118
 7539SOL    HW124058   4.748   7.551  11.978 -1.7289  0.4132 -0.7505
 7539SOL    HW224059   4.812   7.452  11.883  0.0756  0.8154 -0.0016
 7540SOL     OW24060   6.322   5.759   7.629 -0.7613 -0.0369  0.1797
 7540SOL    HW124061   6.413   5.744   7.655 -1.1454  0.2203  1.7689
 7540SOL    HW224062   6.322   5.748   7.534  1.2477  1.5728 -0.0817
 7541SOL     OW24063   2.716   2.158  11.500 -0.3376  0.1364 -0.0008
 7541SOL    HW124064   2.769   2.118  11.569  0.6285  1.1941 -0.1094
 7541SOL    HW224065   2.648   2.093  11.482  0.7858 -1.1629  0.2816
 7542SOL     OW24066   6.646   4.971   4.387  0.1684 -0.0479 -0.3211
 7542SOL    HW124067   6.616   4.903   4.447 -0.2844 -0.0697 -0.5687
 7542SOL    HW224068   6.717   5.015   4.434 -0.6967  0.4509  0.5537
 7543SOL     OW24069   5.030   3.207  11.311 -0.2387 -0.5397  0.4335
 7543SOL    HW124070   5.121   3.230  11.295  0.0495 -1.9587 -0.0466
 7543SOL    HW224071   5.030   3.165  11.396 -0.0468 -2.5621 -0.5138
 7544SOL     OW24072   4.211   4.273   0.185  0.6713  0.0110  0.0535
 7544SOL    HW124073   4.291   4.290   0.235 -0.1326  1.2009  0.9968
 7544SOL    HW224074   4.197   4.179   0.194  1.4503 -0.0619  0.6881
 7545SOL     OW24075   1.845   3.605   5.636  0.2949  0.6537  0.3400
 7545SOL    HW124076   1.858   3.670   5.706  1.8341  0.1818  0.5266
 7545SOL    HW224077   1.853   3.656   5.555  1.3540  0.7626  0.4887
 7546SOL     OW24078   0.549   2.053   8.389  0.3067  0.0580 -0.3695
 7546SOL    HW124079   0.496   2.106   8.329 -1.5457 -1.9158 -0.5985
 7546SOL    HW224080   0.518   2.078   8.476  0.2430  0.1633 -0.4225
 7547SOL     OW24081   5.698   2.569   8.067  0.3333 -0.5117  0.0508
 7547SOL    HW124082   5.655   2.559   8.151 -0.3833 -1.6029 -0.4198
 7547SOL    HW224083   5.627   2.562   8.003  1.2599 -3.2240 -0.7837
 7548SOL     OW24084   3.227   5.574  11.322 -0.4411  0.8719  0.1848
 7548SOL    HW124085   3.224   5.495  11.268 -1.6589  0.3391  0.9941
 7548SOL    HW224086   3.262   5.641  11.264 -1.6231  0.2991 -1.2536
 7549SOL     OW24087   3.501   0.509   8.233 -0.3389  0.2350  0.5126
 7549SOL    HW124088   3.503   0.547   8.145 -1.1225 -0.5580  0.1323
 7549SOL    HW224089   3.409   0.493   8.250 -0.0718 -1.1117  0.8105
 7550SOL     OW24090   0.622   3.627  10.839  0.1936 -0.0561  0.2586
 7550SOL    HW124091   0.655   3.688  10.905  0.7438 -0.1256  0.0475
 7550SOL    HW224092   0.665   3.544  10.858 -1.2242 -0.6351  1.0974
 7551SOL     OW24093   1.231   7.570   7.369  0.8689 -0.2478  0.0067
 7551SOL    HW124094   1.320   7.536   7.361  1.2129  0.4870  0.6437
 7551SOL    HW224095   1.215   7.575   7.463  1.2631  2.4004 -0.0002
 7552SOL     OW24096   0.180   1.397   6.107 -0.0775 -0.0491  0.2031
 7552SOL    HW124097   0.103   1.454   6.107  0.4146  0.6521 -0.7972
 7552SOL    HW224098   0.251   1.452   6.139  0.0273 -0.6990  1.1405
 7553SOL     OW24099   4.560   6.337   7.488 -0.0638  0.3023 -0.2513
 7553SOL    HW124100   4.525   6.248   7.484 -1.1642  0.7050  0.2967
 7553SOL    HW224101   4.522   6.376   7.566  1.1905  0.9476  0.0775
 7554SOL     OW24102   2.390   1.911   3.356  0.5522 -0.2481 -0.0057
 7554SOL    HW124103   2.353   1.933   3.441 -0.5630 -0.2277 -0.4787
 7554SOL    HW224104   2.479   1.948   3.358  0.0583  0.9602  0.6325
 7555SOL     OW24105   0.261   6.218  11.000 -0.4542 -0.3766 -0.5175
 7555SOL    HW124106   0.334   6.157  11.011  0.4277  0.4680 -1.4666
 7555SOL    HW224107   0.241   6.216  10.907  1.8820  3.2060 -1.3022
 7556SOL     OW24108   6.932   1.805   2.060 -0.0131  0.3647 -0.3722
 7556SOL    HW124109   6.849   1.842   2.091 -1.0265 -1.9742 -0.1010
 7556SOL    HW224110   6.908   1.754   1.983  0.8283 -1.7908  0.7188
 7557SOL     OW24111   1.777   4.875   9.566 -0.0660  0.5885  0.0991
 7557SOL    HW124112   1.778   4.951   9.507  0.0717 -0.1184 -0.8458
 7557SOL    HW224113   1.702   4.824   9.537 -0.5152  0.6519  1.1274
 7558SOL     OW24114   1.650   6.538   0.811 -0.4291  0.0297  0.0726
 7558SOL    HW124115   1.718   6.540   0.744 -0.7047 -1.0554 -0.2553
 7558SOL    HW224116   1.591   6.610   0.787  1.0109  1.5429  0.8474
 7559SOL     OW24117   2.181   7.933  11.283  0.1590 -0.3182 -0.0730
 7559SOL    HW124118   2.101   7.984  11.267 -0.6431 -0.8597  1.9340
 7559SOL    HW224119   2.213   7.966  11.367  2.2051  0.0453 -0.9523
 7560SOL     OW24120   6.063   1.814   2.458  0.5301  0.0245 -0.6447
 7560SOL    HW124121   5.991   1.833   2.518  0.6898 -0.1126 -0.4059
 7560SOL    HW224122   6.113   1.896   2.453  0.4070  0.0922 -0.7380
 7561SOL     OW24123   6.796   3.949   5.342 -0.0440  0.0431 -0.4029
 7561SOL    HW124124   6.876   3.916   5.301  1.1354  0.4957  1.4251
 7561SOL    HW224125   6.799   3.915   5.432 -1.4137  0.8994  0.0030
 7562SOL     OW24126   6.983   5.875   8.733  0.7892  0.5180 -0.7447
 7562SOL    HW124127   7.047   5.923   8.785  0.7309  1.4589 -1.5200
 7562SOL    HW224128   7.013   5.885   8.643 -0.7652  1.5062 -1.1943
 7563SOL     OW24129   5.967   4.898   4.970  0.1103 -0.1440  0.8546
 7563SOL    HW124130   6.007   4.977   5.007  0.2035  0.4174 -0.4123
 7563SOL    HW224131   6.021   4.876   4.895  1.8430 -3.1371  2.7777
 7564SOL     OW24132   5.229   0.800   6.876 -0.0134 -0.0536 -0.2045
 7564SOL    HW124133   5.239   0.864   6.805  0.9267  1.6740  1.3964
 7564SOL    HW224134   5.149   0.827   6.921 -0.9026 -1.4671 -0.8740
 7565SOL     OW24135   5.169   7.981   9.799  0.0754  0.2630 -0.5071
 7565SOL    HW124136   5.080   7.951   9.819  0.0668 -0.1682 -1.1817
 7565SOL    HW224137   5.201   8.018   9.882  0.0793 -1.5533  0.3359
 7566SOL     OW24138   6.493   4.537   6.957 -0.0947 -0.7479 -0.0585
 7566SOL    HW124139   6.490   4.528   6.861  3.0342 -0.5605 -0.2769
 7566SOL    HW224140   6.463   4.626   6.974  1.3689  0.0078 -1.1455
 7567SOL     OW24141   7.602   5.803   2.394  0.9505 -0.3290 -0.4340
 7567SOL    HW124142   7.600   5.712   2.422 -1.3501 -0.2218 -0.0094
 7567SOL    HW224143   7.512   5.821   2.367  1.4836  1.6643 -1.0419
 7568SOL     OW24144   4.694   6.710   5.949  0.1446 -0.5160 -0.1699
 7568SOL    HW124145   4.685   6.640   6.013 -0.2467 -0.3034  0.0122
 7568SOL    HW224146   4.661   6.788   5.994  0.0774 -0.3200 -0.5538
 7569SOL     OW24147   6.388   4.355   0.655  0.0823 -0.0678 -0.5644
 7569SOL    HW124148   6.353   4.409   0.727  0.0471 -0.5623 -0.2023
 7569SOL    HW224149   6.476   4.332   0.684 -0.3600 -1.2771 -0.1073
 7570SOL     OW24150   1.363   5.689   3.737 -0.0474  0.1960 -0.1001
 7570SOL    HW124151   1.443   5.679   3.684 -1.5866  1.1582 -2.7876
 7570SOL    HW224152   1.340   5.781   3.727 -1.1020  0.0999  1.2795
 7571SOL     OW24153   1.146   6.705   9.863  1.0865 -0.1528 -0.3465
 7571SOL    HW124154   1.088   6.701   9.787  2.7249 -0.8766 -1.6201
 7571SOL    HW224155   1.118   6.784   9.910 -0.7238 -0.3316 -1.0433
 7572SOL     OW24156   7.717   0.732   1.890 -0.3819 -0.6528 -0.2907
 7572SOL    HW124157   7.762   0.752   1.972 -0.6461  1.5928 -0.6563
 7572SOL    HW224158   7.624   0.735   1.912 -0.4909  1.1456 -0.8898
 7573SOL     OW24159   1.938   7.011  12.301  0.3252  0.6141  0.3178
 7573SOL    HW124160   1.935   7.081  12.236  0.2070  1.4636  1.2125
 7573SOL    HW224161   2.025   7.018  12.340  0.3892  0.1199  0.2719
 7574SOL     OW24162   2.047   7.634   5.490 -0.1722 -0.5490 -0.4629
 7574SOL    HW124163   1.997   7.652   5.411  0.5362  1.0583 -0.5811
 7574SOL    HW224164   2.034   7.540   5.506  0.0540 -1.0271 -2.7347
 7575SOL     OW24165   7.064   3.271   2.380 -0.3436  0.1908  0.0278
 7575SOL    HW124166   7.028   3.189   2.412  0.7450 -0.7383 -1.0625
 7575SOL    HW224167   7.003   3.338   2.413 -0.1448 -0.8025  2.6658
 7576SOL     OW24168   1.366   5.349   5.952 -0.8238 -0.2368  0.2935
 7576SOL    HW124169   1.419   5.303   6.017 -0.1876  1.3085  0.9222
 7576SOL    HW224170   1.283   5.367   5.997 -1.3809 -1.4168 -0.2186
 7577SOL     OW24171   6.011   7.114   9.362  0.5964 -0.2353  0.0437
 7577SOL    HW124172   6.017   7.074   9.449  1.8691 -0.3851 -0.1052
 7577SOL    HW224173   5.966   7.197   9.378  0.6175 -0.3582  0.8077
 7578SOL     OW24174   0.757   2.178   0.436  0.5734  0.1094 -0.1639
 7578SOL    HW124175   0.681   2.120   0.440  0.6546  0.0184  0.0979
 7578SOL    HW224176   0.789   2.169   0.346  0.8708 -0.6246  0.0051
 7579SOL     OW24177   5.013   6.841   1.219  0.4145 -0.6033  0.3465
 7579SOL    HW124178   5.019   6.853   1.314  1.1274 -0.6106  0.3013
 7579SOL    HW224179   4.986   6.927   1.186 -1.8589 -1.0958  0.7271
 7580SOL     OW24180   2.508   1.566   4.572 -0.5627  0.1951 -0.2855
 7580SOL    HW124181   2.444   1.526   4.512 -0.1688  0.1975 -0.7102
 7580SOL    HW224182   2.485   1.530   4.658  0.5935 -2.0466 -0.8271
 7581SOL     OW24183   3.021   7.224   6.999  0.2421  0.0623 -0.1437
 7581SOL    HW124184   2.985   7.156   7.056  1.7616 -1.1779 -0.6022
 7581SOL    HW224185   3.019   7.185   6.912  0.2892  0.9699 -0.5554
 7582SOL     OW24186   4.189   2.341   4.309 -0.1968 -0.1148  0.0040
 7582SOL    HW124187   4.122   2.298   4.361  0.7714 -0.8330  0.6816
 7582SOL    HW224188   4.271   2.321   4.353  0.5832 -0.1232 -1.3871
 7583SOL     OW24189   2.711   1.243   1.303 -0.1711  0.4738 -0.6402
 7583SOL    HW124190   2.657   1.167   1.325  1.0475  0.0481  1.0828
 7583SOL    HW224191   2.673   1.315   1.354  0.3637  0.3715 -0.0960
 7584SOL     OW24192   1.147   2.697   3.319  0.4029  0.0308  0.0188
 7584SOL    HW124193   1.237   2.664   3.322  0.1801 -0.6422 -0.4693
 7584SOL    HW224194   1.150   2.779   3.367  0.9975 -0.6675  1.2273
 7585SOL     OW24195   1.956   0.538   8.145 -0.2284  0.0115 -0.3071
 7585SOL    HW124196   1.878   0.566   8.096 -0.4454  1.3373  0.7438
 7585SOL    HW224197   1.922   0.483   8.215 -0.1302 -0.0875 -0.3374
 7586SOL     OW24198   3.716   1.562  10.410  0.2246  0.1089  0.7070
 7586SOL    HW124199   3.647   1.602  10.463 -0.2669 -0.1910  0.2977
 7586SOL    HW224200   3.669   1.514  10.342  0.8348  1.8641 -1.0501
 7587SOL     OW24201   3.618   2.102   6.645  0.5310 -0.1795  0.4204
 7587SOL    HW124202   3.557   2.050   6.697  0.0969 -1.8021 -1.5978
 7587SOL    HW224203   3.689   2.122   6.706 -0.8774 -0.2395  2.1738
 7588SOL     OW24204   6.236   0.854   0.962  0.3710  0.1277 -0.0042
 7588SOL    HW124205   6.227   0.803   1.043  1.0931 -0.2816 -0.1728
 7588SOL    HW224206   6.279   0.794   0.901  0.2439  0.5859 -0.5495
 7589SOL     OW24207   3.807   1.054   1.660 -0.4008 -0.3956 -0.3721
 7589SOL    HW124208   3.794   1.070   1.754  1.4785 -1.9313  0.2067
 7589SOL    HW224209   3.721   1.024   1.630 -1.2634  0.9205  0.6336
 7590SOL     OW24210   2.146   7.400   6.520  0.2225 -0.2060  0.2572
 7590SOL    HW124211   2.076   7.465   6.527  0.0454 -0.3483 -0.1468
 7590SOL    HW224212   2.131   7.341   6.594 -0.2393 -0.3806  0.0288
 7591SOL     OW24213   2.562   6.273   7.905  0.1414  0.2414  0.1091
 7591SOL    HW124214   2.647   6.280   7.947 -0.5055  0.0698  1.4964
 7591SOL    HW224215   2.510   6.343   7.944 -0.6691 -0.3291  0.0827
 7592SOL     OW24216   2.206   0.328   5.393 -0.6324 -0.0471 -0.0993
 7592SOL    HW124217   2.209   0.252   5.335  1.0597 -0.5597  0.6178
 7592SOL    HW224218   2.259   0.303   5.468 -0.4292  1.6705  0.3663
 7593SOL     OW24219   5.458   4.677   9.863  0.1437  0.0435  0.2553
 7593SOL    HW124220   5.436   4.586   9.847  1.9834 -0.9917  2.9318
 7593SOL    HW224221   5.387   4.710   9.918 -0.7365  0.4133 -1.0535
 7594SOL     OW24222   4.743   5.372   5.808  0.0492 -0.0082 -0.1203
 7594SOL    HW124223   4.685   5.329   5.745 -0.5343 -0.2808  0.5908
 7594SOL    HW224224   4.809   5.306   5.829 -0.4240 -0.3196  0.4168
 7595SOL     OW24225   1.397   7.267   4.237  0.1939 -0.2743 -0.3710
 7595SOL    HW124226   1.386   7.196   4.301 -0.5371 -1.2538 -1.5349
 7595SOL    HW224227   1.491   7.270   4.220  0.4373  0.2283  0.9869
 7596SOL     OW24228   4.420   2.926   1.110 -0.4016  0.2806  0.2963
 7596SOL    HW124229   4.479   2.851   1.118 -0.5106  0.1021 -0.4417
 7596SOL    HW224230   4.477   2.999   1.087 -0.5066 -0.0053 -0.9569
 7597SOL     OW24231   1.657   5.833   2.280 -0.4866 -0.4782  0.2907
 7597SOL    HW124232   1.666   5.847   2.374  0.2908  0.2822  0.1137
 7597SOL    HW224233   1.578   5.780   2.271  0.7068 -2.6395  1.5664
 7598SOL     OW24234   3.173   7.294  12.346  0.2809  0.3984 -0.2173
 7598SOL    HW124235   3.177   7.344  12.265 -0.2004  0.6464 -0.0981
 7598SOL    HW224236   3.261   7.260  12.359  0.8710  1.9894  0.1797
 7599SOL     OW24237   5.689   0.467   1.889 -0.6434 -0.1169 -0.3931
 7599SOL    HW124238   5.748   0.437   1.959  0.3710 -0.1440 -1.2253
 7599SOL    HW224239   5.625   0.523   1.933 -0.6182 -0.9168  0.6967
 7600SOL     OW24240   5.235   4.341   1.938 -0.2211 -0.2470 -0.2999
 7600SOL    HW124241   5.297   4.354   1.867  0.3168 -2.4409 -0.3043
 7600SOL    HW224242   5.270   4.268   1.988 -0.0779  1.7926  2.8691
 7601SOL     OW24243   1.044   3.404   9.724 -0.0590 -0.3748 -0.1140
 7601SOL    HW124244   1.114   3.347   9.691  0.3909  0.0404  0.1112
 7601SOL    HW224245   1.089   3.484   9.749 -0.4499 -0.5238  1.1052
 7602SOL     OW24246   2.861   1.804   3.213  0.6431 -0.1413  0.0082
 7602SOL    HW124247   2.953   1.828   3.220  0.2633  1.7961 -0.8561
 7602SOL    HW224248   2.855   1.758   3.129  0.6854  0.6384 -0.4376
 7603SOL     OW24249   3.355   5.245   3.316  0.0826 -0.3793  0.5101
 7603SOL    HW124250   3.264   5.219   3.334 -0.2765 -0.8038 -1.6650
 7603SOL    HW224251   3.405   5.164   3.327 -0.4894 -1.2600 -2.5040
 7604SOL     OW24252   5.919   5.161   7.953 -0.6852 -0.9350 -0.3646
 7604SOL    HW124253   5.932   5.089   7.891  1.5852 -0.5236 -0.4257
 7604SOL    HW224254   5.925   5.240   7.900 -2.2368 -0.6327 -0.1376
 7605SOL     OW24255   7.233   5.937  11.715  0.0199  0.1164  0.1403
 7605SOL    HW124256   7.287   5.938  11.794 -0.3865  0.1241  0.4229
 7605SOL    HW224257   7.160   5.879  11.737 -0.8977  1.2901  0.3275
 7606SOL     OW24258   6.160   4.761   1.217  0.5794  0.3982 -0.2734
 7606SOL    HW124259   6.215   4.683   1.206 -0.0719  0.0011 -0.7310
 7606SOL    HW224260   6.112   4.746   1.299  1.6328  1.0545  0.4983
 7607SOL     OW24261   3.962   4.401   3.398 -0.6025  0.8495 -0.0553
 7607SOL    HW124262   3.966   4.497   3.393  1.1649  0.8947  1.2189
 7607SOL    HW224263   3.890   4.383   3.458 -0.5459  1.4016  0.1834
 7608SOL     OW24264   1.989   6.071  12.419 -0.1665  0.0733 -0.0358
 7608SOL    HW124265   2.008   6.016  12.344  1.0988 -1.2616  1.2017
 7608SOL    HW224266   2.057   6.138  12.418 -1.6596  1.6793 -1.4954
 7609SOL     OW24267   0.745   6.733   4.941 -0.4430  0.0800  0.1559
 7609SOL    HW124268   0.658   6.754   4.975  0.8655  0.4823  3.6290
 7609SOL    HW224269   0.757   6.640   4.963  0.1853  0.1608  0.1540
 7610SOL     OW24270   2.440   1.151  12.391  0.2563  0.0307 -0.4571
 7610SOL    HW124271   2.496   1.226  12.413  1.1509 -0.4165 -1.1372
 7610SOL    HW224272   2.356   1.190  12.367  0.3471  0.7313  0.3145
 7611SOL     OW24273   0.151   3.630   2.065 -0.2570  0.3358  0.2199
 7611SOL    HW124274   0.235   3.676   2.060  0.1867 -0.3326  1.3534
 7611SOL    HW224275   0.103   3.662   1.989  0.6968  1.3701  0.0186
 7612SOL     OW24276   5.684   4.430   6.538  0.0402  0.1987  0.7924
 7612SOL    HW124277   5.748   4.382   6.485  0.4100  1.0370  0.4616
 7612SOL    HW224278   5.615   4.453   6.476  1.0508  2.2600  0.3248
 7613SOL     OW24279   3.775   4.025  10.798  0.7126  0.3985 -0.5423
 7613SOL    HW124280   3.720   4.022  10.720 -0.1780  1.7879 -0.0147
 7613SOL    HW224281   3.775   3.935  10.831 -1.6304  0.3998 -0.3381
 7614SOL     OW24282   5.628   5.056  10.651  0.3143  0.3232  0.3759
 7614SOL    HW124283   5.692   5.052  10.580  0.8541  0.5027  0.8424
 7614SOL    HW224284   5.564   5.121  10.622 -0.6996 -1.1782 -0.9145
 7615SOL     OW24285   6.809   0.276  11.028 -0.4079 -0.5458 -0.0099
 7615SOL    HW124286   6.795   0.187  11.061  0.9211 -0.3988  1.0667
 7615SOL    HW224287   6.769   0.332  11.094  0.2583 -0.3188  0.2162
 7616SOL     OW24288   2.552   7.349  11.554  0.0547 -0.3199  0.4409
 7616SOL    HW124289   2.495   7.418  11.519  1.4883  1.6069  1.7168
 7616SOL    HW224290   2.492   7.284  11.590 -1.4202 -1.0558 -2.9628
 7617SOL     OW24291   3.722   4.672   4.850  0.7709  0.0836  0.1892
 7617SOL    HW124292   3.781   4.624   4.791  0.5084 -0.6011  0.4702
 7617SOL    HW224293   3.645   4.690   4.796  0.8295  0.0979  0.1106
 7618SOL     OW24294   5.957   4.738  11.365 -0.4823 -0.3232  0.1868
 7618SOL    HW124295   6.043   4.697  11.362  0.0563  0.8334 -0.4856
 7618SOL    HW224296   5.971   4.827  11.335 -1.7405  0.1981  1.0518
 7619SOL     OW24297   4.043   0.788   6.049  0.0867 -0.0524 -0.3527
 7619SOL    HW124298   4.070   0.856   5.987  0.4295  0.0680 -0.0696
 7619SOL    HW224299   4.090   0.808   6.129  1.8056 -1.8222 -0.8617
 7620SOL     OW24300   4.446   7.447   2.834  0.3144  0.1251  0.1011
 7620SOL    HW124301   4.532   7.424   2.799 -0.7349 -2.4980 -0.9893
 7620SOL    HW224302   4.384   7.415   2.769 -1.5582  0.7732  1.4723
 7621SOL     OW24303   4.379   6.910   5.943 -0.6962  0.1539 -0.5396
 7621SOL    HW124304   4.371   6.883   6.034 -1.7601  0.4755 -0.5269
 7621SOL    HW224305   4.466   6.951   5.938 -0.3483 -0.4795  0.1550
 7622SOL     OW24306   4.371   6.497   8.135  0.0216 -0.3199 -0.5009
 7622SOL    HW124307   4.279   6.497   8.109 -0.5812  0.5404  1.4147
 7622SOL    HW224308   4.394   6.405   8.142 -0.2460 -0.5554 -2.3817
 7623SOL     OW24309   2.783   0.276   4.366  0.1339 -0.3592  0.6166
 7623SOL    HW124310   2.869   0.236   4.350  0.3792  0.4740 -0.2704
 7623SOL    HW224311   2.760   0.249   4.455  0.2633 -2.4919  0.0675
 7624SOL     OW24312   3.958   1.622  11.727  0.7332  0.1691 -0.2770
 7624SOL    HW124313   3.930   1.636  11.637 -1.3048  0.5987  0.3730
 7624SOL    HW224314   3.882   1.646  11.780  1.3221 -1.6064  1.4944
 7625SOL     OW24315   4.074   5.485   1.560  0.3472 -0.2709 -0.5357
 7625SOL    HW124316   4.000   5.541   1.536  1.2701  1.2121 -0.1247
 7625SOL    HW224317   4.144   5.513   1.500  1.4835  0.6126  1.1274
 7626SOL     OW24318   0.318   4.301   8.387 -0.3144  0.2991  0.4231
 7626SOL    HW124319   0.373   4.277   8.461  0.1169 -1.0891 -0.3092
 7626SOL    HW224320   0.327   4.396   8.380 -2.3088  0.8432  3.6116
 7627SOL     OW24321   6.406   4.007   6.492  0.0731 -0.0875  0.1157
 7627SOL    HW124322   6.468   4.074   6.463 -0.6247  1.0455  1.1421
 7627SOL    HW224323   6.375   4.039   6.577 -2.6089 -0.1172 -0.7627
 7628SOL     OW24324   5.171   6.202   2.964  0.8371 -0.0247  0.6790
 7628SOL    HW124325   5.159   6.184   3.057 -1.8751 -0.3323  0.3330
 7628SOL    HW224326   5.158   6.296   2.956 -2.6803 -0.4484  0.2073
 7629SOL     OW24327   2.510   5.505   7.863  0.7303 -0.2732 -0.3432
 7629SOL    HW124328   2.493   5.474   7.775  1.3415 -0.5897 -0.3583
 7629SOL    HW224329   2.424   5.515   7.903  0.4557 -0.1318 -0.9742
 7630SOL     OW24330   4.802   6.445   6.856  0.1328 -0.7946 -0.1160
 7630SOL    HW124331   4.864   6.468   6.924 -0.4310 -2.1450  0.9050
 7630SOL    HW224332   4.733   6.511   6.863  0.3680 -0.5842  0.2206
 7631SOL     OW24333   6.830   4.960   3.425 -0.6096 -0.3706  0.6233
 7631SOL    HW124334   6.772   4.982   3.352  1.1021 -0.9393 -0.9714
 7631SOL    HW224335   6.902   4.911   3.386  0.5432 -0.4348  2.6539
 7632SOL     OW24336   4.652   3.798   6.283 -0.3843  0.1833 -0.4576
 7632SOL    HW124337   4.577   3.807   6.224 -0.1785  0.5577 -0.6639
 7632SOL    HW224338   4.643   3.710   6.320 -0.2507 -0.2492 -1.4194
 7633SOL     OW24339   5.759   0.489   0.635 -0.9708 -0.2959 -0.0880
 7633SOL    HW124340   5.737   0.551   0.565 -0.7120  2.6058  2.2342
 7633SOL    HW224341   5.828   0.533   0.685  0.6699 -3.3632  0.6101
 7634SOL     OW24342   7.257   6.265  10.421  0.6945 -0.3394 -0.4516
 7634SOL    HW124343   7.350   6.255  10.402  0.7143 -0.7051 -0.1666
 7634SOL    HW224344   7.218   6.291  10.337  0.4662 -3.9159 -1.5951
 7635SOL     OW24345   6.794   0.452   0.472  0.3356 -0.5032  0.2966
 7635SOL    HW124346   6.791   0.426   0.564 -0.7782  0.3959  0.5428
 7635SOL    HW224347   6.713   0.419   0.435  0.0323  0.4874  0.0418
 7636SOL     OW24348   4.890   0.949   1.100  0.0705  0.0659  0.0687
 7636SOL    HW124349   4.837   0.934   1.021 -1.4487  0.8244  0.8953
 7636SOL    HW224350   4.944   1.025   1.077 -1.3553  1.1530  0.1886
 7637SOL     OW24351   5.551   0.768   6.590 -0.2596  0.5050 -0.0287
 7637SOL    HW124352   5.497   0.713   6.647 -1.2156  0.5594 -0.8409
 7637SOL    HW224353   5.574   0.710   6.517 -1.2933  1.1554 -0.9041
 7638SOL     OW24354   7.391   4.930   9.428  0.3572 -0.1341  0.3326
 7638SOL    HW124355   7.433   4.971   9.352  2.4679 -2.3320  0.2022
 7638SOL    HW224356   7.408   4.991   9.500  0.5003  0.7982 -0.4689
 7639SOL     OW24357   5.521   0.570   7.564 -0.4133 -0.5151  0.4134
 7639SOL    HW124358   5.592   0.531   7.512 -1.2509  0.4584 -1.5772
 7639SOL    HW224359   5.565   0.613   7.637  1.2949  1.5368 -1.6687
 7640SOL     OW24360   0.227   3.716   1.727  0.0367 -0.9126 -0.0373
 7640SOL    HW124361   0.135   3.695   1.742 -0.3426 -0.0489 -1.0467
 7640SOL    HW224362   0.233   3.810   1.740  0.6346 -0.8517 -0.7015
 7641SOL     OW24363   7.940   6.644   9.503 -0.0419 -0.4000 -0.1621
 7641SOL    HW124364   7.966   6.553   9.493  0.8425 -0.2980  1.0636
 7641SOL    HW224365   7.864   6.641   9.560  0.1933 -0.3509  0.1557
 7642SOL     OW24366   0.370   5.998   3.742 -0.5687  0.4398 -0.4310
 7642SOL    HW124367   0.308   5.968   3.675  0.0159  0.7809 -1.1433
 7642SOL    HW224368   0.339   6.085   3.767  0.5511  1.3799 -2.0640
 7643SOL     OW24369   6.245   4.503   0.240  0.7777  0.0231  0.0216
 7643SOL    HW124370   6.195   4.484   0.160  1.5757  0.1511 -0.5244
 7643SOL    HW224371   6.281   4.590   0.225  0.5000  0.2728  0.7614
 7644SOL     OW24372   0.484   6.994   1.785  0.2526  0.0974  0.8339
 7644SOL    HW124373   0.396   6.999   1.747 -0.2622  0.4442  2.0108
 7644SOL    HW224374   0.515   7.084   1.787  1.2239 -0.1572 -0.8240
 7645SOL     OW24375   7.414   5.927   9.496 -0.5778 -0.7296  0.6256
 7645SOL    HW124376   7.496   5.949   9.451 -1.4362  1.8532  0.1191
 7645SOL    HW224377   7.438   5.922   9.588  0.5228 -2.3267  0.2979
 7646SOL     OW24378   0.482   7.314   1.384  0.0309 -0.3037  0.1444
 7646SOL    HW124379   0.540   7.389   1.397  0.9267 -1.1524  1.2372
 7646SOL    HW224380   0.444   7.299   1.471  0.3260 -1.4857  0.0734
 7647SOL     OW24381   3.879   1.404   1.085  0.2963 -0.2670  0.1546
 7647SOL    HW124382   3.913   1.315   1.080  0.9975  0.0527 -1.4932
 7647SOL    HW224383   3.934   1.448   1.150  0.7294 -0.7113  0.0939
 7648SOL     OW24384   1.435   5.442  10.790  0.0935  0.1902 -0.0223
 7648SOL    HW124385   1.424   5.354  10.826 -0.6955  0.1874 -0.2525
 7648SOL    HW224386   1.396   5.500  10.855  2.4766  0.5809  1.1291
 7649SOL     OW24387   3.653   4.247   6.709  0.3103 -0.4107 -0.0900
 7649SOL    HW124388   3.652   4.343   6.713  1.1156 -0.4408  2.3918
 7649SOL    HW224389   3.588   4.219   6.773 -0.4828 -1.5714 -1.3420
 7650SOL     OW24390   0.964   3.328   1.033 -0.0856  0.0839 -0.3019
 7650SOL    HW124391   1.043   3.335   1.087  0.1520 -1.1522 -0.4574
 7650SOL    HW224392   0.994   3.348   0.945 -0.6265  2.8951  0.0549
 7651SOL     OW24393   1.058   0.426   5.662 -0.0397  0.1090 -0.3855
 7651SOL    HW124394   0.976   0.447   5.707 -0.8872  1.2256 -2.3603
 7651SOL    HW224395   1.119   0.494   5.692 -0.1604 -0.0337  0.1971
 7652SOL     OW24396   2.180   7.501   4.616 -0.2132  0.4141 -0.4120
 7652SOL    HW124397   2.155   7.594   4.613 -0.4729  0.3986  0.7455
 7652SOL    HW224398   2.126   7.464   4.685 -0.5591 -0.7546 -1.2772
 7653SOL     OW24399   3.856   7.755  11.690  0.2622 -0.3193 -0.1700
 7653SOL    HW124400   3.804   7.701  11.632  0.7454 -2.1364  1.0150
 7653SOL    HW224401   3.816   7.744  11.776 -1.1495  3.1969 -0.2055
 7654SOL     OW24402   4.701   1.214  10.629 -0.2342 -0.0164  0.0930
 7654SOL    HW124403   4.746   1.294  10.602 -1.2298  0.4173 -0.3226
 7654SOL    HW224404   4.727   1.149  10.563 -1.1438  0.5458 -0.8550
 7655SOL     OW24405   5.427   7.364   7.591 -0.1507  0.3843 -0.2510
 7655SOL    HW124406   5.501   7.419   7.566 -0.6872  0.7280 -1.1259
 7655SOL    HW224407   5.453   7.325   7.675  1.0053  0.5154 -0.5290
 7656SOL     OW24408   3.329   3.079   9.066 -0.5185 -0.8282  0.1956
 7656SOL    HW124409   3.395   3.077   9.135 -0.0815  1.0043 -0.1221
 7656SOL    HW224410   3.367   3.029   8.994  1.2134  1.3502 -0.5094
 7657SOL     OW24411   2.068   0.828   1.340  0.5374  0.2564 -0.1016
 7657SOL    HW124412   2.100   0.871   1.261 -1.2094 -0.3646 -1.2017
 7657SOL    HW224413   2.038   0.899   1.396  1.1896  0.6606 -0.2503
 7658SOL     OW24414   6.495   4.943   0.668 -0.0169 -0.0066 -0.1470
 7658SOL    HW124415   6.421   4.887   0.690  0.5877 -1.2103 -1.1060
 7658SOL    HW224416   6.572   4.888   0.678  0.5703  0.5238 -1.4522
 7659SOL     OW24417   5.795   7.931   1.221 -0.5710 -0.0183  0.8258
 7659SOL    HW124418   5.764   8.014   1.260  1.4210  0.6934  0.9997
 7659SOL    HW224419   5.839   7.957   1.141  0.0683 -0.9058  0.8713
 7660SOL     OW24420   2.291   7.001   6.589 -0.5107  0.5128  0.1488
 7660SOL    HW124421   2.296   6.918   6.542 -0.0252  0.9966 -0.6826
 7660SOL    HW224422   2.257   7.063   6.525  0.4293  1.2493  0.3498
 7661SOL     OW24423   4.660   7.163  11.960  0.3195  0.7675 -0.2951
 7661SOL    HW124424   4.696   7.144  12.047  0.5888 -1.2048 -0.7975
 7661SOL    HW224425   4.710   7.238  11.929  1.0929  0.6978  0.7382
 7662SOL     OW24426   3.691   6.470  10.659 -0.6008  0.5302  0.3937
 7662SOL    HW124427   3.639   6.546  10.684  0.4114  0.8380  1.7156
 7662SOL    HW224428   3.628   6.400  10.643 -1.4756  1.3282  0.3271
 7663SOL     OW24429   6.030   2.383   4.543  0.1735  0.2559  0.2000
 7663SOL    HW124430   5.972   2.383   4.619 -0.5173 -1.8364 -0.2617
 7663SOL    HW224431   6.107   2.334   4.572  0.0925 -0.1777 -0.2936
 7664SOL     OW24432   5.228   4.480   9.870 -0.9439  0.1987 -0.1777
 7664SOL    HW124433   5.153   4.424   9.846 -0.9498  0.0510  0.1798
 7664SOL    HW224434   5.208   4.509   9.958 -0.8614  0.6412 -0.3057
 7665SOL     OW24435   7.521   2.514   1.142  0.3619 -0.4653  0.0074
 7665SOL    HW124436   7.581   2.527   1.068  0.4277 -2.2055 -0.2923
 7665SOL    HW224437   7.565   2.555   1.216  1.8614 -1.5656 -0.2361
 7666SOL     OW24438   5.801   7.440   0.302  0.2568 -0.0245  0.1164
 7666SOL    HW124439   5.720   7.433   0.252  0.1902  0.7394  0.1090
 7666SOL    HW224440   5.845   7.356   0.289 -0.7929 -0.6688  0.5754
 7667SOL     OW24441   5.667   0.950   3.934  0.2655 -0.1822 -0.1738
 7667SOL    HW124442   5.597   0.966   3.871 -0.2999  2.1345  0.9487
 7667SOL    HW224443   5.631   0.975   4.019  2.4927  1.5334  0.3961
 7668SOL     OW24444   7.017   3.947   2.464  0.3058  0.0390  0.4549
 7668SOL    HW124445   6.957   3.977   2.396 -2.1761  0.9576  2.8297
 7668SOL    HW224446   7.025   3.853   2.450 -0.4065  0.1575 -0.8630
 7669SOL     OW24447   5.882   4.304  10.745  0.2665  0.0016  0.9185
 7669SOL    HW124448   5.829   4.319  10.823 -0.5296 -0.5953  0.5059
 7669SOL    HW224449   5.912   4.213  10.753 -0.1871 -0.2083  0.3173
 7670SOL     OW24450   0.232   3.602   4.582  1.0521  0.2404 -0.4140
 7670SOL    HW124451   0.299   3.570   4.642  0.3926  1.3150  0.9518
 7670SOL    HW224452   0.272   3.678   4.539  0.8727  0.6234  0.0873
 7671SOL     OW24453   6.242   4.420   1.884  0.0350 -0.3913  0.1121
 7671SOL    HW124454   6.229   4.355   1.953  1.4768 -1.2123 -0.3455
 7671SOL    HW224455   6.196   4.498   1.916  3.3146  0.3792  3.6907
 7672SOL     OW24456   1.971   5.821   9.366 -0.2845  0.2033  0.1729
 7672SOL    HW124457   1.898   5.874   9.334  0.1781  0.8174  0.1095
 7672SOL    HW224458   2.048   5.875   9.350 -0.1097  1.2302  3.6346
 7673SOL     OW24459   1.217   4.139   4.769 -0.3485 -0.2102  0.4647
 7673SOL    HW124460   1.253   4.204   4.830 -0.4684 -0.1028  0.4216
 7673SOL    HW224461   1.162   4.083   4.824 -2.4952  1.3852  0.0858
 7674SOL     OW24462   0.902   6.019  10.357  0.3466 -0.0426  0.3356
 7674SOL    HW124463   0.809   5.997  10.350  0.2238  0.6874 -0.5054
 7674SOL    HW224464   0.906   6.090  10.421 -0.1427  2.3277 -2.0693
 7675SOL     OW24465   3.999   3.865  10.579 -0.0074 -0.3366 -0.4836
 7675SOL    HW124466   4.059   3.826  10.643  0.7863 -0.4699 -1.3036
 7675SOL    HW224467   4.003   3.959  10.599  0.2609 -0.3722 -0.3545
 7676SOL     OW24468   6.346   4.412   4.771  0.0691 -0.3821  0.1689
 7676SOL    HW124469   6.428   4.363   4.776 -0.5095 -1.4027 -0.1159
 7676SOL    HW224470   6.322   4.408   4.679 -0.7663 -0.8645  0.4061
 7677SOL     OW24471   7.118   5.332   4.719  0.1600 -0.3298 -0.3350
 7677SOL    HW124472   7.126   5.425   4.698  0.7575 -0.1371  0.6620
 7677SOL    HW224473   7.165   5.322   4.802 -1.4589 -1.1795  0.5289
 7678SOL     OW24474   6.847   2.044   9.743 -0.1724  0.0614  0.2026
 7678SOL    HW124475   6.903   2.103   9.693  0.8492  0.2083  1.4555
 7678SOL    HW224476   6.851   1.961   9.695  1.2738  0.0274  0.3393
 7679SOL     OW24477   7.752   2.133   7.805 -0.2824  0.1336 -0.2467
 7679SOL    HW124478   7.724   2.064   7.865 -0.4185 -0.6154 -1.1288
 7679SOL    HW224479   7.732   2.215   7.850  0.1630 -0.3929  0.9578
 7680SOL     OW24480   5.711   3.235   5.574  0.1583  0.1482 -0.2086
 7680SOL    HW124481   5.783   3.174   5.586 -0.1487  0.1139  1.8920
 7680SOL    HW224482   5.751   3.322   5.582  0.2904  0.2069 -1.3093
 7681SOL     OW24483   2.132   7.486   2.854 -0.1076  0.1186 -0.3122
 7681SOL    HW124484   2.180   7.557   2.812 -1.2615  0.4142 -1.1754
 7681SOL    HW224485   2.105   7.523   2.939  1.4974 -0.1962  0.3727
 7682SOL     OW24486   6.622   4.240   0.036 -0.5075  0.2244  0.6834
 7682SOL    HW124487   6.634   4.334   0.051  0.3594 -0.0756  2.0707
 7682SOL    HW224488   6.575   4.209   0.114 -0.6165 -0.5232  0.3278
 7683SOL     OW24489   6.685   2.102   4.707  0.3755  0.4082  0.4785
 7683SOL    HW124490   6.695   2.007   4.700 -1.1503  0.2996 -0.7764
 7683SOL    HW224491   6.767   2.137   4.675  0.1358 -0.4841 -1.2567
 7684SOL     OW24492   2.274   6.174  11.314  0.2023  0.2955  0.3502
 7684SOL    HW124493   2.262   6.183  11.408 -0.9955 -1.3928  0.4063
 7684SOL    HW224494   2.367   6.154  11.303  0.2449 -0.0290  1.2425
 7685SOL     OW24495   0.206   6.351   8.241 -0.2127  0.3431  0.2417
 7685SOL    HW124496   0.113   6.373   8.250 -0.0585  1.5034 -0.7182
 7685SOL    HW224497   0.207   6.275   8.183 -0.6633 -1.3340  2.2914
 7686SOL     OW24498   6.218   3.014   4.657 -0.2091 -0.8772  0.2412
 7686SOL    HW124499   6.211   3.079   4.727 -2.0002  0.5838 -1.1991
 7686SOL    HW224500   6.294   3.042   4.606 -0.6492 -0.1739 -0.0563
 7687SOL     OW24501   2.957   0.168   2.279 -0.5206  0.5192 -0.2236
 7687SOL    HW124502   2.875   0.217   2.288 -0.0424  1.5783 -1.4067
 7687SOL    HW224503   3.020   0.216   2.332 -0.8779 -0.9460  1.6414
 7688SOL     OW24504   2.624   5.537   0.981 -0.1950 -0.1188  0.5943
 7688SOL    HW124505   2.584   5.503   0.900  1.6938 -0.5007 -0.2284
 7688SOL    HW224506   2.558   5.521   1.048 -1.8187  0.1962 -0.8532
 7689SOL     OW24507   0.084   3.721  11.794 -0.6772 -0.2452  0.4212
 7689SOL    HW124508   0.057   3.805  11.832  0.3758 -0.4776  1.7465
 7689SOL    HW224509   0.005   3.689  11.750 -1.3921  0.9492  0.7751
 7690SOL     OW24510   3.294   1.851   2.652  0.0739 -0.5022 -0.2625
 7690SOL    HW124511   3.340   1.877   2.572  0.5534  0.2989  0.2641
 7690SOL    HW224512   3.243   1.773   2.626 -0.3536  0.1733 -1.5363
 7691SOL     OW24513   1.596   2.932   8.573  0.2304  0.5133  0.8342
 7691SOL    HW124514   1.579   3.007   8.516  0.2926  0.1790  0.3705
 7691SOL    HW224515   1.508   2.902   8.599  0.2014  0.6561  0.9015
 7692SOL     OW24516   5.133   4.273   9.672 -0.2824  0.6017 -0.7102
 7692SOL    HW124517   5.162   4.309   9.589  0.6638 -0.7332 -1.0059
 7692SOL    HW224518   5.193   4.199   9.688  0.2352  1.4392  1.6493
 7693SOL     OW24519   3.891   3.606   8.126  0.3463 -0.4231 -0.1336
 7693SOL    HW124520   3.871   3.626   8.217  0.2188 -1.2311  0.0314
 7693SOL    HW224521   3.856   3.680   8.076  1.0719  0.3801  0.5238
 7694SOL     OW24522   1.066   0.516  10.164 -0.1726 -0.0895 -0.1150
 7694SOL    HW124523   1.086   0.597  10.116 -1.0450 -1.6729 -3.4826
 7694SOL    HW224524   0.970   0.513  10.168 -0.1289 -0.0674  1.7726
 7695SOL     OW24525   3.898   4.059   7.527 -0.3985  0.0354  0.0541
 7695SOL    HW124526   3.968   4.004   7.491  0.8674  1.2574  0.5687
 7695SOL    HW224527   3.871   4.114   7.453 -0.5858 -0.2071 -0.0587
 7696SOL     OW24528   1.276   7.784   6.160 -0.4212 -0.1902  0.2853
 7696SOL    HW124529   1.229   7.734   6.227 -0.6755 -0.4520 -0.0782
 7696SOL    HW224530   1.356   7.734   6.144 -0.1295  0.1249  0.7288
 7697SOL     OW24531   4.424   3.817   6.169 -0.1482  0.5095 -0.3514
 7697SOL    HW124532   4.371   3.739   6.186 -0.2529  1.0596  2.3058
 7697SOL    HW224533   4.379   3.861   6.096 -2.7769  0.3736  1.0428
 7698SOL     OW24534   0.325   0.636  10.891  0.3610  0.0291 -0.4519
 7698SOL    HW124535   0.270   0.593  10.956  1.0723 -0.6314 -0.2729
 7698SOL    HW224536   0.266   0.654  10.818 -0.3411  0.3713  0.1845
 7699SOL     OW24537   2.103   6.326   1.617 -0.6374 -0.1177 -0.2546
 7699SOL    HW124538   2.100   6.417   1.586 -1.4121 -0.2146 -0.4776
 7699SOL    HW224539   2.098   6.333   1.712 -1.3968  0.0512 -0.3015
 7700SOL     OW24540   6.316   4.465   7.905  0.6484 -0.3352  0.6625
 7700SOL    HW124541   6.354   4.394   7.853  0.3495 -1.3287  1.7652
 7700SOL    HW224542   6.259   4.511   7.844  1.1105 -0.8299 -0.1633
 7701SOL     OW24543   4.421   5.590  11.078  0.0221 -0.0731  0.6069
 7701SOL    HW124544   4.488   5.641  11.033 -0.5863  0.7062  0.5600
 7701SOL    HW224545   4.460   5.568  11.162  0.8604 -0.8380  0.0266
 7702SOL     OW24546   5.873   0.755   0.592 -0.5298  0.3769 -0.0025
 7702SOL    HW124547   5.808   0.740   0.523 -0.0942  1.4375 -0.6657
 7702SOL    HW224548   5.823   0.796   0.663 -0.4998  1.8213 -0.7733
 7703SOL     OW24549   2.323   6.428  10.291 -0.1323 -0.2502  0.1928
 7703SOL    HW124550   2.367   6.389  10.366 -2.6424 -2.1624  0.7973
 7703SOL    HW224551   2.353   6.376  10.216  1.6286  1.0526 -0.0892
 7704SOL     OW24552   0.044   7.036  11.085  1.0007 -0.5964 -0.1196
 7704SOL    HW124553   0.099   7.010  11.160  1.1880  0.0277 -0.0323
 7704SOL    HW224554   0.060   6.969  11.019  1.2809 -0.8403  0.1945
 7705SOL     OW24555   6.682   5.749   1.333  0.1894 -0.1854  0.2602
 7705SOL    HW124556   6.721   5.679   1.384  0.4846 -0.3830 -0.2264
 7705SOL    HW224557   6.646   5.809   1.398  0.4951 -0.4643  0.6941
 7706SOL     OW24558   7.532   0.815  11.449  0.0286 -0.3710  0.1758
 7706SOL    HW124559   7.445   0.778  11.463 -0.6944  0.5356 -1.5463
 7706SOL    HW224560   7.571   0.761  11.381 -0.3349  0.8649 -1.0726
 7707SOL     OW24561   4.055   4.535   0.253  0.0099  0.2066  0.2225
 7707SOL    HW124562   4.097   4.619   0.232 -0.3763  0.2763 -0.3172
 7707SOL    HW224563   4.127   4.476   0.275  0.3068  0.6070  0.3373
 7708SOL     OW24564   3.287   6.381   7.831 -0.1171  0.1666 -0.3362
 7708SOL    HW124565   3.334   6.367   7.913  0.3394 -1.1669 -0.8072
 7708SOL    HW224566   3.350   6.357   7.763 -0.4549  1.3432 -1.0960
 7709SOL     OW24567   1.872   4.717   2.756  0.1998  0.2994  0.1599
 7709SOL    HW124568   1.778   4.727   2.743  0.4638  2.6442 -0.4047
 7709SOL    HW224569   1.885   4.735   2.849  0.0713 -0.5446  0.3551
 7710SOL     OW24570   6.822   3.256   7.941  0.5023  0.1501 -0.0612
 7710SOL    HW124571   6.839   3.188   8.006  0.5751 -1.7074 -1.9165
 7710SOL    HW224572   6.733   3.286   7.960  0.8213  0.2654  1.3840
 7711SOL     OW24573   3.125   1.037  11.932  0.1936 -0.2094  0.1843
 7711SOL    HW124574   3.163   0.949  11.933  1.1288  0.1711  1.6386
 7711SOL    HW224575   3.182   1.087  11.874 -0.6807 -0.6596 -1.1219
 7712SOL     OW24576   3.244   1.607   4.733  0.3307  0.3047 -0.5763
 7712SOL    HW124577   3.248   1.675   4.666 -0.9993  0.2473 -0.7422
 7712SOL    HW224578   3.304   1.638   4.801  1.1309  0.7257 -1.4503
 7713SOL     OW24579   3.308   5.743   0.116  0.3661 -0.4402 -0.4015
 7713SOL    HW124580   3.394   5.711   0.092  0.4541  1.2482 -2.7040
 7713SOL    HW224581   3.284   5.803   0.045 -2.3400 -0.2006  0.5853
 7714SOL     OW24582   4.075   0.858   4.236 -0.0234  0.1332 -0.2218
 7714SOL    HW124583   4.058   0.852   4.142  3.2002  1.6364 -1.0468
 7714SOL    HW224584   4.026   0.936   4.263  0.6127  0.9025 -1.1699
 7715SOL     OW24585   6.443   2.535   8.706 -1.0528 -0.6104 -0.2309
 7715SOL    HW124586   6.399   2.465   8.658  0.5471 -0.9930 -1.1844
 7715SOL    HW224587   6.402   2.616   8.674 -0.6471 -0.9231 -1.5601
 7716SOL     OW24588   2.329   0.045   9.096 -0.9072 -0.3619  0.1101
 7716SOL    HW124589   2.312   0.006   9.010  1.3780  0.2421 -0.6981
 7716SOL    HW224590   2.373   0.128   9.076 -0.0991 -0.3323  1.8421
 7717SOL     OW24591   4.485   1.547  11.898 -0.8604  0.1984 -0.2776
 7717SOL    HW124592   4.484   1.642  11.910  0.2598  0.1023  0.7320
 7717SOL    HW224593   4.552   1.532  11.832 -0.4645  0.0456  0.1625
 7718SOL     OW24594   7.779   3.946   8.373  0.0560  0.0465  0.7662
 7718SOL    HW124595   7.725   3.900   8.438 -0.7663  0.0419  0.1030
 7718SOL    HW224596   7.736   4.031   8.363  0.2767  0.1126  0.3635
 7719SOL     OW24597   5.714   5.905   7.823  0.6727  0.3029  0.0333
 7719SOL    HW124598   5.759   5.980   7.784 -0.2399  0.1491 -1.3883
 7719SOL    HW224599   5.638   5.892   7.767 -0.3187 -0.3898  1.4970
 7720SOL     OW24600   3.973   1.239   8.537  0.2521  0.1468  0.3066
 7720SOL    HW124601   4.061   1.272   8.554  0.0119  1.4997 -0.8731
 7720SOL    HW224602   3.920   1.273   8.609  0.9282 -1.9172  1.8538
 7721SOL     OW24603   7.737   7.985   4.694  0.2560  1.0844 -0.0451
 7721SOL    HW124604   7.687   8.066   4.701 -2.7614 -0.6654  0.4859
 7721SOL    HW224605   7.793   7.984   4.771 -1.7964  1.3840  1.5187
 7722SOL     OW24606   7.698   3.909   8.103  0.4239  0.2609  0.1257
 7722SOL    HW124607   7.780   3.905   8.052  0.4123 -0.2904  0.1380
 7722SOL    HW224608   7.725   3.885   8.191  0.1233 -0.7128 -0.0358
 7723SOL     OW24609   6.231   2.699   8.173 -0.1665  0.0796  0.1214
 7723SOL    HW124610   6.165   2.634   8.152  0.0108 -0.5455  1.4362
 7723SOL    HW224611   6.235   2.755   8.095 -0.3611 -1.4292 -1.0057
 7724SOL     OW24612   5.301   7.621  12.011 -0.4072  0.0037  0.4445
 7724SOL    HW124613   5.230   7.562  11.984  1.2828 -1.5641 -0.7686
 7724SOL    HW224614   5.280   7.704  11.967 -0.8729 -0.7937 -0.9131
 7725SOL     OW24615   5.274   6.994   2.260 -0.0774  0.3111 -0.6107
 7725SOL    HW124616   5.220   7.027   2.188  0.4796  0.2332 -1.0684
 7725SOL    HW224617   5.212   6.945   2.315 -0.2221 -1.1714 -1.9915
 7726SOL     OW24618   7.339   1.417  10.277  0.1541 -0.1660  0.1845
 7726SOL    HW124619   7.279   1.385  10.344  1.5046 -2.3040  0.4711
 7726SOL    HW224620   7.408   1.462  10.326 -0.3687  0.9252 -0.0379
 7727SOL     OW24621   1.286   7.120   9.340  0.2465  0.1338  0.4786
 7727SOL    HW124622   1.208   7.092   9.387 -1.6047 -0.6984 -2.7956
 7727SOL    HW224623   1.357   7.068   9.379 -1.3039 -1.2702  1.5880
 7728SOL     OW24624   1.142   5.777   4.018 -0.2601  0.4627  0.5754
 7728SOL    HW124625   1.109   5.820   4.097 -1.3453  0.0177  0.3757
 7728SOL    HW224626   1.169   5.690   4.047 -0.6562  0.3000  0.4643
 7729SOL     OW24627   0.766   1.491   8.016  0.0062 -0.5387 -0.1067
 7729SOL    HW124628   0.845   1.461   8.061  1.4268  0.4221 -1.8455
 7729SOL    HW224629   0.786   1.483   7.923 -2.2998 -1.0986 -0.6221
 7730SOL     OW24630   2.756   0.613   9.691  0.6232 -0.3411  0.3979
 7730SOL    HW124631   2.668   0.578   9.676  0.1044  1.1208 -0.1182
 7730SOL    HW224632   2.811   0.569   9.626  0.0505 -0.3904 -0.0530
 7731SOL     OW24633   7.364   6.099   0.914  0.2034 -0.1584  0.1793
 7731SOL    HW124634   7.402   6.110   1.002 -0.8768  1.2579  0.4928
 7731SOL    HW224635   7.359   6.187   0.879  0.0429 -0.6583 -1.0866
 7732SOL     OW24636   5.374   3.461   4.806 -0.0496 -0.5993  0.2621
 7732SOL    HW124637   5.337   3.528   4.865  0.2200  1.3892 -1.6813
 7732SOL    HW224638   5.316   3.386   4.816 -3.6760  1.7025 -1.2502
 7733SOL     OW24639   6.902   0.698   0.411 -0.5736 -0.0487  0.6562
 7733SOL    HW124640   6.854   0.635   0.464  0.6864 -0.3924  1.4261
 7733SOL    HW224641   6.950   0.644   0.348 -0.7345  0.2491  0.2783
 7734SOL     OW24642   5.977   0.536   9.822 -0.2816 -0.1155  0.4159
 7734SOL    HW124643   5.947   0.489   9.900 -1.9763  0.2444  0.0415
 7734SOL    HW224644   5.934   0.622   9.829 -0.8828 -0.2562 -1.1462
 7735SOL     OW24645   1.937   1.446   5.230 -0.9460  0.0701 -0.2566
 7735SOL    HW124646   2.020   1.490   5.249 -0.1955 -1.0822 -0.7794
 7735SOL    HW224647   1.887   1.511   5.181  0.6045  0.0161 -2.0491
 7736SOL     OW24648   5.927   2.314   7.940  0.0675 -0.2899 -0.7427
 7736SOL    HW124649   5.937   2.258   8.017 -0.3969 -1.3985 -1.4677
 7736SOL    HW224650   5.834   2.336   7.937 -0.4899 -2.5345 -2.4804
 7737SOL     OW24651   1.756   4.729   6.690  0.2856  0.0745  0.3005
 7737SOL    HW124652   1.778   4.710   6.599  2.4410  2.1868  0.2613
 7737SOL    HW224653   1.680   4.787   6.685 -2.0065 -2.7113  0.1395
 7738SOL     OW24654   6.493   2.253   4.554 -0.1440  0.1638  0.5003
 7738SOL    HW124655   6.441   2.304   4.616  0.8674  1.7859  0.0955
 7738SOL    HW224656   6.550   2.199   4.609  0.3414  1.1521  0.9883
 7739SOL     OW24657   3.068   5.390  12.374 -0.3907  0.0364  0.1879
 7739SOL    HW124658   3.156   5.428  12.375 -0.5518  0.4332 -0.4280
 7739SOL    HW224659   3.073   5.321  12.307 -0.5587  0.0742  0.1375
 7740SOL     OW24660   2.105   5.642  12.306 -0.0575  0.4439 -0.2336
 7740SOL    HW124661   2.165   5.679  12.241  1.3128 -1.0467  0.1096
 7740SOL    HW224662   2.083   5.556  12.271  0.4512 -0.2460  1.0925
 7741SOL     OW24663   1.840   2.556   2.736  0.3527  0.5008 -0.2026
 7741SOL    HW124664   1.900   2.523   2.803 -0.0847  0.3088  0.1024
 7741SOL    HW224665   1.894   2.568   2.658  1.1468  1.9340  0.5235
 7742SOL     OW24666   2.246   5.468   7.213  0.0440 -0.0577 -0.0147
 7742SOL    HW124667   2.158   5.446   7.243  0.1843  0.5373  0.8788
 7742SOL    HW224668   2.295   5.386   7.220  0.4538  0.3362  2.8510
 7743SOL     OW24669   1.875   4.494   4.943  0.1742 -1.0615  0.0247
 7743SOL    HW124670   1.885   4.427   4.876  0.2165  0.4965 -1.6264
 7743SOL    HW224671   1.901   4.575   4.899  0.2429  0.0280  1.9645
 7744SOL     OW24672   3.645   0.716   8.608 -0.5397  0.2640  0.2828
 7744SOL    HW124673   3.651   0.771   8.530 -2.0251 -1.7099 -1.3519
 7744SOL    HW224674   3.595   0.769   8.671 -1.1948  1.1225 -0.9124
 7745SOL     OW24675   3.394   3.686   7.097 -0.3784 -0.0855 -0.3940
 7745SOL    HW124676   3.393   3.748   7.024 -0.3172  1.0348  0.5343
 7745SOL    HW224677   3.483   3.649   7.095  0.4245  1.6787  0.5112
 7746SOL     OW24678   6.514   1.943  10.928  0.3935  0.3233  0.3801
 7746SOL    HW124679   6.420   1.930  10.916  0.3965  2.1771 -2.9708
 7746SOL    HW224680   6.554   1.864  10.890  0.1891  0.7930 -0.8448
 7747SOL     OW24681   3.349   7.960  12.148 -0.4840  0.4544 -0.4423
 7747SOL    HW124682   3.306   8.040  12.177  0.1561  1.0873 -1.1845
 7747SOL    HW224683   3.375   7.977  12.058 -2.3235 -1.4305 -1.4276
 7748SOL     OW24684   0.296   4.037  11.620  0.0031 -0.0227 -0.6143
 7748SOL    HW124685   0.245   3.971  11.573 -0.4043 -0.1603  0.0093
 7748SOL    HW224686   0.320   3.994  11.702 -1.7012  1.1475  0.5624
 7749SOL     OW24687   0.532   2.964  11.849 -0.0763  0.1295  0.0211
 7749SOL    HW124688   0.586   2.916  11.913 -0.4202 -0.5957 -0.2229
 7749SOL    HW224689   0.449   2.917  11.848 -0.9570  1.6028  0.8389
 7750SOL     OW24690   5.709   4.744   3.075  0.1394 -0.6327  0.2260
 7750SOL    HW124691   5.665   4.671   3.120 -1.1145 -1.2054 -1.7919
 7750SOL    HW224692   5.637   4.795   3.037  1.1070  0.2802 -0.4267
 7751SOL     OW24693   4.213   3.742   4.250 -0.0330  0.3099 -0.3220
 7751SOL    HW124694   4.128   3.736   4.294  0.5030 -1.2864  0.6109
 7751SOL    HW224695   4.224   3.835   4.231 -0.6657  0.9767  2.2093
 7752SOL     OW24696   6.379   3.089   9.689  0.0506  0.3635 -0.6361
 7752SOL    HW124697   6.406   3.071   9.779  0.7201  2.3954 -0.3697
 7752SOL    HW224698   6.303   3.033   9.674 -0.6015  0.5993  1.5130
 7753SOL     OW24699   2.493   4.614  10.102  0.2402  0.4715  0.2879
 7753SOL    HW124700   2.482   4.696  10.054 -1.0566 -0.5315 -1.2245
 7753SOL    HW224701   2.429   4.619  10.173 -2.4715 -0.6292 -1.8934
 7754SOL     OW24702   1.130   4.939  11.576 -0.3140  0.0790 -0.0445
 7754SOL    HW124703   1.045   4.895  11.584  0.5510 -1.2321  3.1046
 7754SOL    HW224704   1.187   4.874  11.535 -0.2836  0.1578 -0.1284
 7755SOL     OW24705   2.744   0.433   5.803  0.1761  0.0793 -0.0341
 7755SOL    HW124706   2.774   0.509   5.754  0.7976  0.1345  0.4242
 7755SOL    HW224707   2.785   0.358   5.759  0.1756  0.0718 -0.0219
 7756SOL     OW24708   1.369   4.859   1.559  0.2652 -0.3091 -0.0158
 7756SOL    HW124709   1.292   4.844   1.503  0.1170  0.9755 -0.1831
 7756SOL    HW224710   1.332   4.888   1.642  0.5029 -1.8400  0.6467
 7757SOL     OW24711   7.549   2.283   5.345  0.6155 -0.0364 -0.5311
 7757SOL    HW124712   7.483   2.238   5.292  2.2097 -0.8008 -1.9504
 7757SOL    HW224713   7.541   2.375   5.321 -0.5191  0.0258  0.0009
 7758SOL     OW24714   4.022   6.451   6.319 -0.0287 -0.1887 -0.0669
 7758SOL    HW124715   4.070   6.469   6.399 -1.2036 -1.2142  0.9284
 7758SOL    HW224716   3.941   6.408   6.349 -0.3175 -0.9646 -1.8191
 7759SOL     OW24717   6.191   2.914  12.152 -0.0962 -0.2517  0.4562
 7759SOL    HW124718   6.246   2.965  12.092 -1.9723  0.7327 -0.5436
 7759SOL    HW224719   6.245   2.840  12.178  0.9734 -0.5285 -2.1861
 7760SOL     OW24720   1.572   1.440   7.637 -0.0590  0.4563 -0.7427
 7760SOL    HW124721   1.593   1.513   7.578  1.8684  0.2689 -0.3725
 7760SOL    HW224722   1.621   1.366   7.602 -1.7518 -0.6169 -0.9297
 7761SOL     OW24723   4.828   0.957   5.384 -0.2515  0.4419  0.2851
 7761SOL    HW124724   4.745   0.956   5.433 -0.7129  0.8622 -0.4670
 7761SOL    HW224725   4.895   0.941   5.451 -0.9776 -0.5276  0.8121
 7762SOL     OW24726   0.337   5.130   9.560  0.4192  0.1104 -0.0128
 7762SOL    HW124727   0.316   5.091   9.475 -0.2103 -1.3931  0.7930
 7762SOL    HW224728   0.421   5.091   9.585 -0.5865 -1.4465  1.1523
 7763SOL     OW24729   5.637   7.099   6.138 -0.1397  0.5386 -0.6155
 7763SOL    HW124730   5.710   7.058   6.094  0.4464 -0.3850  1.1178
 7763SOL    HW224731   5.568   7.033   6.139 -0.2515  0.6558 -0.4055
 7764SOL     OW24732   6.582   1.508  11.857  0.0340  0.3613  0.9990
 7764SOL    HW124733   6.673   1.482  11.846 -0.1358 -0.2553  0.9915
 7764SOL    HW224734   6.579   1.599  11.827  0.5001  0.1615  0.3063
 7765SOL     OW24735   4.049   6.415   3.615 -0.4123  0.2251 -0.5407
 7765SOL    HW124736   4.015   6.448   3.532 -2.8745  0.2614  0.4023
 7765SOL    HW224737   3.972   6.387   3.663  0.8200  1.1218  2.1564
 7766SOL     OW24738   3.114   7.786   0.727 -0.5675  0.4717 -0.3394
 7766SOL    HW124739   3.155   7.835   0.656 -2.5648  1.7713 -0.7002
 7766SOL    HW224740   3.044   7.844   0.759 -0.2695 -0.4098  2.1535
 7767SOL     OW24741   6.191   3.249   1.172 -0.3740 -0.5136 -0.2035
 7767SOL    HW124742   6.184   3.250   1.077 -1.7802 -0.5913 -0.1217
 7767SOL    HW224743   6.178   3.158   1.196  3.5628 -1.1913 -0.1051
 7768SOL     OW24744   0.286   3.320  10.735 -0.1653 -0.3448  0.0705
 7768SOL    HW124745   0.302   3.411  10.708 -0.2214 -0.0376  1.0215
 7768SOL    HW224746   0.369   3.292  10.773  0.1637 -1.0414 -1.1009
 7769SOL     OW24747   1.869   7.703   6.755  0.1355  0.0815  0.3624
 7769SOL    HW124748   1.916   7.785   6.773  0.5429  0.0298 -0.3956
 7769SOL    HW224749   1.935   7.647   6.715 -0.5832  0.0414 -0.8265
 7770SOL     OW24750   2.263   2.439   9.687 -0.1076 -0.1971  0.2897
 7770SOL    HW124751   2.176   2.401   9.672 -0.6244  0.3073  1.8367
 7770SOL    HW224752   2.247   2.534   9.692  0.4198 -0.1470  1.1937
 7771SOL     OW24753   2.956   4.035  10.727 -0.8183  0.0188  0.1979
 7771SOL    HW124754   2.965   3.979  10.650  0.0897 -0.9205  0.9483
 7771SOL    HW224755   2.903   4.109  10.697  2.1222  1.3515 -2.2207
 7772SOL     OW24756   0.637   5.161   1.592 -0.2426  0.7205  0.3008
 7772SOL    HW124757   0.686   5.117   1.661  0.1152  1.6108  0.6327
 7772SOL    HW224758   0.556   5.111   1.583  0.7351 -0.8339 -0.3103
 7773SOL     OW24759   7.267   2.572   4.336  0.3392  0.3039 -0.8637
 7773SOL    HW124760   7.195   2.516   4.307  1.1654 -1.3393  0.1279
 7773SOL    HW224761   7.346   2.521   4.318  1.1397  1.2646 -0.1777
 7774SOL     OW24762   3.854   3.732   4.726  0.5413 -0.0545  0.1174
 7774SOL    HW124763   3.948   3.743   4.744  0.4008 -0.6078  1.2905
 7774SOL    HW224764   3.851   3.691   4.640  1.3546  0.5087 -0.1918
 7775SOL     OW24765   5.211   5.444  12.462  0.5326  0.6793 -0.0983
 7775SOL    HW124766   5.127   5.399  12.452  1.4674 -1.2231  0.1182
 7775SOL    HW224767   5.225   5.448  12.556  1.3722 -0.4299 -0.1555
 7776SOL     OW24768   2.031   3.363  10.836 -0.0636 -0.0767 -0.1693
 7776SOL    HW124769   2.102   3.300  10.850 -0.6141 -0.6354  0.1391
 7776SOL    HW224770   1.957   3.311  10.805 -0.9055  0.2282  1.2469
 7777SOL     OW24771   0.983   7.170  12.426  0.1974  0.6222  0.0989
 7777SOL    HW124772   1.071   7.196  12.452  0.6557 -1.6079  1.0543
 7777SOL    HW224773   0.925   7.224  12.479  1.0537  0.5217  1.1729
 7778SOL     OW24774   1.718   4.187   7.701 -0.3094  0.1231  0.7655
 7778SOL    HW124775   1.814   4.189   7.701 -0.2680  2.8805  0.1624
 7778SOL    HW224776   1.694   4.158   7.789  1.0565 -1.2318  0.7214
 7779SOL     OW24777   2.109   5.233  11.283  0.4541  0.1123  0.2425
 7779SOL    HW124778   2.123   5.154  11.231  0.1028  0.5703 -0.5754
 7779SOL    HW224779   2.168   5.298  11.245  0.8141  0.2264  0.9715
 7780SOL     OW24780   2.738   2.744   9.742 -0.4121 -0.1563 -0.2096
 7780SOL    HW124781   2.692   2.758   9.659 -2.2664 -1.6094  0.5090
 7780SOL    HW224782   2.716   2.821   9.794 -0.3191  0.1358 -0.5950
 7781SOL     OW24783   0.478   5.013  11.676  0.2076 -0.1986 -0.7220
 7781SOL    HW124784   0.494   4.965  11.757 -0.5875 -1.2946 -1.1873
 7781SOL    HW224785   0.393   5.056  11.691  0.7101  0.7282 -0.4714
 7782SOL     OW24786   5.493   3.617   0.945  0.1078  0.0861  0.2989
 7782SOL    HW124787   5.581   3.580   0.935  0.2651  0.0774  1.5210
 7782SOL    HW224788   5.503   3.684   1.012 -1.1709 -1.2937  1.9870
 7783SOL     OW24789   7.919   1.759  11.348 -0.6174  0.4268 -0.6549
 7783SOL    HW124790   8.000   1.709  11.361  0.5229  1.9099 -1.5509
 7783SOL    HW224791   7.940   1.817  11.275 -2.2718  1.3722 -0.4161
 7784SOL     OW24792   5.735   1.543  11.329  0.1384  0.0507  0.0398
 7784SOL    HW124793   5.771   1.488  11.398 -0.6366  1.1523  1.3725
 7784SOL    HW224794   5.806   1.602  11.306  0.1683  0.1709  0.4317
 7785SOL     OW24795   6.540   4.666   1.527  0.1045  0.0355 -0.6681
 7785SOL    HW124796   6.586   4.749   1.537 -1.6899  1.2462 -1.7340
 7785SOL    HW224797   6.529   4.633   1.616  0.4679  1.1605 -0.1967
 7786SOL     OW24798   4.954   5.401   0.505  0.1591  0.2634 -0.2632
 7786SOL    HW124799   5.015   5.450   0.560 -0.2531 -0.8469  1.2675
 7786SOL    HW224800   4.879   5.384   0.562 -1.4664  1.2737 -1.9768
 7787SOL     OW24801   0.659   5.068  11.004  0.1781 -0.0613 -0.4855
 7787SOL    HW124802   0.681   4.999  10.941  0.7484  1.1134 -1.6343
 7787SOL    HW224803   0.612   5.133  10.952  0.0202  0.6081  0.4721
 7788SOL     OW24804   7.018   7.254   0.530 -0.4382 -0.2485  0.0379
 7788SOL    HW124805   6.963   7.246   0.609 -0.1873 -1.0165  0.1499
 7788SOL    HW224806   7.067   7.172   0.528 -0.1133 -0.0386 -0.6791
 7789SOL     OW24807   1.436   3.386   9.195 -0.4693 -0.6610  0.1090
 7789SOL    HW124808   1.467   3.465   9.238 -0.3054 -1.2608  1.1440
 7789SOL    HW224809   1.341   3.387   9.210 -0.5184 -0.4727 -0.2082
 7790SOL     OW24810   7.254   0.526   7.283  0.1328  0.0030  0.0698
 7790SOL    HW124811   7.201   0.452   7.252  0.2494 -0.1594  0.2586
 7790SOL    HW224812   7.213   0.552   7.365  0.0417  0.2026 -0.0393
 7791SOL     OW24813   6.081   1.012  11.792 -0.1076  0.1531 -0.0002
 7791SOL    HW124814   6.162   1.038  11.748  0.3144 -1.2173 -0.0535
 7791SOL    HW224815   6.082   0.917  11.792 -0.6113  0.0958  2.0189
 7792SOL     OW24816   2.682   0.756   5.231 -0.4161  0.2408 -0.0171
 7792SOL    HW124817   2.613   0.795   5.178  0.0627  0.4552 -0.4921
 7792SOL    HW224818   2.661   0.662   5.233 -0.7095  0.3025 -0.1644
 7793SOL     OW24819   2.431   3.560  10.553 -0.4363  0.0299  0.4750
 7793SOL    HW124820   2.526   3.551  10.566  0.0874  3.1669 -0.3839
 7793SOL    HW224821   2.405   3.626  10.617 -1.4108  1.5201 -1.3829
 7794SOL     OW24822   6.151   1.367   5.980 -0.0731 -0.1184 -0.8685
 7794SOL    HW124823   6.184   1.449   6.017 -1.2229 -0.1308  0.2745
 7794SOL    HW224824   6.189   1.299   6.035  0.4562 -0.3329 -1.4873
 7795SOL     OW24825   2.512   0.186   3.013  0.2281 -0.2423 -0.0508
 7795SOL    HW124826   2.462   0.141   2.944  1.5370 -1.1221 -0.4827
 7795SOL    HW224827   2.464   0.168   3.094 -0.3667 -0.7123 -0.5007
 7796SOL     OW24828   4.859   0.008   1.480  0.0526 -0.2954 -0.4372
 7796SOL    HW124829   4.860  -0.000   1.385  1.0394  0.3703 -0.5038
 7796SOL    HW224830   4.944  -0.027   1.508 -1.3090 -3.2273  0.4990
 7797SOL     OW24831   3.428   1.333   3.829 -0.6360  0.2696 -0.4549
 7797SOL    HW124832   3.456   1.390   3.901  2.2610 -0.4666 -0.8483
 7797SOL    HW224833   3.407   1.249   3.871  0.6466 -0.0314 -0.3579
 7798SOL     OW24834   5.329   2.323   6.306 -0.7514  0.7773  0.0253
 7798SOL    HW124835   5.236   2.343   6.324 -0.2971  3.3435 -0.1035
 7798SOL    HW224836   5.364   2.299   6.392 -1.2682  0.9148  0.2833
 7799SOL     OW24837   1.317   4.762   3.740  0.3911  0.2554  0.4677
 7799SOL    HW124838   1.291   4.682   3.785  2.1766 -0.1370  0.8841
 7799SOL    HW224839   1.310   4.741   3.647 -3.5472  1.1438  0.3764
 7800SOL     OW24840   3.055   3.554   1.891  0.0609 -0.8692  0.1868
 7800SOL    HW124841   3.072   3.646   1.914 -0.2067 -0.3812 -1.4201
 7800SOL    HW224842   3.081   3.505   1.969 -1.6343  0.6903  1.8804
 7801SOL     OW24843   0.760   5.630   0.922  0.4381  0.4284  0.5239
 7801SOL    HW124844   0.681   5.601   0.968  0.9849 -0.9987  0.6247
 7801SOL    HW224845   0.807   5.683   0.986 -0.3988  1.2332  0.4844
 7802SOL     OW24846   2.961   2.199   1.238 -0.5899  0.0919  0.1305
 7802SOL    HW124847   2.922   2.262   1.177 -0.7939  0.7281  0.8997
 7802SOL    HW224848   2.989   2.252   1.313 -3.8486 -1.0317  2.3748
 7803SOL     OW24849   4.107   5.211   2.944  0.0687 -0.3887 -0.2155
 7803SOL    HW124850   4.067   5.156   3.011 -1.2615  0.2704 -0.4459
 7803SOL    HW224851   4.050   5.203   2.868  0.9990 -0.3181 -0.9455
 7804SOL     OW24852   3.516   1.474   5.189  0.5555 -0.1678 -0.0027
 7804SOL    HW124853   3.582   1.539   5.164 -0.2092  0.1315 -1.3843
 7804SOL    HW224854   3.551   1.391   5.156  0.1026  0.0472 -1.0736
 7805SOL     OW24855   0.649   6.589   1.402  0.8396  0.0688  0.2960
 7805SOL    HW124856   0.620   6.502   1.377  2.1157 -0.1636 -0.4664
 7805SOL    HW224857   0.589   6.648   1.355  0.0013 -0.3768  0.7797
 7806SOL     OW24858   0.113   7.900  11.221  0.4273 -0.5858 -0.2576
 7806SOL    HW124859   0.179   7.839  11.256  0.4042 -1.2439 -1.3038
 7806SOL    HW224860   0.140   7.914  11.130 -0.1491  0.1691 -0.3167
 7807SOL     OW24861   7.258   6.744   3.386  0.1888 -0.1912 -0.2513
 7807SOL    HW124862   7.239   6.773   3.475  0.0568  2.1784 -0.9842
 7807SOL    HW224863   7.352   6.756   3.377  0.4925 -2.0839  0.0828
 7808SOL     OW24864   6.423   6.355   4.802  0.4931 -0.3064  0.0814
 7808SOL    HW124865   6.365   6.388   4.734  0.4651 -0.4123  0.0544
 7808SOL    HW224866   6.385   6.387   4.884  2.0299  2.2091 -0.0819
 7809SOL     OW24867   3.963   1.487   1.690  0.6936  0.3086 -0.3483
 7809SOL    HW124868   4.038   1.546   1.686  1.5449 -0.7607 -0.6427
 7809SOL    HW224869   3.995   1.404   1.655 -1.0649  0.2438 -2.0052
 7810SOL     OW24870   2.271   5.429   5.284  0.2301  0.4279 -0.3589
 7810SOL    HW124871   2.210   5.397   5.350  0.2017  0.4251 -0.3866
 7810SOL    HW224872   2.342   5.470   5.334  0.6003 -0.2701 -0.2997
 7811SOL     OW24873   4.435   3.579   5.264 -0.6512 -0.4751  0.1548
 7811SOL    HW124874   4.422   3.494   5.306  1.6578 -0.7414  0.4809
 7811SOL    HW224875   4.408   3.643   5.330  1.7357 -0.9249  1.7082
 7812SOL     OW24876   2.555   3.567   2.147  0.0680 -0.5116 -0.3472
 7812SOL    HW124877   2.488   3.586   2.081  0.4885 -1.1048 -0.9611
 7812SOL    HW224878   2.567   3.649   2.193 -0.4097 -0.1475 -0.8534
 7813SOL     OW24879   7.323   6.217   4.705 -0.7900 -0.5534  0.0162
 7813SOL    HW124880   7.291   6.292   4.655  0.1532 -0.1670 -0.0244
 7813SOL    HW224881   7.295   6.235   4.795 -0.3738 -0.0323  0.0466
 7814SOL     OW24882   0.632   3.804   0.934  0.2753  0.0045 -0.2901
 7814SOL    HW124883   0.608   3.767   0.849 -0.2071 -0.0983 -0.1141
 7814SOL    HW224884   0.689   3.738   0.974  0.2390 -0.0931 -0.4007
 7815SOL     OW24885   3.264   4.946  10.726 -0.1109  0.0767 -0.2763
 7815SOL    HW124886   3.221   5.009  10.783 -0.1268  0.4074 -0.6484
 7815SOL    HW224887   3.350   4.984  10.709 -0.1812  0.0794 -0.6319
 7816SOL     OW24888   2.031   4.634  12.300  0.2605  0.1183  0.1982
 7816SOL    HW124889   2.092   4.637  12.374  1.0385 -0.0700 -0.4310
 7816SOL    HW224890   2.061   4.560  12.247  0.9146  1.4349 -1.3499
 7817SOL     OW24891   7.816   7.628   8.552 -0.0311  0.3427  0.1114
 7817SOL    HW124892   7.764   7.675   8.616  0.4893  1.1855 -0.0583
 7817SOL    HW224893   7.755   7.607   8.482 -0.0139  2.0631 -0.4813
 7818SOL     OW24894   7.227   3.462   4.024 -0.2852  0.3352 -0.0373
 7818SOL    HW124895   7.207   3.462   3.931 -0.1428 -0.5221 -0.0849
 7818SOL    HW224896   7.177   3.535   4.060 -1.0300  0.1397 -0.6417
 7819SOL     OW24897   2.377   0.184   3.252 -0.0596  0.0123  0.3266
 7819SOL    HW124898   2.381   0.254   3.318 -0.8485  0.9281 -0.5672
 7819SOL    HW224899   2.295   0.138   3.271  0.4451 -0.6782  0.8957
 7820SOL     OW24900   7.599   4.206  10.446  0.0699 -0.0733 -0.2086
 7820SOL    HW124901   7.567   4.122  10.480  1.0909 -0.7682 -0.9186
 7820SOL    HW224902   7.693   4.205  10.464  0.6124 -0.3246 -2.6560
 7821SOL     OW24903   2.513   3.620   4.869  0.1646 -0.0342 -0.1275
 7821SOL    HW124904   2.584   3.571   4.912  0.6560 -0.1883 -1.0998
 7821SOL    HW224905   2.515   3.591   4.778 -1.6085 -0.5582 -0.0377
 7822SOL     OW24906   3.325   1.767  11.256 -0.1236  0.2812  0.1778
 7822SOL    HW124907   3.383   1.740  11.185  0.0262  0.0299  0.3964
 7822SOL    HW224908   3.277   1.841  11.220 -1.2552 -0.8785 -0.7747
 7823SOL     OW24909   0.714   4.806   8.032  0.0200 -0.1681  0.1255
 7823SOL    HW124910   0.802   4.844   8.041 -0.3033  0.9540 -1.1752
 7823SOL    HW224911   0.659   4.860   8.090  0.2376 -1.1953  1.3466
 7824SOL     OW24912   2.931   1.934   6.261 -0.1282 -0.3354  0.6016
 7824SOL    HW124913   2.915   2.026   6.282  0.9785 -0.0196  0.1010
 7824SOL    HW224914   3.019   1.932   6.224 -0.2584 -1.5543  0.3082
 7825SOL     OW24915   5.812   7.209  10.977 -0.2021 -0.1628 -0.0483
 7825SOL    HW124916   5.817   7.180  10.885  0.9911 -0.6170  0.1395
 7825SOL    HW224917   5.778   7.298  10.972  0.9103  0.2453 -1.0490
 7826SOL     OW24918   2.659   5.169   0.952  0.2160 -0.0477 -0.4424
 7826SOL    HW124919   2.581   5.224   0.946  0.3763  0.3785  0.9591
 7826SOL    HW224920   2.717   5.203   0.884 -0.0599  0.9382 -0.2055
 7827SOL     OW24921   1.361   5.966   2.970 -0.0692  0.0880  0.1431
 7827SOL    HW124922   1.428   5.960   2.902 -0.3770 -0.3505 -0.1287
 7827SOL    HW224923   1.382   5.896   3.032 -0.0831  0.1631  0.2326
 7828SOL     OW24924   7.368   0.581   4.041 -0.1262 -0.0398 -0.7401
 7828SOL    HW124925   7.348   0.641   3.969  0.9820 -1.6022 -2.4323
 7828SOL    HW224926   7.381   0.496   3.999 -1.6400 -1.5215  1.5732
 7829SOL     OW24927   3.086   5.359   9.377  0.1904 -0.5703  0.0070
 7829SOL    HW124928   3.148   5.286   9.373 -1.8495 -2.3908 -0.4330
 7829SOL    HW224929   3.127   5.428   9.325  2.6503 -0.9656  1.2368
 7830SOL     OW24930   6.361   3.629   0.629  0.3679  0.5468 -0.0812
 7830SOL    HW124931   6.454   3.608   0.628  0.6014  1.5555 -0.6819
 7830SOL    HW224932   6.355   3.710   0.679 -0.3200 -0.0239  0.7932
 7831SOL     OW24933   4.451   3.021   3.623  0.0068 -0.4455  0.2411
 7831SOL    HW124934   4.373   2.965   3.626  1.9408 -3.3804 -0.3401
 7831SOL    HW224935   4.469   3.042   3.715 -1.7316  0.7484  0.3477
 7832SOL     OW24936   0.179   4.417   0.615 -0.3564  0.4788  0.0106
 7832SOL    HW124937   0.090   4.448   0.632 -0.6063  0.0725 -0.5402
 7832SOL    HW224938   0.227   4.496   0.591 -0.4301  0.7871  0.8389
 7833SOL     OW24939   1.618   4.937   1.825 -0.4380 -0.4364  0.9393
 7833SOL    HW124940   1.658   4.961   1.742  0.7592 -1.5926  1.1443
 7833SOL    HW224941   1.602   4.842   1.817 -0.8218 -0.4567  1.8209
 7834SOL     OW24942   1.965   1.432   0.943 -0.0594  0.4539  0.1617
 7834SOL    HW124943   2.037   1.439   0.881  0.5817 -3.2899  0.2664
 7834SOL    HW224944   1.938   1.523   0.960  2.4764  1.7908 -2.3171
 7835SOL     OW24945   3.203   7.438   6.446 -0.2132  0.0284  0.0608
 7835SOL    HW124946   3.270   7.373   6.465  1.5059  0.9151 -2.5552
 7835SOL    HW224947   3.217   7.507   6.512  0.6210 -0.3525  0.2894
 7836SOL     OW24948   6.451   3.248   0.649  0.4601  0.0157 -0.0288
 7836SOL    HW124949   6.546   3.237   0.644  0.5365  0.9636 -1.5087
 7836SOL    HW224950   6.422   3.247   0.558 -1.0805 -1.0711  0.4225
 7837SOL     OW24951   0.778   0.090   7.272  0.5514 -0.3527  0.1331
 7837SOL    HW124952   0.769   0.104   7.366  0.7949 -0.6685  0.2060
 7837SOL    HW224953   0.759   0.175   7.233  0.4492 -0.2213  0.4681
 7838SOL     OW24954   0.096   1.409   5.319 -0.1031 -0.0582  0.4424
 7838SOL    HW124955   0.005   1.403   5.349 -0.4010  0.9365 -0.2139
 7838SOL    HW224956   0.136   1.474   5.377 -0.1704  0.4672 -0.0936
 7839SOL     OW24957   6.335   7.705   0.723  0.1985 -0.3265 -0.0576
 7839SOL    HW124958   6.331   7.787   0.772 -0.1311  0.0523 -0.7060
 7839SOL    HW224959   6.362   7.640   0.787  2.0422  0.5700  0.1377
 7840SOL     OW24960   6.212   0.754  10.939  0.2560 -0.3933 -0.0791
 7840SOL    HW124961   6.153   0.758  10.863 -0.6596 -0.4786  0.6101
 7840SOL    HW224962   6.297   0.780  10.904 -0.2626  0.1058 -1.0274
 7841SOL     OW24963   0.086   3.597   5.042  0.0533  0.2731 -0.1783
 7841SOL    HW124964   0.097   3.686   5.007 -0.5078  0.3885 -0.0818
 7841SOL    HW224965   0.067   3.610   5.135  2.1973 -0.0626  0.3530
 7842SOL     OW24966   7.537   1.951   8.978 -0.1536 -0.0622  0.5504
 7842SOL    HW124967   7.517   1.961   9.071 -1.0291  0.5586  0.3065
 7842SOL    HW224968   7.554   1.858   8.966 -1.1241 -0.3190  1.1258
 7843SOL     OW24969   6.204   2.279   4.736 -0.2240  0.9632  0.0450
 7843SOL    HW124970   6.270   2.332   4.780  1.1141 -0.3840 -0.2588
 7843SOL    HW224971   6.145   2.250   4.805 -1.0331  2.8461  0.2088
 7844SOL     OW24972   0.854   1.885   0.054 -0.8417  0.2573 -0.2150
 7844SOL    HW124973   0.917   1.814   0.066 -1.4693 -0.3985 -0.6685
 7844SOL    HW224974   0.907   1.964   0.046 -0.1107 -0.2070 -0.0116
 7845SOL     OW24975   4.345   6.006  10.028 -0.3773  0.5336 -0.6834
 7845SOL    HW124976   4.355   6.021  10.122 -0.5181 -3.6471  0.2078
 7845SOL    HW224977   4.421   5.952  10.005 -0.9904  0.4637 -2.7056
 7846SOL     OW24978   1.163   3.806   0.775 -0.3357 -0.2956 -0.2953
 7846SOL    HW124979   1.102   3.877   0.796 -0.5068 -0.8552  1.2110
 7846SOL    HW224980   1.243   3.850   0.748 -0.3921  0.4856  0.7673
 7847SOL     OW24981   4.793   1.417  12.182 -0.0595 -0.5718 -0.8034
 7847SOL    HW124982   4.738   1.485  12.220 -0.3001 -0.1270 -1.9054
 7847SOL    HW224983   4.877   1.425  12.227 -0.6446 -0.7700  0.3677
 7848SOL     OW24984   0.448   1.698   0.421  0.2020 -0.0565 -0.4951
 7848SOL    HW124985   0.367   1.737   0.454  0.6519  0.0728  0.4896
 7848SOL    HW224986   0.437   1.604   0.437  0.3651 -0.0072 -0.0584
 7849SOL     OW24987   1.080   2.770   7.185 -0.3471 -0.0987 -0.2279
 7849SOL    HW124988   1.171   2.758   7.212 -0.1382  0.1762 -0.7711
 7849SOL    HW224989   1.037   2.807   7.261 -0.0975 -0.6052  0.1665
 7850SOL     OW24990   1.744   0.813  11.952  0.0341  0.1110 -0.7909
 7850SOL    HW124991   1.694   0.886  11.917 -1.4219 -0.7305 -0.5273
 7850SOL    HW224992   1.800   0.853  12.019 -2.1094  0.7878  0.7309
 7851SOL     OW24993   7.582   5.534   0.877  0.2121 -0.4949 -0.3143
 7851SOL    HW124994   7.676   5.513   0.872  0.4377  0.1003  1.1362
 7851SOL    HW224995   7.565   5.544   0.970 -0.9676  0.9106 -0.6642
 7852SOL     OW24996   7.080   4.677   5.604  0.1049  0.1325  0.1353
 7852SOL    HW124997   7.146   4.614   5.575 -0.5160 -0.2871 -0.3669
 7852SOL    HW224998   7.112   4.707   5.689 -0.3528 -1.9786  1.1163
 7853SOL     OW24999   4.344   0.093  11.668  0.5509 -0.4231 -0.0517
 7853SOL    HW125000   4.378   0.172  11.626  0.9882 -0.7190 -0.2648
 7853SOL    HW225001   4.262   0.121  11.708  0.8451  0.2089  0.1287
 7854SOL     OW25002   4.720   1.754   5.286 -0.1476  0.4075 -0.9000
 7854SOL    HW125003   4.675   1.757   5.370 -0.5055 -0.2123 -1.0709
 7854SOL    HW225004   4.680   1.824   5.234  1.9381  2.7154  0.3493
 7855SOL     OW25005   7.083   0.554   9.338  0.2482  0.4861  0.3300
 7855SOL    HW125006   7.069   0.534   9.246  1.4961  0.0575  0.2023
 7855SOL    HW225007   6.995   0.561   9.376 -0.3518  2.7227 -1.2797
 7856SOL     OW25008   1.039   5.092   2.709 -0.3436  0.8045 -0.2788
 7856SOL    HW125009   1.075   5.121   2.625  1.1772 -1.1264 -0.3391
 7856SOL    HW225010   0.998   5.008   2.690 -1.4439  1.1088  0.6255
 7857SOL     OW25011   3.152   7.654   9.681 -0.0851  0.2331  0.3109
 7857SOL    HW125012   3.227   7.629   9.627 -0.0427  0.7136  0.1472
 7857SOL    HW225013   3.120   7.571   9.717  1.2242  0.1362  1.3238
 7858SOL     OW25014   4.024   5.124   3.782  0.8217 -0.0847 -0.1347
 7858SOL    HW125015   4.053   5.043   3.740  0.6230  0.4972 -1.4659
 7858SOL    HW225016   4.061   5.193   3.727 -1.1777  0.6906 -0.5689
 7859SOL     OW25017   6.852   5.239  10.908  0.4587 -0.1101  0.5526
 7859SOL    HW125018   6.796   5.284  10.845  0.5949 -0.3648  0.2461
 7859SOL    HW225019   6.870   5.154  10.868  1.1464  0.0062  0.5953
 7860SOL     OW25020   7.333   3.930   3.353  0.2809  0.5481 -0.2988
 7860SOL    HW125021   7.407   3.878   3.322 -0.0463  0.6259 -1.2690
 7860SOL    HW225022   7.352   3.948   3.445  1.5002  0.6297 -0.5533
 7861SOL     OW25023   5.005   2.266   8.802 -0.0562  0.0221  0.2049
 7861SOL    HW125024   5.097   2.271   8.775 -0.4095 -0.2340 -1.1063
 7861SOL    HW225025   4.990   2.346   8.851  1.0406 -0.2455  1.0230
 7862SOL     OW25026   6.522   2.853   8.591 -0.2473 -0.1027 -0.1668
 7862SOL    HW125027   6.438   2.880   8.627 -0.0384 -0.3620  0.5238
 7862SOL    HW225028   6.577   2.931   8.595 -0.1020 -0.2319  0.4565
 7863SOL     OW25029   1.207   2.953   9.656 -0.4812  0.4163  0.2176
 7863SOL    HW125030   1.197   2.885   9.723 -3.0331  0.2179 -0.2714
 7863SOL    HW225031   1.118   2.977   9.633  0.3436  1.6194 -1.9972
 7864SOL     OW25032   3.549   1.000   6.424  0.1163 -0.0342  0.1385
 7864SOL    HW125033   3.463   0.967   6.446  0.6301 -0.4031  1.6691
 7864SOL    HW225034   3.606   0.969   6.494  1.6862 -0.5871 -1.3086
 7865SOL     OW25035   0.165   4.430  11.131 -0.4446 -0.0837 -0.0513
 7865SOL    HW125036   0.240   4.381  11.166 -1.3323 -1.7311 -0.3402
 7865SOL    HW225037   0.089   4.387  11.170 -1.2734  1.4160  0.0611
 7866SOL     OW25038   4.881   1.149   7.366  0.2284  0.0249  0.0223
 7866SOL    HW125039   4.959   1.205   7.367 -0.2895  0.7561  0.4044
 7866SOL    HW225040   4.809   1.208   7.391 -0.4477 -0.6372 -0.3360
 7867SOL     OW25041   4.953   0.164  10.139 -0.5314  0.0333 -0.1363
 7867SOL    HW125042   5.047   0.146  10.136 -0.2791  1.3176 -0.2781
 7867SOL    HW225043   4.913   0.080  10.162  0.5389 -0.8312 -1.3682
 7868SOL     OW25044   4.719   1.029   2.235  0.2052 -0.0746 -0.1564
 7868SOL    HW125045   4.807   1.024   2.199  0.5248 -0.9148  0.6996
 7868SOL    HW225046   4.661   1.022   2.159  0.8637 -0.6046 -0.6206
 7869SOL     OW25047   0.530   1.349   4.609 -0.2364 -0.5806 -0.1149
 7869SOL    HW125048   0.568   1.264   4.631  1.1585 -0.1371 -0.7235
 7869SOL    HW225049   0.496   1.337   4.520 -0.8244 -0.7400  0.1250
 7870SOL     OW25050   2.211   6.696   7.631 -0.3314 -0.1910 -0.3168
 7870SOL    HW125051   2.214   6.601   7.639 -1.1347 -0.1531  0.6028
 7870SOL    HW225052   2.289   6.727   7.677  0.5726 -0.4309 -1.6194
 7871SOL     OW25053   1.471   7.441  12.073 -0.4048  0.4180  0.0919
 7871SOL    HW125054   1.409   7.405  12.009  0.5669 -4.0219  1.3678
 7871SOL    HW225055   1.437   7.413  12.158  0.2555  3.1405  1.3865
 7872SOL     OW25056   1.340   1.132   4.428 -0.4711  0.0741 -0.7021
 7872SOL    HW125057   1.304   1.185   4.499  0.8272  2.4595 -1.6933
 7872SOL    HW225058   1.418   1.092   4.464 -1.3936 -1.1236  0.0235
 7873SOL     OW25059   3.053   0.672   6.183  0.6688 -0.2807 -0.6260
 7873SOL    HW125060   3.085   0.607   6.121  3.0168  0.1783 -0.0009
 7873SOL    HW225061   3.124   0.682   6.246 -0.8835  0.6456  1.0652
 7874SOL     OW25062   4.824   1.193   5.264  0.0551 -0.2450  0.4473
 7874SOL    HW125063   4.746   1.175   5.212  0.3892 -0.1218 -0.1051
 7874SOL    HW225064   4.846   1.109   5.304  0.0466 -0.4474  0.0329
 7875SOL     OW25065   1.178   4.764   6.015 -0.2016 -0.0272 -0.7284
 7875SOL    HW125066   1.241   4.757   6.087  1.0037  0.6993 -1.6739
 7875SOL    HW225067   1.119   4.690   6.028 -0.2199  0.2584  1.1792
 7876SOL     OW25068   2.148   6.354   6.432  0.0176  0.1509 -0.1667
 7876SOL    HW125069   2.116   6.264   6.425  0.5252 -0.1503  0.9936
 7876SOL    HW225070   2.179   6.376   6.345 -0.9345 -0.4765 -0.6800
 7877SOL     OW25071   2.073   6.539   2.248  0.4179 -0.1900  0.0009
 7877SOL    HW125072   2.026   6.493   2.179  2.3692  0.5318 -1.9218
 7877SOL    HW225073   2.093   6.470   2.312 -0.8049 -1.0283 -0.4796
 7878SOL     OW25074   3.970   3.512   3.248  0.3142  0.5767  0.5124
 7878SOL    HW125075   4.010   3.445   3.303 -1.5060 -1.3528 -0.3686
 7878SOL    HW225076   4.029   3.521   3.174  0.2631 -0.5773  0.3139
 7879SOL     OW25077   2.660   5.634  10.293  0.0288  0.0978 -0.1850
 7879SOL    HW125078   2.596   5.681  10.346  1.8812  2.2322  0.2740
 7879SOL    HW225079   2.649   5.669  10.204 -1.6803 -2.0280 -0.9291
 7880SOL     OW25080   5.417   0.254   5.899 -0.1755  0.4729 -0.6580
 7880SOL    HW125081   5.383   0.274   5.812  0.9703  1.3213 -0.9367
 7880SOL    HW225082   5.341   0.261   5.957 -1.5308 -2.5576 -1.8631
 7881SOL     OW25083   4.241   1.662  11.367 -0.4225 -0.0040 -0.7883
 7881SOL    HW125084   4.240   1.725  11.439 -0.1329 -0.6955 -0.1808
 7881SOL    HW225085   4.150   1.660  11.336 -1.2079 -1.7690  1.3648
 7882SOL     OW25086   4.127   5.236   7.296 -0.0607 -0.2634 -0.1581
 7882SOL    HW125087   4.219   5.213   7.282 -0.0734 -0.8731  0.6661
 7882SOL    HW225088   4.101   5.280   7.216  1.5092  1.7565  0.3522
 7883SOL     OW25089   7.577   4.437   6.157 -0.1179 -0.4664 -0.1756
 7883SOL    HW125090   7.569   4.522   6.201  0.4662  0.4752 -1.8068
 7883SOL    HW225091   7.517   4.443   6.083  2.0280 -0.3183 -1.9945
 7884SOL     OW25092   0.696   7.743  11.821  0.5127  0.2280  0.0258
 7884SOL    HW125093   0.660   7.831  11.834 -0.1651  0.2364 -1.6593
 7884SOL    HW225094   0.748   7.726  11.900 -1.6479  0.9712  1.7044
 7885SOL     OW25095   5.229   6.963   8.642 -0.0687  0.5846  0.2063
 7885SOL    HW125096   5.200   6.959   8.734  0.5680  2.2680  0.5142
 7885SOL    HW225097   5.153   6.935   8.592 -0.2381 -0.9788  1.2625
 7886SOL     OW25098   7.884   3.521   4.821 -0.0294  0.3749  0.1751
 7886SOL    HW125099   7.928   3.548   4.902  0.0639 -0.5462  0.4464
 7886SOL    HW225100   7.807   3.472   4.850 -0.2354  0.4056 -0.2982
 7887SOL     OW25101   1.132   3.330   2.954 -0.2695  0.2024  0.2045
 7887SOL    HW125102   1.189   3.397   2.991  2.3673 -1.8698  0.2335
 7887SOL    HW225103   1.154   3.329   2.861 -1.0441  0.0589  0.0146
 7888SOL     OW25104   1.954   7.607  10.053 -0.0044  0.0275 -0.1342
 7888SOL    HW125105   1.863   7.622  10.080  0.1444 -1.2629  1.1946
 7888SOL    HW225106   1.949   7.580   9.962 -0.8570  0.9193 -0.3648
 7889SOL     OW25107   6.929   2.971   1.942 -0.4453  0.4093 -0.1875
 7889SOL    HW125108   6.944   2.888   1.896  0.8584  1.1861 -1.2260
 7889SOL    HW225109   6.931   3.038   1.874  1.4097  1.5903  0.9365
 7890SOL     OW25110   7.138   7.380   0.813  0.3195 -0.4693 -0.3556
 7890SOL    HW125111   7.190   7.300   0.811  0.6340 -0.3052  0.8758
 7890SOL    HW225112   7.049   7.350   0.829  0.5378 -0.5411  0.7803
 7891SOL     OW25113   0.008   4.596   0.760 -0.0506  0.6418 -0.3408
 7891SOL    HW125114   0.055   4.549   0.829  1.6245 -0.0505 -1.8700
 7891SOL    HW225115  -0.084   4.575   0.776  0.3571 -0.1450  1.1939
 7892SOL     OW25116   1.488   7.592   1.735  0.0903  0.3541 -0.2245
 7892SOL    HW125117   1.394   7.587   1.753 -0.4767  1.3872 -2.5591
 7892SOL    HW225118   1.506   7.686   1.727  0.1001  0.1645 -5.0228
 7893SOL     OW25119   5.829   4.131   4.845  0.3958 -0.2557 -0.2308
 7893SOL    HW125120   5.789   4.044   4.843  0.2467 -0.2044  0.2630
 7893SOL    HW225121   5.922   4.116   4.834  0.3102 -0.4282 -0.7583
 7894SOL     OW25122   6.725   1.584   8.934 -0.5963  0.4173  0.3958
 7894SOL    HW125123   6.690   1.673   8.934 -0.3663  0.5187 -0.4089
 7894SOL    HW225124   6.785   1.583   8.859 -1.5512 -0.7819 -0.3792
 7895SOL     OW25125   1.300   2.088   7.690  0.0081 -0.1656  0.6537
 7895SOL    HW125126   1.332   2.032   7.619 -3.9615 -0.8976 -0.7832
 7895SOL    HW225127   1.300   2.176   7.653 -0.7670 -0.3520  0.1856
 7896SOL     OW25128   2.231   7.236   4.057 -0.4292 -0.0151  0.3444
 7896SOL    HW125129   2.265   7.180   4.128 -0.0888 -0.3741 -0.0933
 7896SOL    HW225130   2.276   7.320   4.069  1.9369 -0.9506 -1.1792
 7897SOL     OW25131   1.817   4.838   5.844 -0.2056  0.5834 -0.4811
 7897SOL    HW125132   1.908   4.816   5.862  1.3725  3.2741 -3.9771
 7897SOL    HW225133   1.785   4.877   5.926  1.5746 -0.8093  0.9708
 7898SOL     OW25134   2.590   6.205   9.727  0.7368 -0.2641 -0.4141
 7898SOL    HW125135   2.638   6.149   9.665  2.1033 -0.6165  0.8857
 7898SOL    HW225136   2.529   6.255   9.672  2.1352 -0.2815 -2.1093
 7899SOL     OW25137   6.690   2.122  11.358  0.0273  0.2265  0.3781
 7899SOL    HW125138   6.609   2.161  11.388  0.0427  0.8573 -0.3794
 7899SOL    HW225139   6.682   2.119  11.262  0.2193 -1.2016  0.3771
 7900SOL     OW25140   7.776   1.119   8.519 -0.2314 -0.6429  0.1780
 7900SOL    HW125141   7.760   1.196   8.573 -0.5890 -0.6082  0.0278
 7900SOL    HW225142   7.826   1.152   8.444 -0.2042 -0.5959  0.2167
 7901SOL     OW25143   4.150   1.500   6.505  0.2294  0.0138  0.2249
 7901SOL    HW125144   4.056   1.491   6.521  0.4557 -0.9102  1.1449
 7901SOL    HW225145   4.160   1.493   6.410 -0.6271  0.1813  0.1182
 7902SOL     OW25146   2.885   2.025   5.567 -0.1803 -0.0472 -0.4622
 7902SOL    HW125147   2.828   2.057   5.496  0.8997  0.7681 -0.9993
 7902SOL    HW225148   2.944   1.963   5.524 -0.8299 -1.1156  0.1518
 7903SOL     OW25149   4.488   7.619   4.627  0.1800  0.3990  0.1554
 7903SOL    HW125150   4.515   7.576   4.545 -0.8765  0.2608 -0.1279
 7903SOL    HW225151   4.435   7.554   4.672 -0.9925  1.1909 -0.0320
 7904SOL     OW25152   0.418   7.821   6.320  0.3481  0.0254  0.2873
 7904SOL    HW125153   0.404   7.731   6.291  1.8763 -0.6903  1.6232
 7904SOL    HW225154   0.505   7.844   6.289  0.8395  0.2603  1.7652
 7905SOL     OW25155   4.023   7.093   9.198 -0.0108  0.1377  0.3154
 7905SOL    HW125156   4.084   7.166   9.195 -0.6852  0.8904  2.6245
 7905SOL    HW225157   4.076   7.018   9.223  0.4253  0.1721 -0.4936
 7906SOL     OW25158   1.161   2.887   1.836  0.6342  0.0972  0.2550
 7906SOL    HW125159   1.088   2.945   1.859  0.5488  0.0759  0.0420
 7906SOL    HW225160   1.203   2.867   1.920  0.3734  0.0809  0.3837
 7907SOL     OW25161   5.370   6.371  12.438  0.2364 -0.2071  0.6546
 7907SOL    HW125162   5.462   6.343  12.437  1.5817  3.5444 -1.0248
 7907SOL    HW225163   5.366   6.442  12.373 -3.3101  1.4632  2.4039
 7908SOL     OW25164   3.175   6.853  10.168  0.3601  0.0730 -0.3723
 7908SOL    HW125165   3.197   6.825  10.079  0.0278 -0.4935 -0.2791
 7908SOL    HW225166   3.236   6.806  10.225 -0.1040 -0.3669 -0.2287
 7909SOL     OW25167   1.874   4.149   2.541  0.3128 -0.0673  0.2588
 7909SOL    HW125168   1.891   4.243   2.534 -0.3403  0.1902  1.7501
 7909SOL    HW225169   1.779   4.141   2.545  0.2366 -0.9889 -1.7937
 7910SOL     OW25170   7.612   3.692   1.065  0.2769  0.4589 -0.0105
 7910SOL    HW125171   7.524   3.658   1.051  1.0780 -1.9257  0.2570
 7910SOL    HW225172   7.627   3.682   1.159  1.4321 -0.8684 -0.2986
 7911SOL     OW25173   2.515   1.824   2.096  0.0890 -0.2691  0.0380
 7911SOL    HW125174   2.541   1.909   2.061  2.9484  0.2388  2.9047
 7911SOL    HW225175   2.431   1.842   2.140 -1.1361  0.1302 -2.2893
 7912SOL     OW25176   7.362   7.568   0.209  0.1378 -1.1895 -0.1835
 7912SOL    HW125177   7.336   7.654   0.174  0.2824 -1.4095 -0.8460
 7912SOL    HW225178   7.355   7.578   0.304  4.4539  0.9748  0.1159
 7913SOL     OW25179   3.782   2.477   4.774  0.6362  0.0043  0.5270
 7913SOL    HW125180   3.862   2.471   4.722  0.8232  1.4985  0.5888
 7913SOL    HW225181   3.813   2.488   4.864  0.3518 -0.0414  0.6304
 7914SOL     OW25182   1.892   1.117   2.995  0.0232 -0.0561  0.0417
 7914SOL    HW125183   1.946   1.196   3.005 -0.8473  0.8040 -1.7338
 7914SOL    HW225184   1.803   1.147   3.011 -0.6009 -0.1029 -2.8859
 7915SOL     OW25185   4.909   0.057  10.802  0.8906  0.0874  0.1041
 7915SOL    HW125186   4.889   0.100  10.719  0.6462  3.1551  1.6446
 7915SOL    HW225187   4.874   0.115  10.869  3.0400 -1.1289  2.4600
 7916SOL     OW25188   6.615   0.891   9.117 -0.1407  0.4624 -0.2094
 7916SOL    HW125189   6.587   0.870   9.206 -1.2727 -0.0130 -0.6522
 7916SOL    HW225190   6.619   0.987   9.115 -1.9671  0.5810 -0.1555
 7917SOL     OW25191   4.553   4.592   1.431  0.6976 -0.2356 -0.1803
 7917SOL    HW125192   4.627   4.532   1.423  0.3458 -0.4846 -2.3729
 7917SOL    HW225193   4.478   4.536   1.448  0.5823 -0.3144 -0.8946
 7918SOL     OW25194   7.474   0.373   6.690 -0.0134 -0.1665 -0.3997
 7918SOL    HW125195   7.411   0.360   6.761 -0.3342 -0.0746 -0.6658
 7918SOL    HW225196   7.463   0.297   6.633 -1.7164  1.0747 -1.8241
 7919SOL     OW25197   1.640   6.445   8.594  0.1938 -0.6015  0.0799
 7919SOL    HW125198   1.547   6.429   8.578  0.3958 -1.2866 -0.4740
 7919SOL    HW225199   1.681   6.434   8.509  0.6946  0.4351  0.1817
 7920SOL     OW25200   0.583   1.074   9.917  0.0035 -0.3381 -0.0084
 7920SOL    HW125201   0.553   1.032   9.836  1.3599 -0.4686 -0.4668
 7920SOL    HW225202   0.503   1.108   9.957 -0.7662 -0.7870 -1.1075
 7921SOL     OW25203   6.107   4.182   6.593  0.1779 -0.0757 -0.0994
 7921SOL    HW125204   6.195   4.190   6.630  0.1866  0.1879 -0.1751
 7921SOL    HW225205   6.076   4.097   6.623  0.7406 -0.4978 -0.6643
 7922SOL     OW25206   4.829   6.248   3.424  0.5516  0.1579  0.1764
 7922SOL    HW125207   4.861   6.333   3.456  1.3406 -0.0776  0.0321
 7922SOL    HW225208   4.833   6.256   3.329  0.2223  0.1074  0.1583
 7923SOL     OW25209   1.882   1.175  11.831 -0.5659 -0.1073  0.1966
 7923SOL    HW125210   1.871   1.264  11.865 -1.2747 -0.1273  0.0387
 7923SOL    HW225211   1.949   1.182  11.763  0.3769  0.0561  1.1195
 7924SOL     OW25212   0.094   1.157   6.248  0.5462  0.0688  0.3796
 7924SOL    HW125213   0.127   1.240   6.215  0.4620  0.8113  2.0533
 7924SOL    HW225214   0.165   1.095   6.235  1.1784  0.7608  0.5089
 7925SOL     OW25215   3.613   3.235  11.998  0.0211 -0.2437 -0.1952
 7925SOL    HW125216   3.543   3.176  11.970  0.7924 -1.1895 -0.1973
 7925SOL    HW225217   3.569   3.304  12.047 -0.9149 -0.7648 -0.2888
 7926SOL     OW25218   0.110   1.749  11.065 -0.3917 -0.0166 -0.0191
 7926SOL    HW125219   0.163   1.752  10.985  0.4611  1.6499  0.5739
 7926SOL    HW225220   0.132   1.665  11.106 -0.6221 -0.7628 -1.3552
 7927SOL     OW25221   3.077   7.146   1.249  0.5078 -0.0984 -0.4604
 7927SOL    HW125222   3.083   7.058   1.210  2.4081 -0.7668  1.1552
 7927SOL    HW225223   3.142   7.145   1.319  0.3162  2.5148 -0.1623
 7928SOL     OW25224   5.360   2.004   9.822 -0.1268  0.1832 -0.1967
 7928SOL    HW125225   5.422   2.076   9.828 -1.3977  1.3338 -0.3488
 7928SOL    HW225226   5.274   2.046   9.828 -0.9053 -1.3006 -0.5047
 7929SOL     OW25227   4.549   0.674   3.419 -0.2297 -0.1104  0.6902
 7929SOL    HW125228   4.515   0.589   3.444  0.5722 -2.2191 -4.2822
 7929SOL    HW225229   4.473   0.722   3.385  0.1068 -1.2215 -1.8250
 7930SOL     OW25230   4.190   3.988  11.404  0.2502  0.4446 -0.3504
 7930SOL    HW125231   4.116   4.040  11.374 -0.4695 -1.4704 -2.1289
 7930SOL    HW225232   4.203   4.014  11.496 -1.8565  1.6523 -0.3540
 7931SOL     OW25233   2.980   0.083   2.000 -0.2862 -0.1113  0.1722
 7931SOL    HW125234   3.027   0.157   1.961 -0.0586  0.4923  1.5195
 7931SOL    HW225235   2.997   0.092   2.094  0.5362 -2.4308  0.2961
 7932SOL     OW25236   4.399   1.958   8.478  0.3916 -0.0485 -0.1565
 7932SOL    HW125237   4.441   1.880   8.514 -1.2148 -0.5841  0.6823
 7932SOL    HW225238   4.392   2.019   8.552 -0.3320  0.0005 -0.2516
 7933SOL     OW25239   7.309   4.820   6.821  0.1116 -0.0647 -0.2792
 7933SOL    HW125240   7.348   4.748   6.771 -1.5965 -0.6505 -0.8395
 7933SOL    HW225241   7.331   4.800   6.912  2.0284  0.2446 -0.6225
 7934SOL     OW25242   5.632   4.544   5.633  0.0476 -0.0762 -0.0358
 7934SOL    HW125243   5.713   4.563   5.587  0.8707 -0.0292  1.3645
 7934SOL    HW225244   5.641   4.453   5.662 -2.0944 -1.4524 -3.1391
 7935SOL     OW25245   7.733   2.918   0.556 -0.0142 -0.2089 -0.2116
 7935SOL    HW125246   7.715   2.825   0.573  1.6236 -0.6344 -0.6192
 7935SOL    HW225247   7.748   2.956   0.643 -0.9423 -0.2464 -0.0217
 7936SOL     OW25248   2.168   5.562   3.157  0.1860 -0.2291  0.2640
 7936SOL    HW125249   2.191   5.482   3.110 -0.3729 -1.4448  2.0181
 7936SOL    HW225250   2.253   5.604   3.173  0.4338 -0.0339 -1.3094
 7937SOL     OW25251   4.539   7.068   4.620 -0.9358 -0.6106 -0.4572
 7937SOL    HW125252   4.515   6.980   4.591 -0.7512 -1.1177  0.8703
 7937SOL    HW225253   4.626   7.058   4.658 -0.9619  0.1211 -0.1818
 7938SOL     OW25254   7.294   0.292   1.884 -0.9438 -0.0204  0.1451
 7938SOL    HW125255   7.346   0.253   1.814 -0.4305 -0.1454  0.5890
 7938SOL    HW225256   7.289   0.223   1.951 -1.0915  0.2370  0.4008
 7939SOL     OW25257   1.151   6.786   6.933 -0.1138 -0.4655  0.2219
 7939SOL    HW125258   1.076   6.729   6.913 -1.0277  0.5124  0.8122
 7939SOL    HW225259   1.207   6.779   6.855  1.0236 -3.9994  1.1560
 7940SOL     OW25260   3.340   7.608  10.194  0.0539  0.2268 -0.0594
 7940SOL    HW125261   3.433   7.620  10.213  0.3199  0.3404 -1.3394
 7940SOL    HW225262   3.336   7.598  10.099 -1.2566  0.2787 -0.0299
 7941SOL     OW25263   1.116   4.352   2.582  0.5109 -0.5361 -0.3700
 7941SOL    HW125264   1.102   4.441   2.553 -1.0828 -0.1953  1.2527
 7941SOL    HW225265   1.104   4.298   2.504 -1.6398  0.4495 -0.7721
 7942SOL     OW25266   1.818   0.802   1.018  0.2404 -0.0146  0.5349
 7942SOL    HW125267   1.799   0.858   1.093 -1.7591  0.7531 -0.4700
 7942SOL    HW225268   1.885   0.742   1.049  0.7584  1.4247  2.3734
 7943SOL     OW25269   2.681   7.160   7.033  0.0039  0.7956 -0.1987
 7943SOL    HW125270   2.683   7.190   6.942 -2.0870  1.1694 -0.1844
 7943SOL    HW225271   2.677   7.241   7.084  0.4808  0.5768  0.1859
 7944SOL     OW25272   3.425   6.723  10.762  0.2956 -0.8526  0.4332
 7944SOL    HW125273   3.515   6.753  10.770  1.4135 -3.2629 -1.8210
 7944SOL    HW225274   3.418   6.651  10.826  0.7895 -2.2552 -1.0365
 7945SOL     OW25275   5.177   7.879  11.906 -0.3506 -0.0043  0.2114
 7945SOL    HW125276   5.086   7.910  11.902  0.2415  1.8425  0.1533
 7945SOL    HW225277   5.229   7.952  11.873  1.2798 -0.5390  1.4578
 7946SOL     OW25278   6.661   4.863   6.000  0.4143 -0.0443  0.1512
 7946SOL    HW125279   6.688   4.807   5.928  1.8209 -0.2744  0.8225
 7946SOL    HW225280   6.718   4.940   5.993 -0.6060  0.7269  0.0162
 7947SOL     OW25281   7.646   0.533   6.243 -0.1847  0.3384 -0.4573
 7947SOL    HW125282   7.632   0.441   6.221 -0.6539  0.7944 -2.1966
 7947SOL    HW225283   7.725   0.557   6.196 -0.5578  1.0603 -0.7246
 7948SOL     OW25284   6.209   6.252   6.809 -0.1953 -0.4436 -0.0706
 7948SOL    HW125285   6.190   6.275   6.900 -2.7404  0.8366 -0.8369
 7948SOL    HW225286   6.162   6.170   6.794 -1.8297  0.5687 -0.8177
 7949SOL     OW25287   4.839   5.158   5.054  0.4053 -0.1755  0.6366
 7949SOL    HW125288   4.868   5.095   4.988  0.0742 -0.2460  0.5600
 7949SOL    HW225289   4.921   5.194   5.090  0.5980  1.0341 -0.9215
 7950SOL     OW25290   7.926   4.973  10.225  0.6695  0.2822 -0.2614
 7950SOL    HW125291   7.867   4.961  10.299 -0.3530  1.5483 -0.8470
 7950SOL    HW225292   7.927   4.887  10.181 -0.5821  0.1810 -0.1233
 7951SOL     OW25293   0.847   5.910   3.452  0.3705 -0.2742  0.1185
 7951SOL    HW125294   0.891   5.920   3.367  0.9381 -0.8143  0.3426
 7951SOL    HW225295   0.861   5.818   3.476  0.6778  0.0033  1.0461
 7952SOL     OW25296   4.900   6.996   7.330  0.2186 -0.2109 -0.2595
 7952SOL    HW125297   4.947   6.957   7.403 -0.5349  1.0012  0.9066
 7952SOL    HW225298   4.923   6.941   7.255  0.9907 -1.4919  0.8733
 7953SOL     OW25299   0.616   2.452   1.209 -0.5143  0.2555  0.1889
 7953SOL    HW125300   0.671   2.411   1.275  0.0832  3.3980  1.7902
 7953SOL    HW225301   0.677   2.482   1.141 -0.9052 -1.0420 -0.7837
 7954SOL     OW25302   3.077   6.012   4.598  0.4518  0.1200 -0.5442
 7954SOL    HW125303   3.099   5.920   4.586 -0.1075 -0.0737 -0.1056
 7954SOL    HW225304   3.100   6.053   4.514  2.2164 -0.1088 -0.2177
 7955SOL     OW25305   1.669   2.457   2.503  0.0168 -0.3891 -0.1386
 7955SOL    HW125306   1.733   2.483   2.437 -0.6306  0.0894 -0.5865
 7955SOL    HW225307   1.715   2.469   2.587  0.6979 -0.5998 -0.4750
 7956SOL     OW25308   3.251   0.621   0.554  0.1479 -0.5848 -0.0574
 7956SOL    HW125309   3.294   0.614   0.639  0.3468  0.1244 -0.0909
 7956SOL    HW225310   3.321   0.642   0.493 -0.2622  0.7913 -0.0803
 7957SOL     OW25311   5.334   0.237   4.151  0.1178  0.0886 -0.4954
 7957SOL    HW125312   5.263   0.302   4.147 -0.5831 -0.6827 -0.7685
 7957SOL    HW225313   5.356   0.221   4.060  2.8306  2.6154 -0.4362
 7958SOL     OW25314   6.205   0.519   6.170  0.0067 -0.0235 -0.0422
 7958SOL    HW125315   6.291   0.530   6.211 -0.2237 -2.7759  1.4434
 7958SOL    HW225316   6.143   0.542   6.239 -0.4125 -1.2740  0.0088
 7959SOL     OW25317   7.201   2.437  11.375 -0.3148  0.0677 -0.6000
 7959SOL    HW125318   7.134   2.428  11.308 -1.6893  2.4604  0.3499
 7959SOL    HW225319   7.262   2.502  11.339 -1.0549  1.3550  0.4070
 7960SOL     OW25320   0.311   5.696   2.462 -0.1714  0.3801  0.3606
 7960SOL    HW125321   0.308   5.672   2.369  1.5946  1.9697 -0.1576
 7960SOL    HW225322   0.347   5.784   2.463  0.3723  0.1832  2.6174
 7961SOL     OW25323   6.609   5.245   8.328 -0.9805  0.4613 -0.4704
 7961SOL    HW125324   6.563   5.166   8.356 -0.2459 -0.5461 -1.9852
 7961SOL    HW225325   6.648   5.280   8.408 -2.3846  0.0344  0.4386
 7962SOL     OW25326   1.776   7.046   7.037  0.0821  0.8359 -0.1470
 7962SOL    HW125327   1.682   7.063   7.040 -0.5249 -2.1278  0.9751
 7962SOL    HW225328   1.806   7.060   7.126  0.9338  2.5301 -0.6537
 7963SOL     OW25329   3.968   2.213   1.247 -0.6079  0.4296  0.0942
 7963SOL    HW125330   4.045   2.229   1.193 -0.2179  2.7647  1.2096
 7963SOL    HW225331   3.894   2.234   1.189 -0.3504 -0.0117 -0.4079
 7964SOL     OW25332   1.170   6.135  12.377  0.3782  0.4081  0.2698
 7964SOL    HW125333   1.234   6.127  12.306 -1.5852 -0.0423 -1.5772
 7964SOL    HW225334   1.108   6.201  12.346 -2.8911 -2.6959 -0.5262
 7965SOL     OW25335   3.829   2.168   9.998  0.1075 -0.0260 -0.1698
 7965SOL    HW125336   3.816   2.185  10.092  0.6374  0.1670 -0.1311
 7965SOL    HW225337   3.924   2.159   9.988 -0.0122 -1.0269 -0.5249
 7966SOL     OW25338   7.070   1.857  12.130  0.4581  0.3133  0.6810
 7966SOL    HW125339   7.021   1.798  12.073  0.2745  0.9032  0.2201
 7966SOL    HW225340   7.010   1.877  12.201  0.1390  0.7720  0.2892
 7967SOL     OW25341   5.753   0.333  10.925  0.0493 -0.4676 -0.0560
 7967SOL    HW125342   5.680   0.347  10.986  0.5451 -1.0718  0.6811
 7967SOL    HW225343   5.816   0.280  10.973  1.1998  0.4186 -0.5241
 7968SOL     OW25344   6.844   3.741   8.958  0.1339 -0.1199 -0.3311
 7968SOL    HW125345   6.881   3.736   8.870 -0.5847  1.5411 -0.7539
 7968SOL    HW225346   6.832   3.649   8.983  1.4437 -0.6463 -1.4748
 7969SOL     OW25347   1.151   0.631   5.780  0.3910  0.3797 -0.3867
 7969SOL    HW125348   1.086   0.695   5.754  0.1783  0.5630  0.5417
 7969SOL    HW225349   1.137   0.620   5.874  1.8499  0.6008 -0.1164
 7970SOL     OW25350   0.944   4.966  11.006  0.3303 -0.5642 -0.2516
 7970SOL    HW125351   0.988   4.991  11.087  0.1172  0.7890 -0.5396
 7970SOL    HW225352   0.885   5.039  10.987 -1.1668 -1.7959 -0.5140
 7971SOL     OW25353   7.308   2.407   9.528 -0.3618  0.0279 -0.1126
 7971SOL    HW125354   7.311   2.325   9.478 -0.8090  0.0633 -0.2004
 7971SOL    HW225355   7.286   2.474   9.464 -2.1360 -0.0982  0.3117
 7972SOL     OW25356   4.902   0.857   1.997  0.0596  0.0308  0.4616
 7972SOL    HW125357   4.828   0.867   1.937  0.0357 -0.9879  0.3144
 7972SOL    HW225358   4.965   0.923   1.968  0.1480 -0.5902 -0.8309
 7973SOL     OW25359   5.726   1.915   1.139 -0.0291 -0.3209  0.0469
 7973SOL    HW125360   5.796   1.978   1.157 -0.5553  1.1379 -2.5058
 7973SOL    HW225361   5.772   1.833   1.120  0.9233  0.2615 -0.2472
 7974SOL     OW25362   7.676   1.781  12.205 -0.2599 -0.3928  0.4503
 7974SOL    HW125363   7.726   1.789  12.123 -1.1820 -0.9017 -0.1759
 7974SOL    HW225364   7.743   1.770  12.273  0.4893 -1.4703 -0.4253
 7975SOL     OW25365   3.516   3.561   3.790 -0.2495  1.2283  0.0515
 7975SOL    HW125366   3.440   3.551   3.847  0.3631 -0.0921  0.6699
 7975SOL    HW225367   3.571   3.626   3.834  0.4274 -0.1031  1.2336
 7976SOL     OW25368   0.311   3.636   6.622 -0.1114 -0.1870  0.1926
 7976SOL    HW125369   0.400   3.668   6.641 -0.1626 -0.7957  1.5262
 7976SOL    HW225370   0.324   3.571   6.553  0.2002  1.3203 -1.2438
 7977SOL     OW25371   5.709   0.482  11.913  0.3762  0.0959 -0.3503
 7977SOL    HW125372   5.631   0.427  11.901 -0.1676  0.7109  0.2526
 7977SOL    HW225373   5.772   0.448  11.850 -0.6041 -0.0147 -1.3027
 7978SOL     OW25374   7.836   6.135   2.830  0.1260  0.7690  0.5443
 7978SOL    HW125375   7.879   6.216   2.803  0.3455 -0.5577 -3.9346
 7978SOL    HW225376   7.902   6.068   2.817 -0.0486 -0.2716  4.1907
 7979SOL     OW25377   5.989   6.941  11.862 -0.1078  0.4873  0.2214
 7979SOL    HW125378   6.019   7.024  11.825  0.9525 -0.0902 -0.2443
 7979SOL    HW225379   6.060   6.913  11.920 -0.1523 -0.4345 -0.1539
 7980SOL     OW25380   5.219   4.009   1.243  0.0692  0.4664 -0.7017
 7980SOL    HW125381   5.262   4.016   1.328 -0.7733 -0.3524 -0.1961
 7980SOL    HW225382   5.132   3.974   1.262  0.3066 -0.9750 -2.0054
 7981SOL     OW25383   4.264   7.235   9.153  0.0869  0.1526  0.7058
 7981SOL    HW125384   4.283   7.214   9.061  0.6233 -2.5059  1.3386
 7981SOL    HW225385   4.296   7.324   9.164 -1.4948  1.1952 -2.0763
 7982SOL     OW25386   7.505   2.395   9.095 -0.0381 -0.4918  0.4785
 7982SOL    HW125387   7.568   2.448   9.143  0.9073 -0.0810 -1.1290
 7982SOL    HW225388   7.558   2.329   9.050 -0.6929 -0.1066 -0.9478
 7983SOL     OW25389   4.259   5.025   2.519 -0.0567  0.2601  0.1158
 7983SOL    HW125390   4.204   5.059   2.448 -1.2986  0.2261  1.0127
 7983SOL    HW225391   4.344   5.010   2.479 -1.5586 -3.0294 -2.2704
 7984SOL     OW25392   4.943   7.886   0.705  0.5520  0.1757 -0.4169
 7984SOL    HW125393   5.038   7.890   0.696  0.7696 -2.8375 -0.3766
 7984SOL    HW225394   4.928   7.826   0.778 -1.3907  0.5640 -0.4471
 7985SOL     OW25395   4.354   3.340   8.831 -0.2198  0.0963 -0.4483
 7985SOL    HW125396   4.286   3.275   8.817  0.9947 -1.3984  0.2432
 7985SOL    HW225397   4.430   3.307   8.783 -0.0748  1.9590 -1.5984
 7986SOL     OW25398   6.100   3.514   0.230  0.0192 -0.1566  0.1008
 7986SOL    HW125399   6.086   3.539   0.321  1.5272  0.4814  0.1792
 7986SOL    HW225400   6.077   3.592   0.180  0.3955 -0.0938  0.0254
 7987SOL     OW25401   6.424   3.605   4.143  0.2707  0.3755  0.0380
 7987SOL    HW125402   6.507   3.562   4.123 -0.2973 -1.8108  1.9218
 7987SOL    HW225403   6.442   3.656   4.221  0.1210  0.9093 -0.2721
 7988SOL     OW25404   5.105   5.100   8.585 -0.3202 -0.1446  0.3672
 7988SOL    HW125405   5.037   5.049   8.540 -0.0251 -0.2035 -0.0141
 7988SOL    HW225406   5.143   5.038   8.648  0.7368 -0.7171 -0.8039
 7989SOL     OW25407   7.178   7.186   3.852  0.2349  0.2064  0.4641
 7989SOL    HW125408   7.134   7.270   3.863  1.2221  0.7437  0.4376
 7989SOL    HW225409   7.146   7.152   3.769 -0.6577  0.2434  0.7845
 7990SOL     OW25410   3.706   0.763   7.774  0.1175  0.1418  0.1568
 7990SOL    HW125411   3.716   0.821   7.699 -0.5787  2.3175  1.6385
 7990SOL    HW225412   3.754   0.683   7.750  0.2058  0.8809 -2.4023
 7991SOL     OW25413   2.965   6.752   8.384 -0.1202 -0.9394  0.0498
 7991SOL    HW125414   2.995   6.675   8.337  1.2813 -0.2905 -0.1651
 7991SOL    HW225415   3.035   6.816   8.374  0.2290 -0.7086  2.9016
 7992SOL     OW25416   5.552   1.451   3.614 -0.4354 -0.2603  0.0694
 7992SOL    HW125417   5.506   1.528   3.583 -1.1485  0.0353  1.7583
 7992SOL    HW225418   5.530   1.383   3.550 -1.0958  0.5268 -0.5643
 7993SOL     OW25419   0.143   7.530   7.294  0.0572  0.3926  0.3130
 7993SOL    HW125420   0.151   7.608   7.240  1.3048 -1.6494 -2.7379
 7993SOL    HW225421   0.049   7.523   7.311 -0.0991  2.3934  0.4836
 7994SOL     OW25422   4.405   3.109  12.062 -0.3838 -0.0194  0.1350
 7994SOL    HW125423   4.374   3.118  11.972 -0.0972 -0.4720 -0.0129
 7994SOL    HW225424   4.387   3.017  12.084  0.3856 -0.1528  0.2216
 7995SOL     OW25425   0.480   5.966   1.562  0.6890 -0.5171 -0.2860
 7995SOL    HW125426   0.529   6.012   1.630  0.6653  0.7342 -1.0836
 7995SOL    HW225427   0.524   5.882   1.554  0.7064 -0.6778  1.2491
 7996SOL     OW25428   1.670   4.225   1.690  0.0759 -0.4340 -0.4130
 7996SOL    HW125429   1.651   4.142   1.647  2.2929 -1.3308  0.1945
 7996SOL    HW225430   1.693   4.285   1.619  0.9050 -1.0828 -0.7096
 7997SOL     OW25431   0.735   1.834   3.240 -0.6859 -0.4356  0.2547
 7997SOL    HW125432   0.759   1.922   3.271  0.0042 -0.9962  1.3858
 7997SOL    HW225433   0.811   1.804   3.190 -0.5208 -0.7600  0.6922
 7998SOL     OW25434   4.757   2.301   5.236  0.3164 -0.1726 -0.3044
 7998SOL    HW125435   4.785   2.361   5.306  0.3833 -1.1004  0.4798
 7998SOL    HW225436   4.757   2.215   5.277  1.3372 -0.8827 -1.7325
 7999SOL     OW25437   0.208   4.839   1.752 -0.5461 -0.0445  0.4226
 7999SOL    HW125438   0.240   4.873   1.835  0.0676 -2.7863  1.3967
 7999SOL    HW225439   0.138   4.779   1.776 -0.9637 -0.2167 -1.1256
 8000SOL     OW25440   5.742   5.173   0.273  0.1274  0.2617  0.0650
 8000SOL    HW125441   5.733   5.228   0.195 -0.0800 -1.0669 -0.8913
 8000SOL    HW225442   5.677   5.207   0.334 -0.6325  0.5070 -0.8575
 8001SOL     OW25443   6.737   4.717   0.167  0.7546 -0.1147 -0.1122
 8001SOL    HW125444   6.744   4.811   0.184 -0.1961 -0.4213  2.5924
 8001SOL    HW225445   6.690   4.683   0.244  1.0136 -2.7929 -1.0419
 8002SOL     OW25446   1.037   2.397  12.079 -0.6164  0.0761 -0.2531
 8002SOL    HW125447   1.097   2.380  12.151  0.4405 -0.7254 -1.2949
 8002SOL    HW225448   1.093   2.420  12.005 -1.7395  2.3725 -0.4704
 8003SOL     OW25449   6.742   4.029   8.262  0.4946 -0.6738  0.3339
 8003SOL    HW125450   6.664   4.053   8.312 -0.3876  1.9194 -2.0146
 8003SOL    HW225451   6.812   4.025   8.326 -1.0208 -0.0812  2.1070
 8004SOL     OW25452   3.719   0.075  10.204  0.2649  0.5342 -0.4319
 8004SOL    HW125453   3.699   0.118  10.288  0.5949 -3.5826  2.0419
 8004SOL    HW225454   3.634   0.071  10.159 -0.4472  0.7234  0.8345
 8005SOL     OW25455   4.698   4.973  11.016  0.0696 -0.2904  0.4085
 8005SOL    HW125456   4.639   4.935  10.951  0.8699 -1.6334  0.4380
 8005SOL    HW225457   4.697   4.912  11.089 -0.5301  1.0143  1.5420
 8006SOL     OW25458   2.722   3.425   3.295 -0.3201  0.3226 -0.6898
 8006SOL    HW125459   2.664   3.354   3.320  1.8262 -1.2416  0.1308
 8006SOL    HW225460   2.663   3.494   3.263 -2.5174 -1.5455 -0.9244
 8007SOL     OW25461   0.073   3.117   1.461 -0.5927 -0.8529  0.1849
 8007SOL    HW125462   0.040   3.183   1.522  3.5252  0.3927  1.3839
 8007SOL    HW225463   0.128   3.060   1.515  3.2348  0.2918 -2.0965
 8008SOL     OW25464   6.613   3.522   9.752 -0.3078 -0.2706  0.4238
 8008SOL    HW125465   6.541   3.528   9.688 -0.4825 -0.7898  0.5729
 8008SOL    HW225466   6.608   3.604   9.801  1.8533  1.7178 -2.3316
 8009SOL     OW25467   4.317   6.594   9.903 -0.1488  0.0783  0.4705
 8009SOL    HW125468   4.249   6.646   9.860  0.1453 -0.6105 -0.8810
 8009SOL    HW225469   4.274   6.511   9.924 -0.3652  0.4941  1.8129
 8010SOL     OW25470   5.511   2.357   4.826  0.8809  0.7976  0.7747
 8010SOL    HW125471   5.545   2.279   4.869 -0.6343  0.7628  1.9857
 8010SOL    HW225472   5.479   2.325   4.741  1.7498  0.4336  0.5689
 8011SOL     OW25473   2.385   1.157   2.873  0.2360  0.0436  0.6035
 8011SOL    HW125474   2.362   1.065   2.877  0.7838 -0.1111  0.2783
 8011SOL    HW225475   2.435   1.173   2.954  1.2369 -0.2599  0.0615
 8012SOL     OW25476   5.648   3.218   5.298 -0.2905  0.0358 -0.0342
 8012SOL    HW125477   5.653   3.232   5.393  0.1050  0.5672 -0.1284
 8012SOL    HW225478   5.554   3.210   5.280 -0.3038 -2.4831  0.7280
 8013SOL     OW25479   6.991   1.294  12.417  0.2917 -0.3176 -0.0768
 8013SOL    HW125480   7.010   1.224  12.481 -1.3082 -2.6065 -1.9454
 8013SOL    HW225481   6.896   1.297  12.413  0.3643  0.8487 -1.2582
 8014SOL     OW25482   2.742   1.698   6.174 -0.0562 -0.2442  0.0667
 8014SOL    HW125483   2.658   1.702   6.127  0.1395  2.0434 -0.2159
 8014SOL    HW225484   2.778   1.786   6.165  1.3638 -0.5551  2.0495
 8015SOL     OW25485   0.569   3.217   0.996  0.2469 -0.6146  0.5324
 8015SOL    HW125486   0.623   3.180   1.065  1.2690 -0.7795 -0.3446
 8015SOL    HW225487   0.532   3.297   1.035  0.9209 -0.6295  1.2130
 8016SOL     OW25488   3.111   4.535  10.959  0.0165 -0.1589 -0.2613
 8016SOL    HW125489   3.169   4.518  11.033  0.6349  1.8611 -0.2304
 8016SOL    HW225490   3.168   4.577  10.894 -0.9531 -0.1215 -1.1017
 8017SOL     OW25491   4.382   1.616  12.370 -0.3361 -0.0804  0.3081
 8017SOL    HW125492   4.310   1.678  12.361 -2.9173 -2.4942  2.3195
 8017SOL    HW225493   4.362   1.547  12.306  0.2528 -0.7174  0.7876
 8018SOL     OW25494   3.699   7.704   6.164  0.0191  0.1917 -0.3171
 8018SOL    HW125495   3.627   7.666   6.113 -0.8660 -0.1325  1.1271
 8018SOL    HW225496   3.771   7.713   6.101 -1.0178 -0.2335 -1.6002
 8019SOL     OW25497   6.673   6.933   7.410 -0.2417  0.0550  0.0538
 8019SOL    HW125498   6.675   7.022   7.376  2.6389 -0.0758 -0.4105
 8019SOL    HW225499   6.648   6.942   7.501 -0.0662  1.3420 -0.0062
 8020SOL     OW25500   1.981   6.901   4.195  0.3391 -0.8878 -0.5630
 8020SOL    HW125501   2.052   6.851   4.155 -0.7325 -2.3164 -0.7616
 8020SOL    HW225502   1.902   6.870   4.151 -0.2847  1.9175 -1.5748
 8021SOL     OW25503   4.259   6.083   3.247 -0.1456  0.3294 -0.2816
 8021SOL    HW125504   4.332   6.055   3.192  0.9918  2.1788  0.2109
 8021SOL    HW225505   4.275   6.176   3.263 -1.2528  0.2094  1.8961
 8022SOL     OW25506   3.051   2.116   4.832 -0.3270 -0.6327  0.2399
 8022SOL    HW125507   2.975   2.111   4.775  0.7788  0.5238 -1.4160
 8022SOL    HW225508   3.052   2.207   4.864 -0.4662 -1.0405  1.4741
 8023SOL     OW25509   3.054   6.826   6.235 -0.1662  0.2612  0.3663
 8023SOL    HW125510   3.132   6.776   6.210 -0.0672  0.0941  0.9832
 8023SOL    HW225511   3.033   6.879   6.158  1.0197  0.9037  0.4635
 8024SOL     OW25512   0.159   5.563  10.419  0.0352  0.2237  0.0539
 8024SOL    HW125513   0.142   5.537  10.329 -0.9154  0.1753  0.2409
 8024SOL    HW225514   0.159   5.482  10.469 -2.1420  0.4435  0.5086
 8025SOL     OW25515   2.823   2.962   4.468  0.0346 -0.2398 -0.2691
 8025SOL    HW125516   2.757   2.915   4.417 -0.7578 -0.0671  0.5760
 8025SOL    HW225517   2.847   2.901   4.538 -0.6977  0.4481  0.5909
 8026SOL     OW25518   6.144   4.466   9.274 -0.1638  0.2654 -0.5397
 8026SOL    HW125519   6.228   4.448   9.233 -0.9725 -2.6713 -1.1031
 8026SOL    HW225520   6.109   4.380   9.298 -2.0002  1.5195  1.7878
 8027SOL     OW25521   6.650   3.235   1.471 -0.0515 -0.4984  0.5346
 8027SOL    HW125522   6.717   3.177   1.434 -0.0033 -0.5803  0.7496
 8027SOL    HW225523   6.591   3.176   1.517 -0.3297 -0.4361  0.2591
 8028SOL     OW25524   6.416   1.403   0.694  0.1705  0.4703 -0.4612
 8028SOL    HW125525   6.374   1.381   0.611 -0.2146  0.1807 -0.1894
 8028SOL    HW225526   6.345   1.400   0.759  0.6189 -0.0882  0.0098
 8029SOL     OW25527   5.369   7.408   0.547 -0.7352  0.1021 -0.1643
 8029SOL    HW125528   5.401   7.336   0.601 -0.9294 -0.0517 -0.2500
 8029SOL    HW225529   5.445   7.435   0.495 -1.0274 -1.0953 -1.2885
 8030SOL     OW25530   1.273   5.928   4.856  0.4769  0.0188 -0.0041
 8030SOL    HW125531   1.325   5.860   4.815  2.3244 -0.0899  2.3108
 8030SOL    HW225532   1.309   6.010   4.823  1.6521 -0.0760  0.9734
 8031SOL     OW25533   7.658   3.085   1.492 -0.1394  0.6133  0.0445
 8031SOL    HW125534   7.601   3.160   1.473  0.8734  1.4663  0.2433
 8031SOL    HW225535   7.601   3.021   1.534 -0.6368  2.1300  1.8126
 8032SOL     OW25536   6.308   1.389   8.469 -0.2850  0.2467 -0.2080
 8032SOL    HW125537   6.331   1.321   8.533  1.3666 -0.4471 -1.4621
 8032SOL    HW225538   6.355   1.364   8.390 -1.2575  1.7864 -1.3244
 8033SOL     OW25539   4.715   6.992   1.880 -0.0557  0.2011 -0.4349
 8033SOL    HW125540   4.636   6.986   1.933 -0.3642 -0.2899 -0.9396
 8033SOL    HW225541   4.772   7.053   1.928 -0.5945  0.2846  0.1071
 8034SOL     OW25542   1.762   5.319  10.588  0.3948 -0.5535 -0.6611
 8034SOL    HW125543   1.807   5.267  10.521  1.0733  0.3525 -0.9135
 8034SOL    HW225544   1.707   5.255  10.634 -0.2536 -1.1658 -2.2120
 8035SOL     OW25545   7.622   6.312  11.209  0.1426  0.1098  0.5646
 8035SOL    HW125546   7.643   6.240  11.269  3.9620  1.0256  0.5666
 8035SOL    HW225547   7.633   6.390  11.262 -2.0632  0.8271  0.0522
 8036SOL     OW25548   0.555   1.978  12.269 -0.5219 -0.1574  0.4015
 8036SOL    HW125549   0.558   1.915  12.197 -1.5763 -0.1968  0.3820
 8036SOL    HW225550   0.480   2.034  12.249  0.3267  1.0425  0.4810
 8037SOL     OW25551   2.458   2.800   0.652 -0.3171 -0.1291 -0.1198
 8037SOL    HW125552   2.550   2.776   0.659 -0.2500  0.3660  0.7684
 8037SOL    HW225553   2.412   2.738   0.707 -0.5208 -0.3668 -0.5510
 8038SOL     OW25554   7.447   0.606   0.636  0.1184 -0.2137  0.2725
 8038SOL    HW125555   7.514   0.552   0.679 -1.0757 -1.2622  0.8564
 8038SOL    HW225556   7.411   0.660   0.707 -1.3102 -1.3891  0.4862
 8039SOL     OW25557   2.660   7.146   1.119  0.2744  0.6000 -0.3463
 8039SOL    HW125558   2.738   7.198   1.100 -0.1160  1.3631  0.1142
 8039SOL    HW225559   2.671   7.118   1.210 -0.2565  1.1930 -0.0945
 8040SOL     OW25560   0.787   3.267   9.480  0.5250 -0.2436 -0.2600
 8040SOL    HW125561   0.724   3.325   9.523  2.6970  0.2451  2.5104
 8040SOL    HW225562   0.745   3.244   9.396 -1.7778  2.7519 -0.0811
 8041SOL     OW25563   7.312   0.405   9.425  0.1608  0.3110 -0.0634
 8041SOL    HW125564   7.245   0.468   9.400 -0.1208  0.3753  0.8454
 8041SOL    HW225565   7.348   0.374   9.341 -2.0165 -0.8538 -0.6472
 8042SOL     OW25566   2.226   4.477   2.698  0.1264  0.1379  0.2651
 8042SOL    HW125567   2.133   4.458   2.706 -0.2739  1.7580 -0.0696
 8042SOL    HW225568   2.263   4.458   2.784 -0.2044 -1.9066 -0.0009
 8043SOL     OW25569   4.774   2.067   1.118  0.2331 -0.1470  0.0742
 8043SOL    HW125570   4.832   2.018   1.059  1.3165 -1.1550  1.8797
 8043SOL    HW225571   4.821   2.148   1.136  1.0871 -0.8913  1.4043
 8044SOL     OW25572   3.849   2.552   3.257  0.3741  0.0562  0.6013
 8044SOL    HW125573   3.880   2.595   3.337 -1.7954  1.0521  1.0054
 8044SOL    HW225574   3.918   2.491   3.234  0.7851 -0.8614  3.7097
 8045SOL     OW25575   6.229   6.531   6.739 -0.0101 -0.0287  0.0485
 8045SOL    HW125576   6.201   6.441   6.751  0.9382 -0.5507 -1.3356
 8045SOL    HW225577   6.183   6.560   6.660 -0.3175  0.7140  0.4915
 8046SOL     OW25578   2.513   1.070   9.706  0.1890 -0.3717  0.1210
 8046SOL    HW125579   2.563   0.991   9.683  0.3695 -0.1122 -0.3924
 8046SOL    HW225580   2.580   1.134   9.730 -0.0023 -0.7161  1.6877
 8047SOL     OW25581   5.696   5.902   2.079  0.3139  1.0465 -0.2696
 8047SOL    HW125582   5.629   5.957   2.039 -0.2434  1.1117  0.7378
 8047SOL    HW225583   5.648   5.839   2.133  0.8968 -0.8346 -1.8151
 8048SOL     OW25584   3.688   6.193   3.156 -0.0887 -0.6846  0.1310
 8048SOL    HW125585   3.746   6.267   3.169 -1.3309  0.2980  0.2932
 8048SOL    HW225586   3.746   6.119   3.137  1.2545 -0.0189  1.4842
 8049SOL     OW25587   0.665   3.035   9.347 -0.6810 -0.7297 -0.9524
 8049SOL    HW125588   0.695   2.986   9.423  1.5294  0.2184 -1.1099
 8049SOL    HW225589   0.581   3.073   9.373  1.1381  1.6774  2.1009
 8050SOL     OW25590   5.846   3.332   9.216  0.0864  0.4560  0.4897
 8050SOL    HW125591   5.771   3.322   9.157  0.6406  1.0977 -0.3565
 8050SOL    HW225592   5.922   3.325   9.158  0.6687  0.4425  1.2415
 8051SOL     OW25593   2.000   1.266   1.485 -0.3791 -0.4095 -0.5890
 8051SOL    HW125594   1.966   1.311   1.407  0.2793  0.6055 -0.3091
 8051SOL    HW225595   2.095   1.265   1.472 -0.2736 -0.3270  0.1507
 8052SOL     OW25596   4.534   7.324   9.985  0.0880  0.4206 -0.1815
 8052SOL    HW125597   4.442   7.348   9.981 -0.2055 -0.6473 -0.1551
 8052SOL    HW225598   4.567   7.365  10.065 -0.5787  0.0965  0.2610
 8053SOL     OW25599   7.374   3.490   6.949 -0.1571 -0.0630  0.3254
 8053SOL    HW125600   7.449   3.483   6.889 -0.2718  0.8917  0.0527
 8053SOL    HW225601   7.322   3.562   6.914 -0.4816  0.1941  1.3068
 8054SOL     OW25602   1.423   1.234   3.833 -0.0888  0.0358  0.4590
 8054SOL    HW125603   1.384   1.243   3.919 -2.3346  1.7974 -0.6202
 8054SOL    HW225604   1.408   1.319   3.791  1.7243 -0.4531 -1.3650
 8055SOL     OW25605   2.259   2.514   1.653  0.3113  0.3950 -0.4699
 8055SOL    HW125606   2.204   2.501   1.576  0.1725  0.8004 -0.4439
 8055SOL    HW225607   2.308   2.594   1.634  1.7978 -0.5985 -1.0191
 8056SOL     OW25608   3.967   0.098  11.044 -0.0458  0.2527 -0.8107
 8056SOL    HW125609   3.965   0.109  10.949  0.9452  0.6246 -0.7952
 8056SOL    HW225610   4.060   0.097  11.067 -0.2633 -0.1330  0.1241
 8057SOL     OW25611   0.943   4.918  10.676  0.2774  0.4531 -0.6160
 8057SOL    HW125612   1.038   4.914  10.689  0.4235  2.8263 -0.4165
 8057SOL    HW225613   0.922   5.011  10.688 -2.3516 -0.2703  1.2035
 8058SOL     OW25614   2.042   4.496   6.111 -0.3255 -0.1465  0.1234
 8058SOL    HW125615   2.137   4.483   6.109 -0.2658  0.3013 -0.1244
 8058SOL    HW225616   2.008   4.435   6.046 -0.1934 -0.2096  0.1128
 8059SOL     OW25617   6.364   7.625   1.686  0.2745 -0.9520  0.4098
 8059SOL    HW125618   6.328   7.669   1.763 -1.0241  1.6771 -1.5406
 8059SOL    HW225619   6.410   7.549   1.721  0.0084  0.2785  3.7719
 8060SOL     OW25620   2.700   6.400   3.654  0.0474 -0.0306 -0.5520
 8060SOL    HW125621   2.728   6.432   3.740  1.3820 -2.3524 -0.0450
 8060SOL    HW225622   2.626   6.457   3.631  0.5157  1.5490  1.4724
 8061SOL     OW25623   1.506   4.486   5.972 -0.0701  0.1987  0.2775
 8061SOL    HW125624   1.501   4.577   6.002  1.3988  0.4485 -0.1748
 8061SOL    HW225625   1.499   4.492   5.877 -0.0377 -0.1678  0.2514
 8062SOL     OW25626   3.744   0.859  11.742  0.4026 -0.1544 -0.1138
 8062SOL    HW125627   3.832   0.827  11.763  0.1254 -1.0672 -0.2785
 8062SOL    HW225628   3.737   0.941  11.790  0.5553 -1.1547  1.7321
 8063SOL     OW25629   6.611   7.821   0.851  0.4207  0.6668  0.1500
 8063SOL    HW125630   6.624   7.737   0.894  1.5432  0.7865  0.0706
 8063SOL    HW225631   6.696   7.864   0.856  1.0096  0.1556 -3.3426
 8064SOL     OW25632   1.675   5.992   4.019  0.1427 -0.3643 -0.2140
 8064SOL    HW125633   1.673   5.899   4.040  2.1008 -0.2547  0.6878
 8064SOL    HW225634   1.639   6.035   4.097 -0.2912 -0.3243 -0.4308
 8065SOL     OW25635   0.982   5.138  11.714 -0.2978 -0.1561  0.0275
 8065SOL    HW125636   1.033   5.075  11.663 -0.0158  0.0084  0.1034
 8065SOL    HW225637   0.916   5.084  11.759 -0.7549 -0.2630 -0.7482
 8066SOL     OW25638   6.462   3.835   6.067 -0.2293  0.0064 -0.2275
 8066SOL    HW125639   6.388   3.889   6.036 -0.9067 -0.8079 -0.0614
 8066SOL    HW225640   6.421   3.765   6.117  0.7349  0.1815  0.8420
 8067SOL     OW25641   4.987   7.074   1.060 -0.3236 -0.5421  0.4204
 8067SOL    HW125642   4.901   7.102   1.029 -0.5817  0.3289  1.8350
 8067SOL    HW225643   5.000   7.123   1.141  0.3965 -2.5960  1.6071
 8068SOL     OW25644   6.086   0.197   3.531  0.6458 -0.0111  0.0506
 8068SOL    HW125645   5.998   0.184   3.494  0.5877  1.4032 -0.3895
 8068SOL    HW225646   6.113   0.110   3.559 -1.3750 -0.3156  1.2860
 8069SOL     OW25647   3.125   5.361   4.052  0.3167 -0.4371 -0.0779
 8069SOL    HW125648   3.213   5.347   4.016 -1.1798 -1.4381 -3.8495
 8069SOL    HW225649   3.119   5.301   4.126  2.9557  0.1212  0.6890
 8070SOL     OW25650   6.387   2.177   2.697 -0.0520  0.1724 -0.1727
 8070SOL    HW125651   6.315   2.236   2.674  0.0293  1.4033  2.3630
 8070SOL    HW225652   6.458   2.235   2.725 -0.0521 -0.9984  2.6884
 8071SOL     OW25653   0.589   7.383  12.229 -0.3268 -0.3636 -0.2354
 8071SOL    HW125654   0.638   7.413  12.305  2.7704 -0.7461 -1.9399
 8071SOL    HW225655   0.573   7.290  12.245 -0.9345 -0.1518  0.4923
 8072SOL     OW25656   4.569   2.474   6.397  0.3760 -0.3200 -0.8560
 8072SOL    HW125657   4.646   2.446   6.446 -0.7448 -2.1901 -0.0296
 8072SOL    HW225658   4.520   2.529   6.458  0.3200 -0.3814 -0.8457
 8073SOL     OW25659   1.302   5.280   5.688  0.2765  0.0912 -0.4781
 8073SOL    HW125660   1.375   5.324   5.646  0.8431 -0.7062 -0.3395
 8073SOL    HW225661   1.317   5.293   5.782 -0.5024  1.0888 -0.4655
 8074SOL     OW25662   0.521   6.690   1.727 -0.3526 -0.2225  0.4567
 8074SOL    HW125663   0.567   6.682   1.811 -2.3599  1.0643  1.7601
 8074SOL    HW225664   0.516   6.784   1.711 -2.2491 -0.3284  0.2370
 8075SOL     OW25665   3.789   7.726   0.943  0.3529 -0.5267 -0.6022
 8075SOL    HW125666   3.856   7.670   0.983  0.5361  0.6039  0.7423
 8075SOL    HW225667   3.824   7.815   0.950  0.2246 -0.2268 -3.0151
 8076SOL     OW25668   1.765   4.133   5.099 -0.0040  0.5498 -0.3880
 8076SOL    HW125669   1.737   4.219   5.128  2.2484  1.2045  0.0682
 8076SOL    HW225670   1.794   4.089   5.179 -0.3677 -0.3402 -0.7269
 8077SOL     OW25671   6.414   7.681   9.072 -0.6351  0.2851 -0.0788
 8077SOL    HW125672   6.446   7.768   9.098  1.9558 -0.7846  0.6536
 8077SOL    HW225673   6.433   7.625   9.148  0.9825 -1.6028 -1.7447
 8078SOL     OW25674   0.680   5.528   6.885  0.0093  0.1065  0.1222
 8078SOL    HW125675   0.773   5.530   6.908  0.2034 -0.4257 -0.5803
 8078SOL    HW225676   0.676   5.474   6.806 -0.6873  1.4820 -0.8253
 8079SOL     OW25677   4.014   0.994  12.465  0.0198 -0.0910  0.0501
 8079SOL    HW125678   3.975   0.987  12.378  1.5530 -2.4837 -0.5142
 8079SOL    HW225679   4.099   1.035  12.450 -0.7198  1.8992  0.8427
 8080SOL     OW25680   3.206   6.445   8.785  0.4703  0.3868  0.0810
 8080SOL    HW125681   3.179   6.498   8.710 -0.1328  0.3793  0.2891
 8080SOL    HW225682   3.147   6.470   8.856  1.9507  1.4815  1.0076
 8081SOL     OW25683   7.376   7.393  11.892  0.0355 -0.1592  0.5894
 8081SOL    HW125684   7.421   7.387  11.807 -1.3738  0.7558 -0.2796
 8081SOL    HW225685   7.446   7.414  11.954  0.9829  0.0345 -0.4919
 8082SOL     OW25686   2.602   2.803  10.186 -0.5539  0.2843  0.1903
 8082SOL    HW125687   2.625   2.823  10.095  0.4953 -1.8562 -0.0654
 8082SOL    HW225688   2.685   2.778  10.227 -1.4007 -1.3438  1.0014
 8083SOL     OW25689   1.032   4.168   4.058 -0.6407  0.0311 -0.1629
 8083SOL    HW125690   1.052   4.212   4.140 -0.6451  1.3853 -0.8676
 8083SOL    HW225691   1.044   4.235   3.991 -0.1273 -1.1972 -1.3257
 8084SOL     OW25692   6.123   0.577   0.129 -0.3833 -0.1806  0.4756
 8084SOL    HW125693   6.125   0.547   0.220 -0.0170 -1.6460  0.0212
 8084SOL    HW225694   6.032   0.601   0.113 -0.6928 -1.0436  0.8928
 8085SOL     OW25695   5.577   5.871   9.662  0.4384 -0.0141  0.1754
 8085SOL    HW125696   5.568   5.778   9.683 -1.7605 -0.2210 -1.3876
 8085SOL    HW225697   5.667   5.880   9.630  0.9189 -1.4309  1.0360
 8086SOL     OW25698   1.060   1.404   4.776  0.1887 -0.1008 -0.6089
 8086SOL    HW125699   0.977   1.443   4.806  0.4740  1.2787 -1.5218
 8086SOL    HW225700   1.114   1.401   4.855 -1.0766 -2.0966  0.2658
 8087SOL     OW25701   6.142   2.033   3.712  0.2289 -0.0124  0.1938
 8087SOL    HW125702   6.209   2.008   3.649 -0.1507  1.2446 -0.7363
 8087SOL    HW225703   6.081   1.959   3.713 -0.1432  0.2321 -1.4690
 8088SOL     OW25704   5.863   0.490   4.179 -0.3437 -0.2965  0.1329
 8088SOL    HW125705   5.848   0.556   4.111 -0.2167 -3.1169 -2.8979
 8088SOL    HW225706   5.785   0.435   4.176  0.2272 -1.2214  1.4402
 8089SOL     OW25707   6.008   7.745   9.868  0.2982  0.5567  0.7259
 8089SOL    HW125708   6.101   7.722   9.866  0.1322 -0.1175  0.1491
 8089SOL    HW225709   5.964   7.667   9.903 -0.1293  0.5000  0.1015
 8090SOL     OW25710   5.506   2.116  10.239  0.0870  0.6565  0.1965
 8090SOL    HW125711   5.480   2.146  10.326 -0.6980 -0.9455  0.5692
 8090SOL    HW225712   5.423   2.093  10.197  0.4241  1.8002 -1.1409
 8091SOL     OW25713   4.966   4.894   1.946  0.0965 -0.4969 -0.0114
 8091SOL    HW125714   4.876   4.884   1.913  0.1664  1.9495 -1.1569
 8091SOL    HW225715   4.978   4.819   2.004 -2.2344 -1.6062 -0.8052
 8092SOL     OW25716   7.407   0.750  10.842 -0.6038 -0.0338  0.2591
 8092SOL    HW125717   7.446   0.780  10.760 -0.1819 -0.8537  0.1468
 8092SOL    HW225718   7.337   0.812  10.859 -1.8387 -0.8055 -1.6297
 8093SOL     OW25719   7.888   0.212   1.432 -0.1542 -0.0708 -0.1406
 8093SOL    HW125720   7.823   0.178   1.494  0.6685 -0.5464  0.4858
 8093SOL    HW225721   7.907   0.300   1.463 -0.0412 -0.1615  0.0512
 8094SOL     OW25722   2.536   2.562   4.495 -0.1718  0.1634  0.1606
 8094SOL    HW125723   2.546   2.524   4.408  0.4292 -0.9444  0.6894
 8094SOL    HW225724   2.571   2.650   4.487 -0.5017  0.2179 -0.8155
 8095SOL     OW25725   4.547   4.447   9.933  0.2188  0.1701 -0.1616
 8095SOL    HW125726   4.473   4.416   9.985 -1.3598  2.4293 -0.9349
 8095SOL    HW225727   4.550   4.387   9.858  0.1318 -0.7929  0.5748
 8096SOL     OW25728   3.324   0.962   6.959 -0.0350  0.3522  0.2887
 8096SOL    HW125729   3.264   1.032   6.983  1.3117  1.3599  0.8457
 8096SOL    HW225730   3.337   0.973   6.865 -1.4711 -0.5079 -0.0381
 8097SOL     OW25731   2.663   5.399  11.996 -0.0513  0.0644 -0.4508
 8097SOL    HW125732   2.655   5.316  11.950 -0.7955 -0.3891  0.4556
 8097SOL    HW225733   2.654   5.376  12.088  1.0576  0.9942 -0.0864
 8098SOL     OW25734   5.035   4.866   1.580 -0.3092 -0.2180  0.6526
 8098SOL    HW125735   4.950   4.876   1.536 -0.6755  1.5680  1.6565
 8098SOL    HW225736   5.017   4.813   1.657 -0.3961 -0.3208  0.5618
 8099SOL     OW25737   3.458   5.039   7.043  0.3132  0.0733 -0.2558
 8099SOL    HW125738   3.455   5.030   6.948  0.4474  0.9718 -0.3522
 8099SOL    HW225739   3.377   5.087   7.064  0.0913 -0.4630  0.1254
 8100SOL     OW25740   5.280   6.066   0.887  0.5344  0.0291 -0.0613
 8100SOL    HW125741   5.200   6.043   0.838 -0.7199  2.3449  0.7397
 8100SOL    HW225742   5.303   6.153   0.854  1.1164  0.5538  1.6600
 8101SOL     OW25743   7.514   2.312   8.344  0.1071 -0.1435  0.1905
 8101SOL    HW125744   7.499   2.352   8.259  1.4925  0.7210  0.3141
 8101SOL    HW225745   7.608   2.322   8.359 -0.0584 -0.5378  1.6818
 8102SOL     OW25746   2.889   0.175   6.844 -0.1604  0.1192  0.1869
 8102SOL    HW125747   2.916   0.252   6.894  0.5425 -0.0222  0.0293
 8102SOL    HW225748   2.932   0.185   6.759 -0.8161  0.0215 -0.1634
 8103SOL     OW25749   6.437   3.908   7.734  0.2434  0.2353 -0.1999
 8103SOL    HW125750   6.392   3.872   7.810 -0.9354 -2.6221 -2.0771
 8103SOL    HW225751   6.504   3.966   7.771 -1.7014  0.7858  2.8687
 8104SOL     OW25752   1.094   4.778   4.301 -0.4384 -0.1689  0.2273
 8104SOL    HW125753   1.088   4.843   4.370  1.7115  0.3174 -0.0033
 8104SOL    HW225754   1.148   4.708   4.338  1.9024  0.7074 -1.3409
 8105SOL     OW25755   6.727   5.998   2.451 -0.3038  0.0720 -0.0959
 8105SOL    HW125756   6.708   6.092   2.446 -0.2174  0.4041  3.3424
 8105SOL    HW225757   6.646   5.956   2.424  0.0123  1.0042 -2.8325
 8106SOL     OW25758   4.793   4.616   2.991  0.0916  0.4693  0.2235
 8106SOL    HW125759   4.723   4.678   3.012 -0.3630 -0.3170  1.0850
 8106SOL    HW225760   4.804   4.564   3.070  1.9678  0.8511  0.2604
 8107SOL     OW25761   5.116   1.793   5.482 -0.7429  0.0107 -0.1059
 8107SOL    HW125762   5.140   1.751   5.565 -0.1034  1.0451  0.2522
 8107SOL    HW225763   5.186   1.768   5.421 -0.9947 -0.4146 -0.2196
 8108SOL     OW25764   6.254   0.862  11.569 -0.3694  1.1130 -0.1682
 8108SOL    HW125765   6.316   0.924  11.608  0.9675  0.3420 -0.9656
 8108SOL    HW225766   6.204   0.828  11.643  1.5449  0.2818  0.8260
 8109SOL     OW25767   7.575   2.556   3.729 -0.1697  0.0407  0.1896
 8109SOL    HW125768   7.569   2.562   3.825 -1.7516 -0.7945  0.1849
 8109SOL    HW225769   7.544   2.640   3.697 -0.2655  0.0883  0.4071
 8110SOL     OW25770   6.893   4.188   2.608  0.4745 -0.2625  0.1925
 8110SOL    HW125771   6.959   4.124   2.581 -0.4659 -1.4319  0.5365
 8110SOL    HW225772   6.809   4.144   2.592 -0.2472  1.3122 -0.5559
 8111SOL     OW25773   5.511   6.594   9.539  0.1140  0.1715  1.0374
 8111SOL    HW125774   5.552   6.537   9.474 -0.0915  1.8228 -0.6371
 8111SOL    HW225775   5.562   6.582   9.618  0.1014 -2.2657  0.7537
 8112SOL     OW25776   2.959   4.291   1.971 -0.3859 -0.2258 -0.3563
 8112SOL    HW125777   2.909   4.332   1.900 -1.2933 -0.5383  0.0782
 8112SOL    HW225778   2.926   4.201   1.975 -0.7809 -0.0557  0.8208
 8113SOL     OW25779   6.140   6.353   1.378  0.4657 -0.0354 -0.2074
 8113SOL    HW125780   6.215   6.363   1.436  1.0053 -0.1767 -0.8576
 8113SOL    HW225781   6.173   6.380   1.292 -0.1103 -0.4758 -0.5751
 8114SOL     OW25782   5.292   4.834   8.166  0.0886 -0.1479 -0.1312
 8114SOL    HW125783   5.325   4.829   8.256 -0.3760  1.0253  0.1284
 8114SOL    HW225784   5.367   4.811   8.111 -0.0244 -2.4684  0.5672
 8115SOL     OW25785   3.048   1.828   4.340 -0.1363  0.0466 -0.2486
 8115SOL    HW125786   2.980   1.775   4.298 -1.1290  0.9828  0.1350
 8115SOL    HW225787   3.012   1.917   4.340  1.8505  0.9205 -1.6800
 8116SOL     OW25788   5.114   0.027   1.612  0.1946  0.3682  0.3390
 8116SOL    HW125789   5.148   0.085   1.543 -1.7908  1.5999  0.3054
 8116SOL    HW225790   5.125   0.078   1.692  2.0176 -0.8519  0.9219
 8117SOL     OW25791   1.641   4.840   2.274  0.2940  0.2963 -0.5392
 8117SOL    HW125792   1.616   4.760   2.228 -0.3946 -0.5205  1.1629
 8117SOL    HW225793   1.619   4.910   2.214 -0.0378 -0.7402 -1.6735
 8118SOL     OW25794   4.719   6.458   8.873  0.7039 -0.0827  0.2485
 8118SOL    HW125795   4.676   6.530   8.920 -1.2452 -1.6336  0.9871
 8118SOL    HW225796   4.671   6.450   8.791  0.9260 -0.5222  0.1573
 8119SOL     OW25797   1.498   7.382   4.819 -0.7665  0.2218 -0.0746
 8119SOL    HW125798   1.495   7.477   4.813  0.3539  0.2129 -1.1701
 8119SOL    HW225799   1.408   7.356   4.840 -1.1261  1.4997  0.0115
 8120SOL     OW25800   0.938   4.558  11.479  0.6962 -0.0878  0.3296
 8120SOL    HW125801   0.959   4.533  11.389  0.5893 -0.0970  0.3072
 8120SOL    HW225802   0.867   4.498  11.505 -0.0025  0.5978  0.0560
 8121SOL     OW25803   2.971   3.788   0.242  0.1879  0.2475  0.3314
 8121SOL    HW125804   2.989   3.743   0.159 -0.1066  1.3279 -0.3388
 8121SOL    HW225805   3.050   3.838   0.260  0.4009 -0.2968  0.9136
 8122SOL     OW25806   4.654   0.595   6.673 -0.1423 -0.3169  0.2809
 8122SOL    HW125807   4.730   0.654   6.664 -1.1219  0.9324 -0.0884
 8122SOL    HW225808   4.682   0.513   6.632  2.1553 -1.0380  2.9406
 8123SOL     OW25809   0.200   7.418   1.157  0.1808 -0.0166 -0.0197
 8123SOL    HW125810   0.237   7.452   1.238 -0.9079 -0.9123  0.8839
 8123SOL    HW225811   0.132   7.482   1.133  0.2164  0.0270 -0.0056
 8124SOL     OW25812   4.495   2.163   6.383 -0.3722  0.2032  0.2827
 8124SOL    HW125813   4.582   2.139   6.352 -0.0521 -0.2496  1.4696
 8124SOL    HW225814   4.509   2.241   6.437 -0.7297  0.2649  0.2890
 8125SOL     OW25815   7.638   3.447   8.104 -0.4254  0.1895  0.4248
 8125SOL    HW125816   7.580   3.371   8.096 -0.5933  0.2853  0.7069
 8125SOL    HW225817   7.648   3.459   8.198 -0.0656  0.2673  0.3786
 8126SOL     OW25818   1.230   1.476   0.000  0.2645 -0.4023  0.0627
 8126SOL    HW125819   1.315   1.449   0.035 -0.6393 -2.3951  0.9221
 8126SOL    HW225820   1.176   1.397   0.006 -1.2956  0.4563 -1.6259
 8127SOL     OW25821   5.412   4.842   2.201  0.0995 -0.3862 -0.2631
 8127SOL    HW125822   5.422   4.764   2.256 -0.8313 -0.3167  0.0197
 8127SOL    HW225823   5.492   4.845   2.148 -0.4009 -2.2227 -1.1725
 8128SOL     OW25824   1.932   3.872   5.022 -0.8478  0.0404 -0.0875
 8128SOL    HW125825   1.999   3.933   5.053 -0.3353 -0.5040 -0.0992
 8128SOL    HW225826   1.901   3.911   4.941 -1.9965  1.3335  0.9201
 8129SOL     OW25827   2.009   4.950   0.421 -0.2601  0.0514  0.1974
 8129SOL    HW125828   1.995   4.865   0.464 -0.2233 -0.4216 -0.6992
 8129SOL    HW225829   2.025   4.928   0.329 -0.3700  1.0414 -0.0721
 8130SOL     OW25830   3.018   6.556   8.579  0.3887  0.1077 -0.0862
 8130SOL    HW125831   2.996   6.605   8.499  1.7252  0.4112 -0.2868
 8130SOL    HW225832   2.960   6.592   8.646  1.2608  1.9174 -0.2569
 8131SOL     OW25833   5.878   4.626   0.663  0.0561  0.2878  0.0607
 8131SOL    HW125834   5.830   4.554   0.705  2.7585 -0.6165  1.8367
 8131SOL    HW225835   5.835   4.705   0.695 -1.3535 -0.4828  0.1515
 8132SOL     OW25836   2.201   0.147   1.430  0.0097 -0.2318 -0.4936
 8132SOL    HW125837   2.287   0.140   1.472 -0.1745  1.5248  0.2749
 8132SOL    HW225838   2.139   0.148   1.503 -0.3472  2.5692 -0.7232
 8133SOL     OW25839   4.834   6.751  10.804 -0.0481  0.1465  0.4084
 8133SOL    HW125840   4.751   6.753  10.757  0.5754 -1.5842 -0.8396
 8133SOL    HW225841   4.847   6.659  10.829  1.8538  0.2144 -0.1233
 8134SOL     OW25842   7.196   7.113   4.305 -0.1206 -0.4393 -0.1820
 8134SOL    HW125843   7.102   7.110   4.288 -0.8888  0.8660  3.0835
 8134SOL    HW225844   7.223   7.022   4.314 -0.9671 -0.8356 -1.5045
 8135SOL     OW25845   6.052   5.449   0.087  0.2483  0.3334  0.3464
 8135SOL    HW125846   6.070   5.440  -0.007 -1.5953 -0.4361  0.0145
 8135SOL    HW225847   6.120   5.395   0.129 -0.4285 -1.4827 -0.7338
 8136SOL     OW25848   5.078   1.730   1.984 -0.0744  0.0171 -0.0100
 8136SOL    HW125849   4.984   1.740   1.971  0.1585  2.4056 -0.1828
 8136SOL    HW225850   5.103   1.660   1.923 -1.7394 -0.8795  0.2504
 8137SOL     OW25851   1.244   2.707   0.662 -0.9699 -0.1988  0.5161
 8137SOL    HW125852   1.302   2.630   0.664 -0.5138  0.1543  0.8910
 8137SOL    HW225853   1.249   2.743   0.750 -0.8227  0.5274  0.2158
 8138SOL     OW25854   7.570   5.674  10.659 -0.7902 -0.9477  0.2669
 8138SOL    HW125855   7.482   5.683  10.623 -0.5096 -0.2854 -0.2767
 8138SOL    HW225856   7.572   5.735  10.733 -0.7221 -0.8266  0.1639
 8139SOL     OW25857   7.618   2.784   0.138 -0.3333 -0.0814  0.0016
 8139SOL    HW125858   7.612   2.839   0.215 -1.7220 -1.0957  0.6569
 8139SOL    HW225859   7.558   2.823   0.075  0.1741  0.2713 -0.2680
 8140SOL     OW25860   5.729   3.440   4.262  0.5352 -0.2171  0.3528
 8140SOL    HW125861   5.802   3.501   4.251 -0.6608  1.0892 -0.7875
 8140SOL    HW225862   5.667   3.488   4.317  0.9671 -1.7396  2.2392
 8141SOL     OW25863   3.537   0.433   5.699  0.9532 -0.1706 -0.5151
 8141SOL    HW125864   3.500   0.361   5.648 -1.2904 -0.7294  1.7110
 8141SOL    HW225865   3.554   0.502   5.635 -1.1473 -1.0276 -2.1051
 8142SOL     OW25866   6.581   0.435   4.832 -0.0258  0.4331  0.1025
 8142SOL    HW125867   6.554   0.527   4.831 -0.2208  0.4109  1.5985
 8142SOL    HW225868   6.669   0.437   4.871 -0.6943 -0.1498  1.7081
 8143SOL     OW25869   7.055   4.219  12.425  0.5129 -0.0138  0.1337
 8143SOL    HW125870   6.965   4.215  12.393  0.4736  1.9703 -0.0891
 8143SOL    HW225871   7.090   4.131  12.408 -1.1807 -0.6477 -0.2952
 8144SOL     OW25872   6.735   0.300   9.304  0.5552  0.4012 -0.1180
 8144SOL    HW125873   6.716   0.257   9.220 -0.3585 -0.1184  0.3505
 8144SOL    HW225874   6.679   0.377   9.305  2.0394  1.5558 -0.8627
 8145SOL     OW25875   1.171   7.644   4.222 -0.2146  0.2674  0.2005
 8145SOL    HW125876   1.139   7.713   4.280  0.2625 -0.3310  1.2116
 8145SOL    HW225877   1.093   7.614   4.176 -0.6660  0.5622  0.7520
 8146SOL     OW25878   3.656   1.524   3.257  0.7917 -0.4458 -0.3445
 8146SOL    HW125879   3.680   1.489   3.343  1.9587 -1.0952 -0.9055
 8146SOL    HW225880   3.564   1.547   3.265  1.1726  0.6725  1.4551
 8147SOL     OW25881   3.250   3.362   4.564  0.0235 -0.1813 -0.4495
 8147SOL    HW125882   3.249   3.313   4.482 -2.3577  1.1776 -1.3431
 8147SOL    HW225883   3.336   3.405   4.565  0.8943 -1.8086 -1.1828
 8148SOL     OW25884   1.274   5.150   3.128  0.3657  0.0479  0.2584
 8148SOL    HW125885   1.235   5.175   3.044 -1.3182  0.0709  1.0020
 8148SOL    HW225886   1.247   5.220   3.188  1.6294  0.0812  0.8174
 8149SOL     OW25887   0.878   4.914   1.157 -0.0422  0.0024 -0.2403
 8149SOL    HW125888   0.912   4.825   1.150 -0.0107 -0.0531  0.4867
 8149SOL    HW225889   0.862   4.942   1.067  1.9052  0.0130 -0.6284
 8150SOL     OW25890   3.852   6.451   7.285  0.3893 -0.8434  0.2500
 8150SOL    HW125891   3.824   6.510   7.216  2.5512  1.3012  1.0416
 8150SOL    HW225892   3.929   6.407   7.249 -0.0739 -1.7573  0.3578
 8151SOL     OW25893   0.066   6.971   2.419 -0.1697  0.4503  0.4773
 8151SOL    HW125894   0.075   7.067   2.417  0.3317  0.4400 -2.3754
 8151SOL    HW225895   0.156   6.939   2.406 -0.6009 -0.3192 -0.8154
 8152SOL     OW25896   7.858   5.804   4.230  0.0403  0.1692 -0.6206
 8152SOL    HW125897   7.885   5.715   4.208  1.4903  0.0414  1.4377
 8152SOL    HW225898   7.763   5.799   4.239 -0.1139 -0.6927 -2.3999
 8153SOL     OW25899   7.645   5.868   8.492 -0.0376 -0.4545  0.1566
 8153SOL    HW125900   7.703   5.846   8.419 -1.0614  0.3214 -0.9244
 8153SOL    HW225901   7.571   5.913   8.452 -0.6094  0.0521  1.6904
 8154SOL     OW25902   6.762   6.657  10.132  0.8769  0.0258 -0.2369
 8154SOL    HW125903   6.846   6.611  10.120 -0.5449 -2.1407 -3.3304
 8154SOL    HW225904   6.755   6.713  10.055 -0.4322  0.3792  0.1210
 8155SOL     OW25905   7.084   7.916   0.101  0.4046 -0.6203  0.4486
 8155SOL    HW125906   7.135   7.925   0.021  1.8053  0.1778  1.3697
 8155SOL    HW225907   7.013   7.857   0.079  1.3308 -1.2006 -1.1020
 8156SOL     OW25908   4.139   3.791   1.673 -0.4135 -0.1991  0.4767
 8156SOL    HW125909   4.167   3.787   1.582  0.0282  3.0409  0.3239
 8156SOL    HW225910   4.212   3.834   1.718 -1.9868  1.4161  1.6185
 8157SOL     OW25911   0.332   7.861   7.414 -0.3389 -0.0396 -0.3943
 8157SOL    HW125912   0.269   7.854   7.341 -0.1217 -1.5342 -0.4815
 8157SOL    HW225913   0.416   7.840   7.374 -0.4300 -2.5713  0.5279
 8158SOL     OW25914   5.460   0.732   0.245 -0.5244  0.1545  0.7140
 8158SOL    HW125915   5.436   0.679   0.169 -0.2194 -0.2731  0.9118
 8158SOL    HW225916   5.378   0.773   0.272 -0.4599  1.0680 -0.4162
 8159SOL     OW25917   6.989   7.130   5.114  0.0661  0.2457 -0.1946
 8159SOL    HW125918   6.993   7.036   5.097  0.6853  0.2523 -0.1083
 8159SOL    HW225919   6.956   7.168   5.033 -0.3984 -0.0672 -0.1522
 8160SOL     OW25920   4.519   4.883   0.971  0.4999 -0.1563 -0.0900
 8160SOL    HW125921   4.463   4.844   1.038 -1.2004  1.1343 -0.6975
 8160SOL    HW225922   4.561   4.808   0.928 -2.0432 -1.3207 -0.7135
 8161SOL     OW25923   1.407   1.267  11.474  0.1386 -0.1167 -0.1033
 8161SOL    HW125924   1.476   1.273  11.541  0.2223 -0.1822 -0.1831
 8161SOL    HW225925   1.423   1.342  11.417 -0.2799  0.2672  0.2740
 8162SOL     OW25926   5.423   4.866  11.137 -0.2240 -0.2001 -0.5301
 8162SOL    HW125927   5.439   4.953  11.101 -0.2407  2.0659  4.2065
 8162SOL    HW225928   5.507   4.840  11.175 -1.0737 -0.5320  1.2243
 8163SOL     OW25929   4.887   6.855   9.305  0.0980 -0.1034 -0.2741
 8163SOL    HW125930   4.857   6.783   9.361  0.0691 -0.0344 -0.2012
 8163SOL    HW225931   4.977   6.833   9.283  1.1469  1.3269  2.2036
 8164SOL     OW25932   2.352   2.721   7.949 -0.8834 -0.3887 -0.0090
 8164SOL    HW125933   2.270   2.766   7.930 -0.8272 -0.5261 -0.6113
 8164SOL    HW225934   2.384   2.761   8.030 -0.4501  1.1868 -0.9123
 8165SOL     OW25935   2.996   5.843  10.749 -0.2757 -0.1868  0.2143
 8165SOL    HW125936   2.902   5.852  10.733 -0.1167  0.8834 -0.2045
 8165SOL    HW225937   3.004   5.835  10.844 -0.6436  2.1674  0.5045
 8166SOL     OW25938   6.871   2.345  12.447 -0.2178  0.2437  0.2137
 8166SOL    HW125939   6.819   2.299  12.381 -1.0548  0.3825  0.7588
 8166SOL    HW225940   6.902   2.424  12.403  0.4582 -0.3765 -0.4494
 8167SOL     OW25941   7.154   1.895   4.717 -0.3589 -0.1383  0.1218
 8167SOL    HW125942   7.242   1.889   4.679 -1.0588 -0.7542 -1.4759
 8167SOL    HW225943   7.123   1.981   4.692 -1.6333 -1.3020 -2.6932
 8168SOL     OW25944   5.963   0.931  12.409  0.0861 -0.6270  0.3251
 8168SOL    HW125945   5.973   1.020  12.443  1.7399  0.1636 -2.0063
 8168SOL    HW225946   5.879   0.901  12.445 -0.6839  1.9816  0.9340
 8169SOL     OW25947   1.288   2.007   9.369 -0.1645  0.1878 -0.2855
 8169SOL    HW125948   1.267   1.953   9.445 -0.7859 -1.0545 -1.2942
 8169SOL    HW225949   1.202   2.031   9.333  0.1276  0.4762 -0.7946
 8170SOL     OW25950   6.044   1.866   3.312 -0.2659 -0.4649  0.1714
 8170SOL    HW125951   6.018   1.945   3.265  0.5284  0.8614  1.8569
 8170SOL    HW225952   5.976   1.855   3.379 -0.7819 -1.6867 -0.5110
 8171SOL     OW25953   6.773   4.178  10.588 -0.4668  0.0888 -0.1123
 8171SOL    HW125954   6.851   4.157  10.639 -0.8004  0.7048  0.6886
 8171SOL    HW225955   6.700   4.162  10.648 -0.8595  0.9619 -0.3287
 8172SOL     OW25956   7.562   1.159   0.162 -0.1267  0.1403  0.0283
 8172SOL    HW125957   7.507   1.191   0.090 -0.8079  1.0565  0.9234
 8172SOL    HW225958   7.631   1.108   0.119  0.0001  1.4049 -1.3423
 8173SOL     OW25959   2.644   2.719   3.973 -0.1587  0.1560 -0.4826
 8173SOL    HW125960   2.622   2.812   3.971  1.5077  0.5988  0.2836
 8173SOL    HW225961   2.739   2.716   3.980 -0.1960 -1.6105 -0.0976
 8174SOL     OW25962   5.557   7.884  12.037  0.1525  0.2141  0.2737
 8174SOL    HW125963   5.470   7.921  12.025  0.0532  0.4133  1.4310
 8174SOL    HW225964   5.613   7.959  12.059 -0.0008 -0.2166  2.3776
 8175SOL     OW25965   5.396   1.091   3.787 -0.2080  0.3848 -0.3727
 8175SOL    HW125966   5.430   1.140   3.712  0.5364  0.0394 -0.2737
 8175SOL    HW225967   5.410   1.148   3.862 -0.5239  0.5405 -0.4314
 8176SOL     OW25968   3.770   0.158   8.455  0.4085  0.3543  0.4209
 8176SOL    HW125969   3.801   0.188   8.369  0.5499  0.3864  0.4823
 8176SOL    HW225970   3.834   0.195   8.517  0.3709  0.2366  0.5286
 8177SOL     OW25971   7.034   5.874   0.950 -0.3995 -0.1856  0.3755
 8177SOL    HW125972   7.128   5.856   0.945 -0.3671 -1.1823  3.0247
 8177SOL    HW225973   7.027   5.963   0.982 -0.4527  0.6479 -1.7734
 8178SOL     OW25974   7.701   0.397   7.443 -0.4238  0.5127 -0.3693
 8178SOL    HW125975   7.643   0.368   7.372  0.5078  1.6855 -1.6628
 8178SOL    HW225976   7.719   0.318   7.493  0.1094 -0.6944 -2.3538
 8179SOL     OW25977   4.180   1.224   4.890  0.0732 -0.4846 -0.3701
 8179SOL    HW125978   4.175   1.177   4.807  0.2559 -1.1802  0.0112
 8179SOL    HW225979   4.088   1.244   4.912  0.0275 -0.2763 -0.7478
 8180SOL     OW25980   4.431   7.921   6.076  0.3472  0.1822  0.0366
 8180SOL    HW125981   4.349   7.886   6.111  0.1632  0.7373  0.1712
 8180SOL    HW225982   4.434   7.888   5.986  0.2102 -0.2293  0.1808
 8181SOL     OW25983   0.592   2.428  12.357  0.6708 -0.5784  0.7133
 8181SOL    HW125984   0.535   2.499  12.388  1.5419  0.3663  0.1872
 8181SOL    HW225985   0.607   2.374  12.435 -0.7926 -0.7578  0.9050
 8182SOL     OW25986   5.587   3.342   0.607  0.6365 -0.0916 -0.0814
 8182SOL    HW125987   5.573   3.390   0.525 -1.4735 -1.2990 -0.4909
 8182SOL    HW225988   5.512   3.367   0.662 -0.0201 -2.1501  0.0271
 8183SOL     OW25989   6.236   0.223   6.241 -0.3540 -0.0138  0.1727
 8183SOL    HW125990   6.257   0.165   6.313  0.0860  0.3989  0.3818
 8183SOL    HW225991   6.299   0.200   6.172  0.3066  0.7044  0.5229
 8184SOL     OW25992   5.477   4.726   7.058  0.7182  0.9345  0.0157
 8184SOL    HW125993   5.556   4.699   7.011  1.2984  1.8557  0.4369
 8184SOL    HW225994   5.410   4.735   6.990  0.6650 -0.8801 -0.2214
 8185SOL     OW25995   7.248   6.562   8.118 -0.3200 -0.1971  0.4132
 8185SOL    HW125996   7.183   6.618   8.159 -1.5137 -0.9108 -0.4447
 8185SOL    HW225997   7.297   6.524   8.191 -1.6479 -0.5615  1.1562
 8186SOL     OW25998   3.204   2.336   7.656  0.1534 -0.2624  0.3509
 8186SOL    HW125999   3.240   2.248   7.667  0.4617 -0.0331  1.2340
 8186SOL    HW226000   3.163   2.334   7.569  0.4397 -1.1727  0.2237
 8187SOL     OW26001   1.093   3.222   4.753 -0.1897 -0.1438 -0.0986
 8187SOL    HW126002   1.153   3.242   4.824  0.6918  0.5012 -1.0042
 8187SOL    HW226003   1.144   3.170   4.691 -0.9745 -0.7972 -0.2180
 8188SOL     OW26004   7.422   7.802   2.706  0.0813  0.5366 -0.1922
 8188SOL    HW126005   7.382   7.851   2.778 -0.7031  0.5058 -0.6031
 8188SOL    HW226006   7.364   7.728   2.692  0.9914 -0.2517  0.0805
 8189SOL     OW26007   5.032   2.725   4.411 -0.1999  0.1013  0.3735
 8189SOL    HW126008   4.981   2.800   4.381 -0.7073 -0.4436 -0.1440
 8189SOL    HW226009   5.039   2.738   4.506  0.8807  1.5023  0.1360
 8190SOL     OW26010   6.767   2.855   7.240 -0.4187  0.8044  0.3169
 8190SOL    HW126011   6.748   2.815   7.155 -0.3210 -1.7432  1.4113
 8190SOL    HW226012   6.691   2.833   7.294 -1.0494  3.4402  0.6266
 8191SOL     OW26013   0.696   2.144   4.275  0.5475  0.4528  0.0607
 8191SOL    HW126014   0.607   2.116   4.252  0.6275  0.0893  0.1818
 8191SOL    HW226015   0.729   2.186   4.195  1.7044 -2.9532 -1.4708
 8192SOL     OW26016   5.375   6.225   7.163 -0.1759  0.1553 -0.2180
 8192SOL    HW126017   5.410   6.282   7.094 -1.5267  0.6226 -0.5455
 8192SOL    HW226018   5.304   6.275   7.202 -1.3943 -1.2678 -0.4979
 8193SOL     OW26019   1.222   0.555   1.360 -0.5840  0.3308 -0.5835
 8193SOL    HW126020   1.303   0.519   1.324  0.5306  1.2283  0.8816
 8193SOL    HW226021   1.224   0.530   1.453 -1.5655  1.0960 -0.3364
 8194SOL     OW26022   1.247   6.606  10.268  0.1104 -0.4890 -0.1751
 8194SOL    HW126023   1.256   6.549  10.192 -0.0121  0.2720 -0.7739
 8194SOL    HW226024   1.284   6.690  10.240 -0.5262 -0.0053  0.3898
 8195SOL     OW26025   1.211   2.530   4.819  0.5945 -0.1560  0.5582
 8195SOL    HW126026   1.193   2.466   4.751  0.0728  0.1101  0.4351
 8195SOL    HW226027   1.220   2.478   4.899 -0.5044 -0.3403  0.5822
 8196SOL     OW26028   6.147   2.494  10.245 -0.2234  0.3170 -0.0898
 8196SOL    HW126029   6.071   2.445  10.215 -0.2987  0.2272  0.2408
 8196SOL    HW226030   6.111   2.558  10.308 -0.1683  0.9775 -0.7172
 8197SOL     OW26031   2.289   0.235   4.068 -0.1900  0.5181 -0.1767
 8197SOL    HW126032   2.369   0.285   4.052 -0.6340  1.4549  0.4319
 8197SOL    HW226033   2.287   0.170   3.998  1.0661  0.5126 -0.2322
 8198SOL     OW26034   6.684   3.072   6.928 -0.2277  0.4121  0.0340
 8198SOL    HW126035   6.755   3.040   6.983  1.7593  0.5380 -2.3002
 8198SOL    HW226036   6.651   3.150   6.973  0.7220  0.0199  1.4492
 8199SOL     OW26037   4.172   7.686   3.584 -0.3330  0.2745  0.2305
 8199SOL    HW126038   4.108   7.655   3.647  0.5461 -0.4351  0.7928
 8199SOL    HW226039   4.235   7.614   3.576  0.5997  1.0928 -0.0218
 8200SOL     OW26040   7.565   3.910   5.403  0.3942  0.0364 -0.1186
 8200SOL    HW126041   7.612   3.936   5.324 -0.1837 -0.4682 -0.6392
 8200SOL    HW226042   7.472   3.917   5.380  0.1992 -2.0157 -0.1751
 8201SOL     OW26043   1.957   4.825  12.127  0.3782  0.4129 -0.1393
 8201SOL    HW126044   1.981   4.750  12.181  0.1750 -0.1472 -0.8150
 8201SOL    HW226045   1.914   4.787  12.050  1.0242  1.1684 -0.9009
 8202SOL     OW26046   2.864   5.398   3.512  0.2314 -0.4119  0.1569
 8202SOL    HW126047   2.928   5.441   3.568  0.5106 -0.3985 -0.1671
 8202SOL    HW226048   2.841   5.465   3.447 -0.1792 -0.3868  0.3244
 8203SOL     OW26049   4.502   0.255   5.164 -0.2672 -0.4322  0.6325
 8203SOL    HW126050   4.567   0.199   5.208  0.0890  0.2661  1.0154
 8203SOL    HW226051   4.489   0.213   5.079  1.8845  0.2430 -0.1030
 8204SOL     OW26052   6.649   3.719   9.461  0.1768 -0.4346 -0.4100
 8204SOL    HW126053   6.715   3.673   9.514 -0.0171  0.1631  0.3643
 8204SOL    HW226054   6.566   3.678   9.484 -0.1574  1.0009  1.1469
 8205SOL     OW26055   5.239   7.089   9.392 -0.0416 -0.2156  0.6842
 8205SOL    HW126056   5.183   7.013   9.408 -1.7782  1.3013  2.2647
 8205SOL    HW226057   5.313   7.076   9.452 -0.6465 -0.3613  1.4209
 8206SOL     OW26058   0.195   3.881   0.448  0.3617  0.2306 -0.5144
 8206SOL    HW126059   0.192   3.974   0.473  1.2244  0.1023  0.1514
 8206SOL    HW226060   0.184   3.834   0.531 -0.3040 -0.2707 -0.8804
 8207SOL     OW26061   0.080   2.070  10.481  0.2013 -0.0649 -0.4726
 8207SOL    HW126062   0.067   2.161  10.507 -1.4638 -0.9217  2.0871
 8207SOL    HW226063   0.173   2.064  10.459  0.8159  1.7854  1.3704
 8208SOL     OW26064   4.111   4.954   1.033  0.0516 -0.2929 -0.4434
 8208SOL    HW126065   4.192   4.902   1.032  0.4283  0.2914 -0.9924
 8208SOL    HW226066   4.053   4.910   0.971 -0.0447 -0.6996 -0.0666
 8209SOL     OW26067   0.527   7.672  10.937  1.1974  0.1245  0.4678
 8209SOL    HW126068   0.583   7.595  10.935  0.6318 -0.2910  0.2280
 8209SOL    HW226069   0.473   7.664  10.858  0.0888 -0.0325  1.2238
 8210SOL     OW26070   6.670   2.645   4.262 -0.3079  0.0446 -0.0063
 8210SOL    HW126071   6.675   2.698   4.183 -0.8278  1.1804  0.6899
 8210SOL    HW226072   6.577   2.621   4.270 -0.5449  1.1740  1.0038
 8211SOL     OW26073   3.925   5.129  10.296 -0.1768 -0.2892 -0.1100
 8211SOL    HW126074   3.888   5.081  10.223  2.5135 -0.6727 -1.3495
 8211SOL    HW226075   4.009   5.161  10.264  0.9784 -0.1602  2.6868
 8212SOL     OW26076   0.204   0.722   5.052 -0.0180  0.0473 -0.2785
 8212SOL    HW126077   0.287   0.743   5.095  0.8606 -1.6460 -1.0718
 8212SOL    HW226078   0.228   0.702   4.961 -1.3221 -0.2490 -0.5818
 8213SOL     OW26079   6.577   3.681   7.693  0.4957 -0.1263 -0.2055
 8213SOL    HW126080   6.620   3.693   7.609 -0.3135 -0.4160 -0.6725
 8213SOL    HW226081   6.521   3.758   7.703  1.1495  0.2845  0.4305
 8214SOL     OW26082   2.057   4.361   7.989 -0.6079 -0.3312  0.5670
 8214SOL    HW126083   2.045   4.453   7.967  0.6870 -0.0129  1.1090
 8214SOL    HW226084   2.102   4.323   7.913 -0.7562 -0.4192  0.5225
 8215SOL     OW26085   1.399   2.149   8.899 -0.1853  0.3901 -0.0356
 8215SOL    HW126086   1.350   2.185   8.973  2.3796  1.9709  1.0415
 8215SOL    HW226087   1.332   2.118   8.838 -2.4141 -0.4953  2.6786
 8216SOL     OW26088   2.296   2.619   5.779 -0.1275  0.6650  0.5267
 8216SOL    HW126089   2.222   2.565   5.805  0.1557 -1.1739 -2.0463
 8216SOL    HW226090   2.373   2.570   5.805  0.2150  1.6978  1.5508
 8217SOL     OW26091   7.199   6.817   1.575  0.1181  0.6559  0.0051
 8217SOL    HW126092   7.158   6.818   1.662  0.5511  0.0579  0.2213
 8217SOL    HW226093   7.288   6.849   1.591 -0.1604  1.6667 -0.4132
 8218SOL     OW26094   5.229   4.926  10.212  0.1005 -0.7669  0.7172
 8218SOL    HW126095   5.312   4.973  10.219 -0.8570  1.5006 -1.3228
 8218SOL    HW226096   5.228   4.893  10.122 -1.3518 -0.3217  0.5443
 8219SOL     OW26097   2.037   6.209   6.017 -0.0996  0.6716 -0.6626
 8219SOL    HW126098   2.057   6.148   6.088  0.2369  1.6110  0.0710
 8219SOL    HW226099   2.119   6.218   5.968 -0.5648 -0.6663 -1.7369
 8220SOL     OW26100   7.385   6.052   5.142 -0.7453 -0.4760  0.3360
 8220SOL    HW126101   7.434   5.990   5.087 -0.7743  0.1124 -0.3534
 8220SOL    HW226102   7.359   6.122   5.083 -2.4733 -0.7910  0.6903
 8221SOL     OW26103   0.906   3.621   4.365 -0.1198 -0.3282  0.2595
 8221SOL    HW126104   0.993   3.633   4.328 -0.1865 -0.6077  0.0092
 8221SOL    HW226105   0.894   3.526   4.370 -0.0104 -0.3078  1.2374
 8222SOL     OW26106   7.634   6.370   8.120 -0.1538  0.2419  0.1156
 8222SOL    HW126107   7.642   6.420   8.201 -0.2639  0.7036 -0.1475
 8222SOL    HW226108   7.540   6.360   8.108 -0.2617  2.0418 -1.0359
 8223SOL     OW26109   5.062   1.531  10.701  0.4592 -0.0025  0.3430
 8223SOL    HW126110   4.976   1.523  10.740 -0.5430  2.2155 -1.1855
 8223SOL    HW226111   5.111   1.586  10.762  0.2776  0.0456  0.4452
 8224SOL     OW26112   0.167   3.513   6.821 -0.7194 -0.6469 -0.5044
 8224SOL    HW126113   0.218   3.505   6.740 -0.4482 -0.6185 -0.3381
 8224SOL    HW226114   0.222   3.567   6.878 -0.0767 -2.1481  0.3671
 8225SOL     OW26115   0.910   7.188   4.527  0.0594  0.8718  0.0051
 8225SOL    HW126116   0.876   7.278   4.534  0.1228  0.7859  1.8831
 8225SOL    HW226117   0.845   7.142   4.475  0.3185  2.1273 -1.5125
 8226SOL     OW26118   3.705   7.773  10.914  0.5947  0.4706  0.1852
 8226SOL    HW126119   3.717   7.867  10.927 -1.3670  0.8499 -0.4595
 8226SOL    HW226120   3.710   7.735  11.002  2.4050  1.0136  0.3514
 8227SOL     OW26121   3.944   2.306   1.808 -0.3404 -0.7960  0.7454
 8227SOL    HW126122   4.029   2.280   1.843  0.9299  3.0924  1.0357
 8227SOL    HW226123   3.950   2.290   1.714  0.8679 -0.2831  0.7163
 8228SOL     OW26124   4.322   0.021   9.614 -0.1330  0.0285 -0.0920
 8228SOL    HW126125   4.384   0.023   9.686  0.8697 -2.0066 -0.8306
 8228SOL    HW226126   4.263   0.095   9.631  1.1864  0.7277  1.7662
 8229SOL     OW26127   2.187   1.631   5.237  0.6412  0.5244 -0.0668
 8229SOL    HW126128   2.261   1.635   5.298  0.7704 -1.5119 -0.0161
 8229SOL    HW226129   2.126   1.697   5.268  0.1810 -1.1648  3.0313
 8230SOL     OW26130   2.973   0.663  10.514  0.3896 -0.3759 -0.2659
 8230SOL    HW126131   2.881   0.646  10.493 -0.1568  1.9994 -0.0814
 8230SOL    HW226132   2.980   0.759  10.515  2.7287 -0.4952  0.3735
 8231SOL     OW26133   1.924   1.569   3.233 -0.1371 -0.1234 -0.2398
 8231SOL    HW126134   2.010   1.592   3.197  1.3472 -1.1775  2.3100
 8231SOL    HW226135   1.894   1.649   3.276 -0.7120  0.3785 -1.5073
 8232SOL     OW26136   1.391   3.962  10.579 -0.0464 -0.2063  0.2356
 8232SOL    HW126137   1.296   3.953  10.578 -0.2910  1.7606 -1.3220
 8232SOL    HW226138   1.406   4.057  10.570  2.0399 -0.5811 -0.9149
 8233SOL     OW26139   1.555   2.443   2.108 -0.0019  0.0278 -0.7042
 8233SOL    HW126140   1.620   2.510   2.087 -2.2861  2.6442 -0.1180
 8233SOL    HW226141   1.500   2.483   2.175 -1.5218 -2.4776 -0.3125
 8234SOL     OW26142   3.358   5.124  11.550 -0.4133 -0.0041 -0.1347
 8234SOL    HW126143   3.343   5.207  11.594 -0.2185 -0.4462  0.7793
 8234SOL    HW226144   3.328   5.058  11.612  1.1870 -0.7107 -0.0712
 8235SOL     OW26145   4.197   1.757   0.761 -0.4043  0.5374  0.1949
 8235SOL    HW126146   4.117   1.765   0.813 -0.6990  0.8615 -0.2969
 8235SOL    HW226147   4.219   1.846   0.736 -0.2749  0.3870 -0.2433
 8236SOL     OW26148   6.721   0.646  10.992 -0.1051  0.1086  0.4190
 8236SOL    HW126149   6.720   0.741  11.000 -1.4187  0.0918  0.7283
 8236SOL    HW226150   6.677   0.615  11.070 -1.8985 -0.6306 -0.8128
 8237SOL     OW26151   1.036   3.467   6.059 -0.3630  0.3080 -0.0030
 8237SOL    HW126152   1.102   3.399   6.070  0.4449  1.2115  0.9149
 8237SOL    HW226153   1.084   3.550   6.064 -1.6359  1.0179  1.6673
 8238SOL     OW26154   6.197   0.891   5.627 -0.1059 -0.2126  0.5565
 8238SOL    HW126155   6.141   0.958   5.587  1.3348  0.5554 -0.2557
 8238SOL    HW226156   6.244   0.852   5.553 -0.4651 -1.7259  1.0839
 8239SOL     OW26157   6.167   4.388   0.491  0.0272 -0.0271  0.2076
 8239SOL    HW126158   6.176   4.457   0.426 -0.7797 -1.2920 -1.3427
 8239SOL    HW226159   6.256   4.370   0.520  0.3439  0.9741 -0.1082
 8240SOL     OW26160   4.122   0.907  10.884 -0.0116  0.2427 -0.1497
 8240SOL    HW126161   4.156   0.959  10.958  0.0131  0.6645 -0.4525
 8240SOL    HW226162   4.046   0.957  10.854  1.5877  1.6016 -2.2051
 8241SOL     OW26163   4.619   0.308   9.526  0.1077  0.4108  0.0021
 8241SOL    HW126164   4.629   0.357   9.444  1.2224  0.6783  0.2780
 8241SOL    HW226165   4.559   0.237   9.504 -2.6350  2.6186 -0.0620
 8242SOL     OW26166   2.767   3.536   4.968 -0.0982 -0.2227  0.0926
 8242SOL    HW126167   2.819   3.478   5.024  0.3980  1.3805  1.3687
 8242SOL    HW226168   2.832   3.585   4.918 -0.4011  0.8588  0.7304
 8243SOL     OW26169   6.285   2.907   6.780  0.1179  0.3112  0.9685
 8243SOL    HW126170   6.320   2.853   6.850  0.7826 -1.2035 -0.4701
 8243SOL    HW226171   6.214   2.855   6.742 -0.2419  1.1080  0.5014
 8244SOL     OW26172   2.687   2.806   7.917 -0.2132 -0.3005  0.0266
 8244SOL    HW126173   2.653   2.882   7.870 -3.7170 -0.3057  2.1817
 8244SOL    HW226174   2.767   2.838   7.959  1.0710  0.6654 -2.9254
 8245SOL     OW26175   3.882   1.940   2.792 -0.5717  0.0382 -0.0128
 8245SOL    HW126176   3.872   1.846   2.783 -1.5149 -0.1639  2.4895
 8245SOL    HW226177   3.845   1.976   2.711 -1.1252 -1.6694 -0.5531
 8246SOL     OW26178   4.341   2.060   4.813 -0.4337  0.7441  0.4272
 8246SOL    HW126179   4.306   2.040   4.900 -1.6117  1.2108  0.0874
 8246SOL    HW226180   4.370   1.976   4.778 -1.1755  0.3453  0.7556
 8247SOL     OW26181   0.040   3.292   6.875  0.0055 -0.4659 -0.2277
 8247SOL    HW126182  -0.028   3.304   6.941  0.1895  0.4870 -0.2011
 8247SOL    HW226183   0.089   3.374   6.875  0.0633 -0.4727 -1.4926
 8248SOL     OW26184   4.057   6.819   0.716  0.5131 -0.3913  0.5641
 8248SOL    HW126185   4.045   6.797   0.623  0.9439  0.3794  0.3216
 8248SOL    HW226186   4.121   6.890   0.716  0.2825 -0.1750  1.4338
 8249SOL     OW26187   5.963   6.148  11.590  0.0726  0.3928 -0.4702
 8249SOL    HW126188   5.990   6.067  11.546  0.9717  0.5426 -0.2187
 8249SOL    HW226189   5.951   6.123  11.681  0.3455  0.5319 -0.3932
 8250SOL     OW26190   7.985   7.420   0.830  0.1351 -0.0040 -0.2035
 8250SOL    HW126191   7.897   7.403   0.797  0.3815  0.9298 -1.3849
 8250SOL    HW226192   8.035   7.341   0.807  0.5696  1.0212 -3.1338
 8251SOL     OW26193   6.307   0.205   6.676 -0.4565 -0.4118  0.0927
 8251SOL    HW126194   6.387   0.200   6.625  0.1429  1.4926  0.7360
 8251SOL    HW226195   6.249   0.261   6.624 -0.2212  0.6887  0.9740
 8252SOL     OW26196   1.781   0.413  10.964  0.1544  0.1140 -0.5810
 8252SOL    HW126197   1.866   0.416  11.007  0.2380 -1.4584 -0.5945
 8252SOL    HW226198   1.800   0.390  10.874 -0.4023 -3.7801  0.1236
 8253SOL     OW26199   3.238   6.699   0.773  0.3736 -0.3319  0.1608
 8253SOL    HW126200   3.153   6.658   0.755 -0.1682 -0.8846  3.4103
 8253SOL    HW226201   3.217   6.791   0.789  0.7426  0.0062 -1.2086
 8254SOL     OW26202   7.835   7.693   9.358 -0.6462  0.1638 -0.2617
 8254SOL    HW126203   7.761   7.632   9.354  0.4138 -1.2039  0.2060
 8254SOL    HW226204   7.909   7.639   9.384  0.2632  1.7564  0.5911
 8255SOL     OW26205   7.549   1.129   3.669 -0.2740 -0.4485  0.2269
 8255SOL    HW126206   7.628   1.095   3.628  0.5655  1.6787 -0.0452
 8255SOL    HW226207   7.516   1.195   3.607 -0.9497  0.3297  1.3586
 8256SOL     OW26208   6.558   3.540   1.322 -0.4264 -0.1840  0.2281
 8256SOL    HW126209   6.523   3.486   1.392 -0.6097  0.0113  0.2867
 8256SOL    HW226210   6.495   3.612   1.312 -2.0483 -1.7513 -2.1284
 8257SOL     OW26211   7.917   1.045   0.578  0.1577  0.0187 -0.2708
 8257SOL    HW126212   7.969   1.107   0.627 -0.2011  1.0526 -1.1621
 8257SOL    HW226213   7.981   0.994   0.528  0.5028 -0.8522  1.0110
 8258SOL     OW26214   2.603   0.846   2.414 -0.0698 -0.4052 -0.2168
 8258SOL    HW126215   2.550   0.919   2.446  0.6102  1.3231 -2.6681
 8258SOL    HW226216   2.618   0.792   2.491 -0.5808  2.0545  1.7687
 8259SOL     OW26217   1.027   7.881   2.757 -0.8484  0.0278  0.5907
 8259SOL    HW126218   0.946   7.845   2.721  0.0355 -1.6668  0.2048
 8259SOL    HW226219   1.075   7.805   2.788  0.5843  1.0065  0.8589
 8260SOL     OW26220   4.172   6.151   0.986  0.1694 -0.1149 -0.2696
 8260SOL    HW126221   4.137   6.145   1.075  1.3944 -0.0076  0.2533
 8260SOL    HW226222   4.096   6.151   0.929 -0.6779  0.5177  0.8268
 8261SOL     OW26223   4.793   1.502   5.257  0.3768 -0.2824 -0.0027
 8261SOL    HW126224   4.763   1.591   5.276  0.4168 -0.0796 -0.8908
 8261SOL    HW226225   4.834   1.473   5.339  2.2970  1.3187 -0.3335
 8262SOL     OW26226   5.531   5.305   5.382 -0.2499  0.2000  0.1487
 8262SOL    HW126227   5.453   5.322   5.330 -0.4991  1.0936  0.7847
 8262SOL    HW226228   5.602   5.297   5.318 -0.5163  1.4349 -0.3368
 8263SOL     OW26229   1.801   2.158  10.629  0.3747 -1.4817 -0.5011
 8263SOL    HW126230   1.748   2.133  10.553  1.1643 -1.6907 -0.9891
 8263SOL    HW226231   1.863   2.223  10.595  0.1543 -0.9047  0.1607
 8264SOL     OW26232   7.522   7.213   7.449 -0.9922  0.4436  0.2472
 8264SOL    HW126233   7.511   7.135   7.504 -1.1382  0.6517  0.5198
 8264SOL    HW226234   7.584   7.267   7.498 -1.0150  0.5705  0.1357
 8265SOL     OW26235   5.909   0.716  11.977 -0.4713 -0.0901  0.1626
 8265SOL    HW126236   5.846   0.647  11.995  0.2190 -0.5697  0.8030
 8265SOL    HW226237   5.946   0.738  12.063  0.0871  0.3219 -0.1712
 8266SOL     OW26238   7.167   4.780   4.457  0.1187  0.5582 -0.2714
 8266SOL    HW126239   7.190   4.784   4.550  0.3931  0.0110 -0.3090
 8266SOL    HW226240   7.133   4.867   4.436 -0.6003  0.4768  0.5129
 8267SOL     OW26241   7.040   4.272   0.511 -0.1996  0.0183 -0.3470
 8267SOL    HW126242   7.013   4.363   0.498 -1.3819 -0.1259  0.9063
 8267SOL    HW226243   6.968   4.221   0.475 -0.9350 -0.3889  1.6342
 8268SOL     OW26244   0.317   1.130  12.253  0.2565 -0.3791  0.4982
 8268SOL    HW126245   0.288   1.079  12.329 -0.9684 -0.2108  0.1630
 8268SOL    HW226246   0.236   1.154  12.208  0.9863 -1.5734 -1.5952
 8269SOL     OW26247   5.610   1.329   3.863 -0.3327  0.0636 -0.6431
 8269SOL    HW126248   5.601   1.368   3.776 -1.8785  1.0919 -0.0706
 8269SOL    HW226249   5.696   1.286   3.861 -0.0112  0.6818 -2.4199
 8270SOL     OW26250   5.647   4.636  11.592 -0.1391 -0.1184  0.4218
 8270SOL    HW126251   5.642   4.731  11.599 -1.3421 -0.2707  1.9849
 8270SOL    HW226252   5.648   4.604  11.682 -0.9055 -1.6281 -0.0569
 8271SOL     OW26253   5.629   3.421   0.322 -0.6478 -0.2799  0.1060
 8271SOL    HW126254   5.617   3.516   0.316  0.0764 -0.1988 -0.1192
 8271SOL    HW226255   5.682   3.399   0.246 -1.2843 -0.9538 -0.1532
 8272SOL     OW26256   3.168   2.233   3.841 -0.3808 -0.5432 -0.8368
 8272SOL    HW126257   3.240   2.291   3.815  0.9874 -0.5855  2.3159
 8272SOL    HW226258   3.189   2.149   3.800  1.1402 -0.4168 -0.3882
 8273SOL     OW26259   0.488   5.682   8.889  0.2013  0.3829  0.2273
 8273SOL    HW126260   0.574   5.720   8.870 -0.3894  0.8841 -1.5738
 8273SOL    HW226261   0.503   5.588   8.886  0.6777  0.4638 -0.1652
 8274SOL     OW26262   5.528   0.648   8.415  0.4973 -0.0173  0.1200
 8274SOL    HW126263   5.536   0.706   8.490  0.8881 -1.0579  0.9060
 8274SOL    HW226264   5.526   0.560   8.452  0.0103 -0.5239 -1.0457
 8275SOL     OW26265   3.253   2.633   6.848  0.0222 -0.3270 -0.5142
 8275SOL    HW126266   3.256   2.541   6.821 -0.1209 -0.3911 -0.3113
 8275SOL    HW226267   3.171   2.642   6.896  1.4507 -0.8411  2.1843
 8276SOL     OW26268   2.968   0.753   7.018  0.9221 -0.1236  0.7107
 8276SOL    HW126269   2.980   0.711   7.103  0.8555 -0.8151  0.3853
 8276SOL    HW226270   2.976   0.682   6.955 -0.1336  0.2032  0.1999
 8277SOL     OW26271   0.393   6.525   6.468  0.2393 -0.2842  0.3304
 8277SOL    HW126272   0.395   6.527   6.372  2.4931 -1.1571  0.2961
 8277SOL    HW226273   0.328   6.591   6.492 -0.1348  0.1920 -1.7843
 8278SOL     OW26274   5.701   4.255  11.268  0.4338 -0.1613 -0.4830
 8278SOL    HW126275   5.645   4.330  11.250 -1.2352 -1.0739  0.7044
 8278SOL    HW226276   5.674   4.189  11.205 -0.3397 -0.8407  0.5360
 8279SOL     OW26277   7.414   3.243   7.366 -0.0121 -0.8659  0.2362
 8279SOL    HW126278   7.446   3.274   7.281 -0.8121 -1.1271 -0.1782
 8279SOL    HW226279   7.448   3.306   7.429 -2.3507  1.5067 -0.6687
 8280SOL     OW26280   4.664   0.129   4.439 -0.3701  0.0278  0.3785
 8280SOL    HW126281   4.570   0.126   4.422 -0.2136  1.2292 -0.9422
 8280SOL    HW226282   4.679   0.216   4.476  0.1038 -0.5230  1.5304
 8281SOL     OW26283   0.507   1.449   0.586  0.3020 -0.2166 -0.4691
 8281SOL    HW126284   0.495   1.371   0.641  0.3253 -1.8991 -2.6741
 8281SOL    HW226285   0.600   1.447   0.562  0.0614 -0.1793 -1.4496
 8282SOL     OW26286   3.862   2.495   1.441  0.2061  0.5934  0.1865
 8282SOL    HW126287   3.837   2.579   1.480  0.7649  0.1429  1.5697
 8282SOL    HW226288   3.783   2.466   1.394 -0.5003  1.1612  0.9887
 8283SOL     OW26289   4.632   5.850   0.979  0.0206  0.0274  0.1833
 8283SOL    HW126290   4.559   5.788   0.974 -0.2532  0.4029 -0.6007
 8283SOL    HW226291   4.710   5.794   0.992  0.0642 -0.6945 -2.5818
 8284SOL     OW26292   1.841   7.253   2.625 -0.8755  0.2443 -0.0160
 8284SOL    HW126293   1.886   7.328   2.587 -0.0393 -0.0364  0.4009
 8284SOL    HW226294   1.821   7.279   2.715  0.5793 -0.4827  0.5489
 8285SOL     OW26295   1.826   1.022  11.040 -0.0547 -0.6057 -0.4764
 8285SOL    HW126296   1.871   1.076  11.106 -1.0330 -0.1485 -0.1598
 8285SOL    HW226297   1.893   0.961  11.010  0.5565 -0.4869  0.5735
 8286SOL     OW26298   2.023   3.682   8.444  0.3007  0.0410  0.9321
 8286SOL    HW126299   2.107   3.724   8.462  0.3198  0.8327 -0.8082
 8286SOL    HW226300   2.010   3.623   8.518  2.0769  0.3635  1.5620
 8287SOL     OW26301   4.503   7.651   2.075 -0.6169  0.2258  0.1643
 8287SOL    HW126302   4.581   7.631   2.025 -0.5473 -0.6686  0.6123
 8287SOL    HW226303   4.495   7.746   2.070 -2.1888  0.0689 -3.8994
 8288SOL     OW26304   4.516   6.021   8.475 -0.7346  0.1695 -0.1565
 8288SOL    HW126305   4.450   5.964   8.515 -0.8132 -0.2101 -0.8170
 8288SOL    HW226306   4.480   6.044   8.390  0.3474 -0.7369 -0.8968
 8289SOL     OW26307   5.873   4.750   0.271 -0.6451  0.0400 -0.4598
 8289SOL    HW126308   5.851   4.676   0.214 -1.2566  0.1265 -0.3435
 8289SOL    HW226309   5.863   4.827   0.215 -1.5825  0.1531 -0.1629
 8290SOL     OW26310   1.149   3.074   8.545  0.6244  0.4990 -0.2050
 8290SOL    HW126311   1.185   3.091   8.458 -1.5355  0.6749 -1.1290
 8290SOL    HW226312   1.112   3.157   8.573 -2.8842 -0.5477 -1.2649
 8291SOL     OW26313   3.271   0.599  10.007 -0.2824  0.2369  0.1171
 8291SOL    HW126314   3.215   0.531  10.045 -0.4956 -0.5178 -1.4697
 8291SOL    HW226315   3.209   0.665   9.975 -0.1093  0.7781  0.8598
 8292SOL     OW26316   4.043   3.543   2.498 -0.4134 -0.3674 -0.6809
 8292SOL    HW126317   4.138   3.529   2.504 -0.6690 -2.0215  0.2415
 8292SOL    HW226318   4.012   3.471   2.443 -1.1357  0.1826 -0.9959
 8293SOL     OW26319   0.560   6.773  11.532  0.3018  0.0783 -0.6464
 8293SOL    HW126320   0.593   6.712  11.466  1.0576 -1.1722  0.8234
 8293SOL    HW226321   0.465   6.762  11.530  0.3448 -0.2366 -1.2332
 8294SOL     OW26322   0.595   2.825  12.064 -0.9019  0.4742  0.2176
 8294SOL    HW126323   0.662   2.863  12.120 -0.0064 -0.5490 -0.1376
 8294SOL    HW226324   0.538   2.776  12.124  0.6283 -1.4610  0.1816
 8295SOL     OW26325   7.533   3.142  10.532 -0.8251 -0.2093 -0.2009
 8295SOL    HW126326   7.557   3.079  10.599 -1.4083 -0.0454  0.1709
 8295SOL    HW226327   7.601   3.134  10.465 -1.6737 -2.3155 -0.9113
 8296SOL     OW26328   5.887   1.289   7.005 -0.6737  0.1027  0.3594
 8296SOL    HW126329   5.829   1.229   7.051 -1.2775  1.9362  2.1007
 8296SOL    HW226330   5.908   1.357   7.069  2.2715  0.2830 -0.6365
 8297SOL     OW26331   7.283   3.757  11.917  0.4762  0.4528  0.1088
 8297SOL    HW126332   7.285   3.731  11.824  0.8228  1.0532 -0.0542
 8297SOL    HW226333   7.301   3.676  11.964  1.9056  0.4371 -0.4101
 8298SOL     OW26334   5.400   1.925   9.083  0.1736 -0.0628  0.6057
 8298SOL    HW126335   5.434   1.962   9.165  1.7698 -0.5626  0.2103
 8298SOL    HW226336   5.305   1.925   9.094  0.2973  1.0734  1.9341
 8299SOL     OW26337   7.498   1.045  12.091 -0.0775 -0.3120 -0.7529
 8299SOL    HW126338   7.414   1.037  12.135 -0.4575 -2.1060 -1.6843
 8299SOL    HW226339   7.561   1.059  12.161 -1.0425  0.2370  0.0297
 8300SOL     OW26340   0.099   1.047   1.669 -0.0827  0.1986  0.8812
 8300SOL    HW126341   0.147   1.001   1.738 -0.1169 -1.5666 -0.2072
 8300SOL    HW226342   0.060   0.977   1.616 -0.7239  1.5164 -0.4598
 8301SOL     OW26343   5.313   5.858   0.205  0.9473 -0.3381 -0.7922
 8301SOL    HW126344   5.293   5.951   0.217  0.8566 -0.5356  0.8831
 8301SOL    HW226345   5.228   5.816   0.202  0.9851 -0.5554  0.4890
 8302SOL     OW26346   5.546   2.934   3.324 -0.3815 -0.3141  0.0527
 8302SOL    HW126347   5.507   2.922   3.410  1.3572  2.6066  1.4077
 8302SOL    HW226348   5.578   2.848   3.299 -1.6764 -1.3951  1.9196
 8303SOL     OW26349   0.269   0.515  12.208 -0.1412  0.3870  0.1086
 8303SOL    HW126350   0.197   0.544  12.264 -1.5567 -1.3595 -0.6915
 8303SOL    HW226351   0.333   0.586  12.212 -1.6068  1.7117  1.3768
 8304SOL     OW26352   4.284   6.831   2.968  0.3699 -0.2410 -0.1633
 8304SOL    HW126353   4.319   6.813   3.055  0.6371  0.3022 -0.1546
 8304SOL    HW226354   4.276   6.927   2.964 -0.6708 -0.3246 -0.3382
 8305SOL     OW26355   6.687   0.979   2.735 -0.3052 -0.0265 -0.3580
 8305SOL    HW126356   6.696   0.917   2.807 -0.9706 -0.8495 -0.9540
 8305SOL    HW226357   6.627   0.935   2.674  1.4007 -0.0217 -2.1172
 8306SOL     OW26358   0.586   0.716   4.863 -0.7606  0.0061  0.2360
 8306SOL    HW126359   0.657   0.652   4.858 -0.6702 -0.0678  1.9225
 8306SOL    HW226360   0.617   0.782   4.925 -0.5271  2.1597 -2.0160
 8307SOL     OW26361   0.671   7.813   4.241  0.6993 -0.3493  0.4094
 8307SOL    HW126362   0.751   7.822   4.189 -0.2577 -1.9011 -1.4162
 8307SOL    HW226363   0.702   7.778   4.325  2.0212 -0.0809  0.0688
 8308SOL     OW26364   6.914   4.342   7.504 -0.2239 -0.0651 -0.6883
 8308SOL    HW126365   6.858   4.374   7.575 -0.3729 -0.6367 -0.5398
 8308SOL    HW226366   6.898   4.247   7.502  0.1731 -0.1265 -1.1416
 8309SOL     OW26367   0.214   0.556   8.473  0.5670 -0.5709  0.5502
 8309SOL    HW126368   0.133   0.547   8.422 -0.6534 -1.8798  2.5898
 8309SOL    HW226369   0.278   0.504   8.423  0.0098 -0.0616 -0.7524
 8310SOL     OW26370   1.377   7.182   6.502 -0.1775  0.0225 -0.1873
 8310SOL    HW126371   1.285   7.164   6.482 -0.6609  1.2502  0.8283
 8310SOL    HW226372   1.375   7.245   6.574  1.4632 -1.9216  1.6974
 8311SOL     OW26373   0.109   4.293   4.197 -0.2497  0.1315 -0.0489
 8311SOL    HW126374   0.190   4.285   4.147  0.7401 -0.8612  1.6075
 8311SOL    HW226375   0.126   4.245   4.278 -1.0783  3.0653  2.0528
 8312SOL     OW26376   7.979   2.129   2.994 -0.6941 -0.0830  0.0973
 8312SOL    HW126377   7.955   2.134   2.902 -2.7361 -0.8342  0.5268
 8312SOL    HW226378   8.036   2.205   3.008  1.7891 -1.3330 -2.3013
 8313SOL     OW26379   4.022   0.752  11.529 -0.5840 -0.0301  0.3893
 8313SOL    HW126380   3.997   0.761  11.621 -2.2259 -2.0462  0.2332
 8313SOL    HW226381   3.940   0.765  11.481  0.2333  0.8842 -0.8044
 8314SOL     OW26382   4.675   2.917   2.677  0.0241  0.4723  0.3153
 8314SOL    HW126383   4.704   2.894   2.589  0.0428  1.6977 -0.0063
 8314SOL    HW226384   4.755   2.913   2.730  0.1168  0.3049  0.1632
 8315SOL     OW26385   1.180   1.846   3.240  0.3876 -0.0676 -1.0543
 8315SOL    HW126386   1.193   1.780   3.172  1.2725  0.1672 -1.1326
 8315SOL    HW226387   1.269   1.872   3.264  0.0748 -0.0053  0.0522
 8316SOL     OW26388   6.932   5.223   7.654 -0.3119  0.1795 -0.0539
 8316SOL    HW126389   6.901   5.310   7.628 -0.1037  0.6482  1.1747
 8316SOL    HW226390   7.003   5.241   7.716  0.0827 -0.8758 -0.1800
 8317SOL     OW26391   7.698   0.446   2.232 -0.0182  0.2369  0.3280
 8317SOL    HW126392   7.729   0.537   2.225  0.4291  0.0284 -0.4144
 8317SOL    HW226393   7.687   0.417   2.142 -0.4419 -0.3592  0.5652
 8318SOL     OW26394   6.737   3.624   5.215  0.1721  0.3235 -0.0471
 8318SOL    HW126395   6.781   3.640   5.299 -0.5156  0.5853  0.2741
 8318SOL    HW226396   6.802   3.649   5.149  0.5994  0.4523  0.4131
 8319SOL     OW26397   2.429   7.905   1.206  0.0240  0.0187  0.1072
 8319SOL    HW126398   2.432   7.861   1.291 -0.9631 -0.6606 -0.1946
 8319SOL    HW226399   2.433   7.834   1.142  0.3148  0.4977 -0.4132
 8320SOL     OW26400   7.758   6.285  10.798  0.4060 -0.2158 -0.0872
 8320SOL    HW126401   7.824   6.267  10.731  0.3030 -1.9733  0.2494
 8320SOL    HW226402   7.792   6.245  10.877  0.2011  1.2586  0.7914
 8321SOL     OW26403   5.716   3.545   5.723 -0.7122 -0.6748 -0.5454
 8321SOL    HW126404   5.636   3.529   5.673  0.8672  0.5207 -3.7349
 8321SOL    HW226405   5.771   3.599   5.666  1.6753  0.1480  2.2176
 8322SOL     OW26406   4.432   1.255  10.601  0.3443  0.1647  0.6116
 8322SOL    HW126407   4.526   1.255  10.617  0.2381  1.6990  1.3913
 8322SOL    HW226408   4.422   1.286  10.511  0.5613  0.7682  0.7919
 8323SOL     OW26409   5.990   7.029   4.439 -0.3824 -0.2391  0.1739
 8323SOL    HW126410   6.040   6.995   4.513  1.0298 -1.4530 -1.2468
 8323SOL    HW226411   5.968   6.951   4.387 -0.6059  0.6433 -1.1179
 8324SOL     OW26412   1.527   5.122   9.305  0.2347  0.2678 -0.5931
 8324SOL    HW126413   1.455   5.095   9.363 -0.8784 -0.7910 -2.3698
 8324SOL    HW226414   1.606   5.091   9.349 -0.5700 -0.4480  0.4016
 8325SOL     OW26415   4.942   0.410   0.016 -0.3169 -0.1646 -0.0727
 8325SOL    HW126416   5.010   0.418   0.084 -0.7531 -0.3163  0.3884
 8325SOL    HW226417   4.945   0.317  -0.009 -2.1146 -0.8062  1.8348
 8326SOL     OW26418   3.556   5.778   5.891  0.0471 -0.4745  0.4500
 8326SOL    HW126419   3.580   5.687   5.912 -1.7807 -0.6687  1.9493
 8326SOL    HW226420   3.513   5.810   5.970 -0.1618  1.4295 -0.3857
 8327SOL     OW26421   4.933   7.032  10.546 -0.2884  0.5862 -0.0360
 8327SOL    HW126422   4.985   7.076  10.479 -1.7247  1.2859 -0.7423
 8327SOL    HW226423   4.989   6.961  10.578  1.2777  1.6355 -0.3623
 8328SOL     OW26424   7.471   1.081   9.329  0.1264  0.2748  0.0012
 8328SOL    HW126425   7.542   1.050   9.273  0.0759  0.7490 -0.3331
 8328SOL    HW226426   7.501   1.166   9.360 -0.2205  0.3933  0.0068
 8329SOL     OW26427   5.748   6.081   1.383 -0.2748 -0.3297 -0.1819
 8329SOL    HW126428   5.729   6.175   1.390 -0.8757 -0.3859 -0.8901
 8329SOL    HW226429   5.843   6.076   1.388 -0.2483  0.2924  0.1155
 8330SOL     OW26430   4.381   2.105  10.068 -0.7163 -0.0037 -0.4793
 8330SOL    HW126431   4.434   2.181  10.092  0.2661 -0.9144  0.3727
 8330SOL    HW226432   4.297   2.141  10.042 -0.7529  1.2905  1.2713
 8331SOL     OW26433   7.740   0.520   1.335 -0.4658  0.0145 -0.4985
 8331SOL    HW126434   7.831   0.524   1.305 -0.5199 -0.4541 -0.7343
 8331SOL    HW226435   7.700   0.601   1.302 -0.5556 -0.5505 -1.8096
 8332SOL     OW26436   1.121   4.924   4.844  0.1491 -0.1228  0.3412
 8332SOL    HW126437   1.216   4.919   4.833  0.0967  0.9466 -0.7115
 8332SOL    HW226438   1.089   4.839   4.812  0.7039 -0.2859  0.2019
 8333SOL     OW26439   6.275   5.878   3.409  0.0144 -0.0751 -0.0762
 8333SOL    HW126440   6.221   5.847   3.336 -0.3212  0.2454  0.0264
 8333SOL    HW226441   6.222   5.948   3.448  0.3813  0.0424  0.2091
 8334SOL     OW26442   1.184   1.767  11.745 -0.2747 -0.2235 -0.1959
 8334SOL    HW126443   1.095   1.784  11.777 -0.5123  0.3709 -1.1065
 8334SOL    HW226444   1.173   1.755  11.651  0.7848  1.3998 -0.5641
 8335SOL     OW26445   0.505   5.745   0.017 -0.4595  0.3835 -0.4738
 8335SOL    HW126446   0.480   5.723   0.106 -0.1691  3.4740  0.4625
 8335SOL    HW226447   0.600   5.756   0.020 -0.5091  1.0276 -1.0435
 8336SOL     OW26448   3.308   6.755   4.625  0.5543  0.0869 -0.0219
 8336SOL    HW126449   3.274   6.673   4.659 -0.0827  0.1763 -0.4265
 8336SOL    HW226450   3.321   6.739   4.532 -1.3587  0.9956 -0.4872
 8337SOL     OW26451   5.614   7.498   6.186 -0.6348  0.1127 -0.6621
 8337SOL    HW126452   5.531   7.535   6.216 -0.7173  1.2767 -2.2412
 8337SOL    HW226453   5.602   7.485   6.092  1.3954  1.4854 -1.1555
 8338SOL     OW26454   5.481   5.724   1.853 -0.4267 -0.0334 -0.5618
 8338SOL    HW126455   5.430   5.787   1.904 -0.5523  0.3742 -1.1741
 8338SOL    HW226456   5.564   5.769   1.835 -0.0233 -0.5220  0.0468
 8339SOL     OW26457   3.405   5.815   2.844 -0.4597 -0.7393 -0.0764
 8339SOL    HW126458   3.355   5.895   2.828 -1.0621 -1.3617 -1.4402
 8339SOL    HW226459   3.454   5.833   2.925 -0.4217  1.0695 -0.4600
 8340SOL     OW26460   4.631   1.375   3.924  0.1207  0.0951  0.1012
 8340SOL    HW126461   4.550   1.417   3.896 -0.7964 -0.8520  1.2400
 8340SOL    HW226462   4.697   1.407   3.862 -1.6535 -1.4793 -2.8305
 8341SOL     OW26463   3.765   0.553   1.758  0.3677 -0.0048  0.4230
 8341SOL    HW126464   3.690   0.561   1.698 -0.3967  0.6182  1.4284
 8341SOL    HW226465   3.734   0.492   1.826  0.6385  0.5131  1.0232
 8342SOL     OW26466   5.547   4.574   0.689 -0.2116  0.8043  0.1242
 8342SOL    HW126467   5.529   4.666   0.712 -2.6726  0.4042  0.1084
 8342SOL    HW226468   5.587   4.578   0.603 -0.1173  1.8746  0.2009
 8343SOL     OW26469   6.807   7.823  10.563  0.5421  0.2293  0.6663
 8343SOL    HW126470   6.777   7.735  10.588 -0.8286  0.3268 -0.5121
 8343SOL    HW226471   6.778   7.833  10.473  1.3723  1.6149  0.5341
 8344SOL     OW26472   3.387   0.574   3.057  0.0183 -0.2167  0.2357
 8344SOL    HW126473   3.451   0.527   3.111  2.0650  2.1907  0.1310
 8344SOL    HW226474   3.322   0.605   3.119 -0.1681 -1.2949  0.6083
 8345SOL     OW26475   0.949   0.221   8.076  0.1835 -0.5580  0.4573
 8345SOL    HW126476   0.995   0.306   8.073 -0.4613 -0.1307  1.8292
 8345SOL    HW226477   0.895   0.227   8.154 -1.6028 -1.3720 -0.6735
 8346SOL     OW26478   7.551   5.842   0.496 -0.0071  0.2245  0.2024
 8346SOL    HW126479   7.598   5.765   0.464 -1.6739  0.1572 -2.3659
 8346SOL    HW226480   7.507   5.812   0.575  1.4947 -0.6425  0.7603
 8347SOL     OW26481   0.613   5.318   1.814  0.4448 -0.6462  0.1437
 8347SOL    HW126482   0.611   5.274   1.729  3.0084 -0.3017 -0.1750
 8347SOL    HW226483   0.685   5.381   1.807 -0.5473  0.7907  1.9326
 8348SOL     OW26484   6.905   2.217   8.439 -0.3232  0.7574  0.3754
 8348SOL    HW126485   6.825   2.184   8.481 -0.0388 -1.4683 -0.6676
 8348SOL    HW226486   6.946   2.272   8.506 -1.6057  0.1545  1.7275
 8349SOL     OW26487   3.158   3.752  10.553  0.0227  0.4405  0.3647
 8349SOL    HW126488   3.181   3.746  10.646  2.9936  1.3925 -0.1887
 8349SOL    HW226489   3.189   3.670  10.515  1.1109  1.0557 -0.1374
 8350SOL     OW26490   6.733   3.278   0.639  0.2541 -0.0982  0.0818
 8350SOL    HW126491   6.782   3.336   0.580 -1.5909 -0.4657 -1.9921
 8350SOL    HW226492   6.778   3.284   0.723  2.6099  1.0570 -1.1620
 8351SOL     OW26493   6.230   7.974  10.806  0.2742  0.4064 -0.4010
 8351SOL    HW126494   6.324   7.992  10.811 -0.0186  1.9020  0.1787
 8351SOL    HW226495   6.201   8.019  10.726 -0.4044  2.3410  0.8704
 8352SOL     OW26496   0.001   1.287   2.580 -0.0203  0.2523  0.7048
 8352SOL    HW126497   0.002   1.319   2.670 -1.8312  1.3145  0.4020
 8352SOL    HW226498   0.035   1.360   2.528 -1.0061  0.4723  0.3408
 8353SOL     OW26499   7.234   3.976   9.212 -0.4764 -0.2238 -0.0054
 8353SOL    HW126500   7.182   4.006   9.287 -0.8885 -0.7879 -0.0683
 8353SOL    HW226501   7.176   3.983   9.137 -0.5722 -1.1480 -0.0284
 8354SOL     OW26502   1.731   0.680   8.553 -0.2354  0.1703 -0.3136
 8354SOL    HW126503   1.823   0.657   8.549  0.0555  0.9211  1.4707
 8354SOL    HW226504   1.689   0.606   8.597 -0.6115 -0.4172 -1.5983
 8355SOL     OW26505   6.345   0.062   2.377 -0.1137 -0.4763  0.1942
 8355SOL    HW126506   6.332  -0.019   2.426  0.3252 -0.8384 -0.2836
 8355SOL    HW226507   6.437   0.060   2.351  0.3845  0.9792  1.6212
 8356SOL     OW26508   2.336   1.973   6.727 -0.1059  0.3813 -0.8582
 8356SOL    HW126509   2.321   1.932   6.642  1.5091 -0.8933 -0.5565
 8356SOL    HW226510   2.338   1.901   6.790  1.3224  1.0346 -0.1049
 8357SOL     OW26511   5.653   1.926   0.457  0.2083  0.1592 -0.1073
 8357SOL    HW126512   5.673   2.012   0.421  1.7804 -0.1078  0.0388
 8357SOL    HW226513   5.624   1.874   0.382 -1.5682  1.0026 -0.0616
 8358SOL     OW26514   3.300   4.589  11.873 -0.1740 -0.3773  0.1374
 8358SOL    HW126515   3.279   4.627  11.958  0.6489 -1.1646  0.7094
 8358SOL    HW226516   3.215   4.572  11.832 -0.6291 -1.6540  1.5584
 8359SOL     OW26517   6.662   0.215   5.072  0.3638 -0.4300  0.3154
 8359SOL    HW126518   6.569   0.236   5.063  0.6378  0.3604 -0.9464
 8359SOL    HW226519   6.707   0.285   5.025  1.4388 -2.7762 -2.4004
 8360SOL     OW26520   0.078   4.783   2.754 -0.1997  0.0219  0.6920
 8360SOL    HW126521   0.146   4.755   2.693  0.5637  0.9514  1.0888
 8360SOL    HW226522   0.125   4.812   2.832 -1.1672 -1.4367  1.8929
 8361SOL     OW26523   5.801   0.046   5.767  0.5428 -0.0334  0.1243
 8361SOL    HW126524   5.769   0.085   5.685 -0.0549  1.1338  0.8877
 8361SOL    HW226525   5.880  -0.001   5.741 -0.6027 -1.2165 -1.4401
 8362SOL     OW26526   0.636   7.811   1.470 -0.5943  0.2672  0.2428
 8362SOL    HW126527   0.545   7.808   1.498 -0.6687 -0.8136 -0.0423
 8362SOL    HW226528   0.640   7.883   1.408 -0.4800  2.5777  2.7213
 8363SOL     OW26529   3.015   0.571   9.114  0.5208  0.4166 -0.1217
 8363SOL    HW126530   3.037   0.503   9.178 -0.7621 -0.4537 -0.5651
 8363SOL    HW226531   2.951   0.530   9.056  1.3202  1.3200 -1.7202
 8364SOL     OW26532   0.831   0.996  11.044  0.3556 -0.2713 -0.1537
 8364SOL    HW126533   0.739   0.969  11.052  1.1910 -3.4967  0.0018
 8364SOL    HW226534   0.853   1.032  11.130 -0.7113  0.3940 -0.1454
 8365SOL     OW26535   0.460   7.250   3.514 -0.5179 -0.1013 -0.1583
 8365SOL    HW126536   0.548   7.268   3.481  0.0971 -1.2155  0.7537
 8365SOL    HW226537   0.423   7.188   3.452 -1.3626  1.6658 -1.4909
 8366SOL     OW26538   0.262   1.900   1.863 -0.0667  0.8189 -0.3271
 8366SOL    HW126539   0.272   1.847   1.942  0.5474 -0.8754 -1.4641
 8366SOL    HW226540   0.257   1.990   1.894  1.6641  0.3439  1.5403
 8367SOL     OW26541   1.155   7.145   7.226 -0.2928  0.3219 -0.0021
 8367SOL    HW126542   1.106   7.220   7.260 -0.1826  0.1181  0.6171
 8367SOL    HW226543   1.193   7.177   7.144 -0.8524  0.7086 -0.1190
 8368SOL     OW26544   7.209   1.704   7.756 -0.2031 -0.1998 -0.1173
 8368SOL    HW126545   7.290   1.659   7.778 -0.6741 -1.6626 -1.2657
 8368SOL    HW226546   7.215   1.788   7.803  0.9395 -1.2067  1.6340
 8369SOL     OW26547   1.989   1.382  11.149  0.5164  0.7276 -0.3054
 8369SOL    HW126548   2.056   1.393  11.216  0.6782 -0.7323 -0.1977
 8369SOL    HW226549   2.008   1.298  11.109 -1.7398 -0.1687  0.3091
 8370SOL     OW26550   5.071   5.481   6.846 -0.0944  0.7448 -0.6935
 8370SOL    HW126551   5.130   5.407   6.864 -1.1690 -0.1216 -0.5960
 8370SOL    HW226552   4.985   5.449   6.872 -0.7608  1.6422 -1.7303
 8371SOL     OW26553   2.307   4.772   5.835  0.4150 -0.2623  0.2856
 8371SOL    HW126554   2.385   4.729   5.799 -0.4352 -1.2853 -0.3882
 8371SOL    HW226555   2.260   4.806   5.759  0.5750  1.0493  0.7429
 8372SOL     OW26556   6.695   5.032   3.173 -0.4974  0.1415 -0.0927
 8372SOL    HW126557   6.656   4.969   3.112  0.3727 -1.6226  1.0764
 8372SOL    HW226558   6.758   5.081   3.120 -1.6506  0.5183 -1.1728
 8373SOL     OW26559   6.595   1.878   1.146  0.1397 -0.5122 -0.8444
 8373SOL    HW126560   6.576   1.951   1.087 -0.5972 -1.7712 -2.2170
 8373SOL    HW226561   6.611   1.920   1.231  1.6400  1.3715 -1.9856
 8374SOL     OW26562   2.875   6.413   6.278  0.3118  0.2589 -0.2390
 8374SOL    HW126563   2.838   6.338   6.324  0.9761 -0.4968 -0.8996
 8374SOL    HW226564   2.904   6.472   6.348 -0.3539 -0.0188  0.2842
 8375SOL     OW26565   6.107   3.769   4.592  0.0648 -0.1273 -0.5244
 8375SOL    HW126566   6.187   3.734   4.629 -0.1731 -0.4713 -0.3314
 8375SOL    HW226567   6.063   3.812   4.665  0.2164  0.3313 -0.6962
 8376SOL     OW26568   0.206   0.730  11.244 -0.2048 -0.0653 -0.4139
 8376SOL    HW126569   0.121   0.751  11.282  0.9039  1.5194  1.3785
 8376SOL    HW226570   0.267   0.733  11.319  1.5215 -0.5984 -1.7239
 8377SOL     OW26571   7.270   2.445   8.349  0.0095 -0.4529  0.0696
 8377SOL    HW126572   7.257   2.495   8.430  1.5761  2.1277 -1.1391
 8377SOL    HW226573   7.348   2.393   8.366 -0.6282 -1.2068  0.7576
 8378SOL     OW26574   2.622   3.839  10.997 -0.1266  0.0246  0.0674
 8378SOL    HW126575   2.639   3.807  11.086 -0.6720 -2.7427 -0.7071
 8378SOL    HW226576   2.678   3.784  10.942 -1.5486  0.0311 -1.4546
 8379SOL     OW26577   0.503   1.674   9.407 -0.1069  0.3668  0.4357
 8379SOL    HW126578   0.519   1.765   9.432  1.1958  0.1163  0.5729
 8379SOL    HW226579   0.566   1.657   9.337  0.3832 -0.7412  1.1215
 8380SOL     OW26580   1.682   1.501   6.209 -0.3186  0.1480  0.4474
 8380SOL    HW126581   1.663   1.572   6.270  0.1637  1.1340 -0.5233
 8380SOL    HW226582   1.717   1.544   6.131  0.1861 -1.1689 -0.0916
 8381SOL     OW26583   5.276   0.158   2.590 -0.3560 -0.3588 -0.8637
 8381SOL    HW126584   5.327   0.239   2.584  1.1648 -1.2703 -0.8855
 8381SOL    HW226585   5.220   0.158   2.513 -0.9293  1.0078 -0.4747
 8382SOL     OW26586   4.427   3.137  11.720  0.7103 -0.2889  0.0499
 8382SOL    HW126587   4.452   3.229  11.723  0.2152 -0.1692  0.6911
 8382SOL    HW226588   4.343   3.133  11.767  1.0508 -1.1619  0.6181
 8383SOL     OW26589   5.278   7.718   0.887 -0.1093 -0.0027  0.0968
 8383SOL    HW126590   5.329   7.785   0.841 -0.7332 -0.0528 -0.6697
 8383SOL    HW226591   5.328   7.702   0.968  1.1913 -0.1809 -0.7134
 8384SOL     OW26592   3.937   4.033   0.398  0.2986  0.1238 -0.1051
 8384SOL    HW126593   3.906   4.030   0.488 -0.3648 -0.5313 -0.3450
 8384SOL    HW226594   4.032   4.027   0.404  0.3055  0.8772  0.5847
 8385SOL     OW26595   6.770   5.148   0.713  0.0566 -0.1127  0.8243
 8385SOL    HW126596   6.834   5.182   0.774 -0.9553  0.1562  1.7739
 8385SOL    HW226597   6.764   5.054   0.733  1.2225 -0.4588 -0.2911
 8386SOL     OW26598   3.994   7.540   8.678 -0.0116 -0.5444 -0.1212
 8386SOL    HW126599   4.089   7.529   8.692 -0.0740  0.2133  1.0345
 8386SOL    HW226600   3.983   7.633   8.661 -0.4542 -0.7861 -1.2252
 8387SOL     OW26601   2.848   5.278   8.084 -0.3150  0.3206 -0.2342
 8387SOL    HW126602   2.794   5.268   8.006 -1.1496 -0.1786  0.3975
 8387SOL    HW226603   2.925   5.223   8.067  0.4669  1.7222 -1.5129
 8388SOL     OW26604   0.536   6.828   7.357  0.2238  0.0142 -0.0571
 8388SOL    HW126605   0.619   6.780   7.356  0.2550 -0.0387  2.0040
 8388SOL    HW226606   0.562   6.920   7.352  0.2628 -0.0575 -1.7434
 8389SOL     OW26607   4.955   1.188   5.998 -0.4604  0.3954 -0.1366
 8389SOL    HW126608   5.011   1.188   5.921 -0.4172  2.7685 -0.1985
 8389SOL    HW226609   4.867   1.206   5.964 -0.5121  1.0341  0.3101
 8390SOL     OW26610   4.306   5.394   8.589 -0.2351 -0.1507  0.2208
 8390SOL    HW126611   4.214   5.391   8.615 -0.1196 -1.8391  0.5296
 8390SOL    HW226612   4.303   5.416   8.495 -0.8502  1.3121  0.5502
 8391SOL     OW26613   0.736   3.892   3.595  0.1248  0.3593  0.1795
 8391SOL    HW126614   0.706   3.969   3.547 -0.2089  0.4969  0.5967
 8391SOL    HW226615   0.804   3.854   3.540  0.6163  1.2112  0.1848
 8392SOL     OW26616   5.352   0.640   5.672  0.0591  0.6396  0.1808
 8392SOL    HW126617   5.387   0.687   5.749 -0.5787 -0.3943  1.1345
 8392SOL    HW226618   5.257   0.651   5.680 -0.2620 -2.0907  1.3574
 8393SOL     OW26619   0.879   2.268  12.273 -0.1806  0.3559 -0.2725
 8393SOL    HW126620   0.934   2.279  12.195  0.9688  0.1605  0.4836
 8393SOL    HW226621   0.833   2.186  12.258 -1.6552  1.3762 -1.7134
 8394SOL     OW26622   3.148   5.151   7.775  0.0903  0.0214  0.4178
 8394SOL    HW126623   3.116   5.238   7.753  1.5205  0.1363 -1.4977
 8394SOL    HW226624   3.112   5.094   7.707 -0.6786 -0.8872  1.5455
 8395SOL     OW26625   5.587   3.101   6.128 -0.4357  0.1844  0.1286
 8395SOL    HW126626   5.611   3.079   6.218 -0.5560  0.5178  0.2451
 8395SOL    HW226627   5.496   3.071   6.120 -0.1557 -0.6032 -0.1476
 8396SOL     OW26628   4.304   3.436   5.760 -0.2850  0.2223 -0.0870
 8396SOL    HW126629   4.305   3.349   5.798 -2.5429  0.0587 -0.2250
 8396SOL    HW226630   4.212   3.462   5.763  0.2731  2.4582 -0.3831
 8397SOL     OW26631   2.861   4.582   0.042 -0.1287  0.0106 -0.2382
 8397SOL    HW126632   2.868   4.653   0.107 -0.3679 -0.9821  0.9066
 8397SOL    HW226633   2.933   4.599  -0.019  0.5269  0.5899  0.6653
 8398SOL     OW26634   1.025   0.775   7.488 -0.1583 -0.2391 -0.3909
 8398SOL    HW126635   1.091   0.827   7.442  0.0453 -0.7510 -0.6912
 8398SOL    HW226636   1.057   0.684   7.480  0.3518 -0.2653  1.5226
 8399SOL     OW26637   7.587   3.520   3.212  0.4416  0.2186  0.2793
 8399SOL    HW126638   7.670   3.483   3.241 -0.3381 -0.4458  1.8069
 8399SOL    HW226639   7.520   3.468   3.258 -0.8258  0.6219 -1.0283
 8400SOL     OW26640   1.586   1.350   8.114  0.4443  0.9083 -0.3672
 8400SOL    HW126641   1.604   1.264   8.077  2.3088  1.6004 -1.2205
 8400SOL    HW226642   1.492   1.350   8.131  0.4212 -1.3213 -0.2146
 8401SOL     OW26643   4.747   4.861   0.168  0.4582  0.4794  0.5033
 8401SOL    HW126644   4.777   4.872   0.259  0.4921 -0.9232  0.6875
 8401SOL    HW226645   4.791   4.781   0.138  0.7107  1.1024 -0.8731
 8402SOL     OW26646   4.357   4.656  10.747 -0.8808 -0.6677  0.3683
 8402SOL    HW126647   4.305   4.577  10.729  0.1820 -1.3460  0.1539
 8402SOL    HW226648   4.333   4.680  10.836 -0.1393 -2.1409  1.0135
 8403SOL     OW26649   7.045   0.329   3.516  0.4747  0.3416 -0.1538
 8403SOL    HW126650   7.067   0.293   3.431 -0.7741 -0.6244 -0.1044
 8403SOL    HW226651   6.986   0.264   3.555 -0.1592  1.4565  0.8203
 8404SOL     OW26652   2.785   6.551   8.163  0.5652  0.4560  0.9057
 8404SOL    HW126653   2.816   6.595   8.084 -1.0565  0.2807  0.1347
 8404SOL    HW226654   2.738   6.473   8.131 -2.0418  1.5275  1.8421
 8405SOL     OW26655   5.692   2.272  10.144 -0.0669 -0.0793 -0.1574
 8405SOL    HW126656   5.695   2.259  10.049  0.6935 -1.0169 -0.0155
 8405SOL    HW226657   5.625   2.211  10.174  0.9866 -1.1413  0.1022
 8406SOL     OW26658   4.785   2.577   1.159  0.2051  0.1489  0.1609
 8406SOL    HW126659   4.809   2.543   1.073  0.4966  0.7863 -0.0175
 8406SOL    HW226660   4.689   2.574   1.160  0.2443 -1.2046  0.3791
 8407SOL     OW26661   4.369   1.711  10.218  0.3543  0.1847  0.3240
 8407SOL    HW126662   4.364   1.638  10.281 -1.7138 -0.0496 -0.0556
 8407SOL    HW226663   4.380   1.668  10.133  1.0798  0.4214  0.2909
 8408SOL     OW26664   6.015   1.553   0.436 -0.0961 -0.4181 -0.0307
 8408SOL    HW126665   5.958   1.484   0.470 -0.2701  1.0021  2.7780
 8408SOL    HW226666   5.956   1.627   0.420  0.6673  0.5258  1.3418
 8409SOL     OW26667   0.110   2.757   3.515 -0.5632 -0.0171  0.1480
 8409SOL    HW126668   0.203   2.745   3.532 -0.5250 -1.4378 -0.8520
 8409SOL    HW226669   0.070   2.674   3.543 -1.4482  0.3756  0.0774
 8410SOL     OW26670   2.175   2.313   7.613  0.1928  0.4000  0.3271
 8410SOL    HW126671   2.151   2.224   7.642 -0.8474  0.9457  1.2145
 8410SOL    HW226672   2.181   2.363   7.694 -0.2905  1.3998 -0.2428
 8411SOL     OW26673   0.123   7.077   0.341  0.3979 -0.0311 -0.6842
 8411SOL    HW126674   0.073   7.086   0.422  1.9696  1.2092  0.2021
 8411SOL    HW226675   0.071   7.124   0.276  0.7529  1.9351  0.3932
 8412SOL     OW26676   5.133   3.761  12.271 -0.0694 -0.3002  0.4306
 8412SOL    HW126677   5.097   3.819  12.339 -0.4923 -0.9206  0.7433
 8412SOL    HW226678   5.066   3.694  12.259  0.2971 -0.5691 -0.1301
 8413SOL     OW26679   6.990   4.190   5.986  0.1966 -0.4059  0.1420
 8413SOL    HW126680   6.952   4.125   5.927 -2.0074  0.2028  0.8047
 8413SOL    HW226681   7.054   4.140   6.037  2.6300 -0.8329 -3.0026
 8414SOL     OW26682   1.786   1.063   4.873  0.3015  0.8112 -0.2026
 8414SOL    HW126683   1.715   1.094   4.817 -0.6778 -0.3174  0.3514
 8414SOL    HW226684   1.750   1.067   4.962  0.2380 -1.4337 -0.0658
 8415SOL     OW26685   0.507   0.444  10.080 -0.5412 -0.2858 -0.2422
 8415SOL    HW126686   0.455   0.419  10.156 -0.6935  0.6857 -0.0064
 8415SOL    HW226687   0.443   0.480  10.018 -0.7296 -2.8873 -1.7091
 8416SOL     OW26688   0.199   4.060   8.518  0.4096  0.4971  0.0085
 8416SOL    HW126689   0.154   3.996   8.463  1.6050  0.1393 -0.5738
 8416SOL    HW226690   0.185   4.144   8.475  1.3294  0.2201 -0.8552
 8417SOL     OW26691   3.027   1.764   8.822 -0.1109  0.1409  0.1264
 8417SOL    HW126692   2.932   1.769   8.828 -0.0680 -0.5443  3.1119
 8417SOL    HW226693   3.046   1.763   8.728 -2.9522  1.2876 -0.5571
 8418SOL     OW26694   5.921   2.039   7.164  0.3879 -0.2789 -0.7608
 8418SOL    HW126695   5.949   1.975   7.228  0.9617 -1.4895 -2.1552
 8418SOL    HW226696   6.003   2.074   7.128  0.0806  0.4382 -0.7727
 8419SOL     OW26697   1.421   1.270   5.647 -0.2789 -0.7640  0.2246
 8419SOL    HW126698   1.361   1.343   5.638  0.7732 -0.0197 -1.3129
 8419SOL    HW226699   1.369   1.200   5.687 -1.9821  0.0240 -0.5139
 8420SOL     OW26700   7.653   3.463  11.909  0.4307  0.4166  0.3458
 8420SOL    HW126701   7.679   3.555  11.902  1.3358  0.1538  0.1439
 8420SOL    HW226702   7.733   3.414  11.890 -0.4380 -0.4422 -1.3670
 8421SOL     OW26703   4.864   5.641   5.797 -0.2452 -0.4596 -0.5364
 8421SOL    HW126704   4.835   5.552   5.780 -1.0639  0.1826 -2.9789
 8421SOL    HW226705   4.911   5.667   5.717 -0.9426  1.6272 -0.3363
 8422SOL     OW26706   3.243   7.797   8.116 -0.7501 -0.6259 -0.3636
 8422SOL    HW126707   3.157   7.838   8.112 -0.5148 -0.2048 -1.6558
 8422SOL    HW226708   3.251   7.767   8.206 -1.3303  1.3217  0.3955
 8423SOL     OW26709   3.037   5.332   0.171  0.6534 -0.2907  0.0134
 8423SOL    HW126710   2.942   5.328   0.170  0.5632  0.3561  1.6168
 8423SOL    HW226711   3.064   5.320   0.080 -0.9814  0.1514 -0.5531
 8424SOL     OW26712   7.296   1.819   0.858  0.0874  0.7888  0.3913
 8424SOL    HW126713   7.279   1.866   0.777 -2.6069  2.3198  1.7424
 8424SOL    HW226714   7.252   1.735   0.847  0.1462  0.7966  0.0959
 8425SOL     OW26715   0.084   2.465   0.443  0.1702 -0.0530  0.6753
 8425SOL    HW126716   0.028   2.431   0.513 -1.1017  2.4682  0.9932
 8425SOL    HW226717   0.034   2.453   0.363  0.5577 -0.6681  0.5190
 8426SOL     OW26718   1.851   4.806   4.090  0.0253 -0.1063 -0.6317
 8426SOL    HW126719   1.865   4.729   4.145 -1.0531  0.3461  0.2966
 8426SOL    HW226720   1.874   4.776   4.001 -0.8118 -1.6235 -0.3660
 8427SOL     OW26721   0.528   4.432  11.725 -0.4776 -0.2186 -0.0040
 8427SOL    HW126722   0.444   4.390  11.707  0.1843 -0.8057 -2.1188
 8427SOL    HW226723   0.506   4.514  11.770 -1.9663 -1.5753  1.8382
 8428SOL     OW26724   0.655   2.234   6.153 -0.4894  0.3678 -0.5569
 8428SOL    HW126725   0.731   2.268   6.199  0.0693 -1.8169  0.2928
 8428SOL    HW226726   0.584   2.295   6.174  0.1053  0.2614  2.0238
 8429SOL     OW26727   6.443   1.278   9.372  0.1281  0.1477 -0.0690
 8429SOL    HW126728   6.477   1.316   9.453  2.3118 -0.9163 -0.4268
 8429SOL    HW226729   6.501   1.311   9.303  0.5103 -1.7278 -0.7174
 8430SOL     OW26730   4.391   1.459   2.815  0.6769 -0.1966  0.2477
 8430SOL    HW126731   4.426   1.534   2.863 -0.0061  2.1661 -2.6659
 8430SOL    HW226732   4.462   1.433   2.756  0.0282 -0.0464 -0.6263
 8431SOL     OW26733   0.350   2.610   1.633 -0.6653  0.4864 -0.4220
 8431SOL    HW126734   0.308   2.696   1.631 -0.3924  0.6177 -0.6388
 8431SOL    HW226735   0.415   2.614   1.562 -1.6981 -0.4339 -1.4556
 8432SOL     OW26736   3.041   3.649   5.671 -0.0147 -0.3384 -0.3901
 8432SOL    HW126737   3.130   3.635   5.702 -0.8151 -3.6776  0.7867
 8432SOL    HW226738   2.989   3.659   5.752 -1.0279 -0.9332 -0.9464
 8433SOL     OW26739   5.139   4.617   3.930  0.2031  0.1809  0.0913
 8433SOL    HW126740   5.153   4.673   4.007 -1.0106 -0.6785  0.9749
 8433SOL    HW226741   5.224   4.613   3.887  0.4367  2.3394  0.2411
 8434SOL     OW26742   1.665   7.662   8.456  0.4966  0.0490  0.2932
 8434SOL    HW126743   1.742   7.709   8.422  1.5211 -0.8573  1.2761
 8434SOL    HW226744   1.615   7.730   8.502  0.0852  0.8818 -1.3056
 8435SOL     OW26745   7.381   1.014   7.313  0.3142 -0.9108 -1.0898
 8435SOL    HW126746   7.421   1.023   7.227  0.5173  0.3866 -0.8780
 8435SOL    HW226747   7.453   0.990   7.371  0.1696 -1.8263 -1.2849
 8436SOL     OW26748   2.139   7.431   5.831  0.5289  0.2266 -0.3139
 8436SOL    HW126749   2.193   7.508   5.849 -0.2869  0.8698 -0.5798
 8436SOL    HW226750   2.141   7.381   5.913  0.1629  1.0805  0.2231
 8437SOL     OW26751   2.940   6.109   2.234  0.2631  0.1534 -0.3811
 8437SOL    HW126752   3.018   6.137   2.281 -0.8990  1.1290  1.0665
 8437SOL    HW226753   2.949   6.014   2.227  1.8152  0.2989 -0.7398
 8438SOL     OW26754   6.684   5.243   4.063  0.7134  0.3651  0.3594
 8438SOL    HW126755   6.682   5.153   4.095  0.3937  0.6095  1.0724
 8438SOL    HW226756   6.768   5.251   4.018  1.9544  0.4378  2.5344
 8439SOL     OW26757   2.102   4.549   2.219 -0.3828 -0.5511  0.2100
 8439SOL    HW126758   2.161   4.542   2.144 -0.9954 -0.1083 -0.3255
 8439SOL    HW226759   2.018   4.577   2.182  0.1498  3.1766  1.3453
 8440SOL     OW26760   3.813   0.139   3.462  0.4748 -0.1754 -0.2778
 8440SOL    HW126761   3.862   0.170   3.386  0.3738 -1.1793 -0.7661
 8440SOL    HW226762   3.879   0.125   3.530  0.5311  1.0012 -0.0691
 8441SOL     OW26763   1.533   0.292   8.518 -0.0221 -0.1896  0.6873
 8441SOL    HW126764   1.482   0.247   8.450 -0.5375  1.0402  0.2191
 8441SOL    HW226765   1.524   0.385   8.496  2.0309  0.1042  0.8717
 8442SOL     OW26766   1.955   3.083   3.367 -0.2117 -0.0348 -0.2349
 8442SOL    HW126767   1.977   3.050   3.280  2.7102  2.1011 -0.4810
 8442SOL    HW226768   1.898   3.158   3.351  0.8776  0.7800 -0.4261
 8443SOL     OW26769   3.761   0.627   5.820 -0.3002 -0.6116 -0.1062
 8443SOL    HW126770   3.804   0.629   5.734 -0.0123 -2.4493 -0.0562
 8443SOL    HW226771   3.681   0.677   5.809 -0.2022 -0.7212 -1.4103
 8444SOL     OW26772   4.875   6.369   4.098  0.2616  0.1952  0.0991
 8444SOL    HW126773   4.785   6.360   4.066 -0.6231  2.0803  1.8439
 8444SOL    HW226774   4.900   6.281   4.126 -2.4095  0.2088  2.9097
 8445SOL     OW26775   3.623   5.716   9.393  0.1172 -0.0190  0.1271
 8445SOL    HW126776   3.603   5.649   9.328  1.8247 -1.0225  0.5849
 8445SOL    HW226777   3.625   5.669   9.477  1.0354  0.6558  0.4934
 8446SOL     OW26778   7.097   6.125   1.025  0.1085  0.2866  0.3579
 8446SOL    HW126779   7.172   6.099   1.078  0.0676 -0.6794 -0.0502
 8446SOL    HW226780   7.135   6.171   0.951  0.1696  1.6303  1.1852
 8447SOL     OW26781   5.569   2.987  11.688 -0.1838  0.1391 -0.7996
 8447SOL    HW126782   5.553   2.936  11.768  1.7049  1.0660  0.2274
 8447SOL    HW226783   5.558   3.078  11.715  1.1754  0.5030 -1.4165
 8448SOL     OW26784   7.457   4.634   9.441  0.4650 -0.3379 -0.0988
 8448SOL    HW126785   7.438   4.560   9.499 -1.0452 -0.6016 -0.9056
 8448SOL    HW226786   7.450   4.711   9.498 -3.0296 -0.4128 -0.2467
 8449SOL     OW26787   1.665   5.499   9.338  0.3088  0.0258  0.0020
 8449SOL    HW126788   1.643   5.444   9.413 -0.3577 -0.8346 -0.7965
 8449SOL    HW226789   1.599   5.569   9.339  1.0215  0.7038  0.8891
 8450SOL     OW26790   6.266   6.352   2.492 -0.3058 -0.5575  0.0127
 8450SOL    HW126791   6.207   6.415   2.452 -0.2430 -0.4507  0.0889
 8450SOL    HW226792   6.324   6.404   2.548 -1.3503 -0.8580  1.4219
 8451SOL     OW26793   4.593   4.322   1.867 -0.0453 -0.2555 -0.2658
 8451SOL    HW126794   4.648   4.244   1.859  2.8816  1.6392 -0.1648
 8451SOL    HW226795   4.586   4.336   1.962 -0.0369 -0.0484 -0.2961
 8452SOL     OW26796   0.935   3.072   8.939  0.1441  0.7861 -0.3456
 8452SOL    HW126797   0.990   3.003   8.902 -0.7382  0.3339 -0.8424
 8452SOL    HW226798   0.967   3.083   9.029 -1.6649 -2.4882  0.8617
 8453SOL     OW26799   7.699   2.530   4.581 -0.4180 -0.5829  0.2385
 8453SOL    HW126800   7.706   2.621   4.552 -1.0942 -0.8346 -0.7608
 8453SOL    HW226801   7.767   2.521   4.648 -0.1064  0.5537  0.0973
 8454SOL     OW26802   0.347   6.855   0.442 -0.0203 -0.1446 -0.1625
 8454SOL    HW126803   0.347   6.930   0.384  1.2069 -0.3664 -0.4725
 8454SOL    HW226804   0.303   6.886   0.522  1.6405  1.3271  0.2394
 8455SOL     OW26805   1.842   2.383   3.192 -0.6151 -0.2381 -0.0419
 8455SOL    HW126806   1.800   2.466   3.216 -1.9816 -0.7709 -0.4880
 8455SOL    HW226807   1.866   2.394   3.101 -1.1530 -0.4504 -0.2171
 8456SOL     OW26808   0.540   5.035  12.180 -0.5392  0.1040 -0.3635
 8456SOL    HW126809   0.608   5.094  12.148 -1.6767  0.5666 -2.0960
 8456SOL    HW226810   0.462   5.090  12.186 -0.5654 -0.1117  2.8116
 8457SOL     OW26811   6.529   3.366   8.733  0.1319 -0.4853 -0.0686
 8457SOL    HW126812   6.592   3.429   8.698 -0.9614  0.3410 -0.6039
 8457SOL    HW226813   6.495   3.407   8.812  0.2242 -0.8958  0.1846
 8458SOL     OW26814   1.804   0.564   4.204  0.3705 -0.6152  0.0603
 8458SOL    HW126815   1.784   0.654   4.228 -0.2228 -0.6391 -0.3180
 8458SOL    HW226816   1.888   0.546   4.246  0.5958  0.1774 -0.0343
 8459SOL     OW26817   7.387   6.236   1.511  0.2689  0.1887  0.3338
 8459SOL    HW126818   7.338   6.196   1.439  1.8888  1.6328 -1.7390
 8459SOL    HW226819   7.365   6.184   1.588 -1.2135 -1.7511 -1.2919
 8460SOL     OW26820   4.199   2.023   2.856  0.6561  0.3613 -0.3935
 8460SOL    HW126821   4.281   1.973   2.860  0.9743  0.9316  0.5135
 8460SOL    HW226822   4.135   1.960   2.822  0.9963 -0.7612  0.9270
 8461SOL     OW26823   0.582   4.085   7.280  0.1944 -0.0011  0.1797
 8461SOL    HW126824   0.570   4.168   7.326 -0.4380 -0.0870  0.1706
 8461SOL    HW226825   0.509   4.080   7.218  1.0466  0.1319 -0.8794
 8462SOL     OW26826   2.762   1.913   3.930  1.2844  0.2053 -0.0702
 8462SOL    HW126827   2.757   1.877   3.841  0.1442  0.4127 -0.1122
 8462SOL    HW226828   2.766   2.008   3.916  1.6605  0.2117  0.0874
 8463SOL     OW26829   7.065   4.498   2.399 -0.2684 -0.1166  0.3271
 8463SOL    HW126830   6.990   4.465   2.449  0.1345 -0.2048  0.8868
 8463SOL    HW226831   7.140   4.452   2.436  0.2972  1.3152  1.0655
 8464SOL     OW26832   4.968   2.910   7.310  0.2149  0.1962 -0.4543
 8464SOL    HW126833   4.907   2.859   7.257 -0.2730  2.5219 -2.2665
 8464SOL    HW226834   4.932   2.906   7.398 -3.0360  2.0015 -1.5480
 8465SOL     OW26835   4.430   0.669   8.059  0.1106 -0.3234  0.2265
 8465SOL    HW126836   4.370   0.633   7.994 -0.7195  2.4218 -0.6539
 8465SOL    HW226837   4.517   0.662   8.018  0.2561 -2.8304  0.8380
 8466SOL     OW26838   5.571   3.369  12.006 -0.2402  0.4758 -0.2209
 8466SOL    HW126839   5.643   3.431  12.003 -0.5795  1.0402  1.9238
 8466SOL    HW226840   5.524   3.389  12.087  0.2850 -3.2782  1.2490
 8467SOL     OW26841   2.356   7.890   2.294 -0.0677  0.2765 -0.3737
 8467SOL    HW126842   2.365   7.986   2.296  0.5697  0.2218 -0.6182
 8467SOL    HW226843   2.273   7.876   2.247 -0.0949  0.7032 -0.4635
 8468SOL     OW26844   6.620   1.918   7.460  0.1132 -0.1018  0.4319
 8468SOL    HW126845   6.572   1.868   7.394 -0.0841  0.3835  0.2042
 8468SOL    HW226846   6.557   1.982   7.493  0.3189 -0.0945  0.8289
 8469SOL     OW26847   2.658   7.264  12.441 -0.2305 -0.3261  0.6544
 8469SOL    HW126848   2.728   7.211  12.402  1.2687  0.7354  1.8001
 8469SOL    HW226849   2.580   7.209  12.434  0.9317 -2.0020  0.3050
 8470SOL     OW26850   3.148   3.616  11.493 -0.2447  0.0626  0.0650
 8470SOL    HW126851   3.123   3.524  11.493  0.1709 -0.1177  2.4631
 8470SOL    HW226852   3.244   3.615  11.489 -0.2703  0.4413 -0.8261
 8471SOL     OW26853   4.689   6.101   9.916  0.2105  0.1903 -0.1792
 8471SOL    HW126854   4.655   6.186   9.944  0.8574  0.6715 -0.8109
 8471SOL    HW226855   4.611   6.047   9.902 -0.2509  0.9567 -0.6307
 8472SOL     OW26856   0.033   7.742  10.779 -0.4252 -0.5803 -0.0508
 8472SOL    HW126857  -0.020   7.666  10.802 -1.8840  0.7822  1.3153
 8472SOL    HW226858  -0.015   7.784  10.707  1.3619 -1.9103 -2.1387
 8473SOL     OW26859   1.397   3.673   8.330  0.3217  0.1436 -0.5485
 8473SOL    HW126860   1.360   3.759   8.311  0.9849  0.6812  0.4847
 8473SOL    HW226861   1.472   3.666   8.271  0.8569  0.7101  0.0483
 8474SOL     OW26862   2.292   0.454   6.382 -0.1279 -0.4776 -0.2853
 8474SOL    HW126863   2.218   0.407   6.421  0.0416 -0.5567 -0.0623
 8474SOL    HW226864   2.290   0.428   6.290 -1.3814  0.7869 -0.6530
 8475SOL     OW26865   0.535   4.468   7.742  0.2379 -0.2358 -0.9568
 8475SOL    HW126866   0.488   4.396   7.784 -0.5714  0.9197  0.2069
 8475SOL    HW226867   0.621   4.432   7.720  0.6701 -0.9368  1.6153
 8476SOL     OW26868   6.595   6.149   4.333  0.2365  0.3556 -0.2936
 8476SOL    HW126869   6.589   6.087   4.405  1.5227  0.9397  0.3424
 8476SOL    HW226870   6.573   6.233   4.371 -1.4851  0.3418 -1.1529
 8477SOL     OW26871   1.309   6.294  10.744 -0.8624  0.3080 -0.3299
 8477SOL    HW126872   1.243   6.362  10.761 -3.3244 -1.8779 -0.3617
 8477SOL    HW226873   1.274   6.246  10.669 -0.0023 -1.8710  0.5827
 8478SOL     OW26874   0.396   1.334  10.320 -0.1126  0.7202  0.3777
 8478SOL    HW126875   0.429   1.271  10.384 -1.0934  2.1621  2.4203
 8478SOL    HW226876   0.301   1.326  10.325 -0.2170  1.1674 -0.6161
 8479SOL     OW26877   1.814   0.352   0.436 -0.5263 -0.8722 -0.6162
 8479SOL    HW126878   1.722   0.345   0.411 -0.8409  1.3518 -0.2985
 8479SOL    HW226879   1.856   0.396   0.362 -0.7488  2.4470  1.0389
 8480SOL     OW26880   0.649   0.137   6.084  0.4706 -0.3315  0.5857
 8480SOL    HW126881   0.732   0.132   6.037 -0.4103  1.3655 -1.2527
 8480SOL    HW226882   0.660   0.210   6.144 -0.6603  2.0024 -1.8760
 8481SOL     OW26883   7.828   3.330   0.688 -0.2091 -0.2536  0.3980
 8481SOL    HW126884   7.872   3.410   0.718  0.7386 -0.8394  0.6222
 8481SOL    HW226885   7.759   3.315   0.753 -0.2660  0.2789  0.4635
 8482SOL     OW26886   1.263   4.165   0.973  0.1612 -0.0795  0.3961
 8482SOL    HW126887   1.289   4.251   0.940 -0.5956 -0.3603 -1.0092
 8482SOL    HW226888   1.307   4.102   0.914  1.3474 -0.7075  1.8799
 8483SOL     OW26889   2.530   0.243   9.029  0.4628  0.1528  0.1441
 8483SOL    HW126890   2.612   0.195   9.042  0.2608 -0.5245 -0.9154
 8483SOL    HW226891   2.557   0.329   8.998  0.7902  0.2841  0.7688
 8484SOL     OW26892   1.780   5.547   2.037  0.5505  0.2073 -0.1402
 8484SOL    HW126893   1.806   5.545   2.129 -2.4542  0.7824  0.8138
 8484SOL    HW226894   1.817   5.467   2.000  2.6354  0.4356  1.2705
 8485SOL     OW26895   5.437   2.235   6.539  1.0439 -0.0671 -0.3673
 8485SOL    HW126896   5.383   2.297   6.587  1.1740 -0.3761  0.1884
 8485SOL    HW226897   5.522   2.279   6.531  0.3601  0.9907 -2.4256
 8486SOL     OW26898   3.251   7.652  10.725 -0.1149 -0.1234 -0.3452
 8486SOL    HW126899   3.269   7.667  10.818 -1.2856  0.0474 -0.1176
 8486SOL    HW226900   3.337   7.648  10.683  0.4188  0.1115  0.6974
 8487SOL     OW26901   3.301   3.562   9.735 -0.0456 -0.3341  0.5509
 8487SOL    HW126902   3.386   3.598   9.711 -0.2113 -0.9093 -0.9736
 8487SOL    HW226903   3.273   3.616   9.810  0.4688  1.5959 -0.5713
 8488SOL     OW26904   7.655   2.911  11.499  0.4186 -0.1276 -0.1419
 8488SOL    HW126905   7.594   2.907  11.426  0.7987 -2.8378 -0.4100
 8488SOL    HW226906   7.658   2.822  11.534  2.0451  0.5530  1.6924
 8489SOL     OW26907   4.511   1.129   1.135 -0.3814  0.7667 -0.2466
 8489SOL    HW126908   4.450   1.189   1.092  0.1226  0.0520 -2.0262
 8489SOL    HW226909   4.536   1.066   1.067  0.7993 -0.1609  0.9801
 8490SOL     OW26910   1.031   0.935  12.314 -0.3753  0.0606  0.3927
 8490SOL    HW126911   1.075   0.898  12.390  0.3860 -1.5383 -0.7673
 8490SOL    HW226912   1.056   0.878  12.241 -0.3326  2.0438 -1.2445
 8491SOL     OW26913   2.333   7.927  10.466 -0.8139 -0.4254  0.1524
 8491SOL    HW126914   2.277   7.856  10.498  0.5830 -2.1387 -1.0036
 8491SOL    HW226915   2.287   7.963  10.390 -1.7329  0.2343  1.0013
 8492SOL     OW26916   7.196   7.725   5.796 -0.0539  0.3592  0.4433
 8492SOL    HW126917   7.220   7.790   5.730  0.3492 -1.2483 -1.0583
 8492SOL    HW226918   7.193   7.775   5.878  1.1762  2.0710 -0.4768
 8493SOL     OW26919   0.451   6.744   8.475  0.0463  0.0092 -0.5594
 8493SOL    HW126920   0.439   6.651   8.495 -1.4194  0.0012 -1.2885
 8493SOL    HW226921   0.485   6.745   8.386  1.2556  0.1583 -0.1076
 8494SOL     OW26922   0.810   4.732   7.407  0.5122 -0.3650  0.4222
 8494SOL    HW126923   0.762   4.814   7.419  0.0221 -0.3000 -1.6542
 8494SOL    HW226924   0.745   4.671   7.371  1.6794 -0.5833 -1.4473
 8495SOL     OW26925   1.175   1.934  10.306 -0.2028  0.1162 -0.0548
 8495SOL    HW126926   1.183   1.990  10.228 -1.3297 -0.5694 -0.6763
 8495SOL    HW226927   1.266   1.916  10.331  0.1824  1.2520 -0.5295
 8496SOL     OW26928   3.733   1.473   3.507  0.4159  0.1411 -0.4225
 8496SOL    HW126929   3.738   1.499   3.599  1.7938  0.9836 -0.7010
 8496SOL    HW226930   3.825   1.463   3.481  0.0081 -1.2151 -1.4039
 8497SOL     OW26931   2.143   6.859   1.381 -0.3381  0.2963  0.6067
 8497SOL    HW126932   2.066   6.834   1.329 -1.2804  0.0686  2.0436
 8497SOL    HW226933   2.214   6.867   1.317 -2.0894  3.1601 -1.1978
 8498SOL     OW26934   7.466   2.977   6.316 -0.6560  0.2277  0.1099
 8498SOL    HW126935   7.509   2.979   6.401 -0.5039  0.6732  0.0254
 8498SOL    HW226936   7.413   2.898   6.318  0.4352 -0.5348  0.0900
 8499SOL     OW26937   4.354   5.361   0.944 -0.3795 -0.0831 -0.4083
 8499SOL    HW126938   4.301   5.287   0.915  0.2537  0.0038 -1.8778
 8499SOL    HW226939   4.436   5.322   0.973 -0.3922 -0.0310 -0.3025
 8500SOL     OW26940   4.639   1.745   6.050 -0.1665 -0.1672  0.5009
 8500SOL    HW126941   4.729   1.725   6.073 -0.0751 -0.7396 -0.2842
 8500SOL    HW226942   4.605   1.794   6.124  0.5695 -0.5806  1.1235
 8501SOL     OW26943   1.369   3.821   0.223 -0.3570 -0.7050 -0.1114
 8501SOL    HW126944   1.325   3.841   0.140  1.3764  1.0448 -0.6830
 8501SOL    HW226945   1.415   3.739   0.207 -0.6142 -0.7523 -0.6422
 8502SOL     OW26946   2.131   0.545   3.557 -0.5566  0.3562 -0.7518
 8502SOL    HW126947   2.162   0.618   3.611 -2.8088  0.3614  0.6814
 8502SOL    HW226948   2.204   0.526   3.498  0.9927  2.1804  0.4448
 8503SOL     OW26949   6.366   7.648  10.764 -0.7449  0.5809 -0.8361
 8503SOL    HW126950   6.382   7.565  10.720  0.9151  0.0275  0.6921
 8503SOL    HW226951   6.442   7.660  10.821 -1.4565  2.6293 -0.2270
 8504SOL     OW26952   7.858   1.742   3.257 -0.1555 -0.3156 -0.3727
 8504SOL    HW126953   7.766   1.718   3.265 -0.4884  0.3682 -1.7884
 8504SOL    HW226954   7.889   1.694   3.180  0.8095 -0.9033  0.3561
 8505SOL     OW26955   0.665   7.077   4.736 -0.1360 -0.0735 -0.6709
 8505SOL    HW126956   0.737   7.028   4.776  0.7866  0.6034 -1.4440
 8505SOL    HW226957   0.693   7.090   4.645 -0.7606  1.1074 -0.7089
 8506SOL     OW26958   5.979   5.571   2.584  0.1103 -0.4006  0.2864
 8506SOL    HW126959   5.884   5.560   2.591 -0.0791  0.3200 -0.8042
 8506SOL    HW226960   5.996   5.655   2.626  0.1249 -0.0791 -0.3502
 8507SOL     OW26961   5.308   4.847  10.778  0.1278 -0.2316  0.0624
 8507SOL    HW126962   5.213   4.833  10.784 -0.0077  0.6070  0.0683
 8507SOL    HW226963   5.324   4.921  10.837  0.7579 -0.2360 -0.0994
 8508SOL     OW26964   6.428   1.910   0.312 -0.2593  0.5524  0.1919
 8508SOL    HW126965   6.360   1.903   0.379 -0.0728  0.2900  0.3559
 8508SOL    HW226966   6.402   1.847   0.245 -0.3204  0.6484  0.1236
 8509SOL     OW26967   7.580   7.731  11.381  0.4098 -0.5618 -0.1464
 8509SOL    HW126968   7.662   7.747  11.335  0.4120 -2.1576 -0.7913
 8509SOL    HW226969   7.605   7.692  11.464  0.3289 -0.3889 -0.0410
 8510SOL     OW26970   1.800   4.540   7.806 -0.3940 -0.2487  0.3289
 8510SOL    HW126971   1.807   4.478   7.879 -0.2195 -0.4167  0.1704
 8510SOL    HW226972   1.869   4.514   7.745 -1.0614 -0.6354 -0.2915
 8511SOL     OW26973   1.046   2.632  10.042  0.1120  0.3808  0.5445
 8511SOL    HW126974   1.056   2.680  10.124  0.6263  0.6562  0.3271
 8511SOL    HW226975   0.961   2.660  10.008 -0.5312 -0.4185  1.4183
 8512SOL     OW26976   6.028   3.930   6.691 -0.0920  0.3792  0.4503
 8512SOL    HW126977   6.021   3.841   6.656  0.3595  0.3425  0.4415
 8512SOL    HW226978   5.996   3.923   6.781 -0.9318  0.4039  0.1634
 8513SOL     OW26979   2.673   6.634   3.856 -0.0839 -0.2793 -0.6604
 8513SOL    HW126980   2.670   6.700   3.787  2.3657  0.5036 -0.0933
 8513SOL    HW226981   2.713   6.678   3.931  0.2667 -1.9895  0.2218
 8514SOL     OW26982   1.080   2.451   6.081  0.1267 -0.1817 -0.1662
 8514SOL    HW126983   1.168   2.441   6.043  0.8011 -0.5838  1.4083
 8514SOL    HW226984   1.087   2.526   6.139 -0.3700 -0.6358  0.4982
 8515SOL     OW26985   6.506   1.112   2.355  0.5651  0.2072  0.6498
 8515SOL    HW126986   6.544   1.150   2.434  0.6335  0.6582  0.4034
 8515SOL    HW226987   6.412   1.116   2.369  0.4957  2.0445 -0.0732
 8516SOL     OW26988   3.930   5.758   3.487 -0.1121 -0.6513  0.2786
 8516SOL    HW126989   3.933   5.785   3.579  0.4230  1.0627 -0.1937
 8516SOL    HW226990   3.850   5.798   3.453  1.3294  1.5748 -0.7475
 8517SOL     OW26991   1.696   3.773  11.433  0.0154  0.7570  0.0192
 8517SOL    HW126992   1.729   3.717  11.503 -0.8043  0.4167  0.1412
 8517SOL    HW226993   1.610   3.801  11.462 -0.7596 -0.1780 -1.2594
 8518SOL     OW26994   5.790   0.147   3.717  0.2335 -0.0028  0.5043
 8518SOL    HW126995   5.797   0.215   3.784  3.0810  2.3569 -1.9156
 8518SOL    HW226996   5.852   0.079   3.744  0.7539  0.5386  0.6757
 8519SOL     OW26997   2.299   1.610   8.870 -0.6756  0.6920 -0.2658
 8519SOL    HW126998   2.305   1.649   8.957 -2.0160  0.5986 -0.1098
 8519SOL    HW226999   2.383   1.629   8.829 -0.3843  1.5708  0.7067
 8520SOL     OW27000   0.590   1.522   3.954 -0.1952 -0.3481 -0.0222
 8520SOL    HW127001   0.665   1.574   3.924 -1.3408  0.2893 -1.9259
 8520SOL    HW227002   0.625   1.433   3.964  0.5305 -0.3789 -2.2698
 8521SOL     OW27003   6.840   1.706   6.602 -0.3285  0.3872  0.5191
 8521SOL    HW127004   6.867   1.630   6.550 -2.1163  0.0605  0.0027
 8521SOL    HW227005   6.787   1.669   6.672 -2.3065  1.2010 -0.4738
 8522SOL     OW27006   7.753   1.924   0.596  0.6715 -0.0452 -0.0177
 8522SOL    HW127007   7.776   1.880   0.678  0.3941 -0.1787 -0.0115
 8522SOL    HW227008   7.694   1.995   0.623 -2.5118 -2.3165 -0.4126
 8523SOL     OW27009   1.721   3.134   7.720 -0.2586  0.7820  0.3289
 8523SOL    HW127010   1.730   3.049   7.677 -2.2897  1.4876 -1.7289
 8523SOL    HW227011   1.791   3.136   7.785  0.3637 -2.0990 -0.1227
 8524SOL     OW27012   4.351   4.481   3.163 -0.0199  0.9608  0.2479
 8524SOL    HW127013   4.276   4.424   3.179  0.6048 -0.3170 -1.1683
 8524SOL    HW227014   4.382   4.458   3.075  1.9126  1.5760  0.6992
 8525SOL     OW27015   1.989   5.183   8.025 -0.1448  0.2754 -0.5489
 8525SOL    HW127016   1.985   5.120   7.953  0.8609  2.2742 -2.4618
 8525SOL    HW227017   1.898   5.201   8.046 -0.4494 -0.4172 -1.2370
 8526SOL     OW27018   0.018   6.983   9.415 -0.3981  0.1376 -0.2469
 8526SOL    HW127019   0.061   7.035   9.347 -1.6553  0.9098 -0.4892
 8526SOL    HW227020   0.056   6.896   9.407  0.4924  0.5835 -1.0013
 8527SOL     OW27021   3.076   7.671   0.329 -0.1724  0.2651 -0.0810
 8527SOL    HW127022   3.097   7.669   0.236 -0.5030 -1.4353 -0.1567
 8527SOL    HW227023   3.161   7.676   0.373 -0.0593  4.1973 -0.4121
 8528SOL     OW27024   0.886   4.705  11.083  0.7015 -0.0998 -0.0991
 8528SOL    HW127025   0.923   4.778  11.034  1.4565 -0.8727 -0.6935
 8528SOL    HW227026   0.832   4.747  11.151 -1.3545  1.0112 -2.2624
 8529SOL     OW27027   5.100   5.091  11.072 -0.2565 -0.0695 -0.1430
 8529SOL    HW127028   5.094   5.139  11.155 -2.0780 -0.7753  0.1707
 8529SOL    HW227029   5.111   5.000  11.097 -0.2290 -0.2186 -0.6864
 8530SOL     OW27030   0.702   6.044  11.730 -0.2536 -0.6270  0.0273
 8530SOL    HW127031   0.747   6.113  11.780 -1.0115 -0.6195  0.7206
 8530SOL    HW227032   0.771   6.005  11.676 -0.1053  1.7604 -1.6583
 8531SOL     OW27033   2.928   1.121   7.145 -0.0558  0.2342 -0.1410
 8531SOL    HW127034   3.001   1.097   7.203  0.3231  1.1976 -0.2127
 8531SOL    HW227035   2.961   1.104   7.057 -0.6657 -1.3228 -0.1127
 8532SOL     OW27036   0.510   7.199  10.015  0.0806  0.4157  0.1034
 8532SOL    HW127037   0.562   7.246  10.080  1.8402 -1.6487  0.3227
 8532SOL    HW227038   0.544   7.228   9.930  1.0396 -0.2423  0.2362
 8533SOL     OW27039   6.970   3.970   0.119 -0.0987  0.4154 -0.2804
 8533SOL    HW127040   6.895   3.918   0.091  0.7793 -1.2752  0.3084
 8533SOL    HW227041   6.933   4.043   0.168 -1.3633 -0.0673 -0.4928
 8534SOL     OW27042   6.943   0.214   0.417 -0.2276 -0.5410 -0.2239
 8534SOL    HW127043   6.950   0.196   0.510  0.9647  0.9449  0.0148
 8534SOL    HW227044   6.893   0.296   0.411  1.8946  0.7939 -0.6760
 8535SOL     OW27045   0.992   4.690  10.522 -0.0646 -0.2287 -0.3504
 8535SOL    HW127046   0.981   4.694  10.427 -1.6566 -1.1634 -0.2308
 8535SOL    HW227047   0.960   4.775  10.553  0.3528  0.0361 -0.6266
 8536SOL     OW27048   6.277   1.732   0.166 -0.3415  0.2744 -0.3112
 8536SOL    HW127049   6.184   1.709   0.166 -0.5725  1.1358 -1.4355
 8536SOL    HW227050   6.316   1.673   0.100 -0.4466  1.1933 -1.2157
 8537SOL     OW27051   5.231   1.262   3.284  0.5688  0.2873  0.4868
 8537SOL    HW127052   5.211   1.334   3.224 -0.3946 -0.1934  0.2125
 8537SOL    HW227053   5.268   1.304   3.361  2.1931  0.8906 -0.5849
 8538SOL     OW27054   5.845   2.122   3.968 -0.0586 -0.3847 -0.1161
 8538SOL    HW127055   5.907   2.057   3.935 -0.5744 -0.4291 -1.0169
 8538SOL    HW227056   5.900   2.196   3.995  0.4744 -0.9060  0.2495
 8539SOL     OW27057   5.992   2.064   6.515 -0.6297 -0.2363 -0.4006
 8539SOL    HW127058   6.036   2.066   6.600 -2.4769 -0.3507  0.6172
 8539SOL    HW227059   6.024   1.984   6.473 -1.2296 -1.3267  1.1102
 8540SOL     OW27060   0.029   4.429  10.211  0.3995  0.5224  0.3979
 8540SOL    HW127061   0.082   4.387  10.279  0.5593  0.4610  0.2347
 8540SOL    HW227062  -0.057   4.442  10.252  0.6428  0.9473  0.7862
 8541SOL     OW27063   3.372   0.314   0.954  0.5716 -0.2959  0.5329
 8541SOL    HW127064   3.399   0.289   1.042  1.7174  1.2281  0.6314
 8541SOL    HW227065   3.453   0.336   0.908 -0.2523  2.7095  0.3148
 8542SOL     OW27066   5.037   2.023   6.856 -0.1811 -0.2791 -0.3534
 8542SOL    HW127067   5.097   2.020   6.930 -0.4225 -2.0056 -0.1915
 8542SOL    HW227068   5.086   1.986   6.783 -0.3339  0.3471 -0.7855
 8543SOL     OW27069   7.056   3.067  10.414 -0.1243  0.1941  0.4087
 8543SOL    HW127070   7.005   3.106  10.343  0.1496  1.1467  0.7192
 8543SOL    HW227071   7.006   2.990  10.440 -0.4014  0.0224 -0.5845
 8544SOL     OW27072   0.995   2.071   9.711  0.1424 -0.2786  0.4855
 8544SOL    HW127073   1.070   2.119   9.678 -0.5449  0.8063  0.4633
 8544SOL    HW227074   0.931   2.073   9.640  0.5246 -2.3075 -0.0017
 8545SOL     OW27075   7.138   3.966   2.063 -0.3492 -0.4743  0.5223
 8545SOL    HW127076   7.043   3.972   2.054 -0.2390  1.2873  0.0917
 8545SOL    HW227077   7.153   3.887   2.115 -1.8815 -2.4585 -1.8335
 8546SOL     OW27078   5.607   5.234  11.240 -0.1476  0.2259  0.3652
 8546SOL    HW127079   5.687   5.223  11.292 -0.4348  0.6467  0.8946
 8546SOL    HW227080   5.610   5.324  11.208  1.3591 -0.7208 -2.5998
 8547SOL     OW27081   3.275   0.820   7.371  0.0324  0.5727 -0.2745
 8547SOL    HW127082   3.306   0.878   7.441 -2.1785  1.7279 -0.1586
 8547SOL    HW227083   3.218   0.757   7.415  0.3406 -0.0538 -0.7584
 8548SOL     OW27084   4.665   1.638  11.493  0.0025  0.0102 -0.0935
 8548SOL    HW127085   4.722   1.685  11.432 -1.1698 -1.0625 -2.1198
 8548SOL    HW227086   4.648   1.554  11.450 -2.2850 -0.0963  0.8872
 8549SOL     OW27087   7.107   6.474  11.510 -0.1456  0.6667 -0.2701
 8549SOL    HW127088   7.165   6.460  11.584  1.6289  2.6858 -1.1808
 8549SOL    HW227089   7.129   6.561  11.478 -1.5176  0.2547 -2.5920
 8550SOL     OW27090   6.176   1.072   9.841 -0.0783  0.1072 -0.4103
 8550SOL    HW127091   6.115   1.145   9.834  0.1945  0.4917  0.9786
 8550SOL    HW227092   6.120   0.994   9.840 -0.3929  0.3360 -1.5917
 8551SOL     OW27093   2.575   1.488   6.991 -0.3638 -0.6600 -0.2729
 8551SOL    HW127094   2.547   1.501   6.901  0.4458  1.0932 -0.3017
 8551SOL    HW227095   2.643   1.554   7.006 -2.5914  1.2303  2.5574
 8552SOL     OW27096   3.524   3.746  10.882 -0.0065  0.4870 -0.0103
 8552SOL    HW127097   3.472   3.821  10.852 -0.8005  0.6462  1.6129
 8552SOL    HW227098   3.615   3.775  10.874 -0.2585  1.1398 -0.6199
 8553SOL     OW27099   6.028   3.373   7.687  0.2588 -0.3903  0.1534
 8553SOL    HW127100   6.009   3.318   7.611  0.8171  0.6914 -0.7963
 8553SOL    HW227101   6.007   3.318   7.762 -0.6552 -1.3554 -0.7815
 8554SOL     OW27102   0.314   1.694   4.513 -0.2356 -0.1330 -0.0586
 8554SOL    HW127103   0.224   1.722   4.532  0.8398  1.8163  2.6766
 8554SOL    HW227104   0.346   1.758   4.449 -0.5186 -0.3884 -0.4644
 8555SOL     OW27105   2.775   2.191   8.606  0.3129  0.4941  0.1570
 8555SOL    HW127106   2.699   2.249   8.604 -0.5514 -0.5710  0.8487
 8555SOL    HW227107   2.844   2.242   8.649 -1.2446  0.1715  3.3043
 8556SOL     OW27108   4.508   5.630   3.161  0.1720 -0.0617 -0.5883
 8556SOL    HW127109   4.457   5.657   3.237  1.4531 -3.4610  1.7435
 8556SOL    HW227110   4.527   5.711   3.114 -1.2515  2.1390  2.3480
 8557SOL     OW27111   3.768   6.142   3.485  0.0933  0.4693  0.4776
 8557SOL    HW127112   3.861   6.150   3.464  0.0012  0.3659  0.0227
 8557SOL    HW227113   3.739   6.063   3.440 -0.1727  0.3913  0.7792
 8558SOL     OW27114   3.321   5.733  11.115 -0.0649 -0.4117  0.3850
 8558SOL    HW127115   3.324   5.732  11.019 -1.1827 -2.7630  0.2885
 8558SOL    HW227116   3.276   5.815  11.136 -1.4215 -0.6667 -1.2351
 8559SOL     OW27117   2.988   6.044   4.156 -0.3779  0.0603  0.3252
 8559SOL    HW127118   2.950   5.986   4.222  0.9229 -0.8667  0.2975
 8559SOL    HW227119   3.054   6.095   4.203  2.6061 -2.5704 -0.6419
 8560SOL     OW27120   2.432   1.441   9.422  0.0965 -0.1270  0.3477
 8560SOL    HW127121   2.527   1.455   9.415  0.5811 -1.4730  2.9538
 8560SOL    HW227122   2.423   1.348   9.442 -1.8604 -0.1459 -0.3685
 8561SOL     OW27123   2.896   6.479   1.446 -0.3051 -0.5247 -0.0644
 8561SOL    HW127124   2.807   6.511   1.462 -0.5409 -1.3419  0.3631
 8561SOL    HW227125   2.908   6.409   1.511  0.5455 -0.6118 -0.3017
 8562SOL     OW27126   5.342   0.425   2.604 -0.0884  0.3316  0.1069
 8562SOL    HW127127   5.418   0.483   2.596 -0.1903  0.4803  0.1946
 8562SOL    HW227128   5.270   0.476   2.566 -0.1939  0.2947  0.2584
 8563SOL     OW27129   0.494   3.052   3.570  0.2179  0.2647  0.3293
 8563SOL    HW127130   0.454   3.139   3.581  0.2939  0.2798  0.4951
 8563SOL    HW227131   0.436   3.006   3.509  0.4742  0.6234 -0.1926
 8564SOL     OW27132   1.169   1.265   9.968 -0.0766 -0.5383 -0.1760
 8564SOL    HW127133   1.203   1.308   9.890 -1.2042 -0.8099 -0.8395
 8564SOL    HW227134   1.137   1.337  10.023 -1.6998 -0.4547 -1.1582
 8565SOL     OW27135   0.170   5.950   8.997 -0.4148  0.3364  0.7428
 8565SOL    HW127136   0.114   5.915   9.066 -0.3755 -0.4357  0.3918
 8565SOL    HW227137   0.250   5.977   9.043 -1.4476  2.4401  1.4047
 8566SOL     OW27138   6.372   5.029   7.582  0.2345 -0.6998 -0.0867
 8566SOL    HW127139   6.440   5.097   7.581  0.0391 -0.5020 -0.8370
 8566SOL    HW227140   6.376   4.990   7.495 -1.1059 -0.1739 -0.4024
 8567SOL     OW27141   2.520   1.754   6.005 -0.4658 -0.3881 -0.4689
 8567SOL    HW127142   2.455   1.689   6.028 -0.0305 -1.2984 -1.6971
 8567SOL    HW227143   2.505   1.772   5.912  0.5524 -0.0755 -0.5934
 8568SOL     OW27144   4.950   6.757   1.873 -0.1123 -0.1240 -0.1341
 8568SOL    HW127145   5.018   6.819   1.845  0.8320 -0.7394  0.7193
 8568SOL    HW227146   4.875   6.813   1.896  0.8530  0.7601  0.9897
 8569SOL     OW27147   5.126   6.774   8.230 -0.3124 -0.2039 -0.2936
 8569SOL    HW127148   5.136   6.858   8.274  1.7082  0.0250 -1.0864
 8569SOL    HW227149   5.142   6.708   8.298  1.7401  0.1357 -0.3793
 8570SOL     OW27150   0.031   7.049   8.840 -0.1495  0.5368  0.6122
 8570SOL    HW127151   0.013   7.143   8.838  1.5870  0.8970  0.4331
 8570SOL    HW227152   0.067   7.033   8.927 -0.6540 -0.0111  0.7254
 8571SOL     OW27153   2.193   3.540   5.212  0.2706  0.3761  0.0479
 8571SOL    HW127154   2.205   3.495   5.296  1.6179 -0.6757 -0.6785
 8571SOL    HW227155   2.256   3.611   5.214 -0.6347  1.1945  0.4562
 8572SOL     OW27156   6.049   1.419   0.154 -0.2586 -0.2714  0.0746
 8572SOL    HW127157   6.135   1.459   0.145  0.0442 -0.9695 -0.1717
 8572SOL    HW227158   6.012   1.459   0.233 -0.3778  1.2381 -0.6898
 8573SOL     OW27159   6.734   6.099   4.933  0.1748 -0.3731 -0.2137
 8573SOL    HW127160   6.827   6.086   4.949  0.4293  0.1238 -1.2045
 8573SOL    HW227161   6.727   6.190   4.906 -0.4340 -0.6956 -1.2144
 8574SOL     OW27162   2.670   5.862   5.983  0.7268  0.5226 -0.0410
 8574SOL    HW127163   2.677   5.954   6.008  1.2625  0.5558 -0.2999
 8574SOL    HW227164   2.614   5.823   6.051 -0.4494  1.2708 -0.5518
 8575SOL     OW27165   2.976   3.704   8.472 -0.1298  0.3095  0.1643
 8575SOL    HW127166   2.919   3.704   8.395 -0.8883 -0.7662  0.7024
 8575SOL    HW227167   3.004   3.613   8.481 -0.0965  0.4080  1.1895
 8576SOL     OW27168   0.048   1.669   7.145 -0.2368 -0.0858  0.0651
 8576SOL    HW127169   0.129   1.681   7.194 -0.1405 -0.7230  0.0606
 8576SOL    HW227170  -0.021   1.674   7.211 -0.1838  0.2032  0.1022
 8577SOL     OW27171   4.274   0.062  10.959 -0.2780  0.0177 -0.1239
 8577SOL    HW127172   4.264   0.116  10.881  1.6009  0.6514  0.0305
 8577SOL    HW227173   4.359   0.086  10.994 -1.2476  0.0563  2.3876
 8578SOL     OW27174   4.702   5.818  11.931 -0.0017  0.3653 -0.1272
 8578SOL    HW127175   4.625   5.874  11.939  0.4171  0.9423 -0.1044
 8578SOL    HW227176   4.744   5.847  11.850 -0.0242 -0.2194 -0.3531
 8579SOL     OW27177   4.466   0.876   1.452  0.3822 -0.4305 -0.5774
 8579SOL    HW127178   4.555   0.845   1.465  0.5450 -0.1708 -1.0829
 8579SOL    HW227179   4.471   0.971   1.467 -0.2505 -0.6838  1.7022
 8580SOL     OW27180   0.789   7.968   5.279 -0.0387  0.5165 -0.1536
 8580SOL    HW127181   0.859   7.960   5.344  0.2353  0.6979 -0.4193
 8580SOL    HW227182   0.835   7.975   5.196 -0.3785  0.5489 -0.3403
 8581SOL     OW27183   1.569   5.731   4.925 -0.0261  0.5015 -0.3708
 8581SOL    HW127184   1.535   5.699   5.008 -0.2608 -0.2307 -0.7348
 8581SOL    HW227185   1.648   5.679   4.910 -1.8512 -1.9899 -2.2854
 8582SOL     OW27186   0.309   0.505   3.978  0.1177  0.1629  0.0995
 8582SOL    HW127187   0.262   0.508   4.062  1.3848 -1.1312  0.9086
 8582SOL    HW227188   0.390   0.555   3.995  0.3221 -0.0000 -0.3896
 8583SOL     OW27189   4.053   6.679   6.691 -0.1840 -0.0942  0.0469
 8583SOL    HW127190   3.974   6.718   6.654  0.5255 -0.4290 -1.9424
 8583SOL    HW227191   4.090   6.627   6.620  2.2315  0.6380  0.6447
 8584SOL     OW27192   7.622   2.156   3.773  0.0642 -0.3767 -0.6236
 8584SOL    HW127193   7.578   2.088   3.722 -0.0056  0.7932 -2.1816
 8584SOL    HW227194   7.551   2.207   3.811  0.0538  0.4875 -1.7541
 8585SOL     OW27195   6.115   5.245  10.814 -0.3213  0.2050  0.2117
 8585SOL    HW127196   6.131   5.151  10.807  1.7735  0.3560  1.8344
 8585SOL    HW227197   6.178   5.285  10.754 -2.0664  0.6032 -1.4566
 8586SOL     OW27198   4.437   1.560   1.227 -0.3008  0.0345 -0.0576
 8586SOL    HW127199   4.497   1.594   1.160  0.2581 -2.1943 -0.8006
 8586SOL    HW227200   4.350   1.572   1.189 -0.1639  1.0961 -0.0509
 8587SOL     OW27201   2.921   2.319   9.410  0.0719  0.1479 -0.1642
 8587SOL    HW127202   2.835   2.287   9.439  0.6055 -1.3442 -0.1181
 8587SOL    HW227203   2.947   2.383   9.476  0.2997 -1.5959  1.5383
 8588SOL     OW27204   1.350   5.773   5.597 -0.7129  0.0672  0.4622
 8588SOL    HW127205   1.410   5.833   5.641  0.5572 -1.0037  0.2639
 8588SOL    HW227206   1.313   5.824   5.525  1.9282  0.0826 -1.0232
 8589SOL     OW27207   4.225   0.388   0.995  0.2722 -0.0084  0.2909
 8589SOL    HW127208   4.270   0.347   0.921 -0.7497 -2.5469  0.9704
 8589SOL    HW227209   4.173   0.458   0.956 -0.7835 -1.7321 -1.5492
 8590SOL     OW27210   4.485   7.478  11.881  0.0685  0.4908  0.0528
 8590SOL    HW127211   4.577   7.461  11.900 -0.1941 -0.7254  0.2686
 8590SOL    HW227212   4.486   7.524  11.796  0.8981  1.0902  0.3756
 8591SOL     OW27213   0.332   7.948  11.717 -0.8872 -0.1941 -0.2963
 8591SOL    HW127214   0.262   7.938  11.781  0.2866  3.2101  1.7834
 8591SOL    HW227215   0.304   8.021  11.662  0.9432  1.3654  0.6903
 8592SOL     OW27216   3.830   2.036   6.357  0.0543  0.1846 -0.2384
 8592SOL    HW127217   3.785   1.954   6.377 -0.9294  0.1389 -2.3682
 8592SOL    HW227218   3.872   2.061   6.440  2.1653 -3.5268  0.0287
 8593SOL     OW27219   3.920   6.783   2.160  0.2068  0.2494  0.5063
 8593SOL    HW127220   4.007   6.743   2.162  0.1897  0.2230  0.7118
 8593SOL    HW227221   3.936   6.876   2.181  0.2682  0.3924 -0.1493
 8594SOL     OW27222   7.883   4.340   2.163 -0.1060  0.0931 -0.3693
 8594SOL    HW127223   7.803   4.329   2.112 -0.3254  0.3537 -0.0835
 8594SOL    HW227224   7.946   4.281   2.121 -0.6795 -0.7361 -0.0964
 8595SOL     OW27225   3.043   3.572   8.075 -0.1319 -0.2973 -0.7765
 8595SOL    HW127226   3.092   3.513   8.132  0.8393 -0.4692 -1.7757
 8595SOL    HW227227   3.102   3.647   8.062 -1.7818  1.5563  1.4630
 8596SOL     OW27228   6.603   2.768  11.551 -0.2185 -0.6195 -0.2408
 8596SOL    HW127229   6.537   2.715  11.596 -0.8020 -0.2458 -0.6379
 8596SOL    HW227230   6.673   2.707  11.530 -0.4684 -1.0381  0.1255
 8597SOL     OW27231   5.075   3.224   5.898 -0.0931 -0.2415  0.0858
 8597SOL    HW127232   5.144   3.250   5.959  0.1680  1.6585 -0.9370
 8597SOL    HW227233   5.004   3.193   5.954  1.0975 -1.0530  1.2131
 8598SOL     OW27234   7.109   4.849   8.663  0.1582  0.6755 -0.1112
 8598SOL    HW127235   7.196   4.886   8.651 -0.6085  2.0865 -1.7669
 8598SOL    HW227236   7.063   4.912   8.717  0.0169  0.1551  0.3845
 8599SOL     OW27237   2.874   7.619   3.948 -0.2868 -0.0734 -0.2832
 8599SOL    HW127238   2.912   7.707   3.954  0.2710 -0.2699 -0.8459
 8599SOL    HW227239   2.797   7.630   3.892 -1.3556  0.4065  1.1920
 8600SOL     OW27240   4.177   4.685   7.088 -0.3760 -0.3458 -0.0538
 8600SOL    HW127241   4.249   4.656   7.146 -2.2574  0.4192  2.8916
 8600SOL    HW227242   4.137   4.604   7.058  0.5693 -0.7671 -0.2307
 8601SOL     OW27243   3.652   7.152   0.849 -0.1977  0.1177 -0.5920
 8601SOL    HW127244   3.563   7.137   0.818  0.6832  0.0849 -3.3523
 8601SOL    HW227245   3.682   7.229   0.800  2.1861 -1.5087 -1.8499
 8602SOL     OW27246   0.899   4.160  11.925  0.2384 -0.3265  0.2424
 8602SOL    HW127247   0.866   4.250  11.922 -1.5559 -0.9008  0.9871
 8602SOL    HW227248   0.893   4.129  11.834  0.1707  0.0886  0.1048
 8603SOL     OW27249   3.540   4.970   9.089 -0.6908 -0.1122  0.0194
 8603SOL    HW127250   3.566   4.898   9.031  1.1846  0.7827 -0.3458
 8603SOL    HW227251   3.567   5.049   9.042 -0.7104  0.7141  1.3537
 8604SOL     OW27252   0.188   4.183   6.584 -0.1956  0.2008 -0.1567
 8604SOL    HW127253   0.241   4.248   6.539 -0.1688  0.9552  0.9212
 8604SOL    HW227254   0.250   4.137   6.641 -0.2898 -0.5038 -0.6114
 8605SOL     OW27255   5.546   7.048  11.969 -0.5937 -0.0012  0.1184
 8605SOL    HW127256   5.627   6.997  11.964 -1.2562 -1.1271  0.3864
 8605SOL    HW227257   5.534   7.065  12.062 -1.1948 -0.7430  0.1844
 8606SOL     OW27258   7.575   0.657   9.363 -0.2246  0.7919  0.8553
 8606SOL    HW127259   7.495   0.648   9.311 -1.3488  0.4061  2.5545
 8606SOL    HW227260   7.551   0.718   9.433  1.4014  1.7274  0.6398
 8607SOL     OW27261   0.996   2.919   2.160  0.0735 -0.8286 -0.1627
 8607SOL    HW127262   0.906   2.943   2.181 -0.1599 -2.4774  0.9136
 8607SOL    HW227263   0.989   2.855   2.089  0.4607 -0.3789 -0.6198
 8608SOL     OW27264   2.439   2.540   8.276 -0.5387 -0.1105  0.1641
 8608SOL    HW127265   2.492   2.550   8.197 -2.6209 -0.8603 -1.4371
 8608SOL    HW227266   2.500   2.505   8.341  1.0826 -0.2406 -1.3335
 8609SOL     OW27267   0.709   2.416   3.397 -0.6484 -0.1179 -0.2860
 8609SOL    HW127268   0.688   2.478   3.467  0.0455 -1.7254  1.4277
 8609SOL    HW227269   0.798   2.386   3.418 -1.6745 -3.1944  0.2071
 8610SOL     OW27270   0.997   4.345   5.393  0.5625  0.0035  0.1409
 8610SOL    HW127271   1.079   4.318   5.352  0.3195  0.2476 -0.5071
 8610SOL    HW227272   1.022   4.370   5.482  1.4185  1.3889 -0.4593
 8611SOL     OW27273   1.206   1.072   6.685  0.2909 -0.4747  0.3658
 8611SOL    HW127274   1.221   1.156   6.644 -0.2512 -0.7277 -0.3639
 8611SOL    HW227275   1.197   1.092   6.778  1.3972  0.1131  0.3625
 8612SOL     OW27276   4.470   6.487   5.382  0.8739  0.1435  0.1718
 8612SOL    HW127277   4.505   6.471   5.469  0.5182  0.3192  0.3489
 8612SOL    HW227278   4.474   6.401   5.339 -0.8004 -0.4144  1.0385
 8613SOL     OW27279   3.811   0.304   1.230  0.1870  0.5816  0.3467
 8613SOL    HW127280   3.826   0.287   1.323 -0.3244 -1.6621  0.0904
 8613SOL    HW227281   3.722   0.271   1.214  0.6473 -0.0673 -1.1269
 8614SOL     OW27282   2.560   0.292   5.451  0.5294  0.4395  0.2430
 8614SOL    HW127283   2.491   0.225   5.449  3.5601 -3.0238 -0.1387
 8614SOL    HW227284   2.571   0.311   5.544  0.1662 -0.3170  0.4558
 8615SOL     OW27285   1.980   0.225   7.328  0.2353  0.4449  0.3602
 8615SOL    HW127286   2.030   0.306   7.322 -1.1412  1.3500  0.6938
 8615SOL    HW227287   1.988   0.185   7.242  0.2342  1.3576 -0.0687
 8616SOL     OW27288   7.185   7.337   8.062 -0.3544  0.1323  0.0580
 8616SOL    HW127289   7.212   7.249   8.035 -0.3109 -0.2034  1.1402
 8616SOL    HW227290   7.256   7.367   8.120  0.3538  1.4791 -1.4445
 8617SOL     OW27291   4.473   6.628  11.407  0.0035  0.2529  0.1444
 8617SOL    HW127292   4.554   6.579  11.393 -0.4993 -0.4225 -0.4787
 8617SOL    HW227293   4.502   6.717  11.427  0.8967  0.1422 -0.5911
 8618SOL     OW27294   5.387   0.306   3.904  0.1326 -0.2697  0.1411
 8618SOL    HW127295   5.443   0.348   3.839  1.1586  0.0307  1.2062
 8618SOL    HW227296   5.299   0.311   3.866  0.5280  1.0480 -0.6470
 8619SOL     OW27297   1.375   4.460   7.197 -0.3575 -0.2565 -0.7376
 8619SOL    HW127298   1.451   4.517   7.204 -0.1110 -0.2559 -2.7431
 8619SOL    HW227299   1.303   4.510   7.236  0.2551  0.6251 -0.7190
 8620SOL     OW27300   0.765   7.826   5.877 -0.1016 -0.4823 -0.2939
 8620SOL    HW127301   0.835   7.762   5.885 -0.5461 -0.8715  0.6856
 8620SOL    HW227302   0.720   7.823   5.962 -0.4762  0.7177 -0.4320
 8621SOL     OW27303   3.908   0.248   8.232 -0.0298 -0.0681 -0.4172
 8621SOL    HW127304   3.830   0.302   8.218  0.0041 -0.0598 -0.5736
 8621SOL    HW227305   3.972   0.308   8.271 -0.6303 -0.4410  1.2442
 8622SOL     OW27306   1.675   2.907   5.459  0.0811 -0.4262  0.9040
 8622SOL    HW127307   1.741   2.950   5.513 -0.6374 -0.0683  1.5078
 8622SOL    HW227308   1.662   2.966   5.385 -1.2477  0.6806  1.9648
 8623SOL     OW27309   0.342   1.820  11.774 -0.4708  0.7672  0.3431
 8623SOL    HW127310   0.306   1.897  11.818  1.9454  1.7049  0.8151
 8623SOL    HW227311   0.423   1.800  11.821 -0.3273 -1.2650 -0.6268
 8624SOL     OW27312   2.043   6.494   0.736  0.0235 -0.6036 -0.2741
 8624SOL    HW127313   2.028   6.589   0.738  0.4826 -0.5465  0.9161
 8624SOL    HW227314   2.121   6.484   0.682  0.5971 -0.2031  0.4640
 8625SOL     OW27315   0.705   6.093   7.459  0.2171 -0.4261 -0.0107
 8625SOL    HW127316   0.615   6.102   7.490  0.7261 -0.3793  1.5583
 8625SOL    HW227317   0.727   6.178   7.423  0.3934  0.3580  1.8250
 8626SOL     OW27318   1.912   2.058  10.982 -0.4836 -0.1681 -0.6560
 8626SOL    HW127319   1.994   2.074  10.935  0.2610 -1.9457 -0.0532
 8626SOL    HW227320   1.932   2.078  11.073 -0.8005 -0.3328 -0.5479
 8627SOL     OW27321   4.553   5.875   3.009 -0.9368  0.1700  0.4617
 8627SOL    HW127322   4.592   5.877   2.922 -1.5519 -0.1183  0.1724
 8627SOL    HW227323   4.573   5.961   3.046  0.8753 -0.3268  0.7475
 8628SOL     OW27324   5.271   2.089   7.086 -0.0507  0.0087 -0.6515
 8628SOL    HW127325   5.335   2.116   7.152  0.6035 -0.3733 -1.1208
 8628SOL    HW227326   5.247   2.171   7.042 -0.5386  0.2742  0.0862
 8629SOL     OW27327   4.920   0.555   3.412 -0.2931 -0.0318 -0.5111
 8629SOL    HW127328   5.013   0.574   3.424 -0.3519  0.2377 -0.4690
 8629SOL    HW227329   4.911   0.462   3.433  0.2579 -0.4762 -2.1572
 8630SOL     OW27330   6.284   1.014   4.523  0.6589  0.7046 -0.0123
 8630SOL    HW127331   6.286   1.035   4.616 -1.4977  0.3524  0.1833
 8630SOL    HW227332   6.310   0.922   4.518 -1.2970  0.0586  0.5675
 8631SOL     OW27333   2.808   4.441   3.352  0.3583  0.3033 -0.2018
 8631SOL    HW127334   2.835   4.397   3.271  1.3497  0.3109  0.1077
 8631SOL    HW227335   2.789   4.369   3.413  1.6578  0.2761  0.2008
 8632SOL     OW27336   1.090   3.613  12.421  0.3402  0.4872 -0.3733
 8632SOL    HW127337   1.165   3.670  12.403  0.0220  1.4595  1.1618
 8632SOL    HW227338   1.033   3.623  12.345  0.8767  1.2716 -0.6854
 8633SOL     OW27339   6.774   0.618   2.544 -0.6738 -0.2141  0.2657
 8633SOL    HW127340   6.735   0.619   2.632  0.6837  1.1254  0.9111
 8633SOL    HW227341   6.860   0.658   2.556  0.2193 -1.4951 -1.4050
 8634SOL     OW27342   2.857   4.545   8.630  0.2843 -0.2024  0.0890
 8634SOL    HW127343   2.901   4.628   8.611 -0.1107 -0.0492 -0.1578
 8634SOL    HW227344   2.874   4.491   8.553 -0.2262 -0.0301 -0.1500
 8635SOL     OW27345   2.536   5.367   3.739  0.6665 -0.6496  0.0859
 8635SOL    HW127346   2.611   5.320   3.702  0.0293 -1.1700 -0.5903
 8635SOL    HW227347   2.461   5.337   3.686  0.3586  1.8107 -1.0128
 8636SOL     OW27348   4.418   5.414   4.245 -0.0209 -0.8231 -0.0523
 8636SOL    HW127349   4.363   5.361   4.302 -1.2065 -0.9264 -1.2441
 8636SOL    HW227350   4.377   5.501   4.247  0.5568 -0.5489  0.0721
 8637SOL     OW27351   7.051   6.656   1.436 -0.0392  0.1525 -0.3402
 8637SOL    HW127352   7.088   6.722   1.494 -0.2059  0.0512 -0.1202
 8637SOL    HW227353   7.116   6.645   1.367 -0.1353  0.7545 -0.5298
 8638SOL     OW27354   7.903   4.135   6.605  0.3746  0.0755  0.3591
 8638SOL    HW127355   7.998   4.144   6.611  0.3746  0.2364  0.1301
 8638SOL    HW227356   7.889   4.045   6.578  0.5571  0.6621 -1.8675
 8639SOL     OW27357   4.741   1.577   9.904 -0.1847 -0.0052 -0.2040
 8639SOL    HW127358   4.657   1.531   9.897  0.4705 -1.3792  0.4240
 8639SOL    HW227359   4.802   1.523   9.853  0.7269 -0.1809  1.0048
 8640SOL     OW27360   3.534   0.912  11.564 -0.0614  0.3637  0.1858
 8640SOL    HW127361   3.586   0.970  11.509 -0.6021  1.8107  1.1200
 8640SOL    HW227362   3.595   0.879  11.630  0.0437  0.7234  0.2715
 8641SOL     OW27363   6.549   6.930   6.470 -0.4068  0.0284  0.0771
 8641SOL    HW127364   6.635   6.971   6.478  0.7267 -2.4084  1.6991
 8641SOL    HW227365   6.547   6.894   6.382  1.8966 -2.9602  1.0445
 8642SOL     OW27366   1.390   1.827   8.980 -0.0984 -0.3334  0.0117
 8642SOL    HW127367   1.432   1.888   9.041  1.1900 -0.4665 -0.6951
 8642SOL    HW227368   1.319   1.878   8.941 -1.9356 -0.6867  2.6395
 8643SOL     OW27369   0.749   5.295  10.207 -0.3103  0.0529 -0.5360
 8643SOL    HW127370   0.684   5.281  10.276  0.4396  0.7304  0.3245
 8643SOL    HW227371   0.834   5.282  10.250  0.1503 -0.5303 -1.5749
 8644SOL     OW27372   1.676   6.154   7.822 -0.0387 -0.1762  0.3838
 8644SOL    HW127373   1.673   6.207   7.742 -0.7316 -0.1736  0.4014
 8644SOL    HW227374   1.680   6.064   7.791 -4.2417 -0.5194  0.1660
 8645SOL     OW27375   3.563   1.262   3.511  0.5141 -0.3776 -0.4550
 8645SOL    HW127376   3.520   1.312   3.581 -1.3728 -0.3134 -1.6074
 8645SOL    HW227377   3.633   1.319   3.481 -0.4365  0.7930 -0.4990
 8646SOL     OW27378   6.366   4.149   4.422  0.0391  0.2105  0.7025
 8646SOL    HW127379   6.461   4.132   4.419 -0.2491 -1.4876 -1.2193
 8646SOL    HW227380   6.327   4.064   4.442 -1.1753  0.1194 -1.6798
 8647SOL     OW27381   0.294   5.347  10.811 -0.4611 -0.0659  0.5506
 8647SOL    HW127382   0.263   5.350  10.721 -2.0495  1.7771  1.1048
 8647SOL    HW227383   0.251   5.270  10.849  1.1554 -1.5704 -0.5143
 8648SOL     OW27384   2.062   6.503  10.254  0.4567 -0.4270 -0.1928
 8648SOL    HW127385   2.050   6.551  10.172  0.8904  1.3263  0.7223
 8648SOL    HW227386   2.157   6.498  10.265  0.4121  0.6432  0.8952
 8649SOL     OW27387   0.175   5.383  10.198 -0.2868 -0.2169 -0.4454
 8649SOL    HW127388   0.242   5.317  10.214 -1.0108 -0.5845  1.3989
 8649SOL    HW227389   0.097   5.332  10.176  0.0253  0.2122 -2.8473
 8650SOL     OW27390   1.274   1.095   5.082 -0.3759 -0.2157  0.1527
 8650SOL    HW127391   1.278   1.004   5.113  0.0425 -0.6747 -1.1850
 8650SOL    HW227392   1.285   1.147   5.161 -1.1161 -1.3209  1.0176
 8651SOL     OW27393   5.074   6.991   6.489  0.3349 -0.2979 -0.0292
 8651SOL    HW127394   5.126   6.916   6.460  2.4143  1.2935 -0.7216
 8651SOL    HW227395   5.138   7.049   6.533 -1.4724  0.4137  1.8265
 8652SOL     OW27396   1.865   7.150   0.300  0.0322  0.2331  0.2577
 8652SOL    HW127397   1.893   7.240   0.314  0.5774 -0.0876  1.3316
 8652SOL    HW227398   1.794   7.136   0.362  0.3870 -0.2745  0.5549
 8653SOL     OW27399   2.399   4.340   8.208 -0.4698 -0.0245  0.1407
 8653SOL    HW127400   2.441   4.275   8.265  0.1277 -0.6883 -1.0380
 8653SOL    HW227401   2.457   4.416   8.212 -1.5064  0.7402  2.0459
 8654SOL     OW27402   3.047   3.421  11.229  0.1030 -0.2322 -0.2220
 8654SOL    HW127403   3.027   3.328  11.233  1.0601 -0.4457 -0.0265
 8654SOL    HW227404   3.143   3.425  11.228  0.0831  0.7608  0.2254
 8655SOL     OW27405   3.041   7.857   4.268 -0.1515  0.1546  0.0642
 8655SOL    HW127406   3.105   7.826   4.204  0.0898  1.6043 -0.4193
 8655SOL    HW227407   2.956   7.826   4.235  0.0482  0.3021 -0.5856
 8656SOL     OW27408   1.747   4.712   5.209 -0.3386  0.0123  0.2725
 8656SOL    HW127409   1.715   4.744   5.294 -1.7174 -0.8116  0.0800
 8656SOL    HW227410   1.705   4.769   5.145 -3.1663 -2.2653 -0.1059
 8657SOL     OW27411   6.375   3.579  11.847  0.2586 -0.8134 -0.1616
 8657SOL    HW127412   6.440   3.520  11.807  1.6968 -0.4479  1.5060
 8657SOL    HW227413   6.352   3.640  11.777  1.3319 -1.2721 -0.9427
 8658SOL     OW27414   4.776   1.625   0.465 -0.1298 -0.1753 -0.1515
 8658SOL    HW127415   4.690   1.627   0.506 -0.9513  1.3487 -1.7901
 8658SOL    HW227416   4.760   1.653   0.374  2.1061  0.2992 -0.4608
 8659SOL     OW27417   6.814   5.746   9.955 -0.1187  0.2319 -0.5920
 8659SOL    HW127418   6.878   5.805   9.995 -0.4109  1.2449 -1.5499
 8659SOL    HW227419   6.866   5.685   9.904  0.2477 -0.9596  1.1123
 8660SOL     OW27420   6.078   3.672  11.180  0.0314  0.1225 -0.1237
 8660SOL    HW127421   6.160   3.623  11.179  0.6353  1.1241 -0.3654
 8660SOL    HW227422   6.077   3.717  11.264 -0.6906 -0.5703  0.2479
 8661SOL     OW27423   3.786   5.100   3.948 -0.0005  0.3376  0.0470
 8661SOL    HW127424   3.735   5.022   3.929  0.7350 -0.3667  0.8774
 8661SOL    HW227425   3.861   5.095   3.888  0.8929 -0.4662  1.1809
 8662SOL     OW27426   7.325   3.608   7.200  0.5582 -0.6814 -0.0467
 8662SOL    HW127427   7.237   3.577   7.218  0.4965 -0.7323 -0.4300
 8662SOL    HW227428   7.344   3.577   7.112  0.1903  0.9908 -0.7667
 8663SOL     OW27429   0.455   7.138  11.001 -0.0732  0.2383 -0.2435
 8663SOL    HW127430   0.430   7.122  11.092  1.1483 -0.0727  0.0670
 8663SOL    HW227431   0.551   7.147  11.005 -0.1333  1.7115 -1.2812
 8664SOL     OW27432   6.568   7.559   9.962  0.4954 -0.0400  0.3407
 8664SOL    HW127433   6.524   7.636   9.998  0.4784  0.5686 -0.9302
 8664SOL    HW227434   6.540   7.487  10.019 -0.4208  0.6872  0.8490
 8665SOL     OW27435   5.297   6.018   9.185  0.4176  0.1706 -0.0819
 8665SOL    HW127436   5.300   6.110   9.209  0.5982  0.3552 -0.7719
 8665SOL    HW227437   5.207   6.004   9.156 -0.3801 -0.5521  2.5133
 8666SOL     OW27438   6.877   4.472   8.794 -0.2919  0.0401  0.1460
 8666SOL    HW127439   6.880   4.408   8.723  1.7979  0.5973 -0.3360
 8666SOL    HW227440   6.968   4.501   8.804 -0.7538  0.9562  2.1672
 8667SOL     OW27441   3.961   4.617  11.269 -0.7372  0.1547 -0.4800
 8667SOL    HW127442   3.958   4.634  11.175  0.4969 -0.0826 -0.5858
 8667SOL    HW227443   4.005   4.532  11.276 -1.2503 -0.0566  0.2926
 8668SOL     OW27444   7.077   5.747  11.095 -0.5540 -0.7364  0.0449
 8668SOL    HW127445   7.122   5.696  11.162 -0.5137 -0.7204  0.0298
 8668SOL    HW227446   7.142   5.760  11.026 -0.5746 -0.6949  0.0327
 8669SOL     OW27447   0.951   7.034  11.912 -0.0957 -0.3774  0.4041
 8669SOL    HW127448   0.929   7.108  11.855 -0.1550 -0.8199 -0.1676
 8669SOL    HW227449   0.898   7.047  11.990 -0.7263 -0.2547 -0.0368
 8670SOL     OW27450   3.271   4.791   7.103 -0.2591 -0.1339 -0.2435
 8670SOL    HW127451   3.329   4.865   7.123 -0.7255  1.0875 -2.9464
 8670SOL    HW227452   3.190   4.811   7.150  0.7394 -0.8782  1.9860
 8671SOL     OW27453   7.474   0.097   3.548 -0.1668  0.2070 -0.0625
 8671SOL    HW127454   7.565   0.083   3.523 -0.0776  0.5193  0.0831
 8671SOL    HW227455   7.444   0.168   3.491  0.1180  1.1155  0.8649
 8672SOL     OW27456   2.089   7.012   0.835 -0.4211  0.1747  0.3702
 8672SOL    HW127457   2.106   7.099   0.798  0.4465 -0.0407  0.2524
 8672SOL    HW227458   2.063   7.030   0.926  0.9100  0.4943  0.6993
 8673SOL     OW27459   7.509   0.369   9.725 -0.5131 -0.0979  0.5290
 8673SOL    HW127460   7.550   0.283   9.735  0.1324  0.1782  0.3570
 8673SOL    HW227461   7.477   0.370   9.634 -0.7672 -0.2584  0.6170
 8674SOL     OW27462   4.941   5.739   9.372 -0.2499 -0.5575  0.1330
 8674SOL    HW127463   5.001   5.703   9.306  1.4282 -2.0429  2.3383
 8674SOL    HW227464   4.989   5.812   9.411 -1.1489  0.1802 -0.1030
 8675SOL     OW27465   1.211   3.586   4.853  0.4268 -0.2077 -0.2243
 8675SOL    HW127466   1.134   3.578   4.797 -0.3886  0.5051  0.7653
 8675SOL    HW227467   1.176   3.595   4.942  1.6245  0.6380  0.1962
 8676SOL     OW27468   5.114   3.936  11.138  0.2572  0.4593  0.3059
 8676SOL    HW127469   5.055   3.951  11.064  0.5498 -0.7737 -0.2168
 8676SOL    HW227470   5.062   3.957  11.215 -0.7698 -0.2890 -0.1622
 8677SOL     OW27471   5.684   3.799   1.770 -0.1719 -0.5017 -0.2634
 8677SOL    HW127472   5.623   3.788   1.698  0.4616 -0.0250 -0.8892
 8677SOL    HW227473   5.686   3.714   1.814 -1.9390 -0.2804  0.3102
 8678SOL     OW27474   2.779   0.840   0.865 -0.1149  0.1273  0.3055
 8678SOL    HW127475   2.700   0.830   0.812  0.3665  0.5370 -0.5309
 8678SOL    HW227476   2.849   0.853   0.800  0.6371 -0.2366  1.0224
 8679SOL     OW27477   5.431   0.276   8.486  0.3738  0.4272  0.4586
 8679SOL    HW127478   5.454   0.184   8.469 -0.5188  0.0049  1.4068
 8679SOL    HW227479   5.498   0.326   8.440  1.5758 -0.7069  0.9026
 8680SOL     OW27480   0.685   0.894   9.227  0.5629 -0.2166 -0.2918
 8680SOL    HW127481   0.597   0.925   9.250  0.3285 -1.2714  0.3273
 8680SOL    HW227482   0.728   0.970   9.189 -1.0691 -0.0185 -1.9142
 8681SOL     OW27483   0.708   3.060   8.310  0.2516  0.2528  0.0582
 8681SOL    HW127484   0.724   2.968   8.291  1.2291  0.2384  0.8316
 8681SOL    HW227485   0.613   3.067   8.318  0.1870 -0.7855  0.4235
 8682SOL     OW27486   6.339   1.701  11.967  0.5335  0.2409  0.1067
 8682SOL    HW127487   6.245   1.685  11.979  0.4333  1.8975  2.1301
 8682SOL    HW227488   6.381   1.621  11.998 -0.1790  0.5778  2.1461
 8683SOL     OW27489   5.369   2.035  12.268 -0.0983 -0.3019  1.0242
 8683SOL    HW127490   5.330   2.098  12.329 -1.5339  0.0876 -0.2115
 8683SOL    HW227491   5.406   2.090  12.199  1.5165 -0.7346  1.5184
 8684SOL     OW27492   4.878   6.498   9.530  0.1616 -0.3173 -1.2154
 8684SOL    HW127493   4.796   6.454   9.552  0.8625 -1.6959 -1.2327
 8684SOL    HW227494   4.860   6.591   9.545 -0.7613 -0.7592  0.7918
 8685SOL     OW27495   3.170   6.809   7.298 -0.5807 -0.6803  0.2183
 8685SOL    HW127496   3.249   6.758   7.280 -0.1378  0.4763 -1.3286
 8685SOL    HW227497   3.131   6.823   7.212 -0.4417  1.9325  0.5156
 8686SOL     OW27498   2.587   3.285   0.148  0.1246 -0.0206 -0.0927
 8686SOL    HW127499   2.494   3.263   0.142  0.3120 -1.6014  1.7654
 8686SOL    HW227500   2.590   3.379   0.133 -1.9888  0.3344  1.1844
 8687SOL     OW27501   0.944   3.927   1.545  0.5765  0.2173 -0.2381
 8687SOL    HW127502   1.016   3.984   1.572  0.0899  1.8949 -2.2394
 8687SOL    HW227503   0.873   3.949   1.605  0.4786  1.5914 -0.8089
 8688SOL     OW27504   7.550   5.905   1.992  0.3189  0.5710 -0.0599
 8688SOL    HW127505   7.614   5.871   2.055  1.5252  0.2107 -1.4409
 8688SOL    HW227506   7.555   6.000   2.003  1.3793  0.5704 -0.4069
 8689SOL     OW27507   0.980   5.163   1.503 -0.0784  0.4992 -0.1045
 8689SOL    HW127508   0.986   5.084   1.557  0.6386  0.7899  0.2544
 8689SOL    HW227509   1.070   5.182   1.478 -0.4007  0.3374 -1.4734
 8690SOL     OW27510   7.678   0.166   5.040  0.0871  0.1600 -0.0789
 8690SOL    HW127511   7.648   0.209   5.120 -0.3167  1.5892 -0.9620
 8690SOL    HW227512   7.602   0.166   4.982  0.7784  0.5635 -1.0170
 8691SOL     OW27513   4.716   4.516   0.413  0.5436 -1.0765  0.0667
 8691SOL    HW127514   4.656   4.557   0.475 -0.4754 -0.3147 -1.3570
 8691SOL    HW227515   4.777   4.466   0.468  1.2875  1.5620  1.8363
 8692SOL     OW27516   2.438   4.373   5.673 -0.0194  0.0691  0.2038
 8692SOL    HW127517   2.529   4.363   5.646 -0.2523 -1.6115 -0.0998
 8692SOL    HW227518   2.403   4.284   5.672 -1.9502  0.7862 -0.6477
 8693SOL     OW27519   4.507   4.450   8.555  0.5695 -0.3120 -0.1678
 8693SOL    HW127520   4.541   4.507   8.623 -0.2283 -1.3485  1.1586
 8693SOL    HW227521   4.493   4.366   8.599 -1.5144 -0.5708 -1.1827
 8694SOL     OW27522   3.932   4.674   2.709 -0.0764  0.0066  0.2660
 8694SOL    HW127523   3.989   4.751   2.719  0.4922 -0.4949  1.1080
 8694SOL    HW227524   3.859   4.690   2.769 -0.6524  0.4873 -0.5491
 8695SOL     OW27525   6.426   4.832   6.901 -0.0266 -0.3627 -0.4308
 8695SOL    HW127526   6.422   4.912   6.848  0.5563  0.1907  0.3328
 8695SOL    HW227527   6.335   4.817   6.928 -0.6789 -1.6854 -3.0111
 8696SOL     OW27528   0.796   0.019  10.281  0.2491 -0.5003 -0.4389
 8696SOL    HW127529   0.769   0.099  10.235 -0.2069 -0.4923 -0.1654
 8696SOL    HW227530   0.837   0.051  10.361 -0.2532 -0.5392 -0.1581
 8697SOL     OW27531   4.469   5.080   8.067 -0.1716  0.2204 -0.3046
 8697SOL    HW127532   4.442   4.990   8.047 -0.6831 -0.0665  1.4191
 8697SOL    HW227533   4.429   5.133   7.999  0.3247 -0.8611 -1.4887
 8698SOL     OW27534   5.894   6.552  10.417  0.3966 -0.1581 -0.6421
 8698SOL    HW127535   5.815   6.589  10.457 -0.1599 -0.4058 -1.4729
 8698SOL    HW227536   5.890   6.459  10.439  1.2854  0.0679  0.6185
 8699SOL     OW27537   1.084   0.328  10.974  0.2348  0.2119 -0.3675
 8699SOL    HW127538   1.053   0.415  10.996 -1.6984 -0.5590  0.1781
 8699SOL    HW227539   1.114   0.335  10.883 -1.2069  1.1342 -0.7959
 8700SOL     OW27540   0.222   0.555   6.073  0.1908 -0.0227 -0.2707
 8700SOL    HW127541   0.178   0.479   6.111  0.6323 -0.7759 -1.2184
 8700SOL    HW227542   0.277   0.589   6.144 -0.2072 -0.4179  0.2357
 8701SOL     OW27543   2.166   5.064   2.266  0.2886  0.3930  0.0714
 8701SOL    HW127544   2.201   4.990   2.216  0.2626 -0.3679  1.1588
 8701SOL    HW227545   2.085   5.087   2.221  0.2302 -0.3279 -0.2005
 8702SOL     OW27546   5.018   1.879   7.851  0.1153 -0.0473 -0.0848
 8702SOL    HW127547   4.953   1.914   7.790  0.4055  0.3143 -0.1869
 8702SOL    HW227548   5.102   1.915   7.821  0.7689 -2.5601 -1.5731
 8703SOL     OW27549   4.574   2.714   0.979 -0.4627 -0.2988  0.0548
 8703SOL    HW127550   4.600   2.651   0.911  0.1875 -0.3471  0.3376
 8703SOL    HW227551   4.520   2.662   1.039 -1.7525 -0.0502 -0.8621
 8704SOL     OW27552   3.577   2.152   6.071 -0.0643  0.3509 -0.2979
 8704SOL    HW127553   3.523   2.175   6.147  1.0218  0.3515  0.4858
 8704SOL    HW227554   3.626   2.232   6.051  0.2199  0.1203 -0.5246
 8705SOL     OW27555   1.474   1.869   5.178 -0.5138  0.8164  0.2818
 8705SOL    HW127556   1.498   1.834   5.092  1.1274 -1.4899  1.5820
 8705SOL    HW227557   1.386   1.904   5.166 -1.0653 -1.1228 -1.9032
 8706SOL     OW27558   1.848   5.855   8.708  0.4908 -0.4644 -0.0189
 8706SOL    HW127559   1.915   5.880   8.644 -1.4962 -1.2716 -2.5994
 8706SOL    HW227560   1.854   5.760   8.714  2.4088 -0.2809  3.2261
 8707SOL     OW27561   2.688   1.006   7.212  0.2168 -0.0138  0.0743
 8707SOL    HW127562   2.750   1.073   7.182  0.4920  0.8840  2.4425
 8707SOL    HW227563   2.742   0.941   7.257 -0.4171  0.3738  1.4657
 8708SOL     OW27564   7.981   0.543   8.297 -0.0799  0.2094  0.3569
 8708SOL    HW127565   7.891   0.520   8.320  0.4455 -1.4333  0.9747
 8708SOL    HW227566   8.015   0.464   8.255  0.7543  1.1832 -0.8445
 8709SOL     OW27567   3.058   6.658   1.095 -0.2333  0.0038 -0.1224
 8709SOL    HW127568   3.003   6.602   1.040 -0.2869 -0.8088  0.7334
 8709SOL    HW227569   3.147   6.628   1.080  0.1376  1.8548 -2.1340
 8710SOL     OW27570   2.001   5.899   4.654  0.6126  0.4013  0.4450
 8710SOL    HW127571   2.021   5.989   4.628  2.1551 -0.2185 -0.6961
 8710SOL    HW227572   1.925   5.874   4.602  1.4843  0.3642 -0.8440
 8711SOL     OW27573   7.917   0.436   2.444  0.7343  0.1404  0.0284
 8711SOL    HW127574   7.828   0.417   2.414  1.2699 -0.0679 -1.5117
 8711SOL    HW227575   7.956   0.350   2.458  1.1095  0.1940 -0.6355
 8712SOL     OW27576   0.341   3.804  12.406 -0.0009 -0.0476  0.3945
 8712SOL    HW127577   0.391   3.759  12.473 -0.2283  1.1360  1.3890
 8712SOL    HW227578   0.269   3.745  12.386  0.7535 -0.9515  0.2762
 8713SOL     OW27579   7.525   5.117   2.197  0.0490 -0.1099 -0.0130
 8713SOL    HW127580   7.508   5.129   2.104  0.3634  1.4689  0.1085
 8713SOL    HW227581   7.438   5.106   2.235 -0.1222 -0.1995 -0.4216
 8714SOL     OW27582   7.938   6.877   7.049 -0.3541 -0.0234  0.0169
 8714SOL    HW127583   7.934   6.954   6.992 -0.4860  0.4274  0.6257
 8714SOL    HW227584   8.028   6.845   7.039 -0.1930  0.4128  0.0272
 8715SOL     OW27585   3.792   6.360   6.010 -0.0005 -0.7008  0.3968
 8715SOL    HW127586   3.739   6.285   6.037 -2.5340  0.8426  0.0504
 8715SOL    HW227587   3.802   6.349   5.915 -2.9738  0.7809 -0.2124
 8716SOL     OW27588   4.715   4.884   1.185  0.3443  0.2474 -0.1711
 8716SOL    HW127589   4.653   4.925   1.125 -0.0976  0.5153  0.4570
 8716SOL    HW227590   4.801   4.907   1.150  0.0985  0.7583 -0.4565
 8717SOL     OW27591   5.020   5.073  10.291 -0.2023 -0.3242  0.6340
 8717SOL    HW127592   5.093   5.023  10.253  0.1307 -1.1042  2.2257
 8717SOL    HW227593   4.991   5.020  10.365 -1.7240  0.4919  0.6539
 8718SOL     OW27594   5.209   0.460   0.173 -0.3488 -0.3753  0.0833
 8718SOL    HW127595   5.154   0.523   0.220 -0.4623 -1.4359  1.4210
 8718SOL    HW227596   5.291   0.458   0.223 -0.1152 -0.8255 -0.3103
 8719SOL     OW27597   7.453   6.150   6.496 -0.7221 -0.5921  0.4697
 8719SOL    HW127598   7.463   6.231   6.445 -0.6575 -0.4016  0.7763
 8719SOL    HW227599   7.403   6.177   6.574 -0.9550 -0.9090  0.4319
 8720SOL     OW27600   0.875   4.250   4.347  0.0456  0.2233 -0.1935
 8720SOL    HW127601   0.806   4.194   4.311  1.3422 -0.8997 -1.0125
 8720SOL    HW227602   0.858   4.336   4.309 -1.3632  0.1590  0.2518
 8721SOL     OW27603   1.635   4.874   5.407  0.5758  0.4948 -0.1391
 8721SOL    HW127604   1.566   4.924   5.451 -0.5569 -0.2917 -0.9684
 8721SOL    HW227605   1.675   4.822   5.477  2.1784  2.9109  0.8596
 8722SOL     OW27606   5.311   4.791   2.773  0.3153 -0.0746 -0.0026
 8722SOL    HW127607   5.367   4.847   2.827 -0.9409  0.1237  1.1368
 8722SOL    HW227608   5.319   4.704   2.812  0.2574 -0.1643 -0.1893
 8723SOL     OW27609   0.346   4.937   0.437  0.1533 -0.0219  0.2461
 8723SOL    HW127610   0.347   5.030   0.457  2.3296  0.2140 -0.6708
 8723SOL    HW227611   0.318   4.932   0.346 -1.2923 -0.4024  0.6891
 8724SOL     OW27612   2.027   2.749   8.407 -0.2690 -0.3782  0.8275
 8724SOL    HW127613   2.087   2.684   8.443  0.7758 -0.0582 -0.2697
 8724SOL    HW227614   2.081   2.803   8.350 -1.3520  0.7461  0.8207
 8725SOL     OW27615   7.361   7.172   4.911  0.3462  0.0620  0.2811
 8725SOL    HW127616   7.391   7.086   4.940 -1.5776 -0.6114  0.3536
 8725SOL    HW227617   7.318   7.209   4.988 -1.4138 -0.1509 -0.5619
 8726SOL     OW27618   0.102   4.449  12.339 -0.0392  0.6442  0.2788
 8726SOL    HW127619   0.111   4.467  12.433  0.6013 -1.9298  0.7978
 8726SOL    HW227620   0.013   4.417  12.329 -0.8645  2.9710 -0.4606
 8727SOL     OW27621   3.335   1.383   1.659  0.3192 -0.4267 -0.0291
 8727SOL    HW127622   3.366   1.422   1.577  0.3008 -1.6436 -0.6323
 8727SOL    HW227623   3.280   1.451   1.698  2.6826  1.3197  0.4716
 8728SOL     OW27624   4.185   6.477   7.493 -0.2192  0.1477 -0.0349
 8728SOL    HW127625   4.110   6.519   7.534 -0.7431  0.1431 -0.9671
 8728SOL    HW227626   4.165   6.476   7.400 -0.0951 -1.8998 -0.0933
 8729SOL     OW27627   5.317   0.988   1.914 -0.1782  0.0741  0.6842
 8729SOL    HW127628   5.230   1.022   1.897 -0.6727 -0.0994  2.6200
 8729SOL    HW227629   5.303   0.902   1.954  0.9588 -0.8638 -0.7980
 8730SOL     OW27630   1.885   3.740  12.275  0.1223  0.1318  0.1128
 8730SOL    HW127631   1.855   3.743  12.185  3.4019 -0.5675 -1.1603
 8730SOL    HW227632   1.887   3.647  12.297  1.2728  0.1392  0.1177
 8731SOL     OW27633   6.932   7.841   5.712  0.3878 -0.3110  0.3541
 8731SOL    HW127634   6.906   7.817   5.801  1.1469  1.5477  1.1284
 8731SOL    HW227635   6.849   7.851   5.665 -0.0066 -3.0458  0.2710
 8732SOL     OW27636   4.645   6.813   5.516  0.2989  0.0836  0.2159
 8732SOL    HW127637   4.611   6.735   5.560 -0.4544 -1.3055 -2.5563
 8732SOL    HW227638   4.740   6.801   5.514  0.2247 -0.5424  0.2454
 8733SOL     OW27639   5.003   4.030   9.911  0.4483 -0.5907 -0.1485
 8733SOL    HW127640   5.008   4.077   9.994  1.7885 -0.6187 -0.2005
 8733SOL    HW227641   4.930   3.969   9.923 -0.3229  0.4093  0.4628
 8734SOL     OW27642   3.692   5.652   1.071  0.4907  0.1908 -0.2972
 8734SOL    HW127643   3.748   5.729   1.055  1.0074  0.0208  0.6249
 8734SOL    HW227644   3.634   5.679   1.141  1.4558 -0.6202  0.8515
 8735SOL     OW27645   3.843   5.523  12.353  0.8822 -0.5753  0.0171
 8735SOL    HW127646   3.813   5.538  12.443  0.3069 -0.4291 -0.1981
 8735SOL    HW227647   3.785   5.456  12.319  1.1136 -0.6449 -0.2424
 8736SOL     OW27648   7.723   3.405   7.047  0.0707  0.1555 -0.1324
 8736SOL    HW127649   7.800   3.369   7.092 -0.6233 -1.0998  0.0975
 8736SOL    HW227650   7.759   3.471   6.988  1.2994 -0.1752  0.2165
 8737SOL     OW27651   5.970   7.739   6.963 -0.1281 -0.1712 -0.0771
 8737SOL    HW127652   5.973   7.690   6.881 -1.7540 -0.9459  0.3019
 8737SOL    HW227653   5.904   7.695   7.016  1.3773 -0.1408  1.9599
 8738SOL     OW27654   1.886   7.240   6.469 -0.0689  0.0894 -0.1503
 8738SOL    HW127655   1.939   7.176   6.516 -0.8678 -0.3094  0.2472
 8738SOL    HW227656   1.888   7.211   6.378  0.1177 -0.1226 -0.0795
 8739SOL     OW27657   0.767   0.965  10.328  0.1403 -0.4972 -0.2215
 8739SOL    HW127658   0.763   0.951  10.233  0.6389 -2.4231 -0.0009
 8739SOL    HW227659   0.844   0.915  10.356  0.5938  0.8679  1.0804
 8740SOL     OW27660   7.873   7.950   8.780 -0.0196  0.1894 -0.1565
 8740SOL    HW127661   7.911   8.037   8.793 -2.8217  1.8822 -2.0978
 8740SOL    HW227662   7.801   7.946   8.842  0.0812 -0.7834 -0.0896
 8741SOL     OW27663   1.779   6.894   6.416  0.1204 -0.9176  0.0793
 8741SOL    HW127664   1.707   6.901   6.478 -1.0054 -1.9967 -1.0347
 8741SOL    HW227665   1.747   6.938   6.337  0.9302 -0.8637 -0.2313
 8742SOL     OW27666   0.229   3.618   8.022 -0.0886  0.1971  0.3816
 8742SOL    HW127667   0.178   3.607   8.102  0.2198  0.8848  0.6780
 8742SOL    HW227668   0.164   3.638   7.955 -0.6574 -2.8162 -0.1115
 8743SOL     OW27669   2.474   7.753   8.905  0.7475 -0.3123 -0.0155
 8743SOL    HW127670   2.528   7.791   8.974 -1.8224  1.8156  0.9825
 8743SOL    HW227671   2.496   7.803   8.826  1.8670 -1.0630 -0.2081
 8744SOL     OW27672   5.938   5.201   9.040  0.0085  0.2693 -0.2298
 8744SOL    HW127673   5.891   5.127   9.077 -0.3370 -0.4167 -1.9490
 8744SOL    HW227674   5.896   5.278   9.080  0.3283 -0.4158  1.5132
 8745SOL     OW27675   6.568   3.322   9.027  0.4326  0.8775 -0.1548
 8745SOL    HW127676   6.516   3.400   9.006 -1.2851 -0.1082  0.2673
 8745SOL    HW227677   6.508   3.249   9.016  1.6568 -0.3052  0.6415
 8746SOL     OW27678   6.176   0.090   0.892  0.4692  0.1915 -0.3224
 8746SOL    HW127679   6.233   0.094   0.815  1.2269 -0.1330  0.2138
 8746SOL    HW227680   6.223   0.035   0.954  0.3230  1.2208  0.7415
 8747SOL     OW27681   4.343   5.910   6.695 -0.2263 -0.0629 -0.2130
 8747SOL    HW127682   4.411   5.842   6.690 -0.9855 -0.8011 -0.8533
 8747SOL    HW227683   4.313   5.906   6.785  1.4749  1.1992  0.4663
 8748SOL     OW27684   4.631   4.259   9.383 -0.0177 -0.2394  0.5017
 8748SOL    HW127685   4.697   4.221   9.440  0.2031 -1.1546 -0.3350
 8748SOL    HW227686   4.631   4.202   9.306 -0.3536  0.9261 -0.3745
 8749SOL     OW27687   2.006   4.487  10.921 -0.1738  0.1772 -0.4904
 8749SOL    HW127688   2.032   4.570  10.959  1.6251 -0.4245 -0.2930
 8749SOL    HW227689   1.941   4.452  10.981  1.1417  0.1730  0.9899
 8750SOL     OW27690   2.994   2.665  10.474  0.5063 -0.1126 -0.2787
 8750SOL    HW127691   3.089   2.657  10.461  0.3030 -1.8256 -1.0116
 8750SOL    HW227692   2.984   2.683  10.568  1.5387  0.0012 -0.1742
 8751SOL     OW27693   1.956   2.448   9.305  0.6197  0.2639  0.6799
 8751SOL    HW127694   1.992   2.498   9.378  1.0382  0.3186  0.4407
 8751SOL    HW227695   1.862   2.460   9.311  0.7261  1.2504  0.5126
 8752SOL     OW27696   2.765   4.453   9.143 -0.2103  0.2476 -0.0292
 8752SOL    HW127697   2.818   4.510   9.088 -0.7271  0.5339 -0.2466
 8752SOL    HW227698   2.801   4.463   9.231  1.6580 -1.4368 -0.5339
 8753SOL     OW27699   5.714   6.701   9.995  0.7368  0.3712  0.3451
 8753SOL    HW127700   5.746   6.751  10.070  2.1262  0.5712 -0.3562
 8753SOL    HW227701   5.759   6.617  10.000 -0.6902 -0.4112  0.8355
 8754SOL     OW27702   2.790   0.974   1.802  0.5766  0.0001  0.4012
 8754SOL    HW127703   2.859   0.965   1.868  2.1039  0.2899 -1.0762
 8754SOL    HW227704   2.811   0.907   1.737 -0.1827  0.5087 -0.3848
 8755SOL     OW27705   2.842   5.103   6.973 -0.2865 -0.1122 -0.2871
 8755SOL    HW127706   2.749   5.113   6.950 -0.4189  4.3235  1.2195
 8755SOL    HW227707   2.840   5.073   7.064 -0.3431  0.9541  0.0807
 8756SOL     OW27708   6.997   2.263   7.955 -0.6007  0.1950 -0.4792
 8756SOL    HW127709   6.943   2.184   7.966 -0.8818  0.3652 -0.6285
 8756SOL    HW227710   6.984   2.313   8.035  1.1614 -0.8489  0.5235
 8757SOL     OW27711   5.723   0.728   1.126 -0.0121  0.6429  0.1712
 8757SOL    HW127712   5.709   0.819   1.100 -2.3272 -0.0134 -1.1894
 8757SOL    HW227713   5.734   0.731   1.221 -0.3838  2.3159  0.1889
 8758SOL     OW27714   7.758   4.943  10.447 -0.1118 -0.5645  0.4776
 8758SOL    HW127715   7.675   4.901  10.424  0.2464 -0.7920 -0.4310
 8758SOL    HW227716   7.753   4.956  10.542 -0.5917 -1.8753  0.6487
 8759SOL     OW27717   4.478   7.871   8.100 -0.4478  0.0476 -0.0266
 8759SOL    HW127718   4.499   7.780   8.122  0.0728 -0.3437 -1.9362
 8759SOL    HW227719   4.563   7.911   8.083 -0.7347  0.6807  0.0141
 8760SOL     OW27720   7.202   6.089   0.303  0.2323 -0.4180  0.4064
 8760SOL    HW127721   7.163   6.039   0.375  1.7067 -0.2462  1.3702
 8760SOL    HW227722   7.220   6.176   0.341 -0.4747  0.2224 -0.6649
 8761SOL     OW27723   0.830   5.565   2.936  0.5045  0.2484 -0.4368
 8761SOL    HW127724   0.900   5.502   2.918  0.8765  0.1923  1.1152
 8761SOL    HW227725   0.802   5.546   3.025 -0.1867  1.5216 -0.3522
 8762SOL     OW27726   7.659   7.693   9.705 -0.1488  0.1845 -0.2610
 8762SOL    HW127727   7.573   7.735   9.704 -1.3586 -2.1168 -1.4068
 8762SOL    HW227728   7.644   7.607   9.667  2.3967 -0.8698  0.8611
 8763SOL     OW27729   5.998   0.756  12.216 -0.0111 -0.3299  0.5418
 8763SOL    HW127730   6.061   0.698  12.259  0.0004 -0.4293  0.3915
 8763SOL    HW227731   5.980   0.824  12.281  2.1981  1.1671 -0.2864
 8764SOL     OW27732   6.972   4.362   7.157  0.9516 -0.3733  0.2378
 8764SOL    HW127733   6.886   4.338   7.190 -0.0683  1.5941 -0.7885
 8764SOL    HW227734   6.955   4.400   7.071  3.1290 -2.1152 -1.0747
 8765SOL     OW27735   4.958   0.724  10.347 -0.0659  0.6225  0.1780
 8765SOL    HW127736   5.043   0.734  10.391  1.2888 -1.1956 -1.8015
 8765SOL    HW227737   4.956   0.632  10.319 -3.2740  0.2595  1.1754
 8766SOL     OW27738   2.970   4.803  11.215 -0.1257 -0.0365 -0.0636
 8766SOL    HW127739   2.887   4.757  11.204 -0.1519 -0.2506  0.8730
 8766SOL    HW227740   3.026   4.740  11.261  1.8405 -1.3093 -3.8252
 8767SOL     OW27741   0.775   1.199  12.299 -0.2539 -0.0055 -0.4617
 8767SOL    HW127742   0.866   1.225  12.287 -0.1669 -0.0931  0.0069
 8767SOL    HW227743   0.740   1.260  12.364 -0.2866 -0.4990 -0.0059
 8768SOL     OW27744   6.548   2.886   4.124  0.0760 -0.5475  0.1009
 8768SOL    HW127745   6.486   2.851   4.060 -0.1889  1.2287 -0.6717
 8768SOL    HW227746   6.494   2.927   4.191  0.3690  0.2433 -0.1258
 8769SOL     OW27747   1.549   1.878  11.514  0.3047 -0.7416 -0.4416
 8769SOL    HW127748   1.625   1.871  11.457 -0.0208 -2.7137 -0.7009
 8769SOL    HW227749   1.483   1.821  11.475 -0.0538 -1.9048  1.6582
 8770SOL     OW27750   1.699   7.570  10.592  0.0229  0.4511  0.0523
 8770SOL    HW127751   1.726   7.579  10.501 -1.7479 -0.7674 -0.6579
 8770SOL    HW227752   1.705   7.659  10.628  0.1000  1.0840 -1.4440
 8771SOL     OW27753   7.879   6.402   4.347  0.1543  0.1619  0.0177
 8771SOL    HW127754   7.904   6.370   4.434 -0.4447 -1.4725 -0.3819
 8771SOL    HW227755   7.895   6.497   4.351  0.6704  0.0353  1.7139
 8772SOL     OW27756   6.429   4.459   5.537 -0.2113 -0.4380  0.6972
 8772SOL    HW127757   6.394   4.371   5.524  0.3562 -0.4217 -1.2861
 8772SOL    HW227758   6.378   4.514   5.478  1.5166 -0.0192 -0.4821
 8773SOL     OW27759   0.631   7.667  10.635 -0.1966  0.4644 -0.3623
 8773SOL    HW127760   0.696   7.601  10.612 -0.6696 -0.6595  1.3431
 8773SOL    HW227761   0.582   7.683  10.554  0.1315 -1.0397 -0.8785
 8774SOL     OW27762   1.553   7.854   3.367 -0.5053  0.3365  0.4267
 8774SOL    HW127763   1.560   7.796   3.442  1.7693  0.2325  0.1999
 8774SOL    HW227764   1.473   7.904   3.383 -2.2101 -2.3501  0.9377
 8775SOL     OW27765   3.508   1.248  10.580 -1.0282 -0.2537 -0.4339
 8775SOL    HW127766   3.520   1.274  10.671 -0.3582 -0.3006 -0.5005
 8775SOL    HW227767   3.510   1.329  10.531  1.2394 -0.3709 -0.6608
 8776SOL     OW27768   2.800   3.243  10.148  0.3365 -0.2329  0.0987
 8776SOL    HW127769   2.809   3.291  10.065  1.3777 -0.9725 -0.2506
 8776SOL    HW227770   2.846   3.160  10.132 -0.1908 -0.7418  1.1448
 8777SOL     OW27771   7.492   4.807   5.216 -0.3867  0.2960 -0.4868
 8777SOL    HW127772   7.419   4.833   5.272 -1.2406  0.2551 -1.5448
 8777SOL    HW227773   7.451   4.775   5.136  0.8005  0.9055 -1.3820
 8778SOL     OW27774   2.675   2.649   4.806 -0.4443 -0.4070 -0.4535
 8778SOL    HW127775   2.753   2.656   4.861 -0.4306 -1.1433 -0.3736
 8778SOL    HW227776   2.602   2.659   4.867 -0.4682  2.8624 -0.8414
 8779SOL     OW27777   5.656   6.139   5.753  0.5713  0.5061  0.2599
 8779SOL    HW127778   5.583   6.093   5.710  0.4625  0.9128  0.0064
 8779SOL    HW227779   5.680   6.081   5.825  1.3670 -0.6426 -0.8741
 8780SOL     OW27780   7.461   2.776   2.921  0.8736  0.6910  0.2189
 8780SOL    HW127781   7.446   2.808   2.832 -1.3105 -1.3827 -0.2719
 8780SOL    HW227782   7.446   2.682   2.916 -0.0345  0.5810  2.8933
 8781SOL     OW27783   3.023   5.815   8.759 -0.3815 -0.2960 -0.2962
 8781SOL    HW127784   3.040   5.876   8.688 -1.4369 -2.2219 -2.3108
 8781SOL    HW227785   2.938   5.840   8.793  0.4664  1.1253  0.9167
 8782SOL     OW27786   6.224   6.782   9.589 -0.5655  0.4219 -0.1182
 8782SOL    HW127787   6.314   6.809   9.571  0.3666 -1.7303  0.9243
 8782SOL    HW227788   6.192   6.748   9.506 -0.1033  0.3762 -0.2796
 8783SOL     OW27789   2.509   4.322   3.692 -0.0038  0.3609  0.1709
 8783SOL    HW127790   2.500   4.391   3.758 -2.5779  0.9922 -0.7457
 8783SOL    HW227791   2.581   4.267   3.725  1.7167  3.0489  1.2667
 8784SOL     OW27792   7.125   4.585   8.811  0.1773 -0.2104 -0.2099
 8784SOL    HW127793   7.139   4.661   8.755  1.7243  0.7996  1.4194
 8784SOL    HW227794   7.211   4.544   8.818 -0.3547 -1.3146  0.0199
 8785SOL     OW27795   7.379   4.947   7.375 -0.0133  0.3105  0.6647
 8785SOL    HW127796   7.473   4.935   7.390 -0.1724 -0.2184  1.2772
 8785SOL    HW227797   7.351   4.866   7.333  0.0040  0.9026 -0.5244
 8786SOL     OW27798   1.047   3.217   6.462  0.7670 -0.0518 -0.0333
 8786SOL    HW127799   1.121   3.259   6.419  0.8924 -0.8426 -0.6144
 8786SOL    HW227800   1.025   3.275   6.535  0.3052  1.5185 -1.3809
 8787SOL     OW27801   4.322   0.795   6.807 -0.0244 -0.3684 -0.3154
 8787SOL    HW127802   4.283   0.817   6.891  1.1365 -0.9590  0.4043
 8787SOL    HW227803   4.323   0.877   6.757  0.8003  0.3756  0.8817
 8788SOL     OW27804   2.124   7.662   8.076 -0.2643 -0.1238  0.2217
 8788SOL    HW127805   2.175   7.688   8.153  0.7162  2.8756 -1.2503
 8788SOL    HW227806   2.141   7.732   8.012 -2.6691 -1.3837 -1.9847
 8789SOL     OW27807   6.786   7.842  11.930 -0.1260  0.2890 -0.1025
 8789SOL    HW127808   6.715   7.861  11.870  0.9680 -0.8826 -1.8569
 8789SOL    HW227809   6.778   7.908  11.999 -4.4333 -1.3010  1.2354
 8790SOL     OW27810   6.401   0.122   8.254 -0.3436  0.1620 -0.2516
 8790SOL    HW127811   6.313   0.117   8.215 -0.2188 -1.3802 -0.3946
 8790SOL    HW227812   6.416   0.215   8.267 -3.1517  0.4155  2.3785
 8791SOL     OW27813   4.249   6.476  11.315  0.2073  0.0491 -0.5478
 8791SOL    HW127814   4.289   6.397  11.351 -0.2317  0.4948  0.9905
 8791SOL    HW227815   4.321   6.538  11.308  0.3881 -0.1992 -0.9366
 8792SOL     OW27816   2.761   1.911   4.732  0.0778  0.1310 -0.2812
 8792SOL    HW127817   2.760   1.995   4.778  0.8715  0.5700 -1.0317
 8792SOL    HW227818   2.806   1.929   4.650  0.4677 -1.0802 -0.3647
 8793SOL     OW27819   2.196   6.795   4.049  0.2241 -0.3039  0.1548
 8793SOL    HW127820   2.232   6.708   4.030 -1.4655 -0.9328 -0.4020
 8793SOL    HW227821   2.266   6.841   4.094  1.0688 -2.0725  0.7448
 8794SOL     OW27822   6.206   3.707  12.391 -0.2795  0.2967  0.2533
 8794SOL    HW127823   6.206   3.743  12.479  0.7243 -0.9456  0.7870
 8794SOL    HW227824   6.118   3.671  12.380 -1.7340  3.7080 -0.7175
 8795SOL     OW27825   3.917   0.559   7.727  0.4237  0.8085  0.3505
 8795SOL    HW127826   3.946   0.536   7.815  0.4352 -0.3178  0.0682
 8795SOL    HW227827   3.972   0.507   7.669  1.1441  2.3152 -0.3924
 8796SOL     OW27828   2.575   6.753  11.247  0.5168  0.2395 -0.2228
 8796SOL    HW127829   2.601   6.739  11.338  2.0718  3.9922  0.0671
 8796SOL    HW227830   2.636   6.700  11.196  0.7361 -0.5529  0.8296
 8797SOL     OW27831   4.676   0.592   8.229 -0.7090  0.2304  0.4468
 8797SOL    HW127832   4.615   0.643   8.177 -1.3874  1.5719  2.4243
 8797SOL    HW227833   4.625   0.565   8.306  0.0611 -2.2149  0.1739
 8798SOL     OW27834   3.190   0.872   1.757 -0.2446  0.3791 -0.0632
 8798SOL    HW127835   3.206   0.964   1.775  0.0020  0.7491 -1.9537
 8798SOL    HW227836   3.105   0.854   1.798 -0.3098  1.4545  0.3061
 8799SOL     OW27837   4.605   1.168   1.390  0.8763  0.3135  0.3465
 8799SOL    HW127838   4.568   1.130   1.311  1.0074  0.1864  0.3458
 8799SOL    HW227839   4.692   1.129   1.397 -0.3597 -2.3621  2.4242
 8800SOL     OW27840   3.198   2.875   9.636  0.4119  0.2844 -0.3686
 8800SOL    HW127841   3.264   2.942   9.654  0.3264  0.1474  0.4993
 8800SOL    HW227842   3.137   2.917   9.575  1.7547  0.1184 -1.8829
 8801SOL     OW27843   0.900   7.514   7.824  0.1797  0.3949 -0.1651
 8801SOL    HW127844   0.967   7.453   7.793  3.3176  4.1846 -1.7342
 8801SOL    HW227845   0.886   7.490   7.916  0.5525 -3.0148 -0.8405
 8802SOL     OW27846   1.912   6.671   6.411 -0.2523  0.2871 -0.1117
 8802SOL    HW127847   1.879   6.600   6.466 -0.2601 -0.5204 -1.1257
 8802SOL    HW227848   1.854   6.745   6.430 -1.7396 -0.6601 -0.7478
 8803SOL     OW27849   6.000   4.574   2.042 -0.2854  0.2936  0.1535
 8803SOL    HW127850   5.937   4.583   2.113  0.6429  0.0711  1.0271
 8803SOL    HW227851   6.021   4.481   2.040 -0.2044  0.3206 -0.3176
 8804SOL     OW27852   1.200   5.011   2.493  1.0253  0.5899  0.2856
 8804SOL    HW127853   1.280   5.053   2.526  0.7321  0.5433  1.0715
 8804SOL    HW227854   1.197   5.035   2.400  1.8143  0.8061  0.3063
 8805SOL     OW27855   0.910   2.798   1.650 -0.6039 -0.3949  0.0890
 8805SOL    HW127856   0.927   2.872   1.708  0.2080 -0.5892  0.1186
 8805SOL    HW227857   0.995   2.754   1.642 -0.8350 -0.7081 -0.7864
 8806SOL     OW27858   5.863   3.523   1.485  0.0047 -0.2376 -0.0796
 8806SOL    HW127859   5.858   3.523   1.389  0.3614  0.7416 -0.1166
 8806SOL    HW227860   5.781   3.482   1.513 -1.4876  2.0394 -0.7942
 8807SOL     OW27861   5.655   1.042   2.321  0.0189  0.0714 -0.1845
 8807SOL    HW127862   5.741   1.040   2.278 -0.7125 -1.7909 -1.7305
 8807SOL    HW227863   5.625   1.132   2.309  2.0152  0.9876  1.0614
 8808SOL     OW27864   0.208   3.408  10.449  0.1913  0.6211 -0.1270
 8808SOL    HW127865   0.168   3.426  10.534 -0.3850  0.8029 -0.4322
 8808SOL    HW227866   0.135   3.386  10.391  0.4525  1.4998 -0.8291
 8809SOL     OW27867   4.292   1.766   2.810 -0.2068 -0.3695 -0.0822
 8809SOL    HW127868   4.260   1.713   2.738 -2.4021  1.1278 -0.2866
 8809SOL    HW227869   4.231   1.749   2.882 -1.4623  2.3717 -0.3966
 8810SOL     OW27870   4.551   2.334   4.905 -0.2799 -0.2122  0.7672
 8810SOL    HW127871   4.577   2.255   4.952 -1.1309 -0.8965  0.1288
 8810SOL    HW227872   4.470   2.310   4.861  0.5729  0.3342 -1.2109
 8811SOL     OW27873   1.223   0.921  11.055  0.4858 -0.4659  0.1422
 8811SOL    HW127874   1.299   0.916  10.997  0.7791 -2.2820  0.6257
 8811SOL    HW227875   1.243   0.992  11.116  1.4568 -0.4431 -0.1877
 8812SOL     OW27876   4.063   5.594   8.916 -0.2701  0.1959 -0.0255
 8812SOL    HW127877   4.003   5.640   8.858  0.8114 -1.5988 -2.7590
 8812SOL    HW227878   4.086   5.658   8.984 -1.6038  2.4043 -1.5630
 8813SOL     OW27879   7.035   7.920   8.178 -0.1286  0.1704  0.2730
 8813SOL    HW127880   7.039   7.913   8.273  1.3205  2.0976  0.4108
 8813SOL    HW227881   7.111   7.870   8.147 -0.4343 -0.2128  0.1249
 8814SOL     OW27882   3.840   4.318  11.078  0.6079  0.1249 -0.6408
 8814SOL    HW127883   3.802   4.234  11.105 -0.5147  1.1462  1.2086
 8814SOL    HW227884   3.915   4.330  11.136  0.7474  0.4064 -0.8780
 8815SOL     OW27885   2.359   0.679   9.677  0.0732 -0.9019  0.4080
 8815SOL    HW127886   2.397   0.591   9.680 -0.3287 -1.0505  1.7747
 8815SOL    HW227887   2.304   0.684   9.755 -2.4506 -0.5498 -1.2800
 8816SOL     OW27888   0.117   3.680  12.298 -0.5441  0.1281  0.3136
 8816SOL    HW127889   0.115   3.627  12.377 -0.5978 -1.7006 -0.8563
 8816SOL    HW227890   0.060   3.634  12.236  1.1059  0.3643 -1.4785
 8817SOL     OW27891   2.815   0.827   2.261  0.1096  0.0816  0.4902
 8817SOL    HW127892   2.740   0.829   2.321 -0.2864  1.3043  0.0034
 8817SOL    HW227893   2.835   0.734   2.250 -1.2928 -0.2667  0.6872
 8818SOL     OW27894   5.750   3.703   2.131  0.6694 -0.5865  0.1362
 8818SOL    HW127895   5.686   3.663   2.071  1.7917 -2.8300  0.3079
 8818SOL    HW227896   5.703   3.712   2.214 -0.5005  1.3323 -0.6628
 8819SOL     OW27897   0.740   4.495   8.786 -0.1098  0.3500  0.3577
 8819SOL    HW127898   0.651   4.467   8.808 -1.2617  1.8912 -1.8334
 8819SOL    HW227899   0.767   4.435   8.716  1.7524 -1.8113  2.7703
 8820SOL     OW27900   6.471   6.690   2.053  0.4424  0.4456  0.3646
 8820SOL    HW127901   6.539   6.661   1.992 -0.5505 -2.6831  0.5418
 8820SOL    HW227902   6.396   6.712   1.997  0.5462  0.6852  0.3192
 8821SOL     OW27903   5.729   5.045   4.616 -0.1223 -0.6425  0.6321
 8821SOL    HW127904   5.778   5.119   4.651 -2.4291  0.7123  1.2350
 8821SOL    HW227905   5.696   4.999   4.694 -2.2693  0.2885  0.3620
 8822SOL     OW27906   7.841   3.438  11.357 -0.0761  0.4759 -0.0640
 8822SOL    HW127907   7.815   3.361  11.407  1.0918  0.8482  1.1896
 8822SOL    HW227908   7.764   3.494  11.356 -0.2444  0.2801  1.0217
 8823SOL     OW27909   6.936   1.365   1.488  0.1772  0.0633 -0.2348
 8823SOL    HW127910   6.852   1.405   1.508  1.3272  1.3920  2.4169
 8823SOL    HW227911   6.933   1.280   1.531 -0.2555 -0.4589 -1.2633
 8824SOL     OW27912   6.368   7.577   7.923 -0.0950  0.4773 -0.4941
 8824SOL    HW127913   6.378   7.642   7.992 -0.4581 -0.8540  0.8646
 8824SOL    HW227914   6.387   7.493   7.965 -1.0707 -0.4567 -1.8085
 8825SOL     OW27915   7.715   1.021  11.544 -0.0953 -0.5815 -0.2464
 8825SOL    HW127916   7.683   0.933  11.524 -0.6110 -0.2466 -0.9463
 8825SOL    HW227917   7.798   1.028  11.497 -0.0997 -0.6692 -0.2660
 8826SOL     OW27918   4.429   6.742   7.766 -0.1366  0.1110 -0.0287
 8826SOL    HW127919   4.493   6.753   7.836 -1.2785 -0.5431  1.1538
 8826SOL    HW227920   4.353   6.792   7.794 -0.5491 -0.0044 -0.9031
 8827SOL     OW27921   7.264   4.429   5.596  0.1047 -0.0578 -0.0561
 8827SOL    HW127922   7.262   4.362   5.664 -1.2690 -0.0823 -0.0772
 8827SOL    HW227923   7.224   4.387   5.520 -0.7293  0.7521 -0.0856
 8828SOL     OW27924   5.457   2.593   6.504 -0.0793  0.0391 -0.4750
 8828SOL    HW127925   5.380   2.561   6.456  0.8034  0.2833 -2.1363
 8828SOL    HW227926   5.531   2.570   6.448  1.0664 -0.0889  1.0316
 8829SOL     OW27927   2.414   7.017  12.151  0.5817  0.4432 -0.6386
 8829SOL    HW127928   2.431   6.988  12.062  1.9815  0.5602 -0.4233
 8829SOL    HW227929   2.428   7.111  12.150  1.0735  0.3828 -0.2016
 8830SOL     OW27930   0.598   2.852   0.706 -0.5664 -0.0476 -0.5847
 8830SOL    HW127931   0.679   2.850   0.654 -1.0244 -1.8590 -1.3039
 8830SOL    HW227932   0.532   2.883   0.644 -0.6281  0.4061 -0.2956
 8831SOL     OW27933   6.209   3.274   8.176 -0.3984 -0.4475 -0.0403
 8831SOL    HW127934   6.192   3.229   8.259 -0.5896  0.1957  0.2791
 8831SOL    HW227935   6.221   3.366   8.201 -1.0923 -0.1435 -0.7891
 8832SOL     OW27936   3.813   7.081   6.298 -0.2400  0.0121 -0.2806
 8832SOL    HW127937   3.767   7.064   6.380 -0.0110  1.3646  0.1505
 8832SOL    HW227938   3.742   7.093   6.234 -0.4943  1.4904  0.2575
 8833SOL     OW27939   3.503   4.386   8.774  0.0565  0.1773 -0.2392
 8833SOL    HW127940   3.573   4.434   8.730 -0.1690  0.1010 -0.6922
 8833SOL    HW227941   3.467   4.449   8.836  0.4895  0.2330 -0.0433
 8834SOL     OW27942   2.241   2.122   3.248  0.7141  0.0911 -0.2407
 8834SOL    HW127943   2.310   2.188   3.252  0.9751 -0.1285 -0.9818
 8834SOL    HW227944   2.283   2.042   3.279  0.5890  0.1154 -0.0041
 8835SOL     OW27945   4.501   1.806   7.087  0.0212 -0.5072 -0.0260
 8835SOL    HW127946   4.420   1.766   7.056  1.0760 -4.1995  1.3811
 8835SOL    HW227947   4.473   1.879   7.143 -2.1509 -0.1128 -1.5467
 8836SOL     OW27948   5.730   4.231  10.971 -0.5216  0.0162 -0.5006
 8836SOL    HW127949   5.789   4.177  11.024  0.9464  0.3166 -1.7438
 8836SOL    HW227950   5.659   4.172  10.946 -0.5821 -0.4598  0.7352
 8837SOL     OW27951   1.266   5.080   5.128  0.1249  0.0821  0.2797
 8837SOL    HW127952   1.200   5.090   5.059 -2.1986  0.2757  2.3949
 8837SOL    HW227953   1.221   5.034   5.199  2.8963 -1.6214  1.0980
 8838SOL     OW27954   5.919   0.871   6.797  0.2572 -0.0166  0.3004
 8838SOL    HW127955   5.953   0.790   6.758 -1.1077 -0.3377 -0.3198
 8838SOL    HW227956   5.894   0.846   6.886  3.2992  0.6957  1.4748
 8839SOL     OW27957   6.332   1.738   0.667  0.0093 -0.5691  0.0041
 8839SOL    HW127958   6.302   1.647   0.662 -0.4103 -0.3869 -0.8531
 8839SOL    HW227959   6.287   1.783   0.596  0.8903  0.1203 -0.1374
 8840SOL     OW27960   7.339   4.047   6.194 -0.4161  0.0988 -0.0772
 8840SOL    HW127961   7.403   3.996   6.144 -0.5357 -1.9433  1.6973
 8840SOL    HW227962   7.255   4.010   6.168 -0.6294  0.5126  0.0286
 8841SOL     OW27963   7.461   4.946   6.412 -0.2579  0.9797 -0.0829
 8841SOL    HW127964   7.403   4.909   6.478  0.3347  0.0806 -0.0546
 8841SOL    HW227965   7.457   5.041   6.426 -0.4186  0.8186  0.9895
 8842SOL     OW27966   4.595   7.113   4.069 -0.5539  0.2648  0.6612
 8842SOL    HW127967   4.590   7.208   4.075  0.9363  0.5240 -1.1275
 8842SOL    HW227968   4.600   7.083   4.159  1.2084  2.0627  1.2368
 8843SOL     OW27969   3.362   0.237   5.825  0.1637  0.2856  0.0941
 8843SOL    HW127970   3.378   0.211   5.734  0.9497 -0.8715  0.5373
 8843SOL    HW227971   3.434   0.198   5.875 -1.0933 -0.4418  1.4254
 8844SOL     OW27972   7.242   2.548   3.371 -0.6058  0.1012  0.3429
 8844SOL    HW127973   7.277   2.618   3.316 -0.6829  1.2626  1.7250
 8844SOL    HW227974   7.182   2.500   3.313 -0.9582  1.4919 -0.4895
 8845SOL     OW27975   0.272   0.625   6.565 -0.2230  0.0722  0.0756
 8845SOL    HW127976   0.274   0.711   6.608  2.3561 -1.0342  2.4262
 8845SOL    HW227977   0.299   0.644   6.475  0.7168  1.7357  0.6534
 8846SOL     OW27978   2.219   5.814   0.329  0.1179  0.3960  0.3117
 8846SOL    HW127979   2.291   5.766   0.288  0.4061  0.7449  0.4049
 8846SOL    HW227980   2.142   5.791   0.277  0.3773  0.3755 -0.0655
 8847SOL     OW27981   0.603   4.307  11.267 -0.3989  0.1732  0.2727
 8847SOL    HW127982   0.664   4.262  11.208 -0.1477  0.6951  0.1303
 8847SOL    HW227983   0.610   4.400  11.244 -0.1964  0.4040  1.2041
 8848SOL     OW27984   3.685   4.822   3.930  0.2182 -0.1229 -0.3258
 8848SOL    HW127985   3.750   4.834   3.861  4.6296  0.0235  3.3333
 8848SOL    HW227986   3.698   4.732   3.960 -0.8865  0.0947  0.9130
 8849SOL     OW27987   3.736   2.445  10.132 -0.2768 -0.0551  0.0251
 8849SOL    HW127988   3.826   2.477  10.132 -0.3188  0.0652 -0.2949
 8849SOL    HW227989   3.735   2.376  10.199  0.2867 -0.7218 -0.6438
 8850SOL     OW27990   1.909   0.706   1.723 -0.0540 -0.2053 -0.6857
 8850SOL    HW127991   1.962   0.640   1.767  0.2042 -0.8631 -1.9278
 8850SOL    HW227992   1.941   0.705   1.633  0.4208  2.1022 -0.6019
 8851SOL     OW27993   5.984   5.519   5.069 -0.4027  0.1037 -0.5953
 8851SOL    HW127994   6.046   5.480   5.007 -0.1667 -0.6485  0.0966
 8851SOL    HW227995   6.039   5.557   5.138 -0.6921 -0.0685 -0.2670
 8852SOL     OW27996   3.357   2.194  10.968  0.3920 -0.0852 -0.2837
 8852SOL    HW127997   3.338   2.200  10.875  0.3085 -0.6789 -0.3090
 8852SOL    HW227998   3.449   2.171  10.973  0.5546  0.5658 -0.2039
 8853SOL     OW27999   5.602   4.295   5.710  0.3499  0.0033  0.2772
 8853SOL    HW128000   5.550   4.231   5.663  0.9637 -0.2430 -0.0817
 8853SOL    HW228001   5.539   4.341   5.766 -0.1208 -0.7968  0.4213
 8854SOL     OW28002   6.832   0.714   4.902 -0.4920 -0.0895  0.1330
 8854SOL    HW128003   6.915   0.761   4.900  0.2432 -1.2339  1.7410
 8854SOL    HW228004   6.857   0.621   4.899 -1.7738 -0.4460 -0.4304
 8855SOL     OW28005   1.266   3.809  12.181  0.2262 -0.7559 -0.5270
 8855SOL    HW128006   1.188   3.782  12.131  0.9583  0.5396 -2.5012
 8855SOL    HW228007   1.339   3.770  12.132  0.8802 -1.4139  0.9333
 8856SOL     OW28008   4.548   5.716   6.147  0.4461  0.1581 -0.1882
 8856SOL    HW128009   4.614   5.664   6.101 -0.9280 -3.4100  1.5255
 8856SOL    HW228010   4.469   5.706   6.094 -0.7968 -2.8621  1.9841
 8857SOL     OW28011   2.346   3.337   4.767  0.7023 -0.1875  0.0727
 8857SOL    HW128012   2.417   3.366   4.825  0.1094  1.2492  0.1064
 8857SOL    HW228013   2.312   3.258   4.809  0.9581  0.2498  1.1363
 8858SOL     OW28014   3.239   4.811   0.609 -0.2085  0.0687 -0.4310
 8858SOL    HW128015   3.144   4.806   0.611 -0.1360 -1.4996  0.1755
 8858SOL    HW228016   3.264   4.770   0.526 -0.0098 -1.2691  0.2585
 8859SOL     OW28017   2.758   1.764   8.484  0.3724  0.2128  0.6632
 8859SOL    HW128018   2.706   1.844   8.494 -2.4667 -1.3544 -0.2969
 8859SOL    HW228019   2.767   1.753   8.390 -0.6509 -1.3557  0.7160
 8860SOL     OW28020   5.853   0.830   5.266 -0.1573 -0.0030 -0.7983
 8860SOL    HW128021   5.821   0.839   5.177  3.0411  0.4169 -2.0299
 8860SOL    HW228022   5.896   0.913   5.286 -0.2834 -0.3009  0.9117
 8861SOL     OW28023   7.898   4.086   9.812  0.2137 -0.4424 -0.3228
 8861SOL    HW128024   7.973   4.123   9.765 -0.1467  2.9508  1.4743
 8861SOL    HW228025   7.822   4.130   9.775 -0.5727 -1.4762  0.0214
 8862SOL     OW28026   2.744   5.554   8.119 -0.0804  0.0921 -0.5521
 8862SOL    HW128027   2.814   5.562   8.183 -1.0826  0.4616  0.5384
 8862SOL    HW228028   2.757   5.468   8.079  0.2008 -0.4189  0.6061
 8863SOL     OW28029   3.630   0.052   0.831 -0.4792 -0.1004 -0.2497
 8863SOL    HW128030   3.561  -0.008   0.805  0.6258 -1.3309 -0.4063
 8863SOL    HW228031   3.603   0.137   0.794 -0.9069 -0.9703 -2.0405
 8864SOL     OW28032   2.309   4.621  10.321  0.3186 -0.0832  0.1396
 8864SOL    HW128033   2.307   4.657  10.410  1.4243  0.8714 -0.1972
 8864SOL    HW228034   2.218   4.617  10.294 -0.0116 -0.1296  1.2193
 8865SOL     OW28035   7.259   0.498   3.203 -0.0416  0.1404  0.0378
 8865SOL    HW128036   7.247   0.567   3.269  0.5843 -0.5030  0.8400
 8865SOL    HW228037   7.300   0.543   3.129  0.8372  0.5385  0.7506
 8866SOL     OW28038   1.231   5.634   2.168 -0.0369  0.2480 -0.0287
 8866SOL    HW128039   1.144   5.646   2.207 -0.4682 -2.4769  0.0144
 8866SOL    HW228040   1.219   5.657   2.076 -0.7503  0.1254  0.0244
 8867SOL     OW28041   1.903   3.835   4.105  0.1419  0.3458 -0.4623
 8867SOL    HW128042   1.975   3.857   4.046  0.9883 -1.5957 -0.2249
 8867SOL    HW228043   1.938   3.767   4.162 -0.6668  2.0630  2.3015
 8868SOL     OW28044   2.676   1.758   9.902  0.2529 -0.2882 -0.0203
 8868SOL    HW128045   2.602   1.742   9.961 -0.1575 -0.7657 -0.6480
 8868SOL    HW228046   2.674   1.684   9.841  0.9762 -0.0649 -0.3250
 8869SOL     OW28047   3.696   2.178   1.838  0.3923  0.3303  0.2957
 8869SOL    HW128048   3.672   2.163   1.746  0.5668  0.1786  0.2728
 8869SOL    HW228049   3.774   2.234   1.833  1.4693 -1.0954  0.2835
 8870SOL     OW28050   5.690   2.089   8.625  0.5873 -0.6214  0.5965
 8870SOL    HW128051   5.676   2.183   8.614 -0.1828 -0.7990  0.0537
 8870SOL    HW228052   5.696   2.077   8.720  2.1973  0.1768  0.6285
 8871SOL     OW28053   1.629   3.526   2.205 -0.5270 -0.2971 -0.3861
 8871SOL    HW128054   1.543   3.567   2.196 -0.9232 -1.2744 -1.2244
 8871SOL    HW228055   1.627   3.487   2.292 -0.9183 -0.2789 -0.3832
 8872SOL     OW28056   6.053   4.173   5.639 -0.2979  0.0137 -1.0058
 8872SOL    HW128057   5.979   4.118   5.662 -0.0353  0.0205 -0.1245
 8872SOL    HW228058   6.056   4.240   5.707  0.5732 -0.0376 -0.9776
 8873SOL     OW28059   3.636   1.400   4.158 -1.3299  0.1148  0.4057
 8873SOL    HW128060   3.691   1.476   4.137 -0.6907 -0.2384  0.7671
 8873SOL    HW228061   3.547   1.435   4.158 -1.0073  0.9917  1.0790
 8874SOL     OW28062   2.945   6.400   5.763 -0.5646 -0.1900 -0.4638
 8874SOL    HW128063   2.973   6.400   5.854 -2.1410  0.6254  0.0432
 8874SOL    HW228064   2.934   6.492   5.741 -0.4162 -0.3865 -1.4291
 8875SOL     OW28065   7.167   7.356   2.631 -0.3001 -0.0054 -0.0723
 8875SOL    HW128066   7.237   7.303   2.593 -1.9137 -1.6961 -0.8632
 8875SOL    HW228067   7.162   7.326   2.722 -0.0115  0.1129 -0.0166
 8876SOL     OW28068   4.840   5.329   9.073 -0.5372 -0.0758  0.0956
 8876SOL    HW128069   4.780   5.346   9.145  0.2276  3.3871  0.1009
 8876SOL    HW228070   4.862   5.416   9.039  0.5556 -1.4579 -3.1592
 8877SOL     OW28071   0.192   5.768   0.216  0.2501  0.1931 -0.0053
 8877SOL    HW128072   0.179   5.681   0.180 -0.6509  0.5424 -0.5507
 8877SOL    HW228073   0.287   5.775   0.230  0.0820 -2.2467  3.5564
 8878SOL     OW28074   0.188   3.002   4.416 -0.2825  0.4244 -0.6472
 8878SOL    HW128075   0.232   3.072   4.464 -0.2468  0.2956 -0.4889
 8878SOL    HW228076   0.099   3.002   4.450 -0.3033  0.4422 -0.7013
 8879SOL     OW28077   0.006   2.969  10.136  0.6078 -0.3766  0.0217
 8879SOL    HW128078   0.039   3.003  10.053  1.4448 -0.0598  0.4743
 8879SOL    HW228079   0.060   2.892  10.155  0.3966 -0.4725  0.2511
 8880SOL     OW28080   3.711   5.577   5.715  0.3275 -0.3394  0.0820
 8880SOL    HW128081   3.785   5.637   5.722 -1.6037  2.1319  0.6024
 8880SOL    HW228082   3.694   5.549   5.805  1.1522 -1.6812 -0.1450
 8881SOL     OW28083   1.446   1.921   3.289  0.5247 -0.4723 -0.2251
 8881SOL    HW128084   1.498   1.854   3.244 -0.7056 -0.6526 -1.4295
 8881SOL    HW228085   1.455   1.999   3.234 -0.8978 -0.6609 -0.7705
 8882SOL     OW28086   5.841   2.453   4.742 -0.0402 -0.1459  0.7774
 8882SOL    HW128087   5.827   2.544   4.717 -0.9600 -0.8423 -1.5019
 8882SOL    HW228088   5.891   2.458   4.823 -0.0499  2.3699  0.7130
 8883SOL     OW28089   6.820   5.861   9.257  0.0322  0.1376  0.2139
 8883SOL    HW128090   6.876   5.870   9.334  0.5920 -0.6895 -0.0889
 8883SOL    HW228091   6.810   5.950   9.224 -0.8332  0.6088  1.6655
 8884SOL     OW28092   7.137   4.301   5.360  0.0751 -0.7748 -0.1923
 8884SOL    HW128093   7.088   4.236   5.412  0.5519  0.3089  1.6991
 8884SOL    HW228094   7.073   4.336   5.298 -1.1948 -0.4206  1.2662
 8885SOL     OW28095   3.792   2.756   9.715 -0.3391  0.0194 -0.1448
 8885SOL    HW128096   3.714   2.767   9.660  0.2990  3.6645 -0.6143
 8885SOL    HW228097   3.863   2.742   9.653  0.0899  2.1896 -0.2303
 8886SOL     OW28098   3.118   0.681   3.723 -0.0486  0.1118  0.0627
 8886SOL    HW128099   3.102   0.620   3.651 -0.3240 -0.3812  0.5390
 8886SOL    HW228100   3.034   0.688   3.769  0.1220  0.4269  0.3365
 8887SOL     OW28101   1.167   0.315  10.725  0.4425  0.3482  0.2257
 8887SOL    HW128102   1.108   0.389  10.710 -0.0590 -0.4001 -1.8212
 8887SOL    HW228103   1.243   0.334  10.670  0.2581 -0.6941 -0.4072
 8888SOL     OW28104   7.727   6.143  11.632  0.1846  0.1960 -0.0155
 8888SOL    HW128105   7.742   6.064  11.684 -0.0364 -0.5068 -1.0031
 8888SOL    HW228106   7.739   6.116  11.542 -0.4479  1.1629 -0.4122
 8889SOL     OW28107   3.343   1.782  10.765 -0.4237  0.0071 -0.4957
 8889SOL    HW128108   3.266   1.729  10.745 -0.6861  0.5982 -1.0828
 8889SOL    HW228109   3.314   1.873  10.751  0.8726  0.1616 -2.5287
 8890SOL     OW28110   2.458   5.483   3.110  0.3225 -0.4381 -0.1844
 8890SOL    HW128111   2.501   5.537   3.043 -2.4232  0.7791 -1.1046
 8890SOL    HW228112   2.445   5.398   3.068 -0.5502  0.0314 -0.8951
 8891SOL     OW28113   6.774   2.665   9.696  0.1585 -0.3105 -0.4180
 8891SOL    HW128114   6.734   2.581   9.720  1.5325 -0.8089  0.1976
 8891SOL    HW228115   6.868   2.650   9.700  0.4513  1.3964  0.1926
 8892SOL     OW28116   5.251   1.741   1.144 -0.4624  0.1624  0.1560
 8892SOL    HW128117   5.194   1.816   1.161 -0.3560  0.4063 -0.5332
 8892SOL    HW228118   5.196   1.665   1.161 -2.1272  0.2865 -3.5555
 8893SOL     OW28119   7.918   7.435   9.163  0.2542  0.2999 -0.5523
 8893SOL    HW128120   7.895   7.479   9.081  1.7854 -0.8546 -1.6525
 8893SOL    HW228121   7.834   7.414   9.203 -0.5322  2.5143 -0.8805
 8894SOL     OW28122   6.582   4.532  10.622 -0.1169 -0.2449  0.7259
 8894SOL    HW128123   6.516   4.533  10.692 -0.0074  0.1816  0.8248
 8894SOL    HW228124   6.573   4.446  10.582 -0.2185 -0.4702  1.2308
 8895SOL     OW28125   7.425   2.571  10.871  0.3825  0.7157 -0.3898
 8895SOL    HW128126   7.392   2.522  10.946  0.3200  0.4756 -0.5718
 8895SOL    HW228127   7.515   2.539  10.860 -0.1860 -0.5959 -1.5309
 8896SOL     OW28128   4.156   1.627   6.818 -0.1751 -0.2069 -0.4352
 8896SOL    HW128129   4.174   1.534   6.807  0.1302 -0.0181 -1.6110
 8896SOL    HW228130   4.195   1.669   6.741 -2.3567  0.6397 -1.1477
 8897SOL     OW28131   3.704   1.097   1.330  0.7269  0.5121  0.0775
 8897SOL    HW128132   3.766   1.084   1.259  0.4418 -0.9427  0.0589
 8897SOL    HW228133   3.624   1.054   1.300  0.5816 -0.0639  1.2246
 8898SOL     OW28134   4.748   6.187   6.813  0.2889  0.0750  0.2169
 8898SOL    HW128135   4.843   6.175   6.819  0.1097 -1.7233  0.0157
 8898SOL    HW228136   4.734   6.281   6.829  1.9626  0.1249  1.6464
 8899SOL     OW28137   7.142   5.783   4.330 -0.1376 -0.1025 -0.3780
 8899SOL    HW128138   7.135   5.765   4.424  1.8835  0.1206 -0.1277
 8899SOL    HW228139   7.067   5.839   4.311 -0.8473 -0.5329  1.0053
 8900SOL     OW28140   6.966   3.210   0.150  0.7621  0.4509 -0.3952
 8900SOL    HW128141   7.015   3.276   0.199 -1.1730  1.7180 -0.0972
 8900SOL    HW228142   7.033   3.165   0.098  2.1275  2.7874 -0.7987
 8901SOL     OW28143   4.800   2.536   3.181 -0.0519  0.7201 -0.3845
 8901SOL    HW128144   4.818   2.572   3.268  2.3675  2.7448 -1.5868
 8901SOL    HW228145   4.823   2.607   3.121  0.5591 -1.3517 -2.7694
 8902SOL     OW28146   4.810   1.513   5.972 -0.2989 -0.2430  0.0041
 8902SOL    HW128147   4.746   1.452   6.008  1.7300 -1.5462  1.7144
 8902SOL    HW228148   4.794   1.514   5.878 -2.4140 -0.9434  0.3193
 8903SOL     OW28149   0.897   0.691   4.625 -0.0277 -0.0680 -0.2180
 8903SOL    HW128150   0.921   0.781   4.648 -1.8141  0.6884 -1.0874
 8903SOL    HW228151   0.852   0.699   4.541 -1.1999 -1.6248  0.2096
 8904SOL     OW28152   4.239   5.380   6.597 -0.2972  0.0814 -0.1586
 8904SOL    HW128153   4.175   5.324   6.554 -1.3940  2.1889 -1.4073
 8904SOL    HW228154   4.319   5.368   6.546 -1.0053  0.9296 -1.5143
 8905SOL     OW28155   4.015   3.654  12.274  0.1696 -0.2031  0.4336
 8905SOL    HW128156   4.031   3.664  12.368  0.5895 -1.8476  0.5708
 8905SOL    HW228157   4.102   3.634  12.237 -0.1468 -0.5671 -0.1330
 8906SOL     OW28158   2.608   6.392  11.650 -0.3196  0.3360  0.1521
 8906SOL    HW128159   2.654   6.399  11.733 -0.2275 -0.9393  0.2272
 8906SOL    HW228160   2.539   6.327  11.666  1.1496 -1.7409 -1.3394
 8907SOL     OW28161   3.504   4.987   0.996 -0.6517 -0.4766  0.1646
 8907SOL    HW128162   3.504   4.902   1.040  0.8800 -0.1052  0.9222
 8907SOL    HW228163   3.543   4.969   0.910 -0.9214 -0.6431  0.0735
 8908SOL     OW28164   5.630   7.685   6.650  0.3943 -0.4235 -0.0716
 8908SOL    HW128165   5.652   7.651   6.563  0.1881  0.7387 -0.5983
 8908SOL    HW228166   5.646   7.612   6.709  0.0475 -1.3984 -1.1512
 8909SOL     OW28167   2.314   6.810   5.711  0.0529 -0.0224 -0.4347
 8909SOL    HW128168   2.256   6.764   5.650 -0.6546  0.8581 -0.4339
 8909SOL    HW228169   2.388   6.838   5.657 -0.0930 -0.1059 -0.6805
 8910SOL     OW28170   1.297   1.074   7.202 -0.3457  0.2647 -0.4087
 8910SOL    HW128171   1.360   1.003   7.221 -1.2195 -0.9996 -1.9911
 8910SOL    HW228172   1.237   1.072   7.276 -0.4966 -0.8461 -0.5390
 8911SOL     OW28173   1.453   5.737   5.219  0.1556 -0.1480  0.0624
 8911SOL    HW128174   1.370   5.691   5.209  0.2262  0.0041 -1.6017
 8911SOL    HW228175   1.436   5.824   5.182  0.5412  0.5624  1.4678
 8912SOL     OW28176   6.401   7.807   8.074  0.1753  0.2895  0.1116
 8912SOL    HW128177   6.488   7.841   8.052  0.9050 -0.3395  1.8732
 8912SOL    HW228178   6.371   7.864   8.145 -0.1834 -0.4533  0.5629
 8913SOL     OW28179   1.142   7.882   8.603  0.5157 -0.0428 -0.8171
 8913SOL    HW128180   1.130   7.936   8.525  1.4606  0.2521 -0.7608
 8913SOL    HW228181   1.218   7.919   8.647 -0.4752  0.2768  0.6752
 8914SOL     OW28182   3.889   5.188   6.879 -0.4918 -0.1311  0.5399
 8914SOL    HW128183   3.969   5.233   6.853 -0.3510 -0.2205  0.8191
 8914SOL    HW228184   3.859   5.236   6.956 -0.2802 -0.5862  0.9075
 8915SOL     OW28185   0.910   4.925   6.084  0.3250  0.2477 -0.0419
 8915SOL    HW128186   0.836   4.944   6.026  1.4595 -0.2144 -1.7419
 8915SOL    HW228187   0.975   4.886   6.026  1.8999  0.6330  1.4013
 8916SOL     OW28188   4.093   5.918   9.976  0.3190  0.6000  0.5648
 8916SOL    HW128189   4.087   5.823   9.966 -1.1260  0.4080  2.6022
 8916SOL    HW228190   4.185   5.934   9.993  0.6643 -0.3643 -0.2591
 8917SOL     OW28191   5.565   2.176   9.063 -0.1960 -0.0420  0.3365
 8917SOL    HW128192   5.524   2.155   9.147  0.4126 -0.1019  0.6237
 8917SOL    HW228193   5.571   2.092   9.017  0.9029 -0.2817  0.8862
 8918SOL     OW28194   0.057   1.790   1.721  0.1667  0.1183 -0.3523
 8918SOL    HW128195   0.036   1.704   1.757 -0.9336 -0.0096 -1.2149
 8918SOL    HW228196   0.143   1.811   1.756  0.5989 -1.4796 -0.3806
 8919SOL     OW28197   0.648   0.557   6.035 -0.2902  0.3011 -0.2276
 8919SOL    HW128198   0.579   0.577   5.972  0.0225 -0.2623 -0.7611
 8919SOL    HW228199   0.661   0.639   6.083 -0.3712  0.8199 -1.0604
 8920SOL     OW28200   2.391   3.038   9.029 -0.4380  0.9022 -0.2767
 8920SOL    HW128201   2.415   2.990   8.950  0.5856  1.5826 -0.4128
 8920SOL    HW228202   2.343   2.976   9.082 -0.4376  0.1918 -1.0898
 8921SOL     OW28203   2.063   7.336  11.484 -0.0649 -0.5380  0.3052
 8921SOL    HW128204   2.148   7.315  11.445  0.1880 -1.1530  1.1587
 8921SOL    HW228205   2.004   7.346  11.410  0.3484 -1.9015 -0.2346
 8922SOL     OW28206   1.814   4.457  11.108 -0.0510 -0.2405 -0.1534
 8922SOL    HW128207   1.812   4.509  11.189  1.8614 -0.5818  0.1413
 8922SOL    HW228208   1.759   4.381  11.127  0.1199 -0.1540  0.7205
 8923SOL     OW28209   3.861   0.040   4.770  0.0270  0.2074 -0.3485
 8923SOL    HW128210   3.864  -0.008   4.852  1.9099 -0.3107 -0.6828
 8923SOL    HW228211   3.790  -0.001   4.720 -1.3189  0.7106  1.0837
 8924SOL     OW28212   2.679   6.666   7.214  0.6693  0.1405 -0.4129
 8924SOL    HW128213   2.639   6.581   7.200  2.5585 -1.0331  0.8533
 8924SOL    HW228214   2.657   6.717   7.135 -0.3876 -1.5411 -1.2441
 8925SOL     OW28215   7.186   3.707   9.048 -0.3680 -0.0173 -0.4165
 8925SOL    HW128216   7.206   3.769   8.978  0.7889 -1.0319 -1.0413
 8925SOL    HW228217   7.150   3.761   9.119  0.8984  1.4270 -0.8045
 8926SOL     OW28218   6.143   0.080   8.147 -0.9921  0.3400 -0.3679
 8926SOL    HW128219   6.086   0.008   8.119 -0.2596 -1.4612  2.3982
 8926SOL    HW228220   6.089   0.130   8.209  0.3407 -1.6269  2.6054
 8927SOL     OW28221   1.050   4.747   2.284 -0.1980 -0.1545  0.3444
 8927SOL    HW128222   1.104   4.818   2.248  0.8369 -0.4017  1.3467
 8927SOL    HW228223   1.068   4.672   2.229  0.0104 -0.0756  0.3067
 8928SOL     OW28224   6.051   3.101   1.459 -0.0686  0.1555  0.3143
 8928SOL    HW128225   6.085   3.189   1.479 -0.0020  0.5423 -1.3254
 8928SOL    HW228226   5.997   3.114   1.382 -1.6897 -0.9472  1.2202
 8929SOL     OW28227   1.257   1.912   8.771 -0.1408  0.3984  0.7302
 8929SOL    HW128228   1.219   1.828   8.748 -0.8663  0.4173  1.8515
 8929SOL    HW228229   1.215   1.974   8.712 -0.3435  0.1299  0.5928
 8930SOL     OW28230   5.509   0.148   5.170  0.9781  0.4478 -0.4941
 8930SOL    HW128231   5.567   0.075   5.193  0.0843 -0.1311 -0.0597
 8930SOL    HW228232   5.520   0.158   5.075  0.9271 -0.4067 -0.5975
 8931SOL     OW28233   0.692   1.850   5.885 -0.2318 -0.4774  0.6684
 8931SOL    HW128234   0.629   1.803   5.830  0.4566 -0.7337  0.0781
 8931SOL    HW228235   0.661   1.837   5.974 -1.5949  0.2833  0.3205
 8932SOL     OW28236   5.763   0.324   8.580 -0.0363 -0.3985  0.2816
 8932SOL    HW128237   5.716   0.374   8.646  1.8267  1.8246  0.0645
 8932SOL    HW228238   5.730   0.356   8.496 -1.7804 -2.6011  0.0354
 8933SOL     OW28239   2.044   1.828   5.360 -0.6357 -0.0714 -0.2141
 8933SOL    HW128240   2.012   1.913   5.330 -1.5717 -0.5673 -0.6684
 8933SOL    HW228241   2.075   1.845   5.449 -3.6431  0.1672  0.9104
 8934SOL     OW28242   6.537   1.761   9.220 -0.0575 -0.0762 -0.6869
 8934SOL    HW128243   6.565   1.798   9.136  0.7833 -1.4142 -1.0156
 8934SOL    HW228244   6.468   1.699   9.198  0.5517 -0.8521 -0.4786
 8935SOL     OW28245   0.311   6.548   3.609 -0.1105 -0.4341  0.0755
 8935SOL    HW128246   0.255   6.591   3.545 -1.9860 -2.8630 -0.0585
 8935SOL    HW228247   0.371   6.494   3.557 -1.4009 -2.1317  0.2701
 8936SOL     OW28248   2.736   1.232   0.872 -0.2258 -0.5975 -0.3501
 8936SOL    HW128249   2.730   1.327   0.870  0.2828 -0.4672  1.7811
 8936SOL    HW228250   2.750   1.206   0.781  0.0731  1.3914 -0.9025
 8937SOL     OW28251   4.316   7.437  10.428  0.1338  0.0489  0.1639
 8937SOL    HW128252   4.350   7.384  10.501  1.8165  2.3027  1.1476
 8937SOL    HW228253   4.263   7.504  10.471 -0.4873  0.2504 -0.8907
 8938SOL     OW28254   7.501   6.851   8.645  0.0237 -0.7092  0.0087
 8938SOL    HW128255   7.477   6.829   8.555 -1.0241 -1.8347  0.5441
 8938SOL    HW228256   7.436   6.917   8.672  2.1719  2.0653 -1.0371
 8939SOL     OW28257   0.216   2.035   6.541  0.1268  0.1799 -0.3691
 8939SOL    HW128258   0.123   2.060   6.538  0.4208  1.4035  0.2474
 8939SOL    HW228259   0.240   2.042   6.633  1.2950  1.6905 -0.7491
 8940SOL     OW28260   1.946   7.400  12.464  0.2399 -0.1548  0.1614
 8940SOL    HW128261   2.020   7.460  12.475  0.8778 -1.0592  1.1107
 8940SOL    HW228262   1.915   7.416  12.375 -0.0195  1.9866  0.5898
 8941SOL     OW28263   0.024   2.249  12.453  0.1912  0.5828  0.2366
 8941SOL    HW128264  -0.015   2.194  12.385 -2.7473  0.9954  1.4318
 8941SOL    HW228265   0.098   2.197  12.486 -0.4424 -1.1422 -0.9082
 8942SOL     OW28266   3.736   5.260   3.447  0.4507  0.2693 -0.3059
 8942SOL    HW128267   3.821   5.216   3.437 -0.6893 -2.0430 -0.4925
 8942SOL    HW228268   3.673   5.197   3.414 -1.5472  1.1474  1.6063
 8943SOL     OW28269   1.317   3.669  11.407  0.0719  0.5026 -0.0923
 8943SOL    HW128270   1.240   3.622  11.438  0.2581 -0.6763 -1.3718
 8943SOL    HW228271   1.383   3.602  11.393  1.3675  1.4926  0.9686
 8944SOL     OW28272   6.227   6.618  11.618 -0.6682  0.1100  0.2529
 8944SOL    HW128273   6.238   6.541  11.674 -0.3985 -0.7173 -0.8879
 8944SOL    HW228274   6.133   6.633  11.616 -0.7724 -0.5182  0.0939
 8945SOL     OW28275   7.858   7.503   7.295  0.2656 -0.2086  0.3887
 8945SOL    HW128276   7.795   7.443   7.255 -0.2993 -0.2086  1.2539
 8945SOL    HW228277   7.804   7.571   7.335  0.8833  0.8079 -0.4242
 8946SOL     OW28278   2.657   4.614   5.484  0.1655 -0.0804  0.3985
 8946SOL    HW128279   2.601   4.691   5.474 -0.6559 -0.5654  1.1079
 8946SOL    HW228280   2.630   4.556   5.412 -1.6696 -1.1317  1.8351
 8947SOL     OW28281   0.078   2.730   9.939  0.3435  0.3781 -0.1223
 8947SOL    HW128282   0.137   2.781   9.883  0.2814  1.1998  0.5540
 8947SOL    HW228283   0.112   2.741  10.027 -1.4583  1.8503  0.4651
 8948SOL     OW28284   5.584   2.303   1.593  0.5463 -0.2569 -0.2030
 8948SOL    HW128285   5.560   2.395   1.606 -1.6781 -0.8563  0.3327
 8948SOL    HW228286   5.560   2.260   1.675  2.5910 -1.1634 -0.0350
 8949SOL     OW28287   1.706   1.122  12.416  0.2627 -0.0299 -0.2267
 8949SOL    HW128288   1.769   1.071  12.466  0.1793  0.1418  0.0559
 8949SOL    HW228289   1.758   1.168  12.350  0.4421  0.1656  0.0512
 8950SOL     OW28290   3.322   4.147   9.744 -0.0130  0.0737  0.0970
 8950SOL    HW128291   3.379   4.220   9.767 -0.3294 -0.1716  1.7947
 8950SOL    HW228292   3.383   4.077   9.718  0.4116  0.2442  0.5979
 8951SOL     OW28293   3.799   5.752  10.556  0.6028 -0.2306  0.7483
 8951SOL    HW128294   3.885   5.717  10.580 -0.4646 -3.4385  0.4069
 8951SOL    HW228295   3.743   5.732  10.631 -0.3193 -0.1803  0.0913
 8952SOL     OW28296   6.212   2.871   9.625  0.0075  0.3631 -0.4396
 8952SOL    HW128297   6.187   2.831   9.541  1.2591 -0.1671 -0.5825
 8952SOL    HW228298   6.293   2.826   9.649 -1.2931 -0.8290  1.9918
 8953SOL     OW28299   3.832   3.924   3.778  0.2899 -0.0152 -0.6095
 8953SOL    HW128300   3.889   3.997   3.753 -1.2786  1.7869  0.8084
 8953SOL    HW228301   3.772   3.960   3.843 -1.5538 -2.1932 -0.9401
 8954SOL     OW28302   5.971   7.311   8.047 -0.1025 -0.0821 -0.3433
 8954SOL    HW128303   5.894   7.315   8.104 -0.2885 -0.4492 -0.5593
 8954SOL    HW228304   6.000   7.401   8.039  0.1375 -0.0701  0.6120
 8955SOL     OW28305   7.735   1.031  10.927 -0.1212 -0.0536  0.7594
 8955SOL    HW128306   7.743   1.110  10.873 -2.0589 -0.1239  0.3034
 8955SOL    HW228307   7.806   0.974  10.897  2.4526  2.1214  2.2859
 8956SOL     OW28308   6.771   7.653   8.946  0.1312 -0.5504 -0.6271
 8956SOL    HW128309   6.840   7.613   8.998  0.5389  0.9406  0.0214
 8956SOL    HW228310   6.764   7.742   8.979  0.2978  0.4288 -3.0367
 8957SOL     OW28311   3.019   4.767   6.557 -0.1027  0.2266  0.2549
 8957SOL    HW128312   3.027   4.857   6.588  0.3454  0.1954  0.2355
 8957SOL    HW228313   3.107   4.731   6.566  0.2459  0.4443 -1.8022
 8958SOL     OW28314   2.856   3.659  10.816  0.7064 -0.6938 -0.1029
 8958SOL    HW128315   2.893   3.742  10.848  0.9244 -1.2223  1.0878
 8958SOL    HW228316   2.843   3.673  10.723 -2.9377  2.0668  0.6118
 8959SOL     OW28317   7.442   5.188   0.131  0.3635 -0.1795  0.2464
 8959SOL    HW128318   7.512   5.251   0.145  1.3748 -1.3044  0.3527
 8959SOL    HW228319   7.476   5.127   0.067  0.0848 -1.6231  1.4276
 8960SOL     OW28320   6.535   7.841   3.346 -0.3017 -0.5953 -0.4337
 8960SOL    HW128321   6.510   7.931   3.364 -1.6773 -0.7658 -1.3668
 8960SOL    HW228322   6.512   7.827   3.254 -2.0097 -2.4991  0.2047
 8961SOL     OW28323   3.130   1.552   2.266 -0.1922 -0.7229 -0.1283
 8961SOL    HW128324   3.099   1.643   2.267 -0.0190 -0.6622  0.4268
 8961SOL    HW228325   3.062   1.503   2.220  0.1561 -0.1555 -1.2743
 8962SOL     OW28326   3.781   7.721   0.431 -0.1082  0.1812  0.3046
 8962SOL    HW128327   3.715   7.666   0.387  0.0389  0.5388 -0.3693
 8962SOL    HW228328   3.865   7.679   0.410  0.3805  2.5291 -3.2006
 8963SOL     OW28329   2.297   0.211  10.055  0.0472  0.3994  0.2430
 8963SOL    HW128330   2.354   0.285  10.035 -1.7217  1.4190 -1.4299
 8963SOL    HW228331   2.230   0.214   9.987 -1.0647 -1.7198  1.1572
 8964SOL     OW28332   2.919   1.304   9.346 -0.6410  0.3109  0.0480
 8964SOL    HW128333   2.966   1.245   9.404 -0.2972  0.0734 -0.4678
 8964SOL    HW228334   2.831   1.266   9.339 -0.4966  0.0000 -0.0814
 8965SOL     OW28335   5.410   1.337   0.472 -0.2057 -0.3692  0.2514
 8965SOL    HW128336   5.347   1.389   0.522  0.5391 -0.9564  1.8513
 8965SOL    HW228337   5.396   1.247   0.502  1.2989 -0.5239  0.5583
 8966SOL     OW28338   1.213   0.594   3.848  0.1669  0.4544  0.0398
 8966SOL    HW128339   1.170   0.598   3.933 -1.7691 -0.6402 -0.8100
 8966SOL    HW228340   1.161   0.652   3.792 -0.4850 -1.1318 -1.0974
 8967SOL     OW28341   1.408   4.539   9.336 -0.2610 -0.0410 -0.2042
 8967SOL    HW128342   1.471   4.609   9.324 -0.1642  0.0129  0.6218
 8967SOL    HW228343   1.334   4.563   9.279 -0.4268  0.9602  0.4264
 8968SOL     OW28344   7.204   3.876  10.532 -0.2337 -0.5153  0.0657
 8968SOL    HW128345   7.219   3.868  10.438 -0.8920 -0.1898 -0.0737
 8968SOL    HW228346   7.266   3.814  10.572 -1.0201 -1.8104 -0.6518
 8969SOL     OW28347   1.096   5.974   7.584 -0.5051 -0.1679  0.1557
 8969SOL    HW128348   1.004   5.950   7.593 -0.3061 -0.5877  1.2366
 8969SOL    HW228349   1.113   5.968   7.490 -0.9828 -2.3603  0.1630
 8970SOL     OW28350   5.412   5.288   9.125  0.9156 -0.1339 -0.1972
 8970SOL    HW128351   5.441   5.200   9.101 -0.1725 -0.5191 -0.1639
 8970SOL    HW228352   5.394   5.331   9.042 -0.5766 -0.6730 -0.1873
 8971SOL     OW28353   1.527   4.031   1.132 -0.0521  0.8060  0.1057
 8971SOL    HW128354   1.552   3.986   1.213 -2.7337  0.0929  0.6232
 8971SOL    HW228355   1.432   4.019   1.126 -0.0969  1.8350 -2.5657
 8972SOL     OW28356   0.602   5.017   2.451  0.7297  0.0892  0.0965
 8972SOL    HW128357   0.621   5.011   2.545 -0.2444 -2.8890  0.1884
 8972SOL    HW228358   0.507   5.030   2.447  0.8044  0.4783 -0.5032
 8973SOL     OW28359   1.794   7.701   7.950 -0.7854  0.3758  0.4859
 8973SOL    HW128360   1.867   7.689   8.010  0.2082  0.7105 -0.6307
 8973SOL    HW228361   1.739   7.623   7.962  0.8056 -0.8822 -0.1174
 8974SOL     OW28362   6.896   3.930   1.680 -0.5340  0.0792  0.2159
 8974SOL    HW128363   6.938   3.857   1.727 -0.4157 -0.7274 -1.0990
 8974SOL    HW228364   6.803   3.918   1.696 -0.4923 -0.1779  0.2813
 8975SOL     OW28365   7.104   5.122   2.681  0.0876 -0.1236  0.1471
 8975SOL    HW128366   7.076   5.164   2.599 -2.3298  0.0085  0.9694
 8975SOL    HW228367   7.141   5.193   2.733  2.2041 -0.3103 -0.9896
 8976SOL     OW28368   6.643   7.141   1.288 -0.4412  0.8692 -0.9945
 8976SOL    HW128369   6.663   7.204   1.219  0.8199  0.8843 -0.6498
 8976SOL    HW228370   6.559   7.104   1.263 -0.4575  1.5567 -2.0365
 8977SOL     OW28371   7.867   4.565  12.091  0.0446 -0.2572  0.1713
 8977SOL    HW128372   7.874   4.477  12.128  1.5960 -0.8564 -1.3982
 8977SOL    HW228373   7.778   4.593  12.113  0.5172 -0.8995  3.4275
 8978SOL     OW28374   7.385   4.638   6.625 -0.2749 -0.0787 -0.4269
 8978SOL    HW128375   7.306   4.669   6.580  0.2464  1.5090 -0.3250
 8978SOL    HW228376   7.387   4.544   6.609 -3.1540 -0.4935  1.0781
 8979SOL     OW28377   5.894   6.642   5.093 -0.6356 -0.6068  0.3396
 8979SOL    HW128378   5.899   6.735   5.072 -0.2242 -0.3041  1.6939
 8979SOL    HW228379   5.810   6.633   5.138 -0.2238 -0.7059  1.0875
 8980SOL     OW28380   6.817   6.034   9.685 -0.2671 -0.0501  0.0133
 8980SOL    HW128381   6.755   6.049   9.614  1.4528  0.7119 -1.4103
 8980SOL    HW228382   6.856   5.948   9.665 -0.3813 -0.2215  0.5172
 8981SOL     OW28383   6.958   0.610  11.714 -0.1512  0.2008 -0.0167
 8981SOL    HW128384   6.866   0.633  11.727 -0.1640 -0.1095  0.4589
 8981SOL    HW228385   7.006   0.670  11.771 -0.1404 -0.4365  0.6717
 8982SOL     OW28386   6.760   4.413   6.557  0.3657  0.6211  0.4235
 8982SOL    HW128387   6.737   4.412   6.650 -0.1731  0.2994  0.2853
 8982SOL    HW228388   6.701   4.478   6.518 -1.0636 -0.9321 -0.1126
 8983SOL     OW28389   4.786   7.582   8.812  0.1757 -0.3915 -0.1985
 8983SOL    HW128390   4.705   7.606   8.766  0.5024  1.7906  0.2415
 8983SOL    HW228391   4.853   7.639   8.774  1.0428 -0.6132  0.9439
 8984SOL     OW28392   0.506   5.326   5.599  0.4148 -0.0746  0.3031
 8984SOL    HW128393   0.561   5.337   5.522 -1.1853  1.3747 -0.6779
 8984SOL    HW228394   0.506   5.412   5.641 -2.0816  0.3485 -0.4326
 8985SOL     OW28395   5.192   7.849   8.696  0.5810 -1.1906 -0.3398
 8985SOL    HW128396   5.242   7.902   8.759  0.6306 -1.9510  0.2812
 8985SOL    HW228397   5.202   7.895   8.613 -0.3726  0.4459  0.3956
 8986SOL     OW28398   5.306   6.561  11.516  0.8174 -0.0263  0.1145
 8986SOL    HW128399   5.262   6.636  11.476  1.0494 -0.6048 -1.2870
 8986SOL    HW228400   5.346   6.595  11.596 -1.3014  0.7483  0.9121
 8987SOL     OW28401   7.269   3.194   3.881 -0.6964  0.1886  0.0883
 8987SOL    HW128402   7.233   3.153   3.960 -1.6788 -0.4868 -0.6866
 8987SOL    HW228403   7.264   3.126   3.814 -2.7384  1.6334 -1.3509
 8988SOL     OW28404   7.009   4.823   6.756  0.2770  0.0676 -0.1025
 8988SOL    HW128405   7.071   4.753   6.773 -1.2372 -0.8454  2.0886
 8988SOL    HW228406   7.026   4.888   6.824 -0.6393  0.1670  0.0467
 8989SOL     OW28407   5.262   5.974   6.051  0.1392  0.2751  0.1035
 8989SOL    HW128408   5.193   5.921   6.090 -0.5904  1.1581  0.0338
 8989SOL    HW228409   5.275   5.936   5.964  0.0191 -0.1421  0.2661
 8990SOL     OW28410   3.126   7.224   6.302 -0.5912  0.0003 -0.3090
 8990SOL    HW128411   3.142   7.308   6.346  1.1455 -0.2603 -0.3429
 8990SOL    HW228412   3.126   7.246   6.209  1.4220 -0.1970 -0.4028
 8991SOL     OW28413   7.756   0.805   4.962 -0.5602 -0.3598  0.0985
 8991SOL    HW128414   7.688   0.745   4.992 -0.9575  0.1905  0.3279
 8991SOL    HW228415   7.827   0.795   5.025 -0.3761 -1.0191 -0.2053
 8992SOL     OW28416   1.414   3.855   8.685 -0.0514  0.1024  0.4208
 8992SOL    HW128417   1.441   3.796   8.615  0.5262 -0.8696  1.4267
 8992SOL    HW228418   1.360   3.921   8.642 -1.8296 -1.8885 -0.5572
 8993SOL     OW28419   5.160   3.014   5.239  0.2378 -0.1417  0.1318
 8993SOL    HW128420   5.178   2.971   5.323  0.1359 -0.4341  0.0056
 8993SOL    HW228421   5.065   3.028   5.239  0.4490  1.4735  0.8320
 8994SOL     OW28422   2.009   7.058   2.760 -0.3292  0.3639  0.7945
 8994SOL    HW128423   1.944   7.099   2.703  0.1861  0.0986  0.0038
 8994SOL    HW228424   2.063   7.131   2.791 -0.9573  0.5789  1.4128
 8995SOL     OW28425   2.899   5.780   1.120 -0.3658  0.2052  0.0396
 8995SOL    HW128426   2.896   5.809   1.212 -1.0745 -0.6751  0.2993
 8995SOL    HW228427   2.811   5.795   1.087 -0.3053 -0.1516 -0.2871
 8996SOL     OW28428   2.127   6.137   7.630  0.1231 -0.0810  0.1579
 8996SOL    HW128429   2.142   6.205   7.565  1.2721 -0.5398 -0.0710
 8996SOL    HW228430   2.062   6.079   7.590  0.6643 -0.2397 -0.4980
 8997SOL     OW28431   0.705   5.358  11.953 -0.3389  0.4361  0.4673
 8997SOL    HW128432   0.743   5.301  12.020 -3.0548 -1.8922  0.2682
 8997SOL    HW228433   0.768   5.356  11.881  0.2987 -1.3069  1.0105
 8998SOL     OW28434   1.415   7.854   2.185 -0.6313 -0.0846 -0.3753
 8998SOL    HW128435   1.448   7.777   2.138 -0.9664 -0.0332 -0.6997
 8998SOL    HW228436   1.362   7.901   2.121 -1.0965 -0.0102  0.0523
 8999SOL     OW28437   3.249   1.440   6.797 -0.2416 -0.5961  0.0590
 8999SOL    HW128438   3.259   1.358   6.748 -0.9866 -0.5496 -0.1759
 8999SOL    HW228439   3.187   1.420   6.867  0.3724 -0.5047  0.6476
 9000SOL     OW28440   5.973   7.122   3.575  0.2104 -0.4578 -0.0482
 9000SOL    HW128441   5.928   7.202   3.546 -1.5873 -1.4644 -0.1712
 9000SOL    HW228442   6.008   7.084   3.495  0.1821 -0.3258 -0.1240
 9001SOL     OW28443   1.479   4.267   5.186  0.4781 -0.2253 -0.1978
 9001SOL    HW128444   1.547   4.318   5.229  0.5091  0.9203 -1.5378
 9001SOL    HW228445   1.508   4.260   5.095 -0.4477 -1.0290 -0.4477
 9002SOL     OW28446   7.808   0.679   1.630 -0.2283 -0.3078 -1.4523
 9002SOL    HW128447   7.720   0.652   1.605 -0.7762  0.9552 -0.9301
 9002SOL    HW228448   7.809   0.671   1.725 -0.7539  2.4049 -1.1535
 9003SOL     OW28449   7.717   2.612  10.819  0.2229  0.4462 -0.4869
 9003SOL    HW128450   7.702   2.671  10.893 -1.1796  0.9372 -1.1326
 9003SOL    HW228451   7.760   2.666  10.754 -1.2849  0.8576 -1.1740
 9004SOL     OW28452   0.042   6.168   7.326  0.2661 -1.0329 -0.0235
 9004SOL    HW128453  -0.043   6.178   7.284  0.3931 -1.6702 -0.4537
 9004SOL    HW228454   0.023   6.168   7.420  0.1473  2.0120  0.0323
 9005SOL     OW28455   3.391   4.080   4.760 -0.4946  0.4153  0.3133
 9005SOL    HW128456   3.472   4.075   4.809 -1.0904 -1.6730  1.1900
 9005SOL    HW228457   3.370   3.989   4.739 -2.0920  0.9880 -0.7488
 9006SOL     OW28458   1.526   1.254   1.607 -0.3081 -0.3177  0.1483
 9006SOL    HW128459   1.586   1.280   1.677 -1.3532  1.6982  0.3944
 9006SOL    HW228460   1.457   1.205   1.652 -0.9306  0.8976  0.5778
 9007SOL     OW28461   2.430   0.656   0.340  0.0886  0.2720 -0.3578
 9007SOL    HW128462   2.418   0.748   0.363  0.4783  0.4058 -0.6837
 9007SOL    HW228463   2.454   0.613   0.422 -1.6622  0.1630  0.1418
 9008SOL     OW28464   3.078   1.208   5.023 -0.6562 -0.3770 -0.5404
 9008SOL    HW128465   3.080   1.276   4.955  1.1377  2.0373  1.7144
 9008SOL    HW228466   3.160   1.160   5.010 -0.2714  0.1417 -0.0378
 9009SOL     OW28467   2.645   3.685  12.041 -0.3504 -0.1329 -0.0636
 9009SOL    HW128468   2.689   3.655  12.121  1.1409  0.6690 -0.5508
 9009SOL    HW228469   2.716   3.715  11.984 -1.3587 -0.8673 -1.7862
 9010SOL     OW28470   1.883   0.632   2.076 -0.2803  0.3978  0.2343
 9010SOL    HW128471   1.837   0.593   2.150 -0.7590 -0.4899 -0.5124
 9010SOL    HW228472   1.914   0.557   2.025  1.7651  0.9562  0.5546
 9011SOL     OW28473   7.674   7.141   9.585  0.2287  0.0670  0.2470
 9011SOL    HW128474   7.579   7.157   9.580  0.4776  1.6736  0.1825
 9011SOL    HW228475   7.687   7.103   9.671 -0.1657  2.4826  1.4397
 9012SOL     OW28476   0.279   5.637   5.461 -0.2736  0.2523  0.2124
 9012SOL    HW128477   0.208   5.694   5.434 -0.6268 -0.4233 -0.3367
 9012SOL    HW228478   0.259   5.613   5.551 -1.2702 -0.6847 -0.2355
 9013SOL     OW28479   6.957   2.791  11.358 -0.0789  0.1310  0.1377
 9013SOL    HW128480   6.915   2.732  11.420  1.3802 -1.9296 -0.7206
 9013SOL    HW228481   6.931   2.758  11.271  1.6048  0.0530 -0.3712
 9014SOL     OW28482   3.775   2.209  10.291  0.1029  0.2545 -0.0126
 9014SOL    HW128483   3.839   2.263  10.338 -1.1644  1.2333  0.6512
 9014SOL    HW228484   3.690   2.241  10.321 -0.7170 -0.8203 -1.0925
 9015SOL     OW28485   1.970   0.362   7.672 -0.3590  0.1689 -0.2183
 9015SOL    HW128486   1.995   0.451   7.696 -2.3649  0.3750  1.5068
 9015SOL    HW228487   1.920   0.372   7.591  2.0340  0.1475 -1.7908
 9016SOL     OW28488   4.360   3.029   1.868  0.4321  0.3226 -0.1482
 9016SOL    HW128489   4.337   2.948   1.822  3.4049 -0.2473 -0.8954
 9016SOL    HW228490   4.325   3.099   1.814 -1.2201 -0.4074 -0.0842
 9017SOL     OW28491   7.747   0.398   4.886  0.1156  0.6048 -0.1701
 9017SOL    HW128492   7.796   0.372   4.808 -2.2686 -1.0314 -1.2426
 9017SOL    HW228493   7.712   0.317   4.921 -1.2606  1.6207  0.9414
 9018SOL     OW28494   2.669   0.864   9.615 -0.6646 -0.0873  0.8480
 9018SOL    HW128495   2.693   0.781   9.657  0.2199  0.2602  1.0513
 9018SOL    HW228496   2.753   0.906   9.596 -1.0803  0.3511 -0.0881
 9019SOL     OW28497   1.068   7.281   4.216  0.6628 -0.2079 -0.4770
 9019SOL    HW128498   1.116   7.248   4.293  0.1935 -0.4638 -0.2939
 9019SOL    HW228499   1.027   7.362   4.248  0.3264 -0.4063 -0.4118
 9020SOL     OW28500   5.246   4.562   2.234 -0.2718 -0.1829 -0.4789
 9020SOL    HW128501   5.185   4.490   2.252  0.1782 -0.2350  0.9284
 9020SOL    HW228502   5.318   4.521   2.187 -1.1080 -0.1925 -1.8099
 9021SOL     OW28503   7.669   3.243   4.169 -0.0107  0.6080  0.3226
 9021SOL    HW128504   7.632   3.268   4.084 -1.3342 -1.9650  0.0084
 9021SOL    HW228505   7.754   3.286   4.173  0.1271  0.7384 -2.3801
 9022SOL     OW28506   6.942   3.346  12.288 -0.4228 -0.2104 -0.1744
 9022SOL    HW128507   6.978   3.434  12.272  0.7078 -0.1945  2.0733
 9022SOL    HW228508   7.015   3.287  12.270 -1.3982 -0.8544 -2.4543
 9023SOL     OW28509   7.640   1.854   5.405  0.0874  0.1462 -0.2204
 9023SOL    HW128510   7.731   1.836   5.429  0.2597  0.3355 -0.7253
 9023SOL    HW228511   7.590   1.835   5.484  0.8769  3.0525  1.1081
 9024SOL     OW28512   2.573   2.456   4.251  0.0588 -0.3808 -0.3107
 9024SOL    HW128513   2.649   2.408   4.218 -0.1938 -0.0216 -1.4696
 9024SOL    HW228514   2.502   2.434   4.190 -0.5314 -0.0034  0.2287
 9025SOL     OW28515   3.723   6.740   4.352  0.1094  0.1203  0.0392
 9025SOL    HW128516   3.807   6.719   4.313  0.3481  0.3573  0.4186
 9025SOL    HW228517   3.684   6.805   4.293  1.1911  1.7364  1.0345
 9026SOL     OW28518   1.486   1.969   8.028  0.1725 -0.1205  0.1582
 9026SOL    HW128519   1.551   1.900   8.018 -0.3816 -0.3648 -2.7687
 9026SOL    HW228520   1.536   2.050   8.030  0.6621 -0.3496 -1.4154
 9027SOL     OW28521   4.131   7.669   3.139  0.3971  0.8129  0.0678
 9027SOL    HW128522   4.057   7.616   3.169 -0.0973  0.3944 -1.7817
 9027SOL    HW228523   4.123   7.751   3.188 -1.1956  0.7044  0.0307
 9028SOL     OW28524   3.152   0.435   5.707 -0.3412 -0.0398  0.3474
 9028SOL    HW128525   3.130   0.406   5.619 -1.3971  0.6361  0.3725
 9028SOL    HW228526   3.203   0.363   5.744  2.0742  0.5749 -1.5695
 9029SOL     OW28527   0.047   3.519   0.676 -0.4584 -0.6289 -0.2965
 9029SOL    HW128528   0.104   3.504   0.751 -0.2995  0.5760 -0.1644
 9029SOL    HW228529   0.096   3.485   0.601 -0.5006 -1.5718  0.0814
 9030SOL     OW28530   5.896   0.825   1.349  0.9310  0.1411  0.3055
 9030SOL    HW128531   5.884   0.796   1.439 -0.9903 -0.9051 -0.2536
 9030SOL    HW228532   5.988   0.852   1.345  1.4568 -1.1969  2.1747
 9031SOL     OW28533   3.009   1.279   0.545 -0.2254 -0.4420  0.3094
 9031SOL    HW128534   2.995   1.371   0.569  0.2772 -0.5657  1.0925
 9031SOL    HW228535   3.059   1.284   0.463 -0.1756 -0.0238  0.3602
 9032SOL     OW28536   3.258   7.120   8.852 -0.0431  0.3067 -0.0346
 9032SOL    HW128537   3.168   7.112   8.822  0.0622 -0.6357 -0.1429
 9032SOL    HW228538   3.273   7.214   8.860 -1.2381  0.4587  0.6099
 9033SOL     OW28539   2.885   2.330   6.485 -0.2871 -0.3487  0.3138
 9033SOL    HW128540   2.825   2.314   6.413 -0.8816  0.6186  0.5732
 9033SOL    HW228541   2.843   2.290   6.561 -0.0442 -0.6803  0.2729
 9034SOL     OW28542   3.630   2.594   5.176 -0.4429  0.0307  0.3173
 9034SOL    HW128543   3.566   2.620   5.111 -0.3286  0.3028  0.3114
 9034SOL    HW228544   3.629   2.498   5.174 -1.5916  0.0067  1.0519
 9035SOL     OW28545   4.607   3.909   1.200 -0.5293 -0.3227  0.3791
 9035SOL    HW128546   4.687   3.944   1.161  0.2728 -0.8649  1.4918
 9035SOL    HW228547   4.536   3.956   1.155  0.4106  0.3415 -0.4526
 9036SOL     OW28548   7.172   1.654   9.973  0.0773 -0.0406  0.1275
 9036SOL    HW128549   7.167   1.559   9.968  1.6613 -0.1593  0.4282
 9036SOL    HW228550   7.253   1.677   9.928  0.9848  0.9416  2.1475
 9037SOL     OW28551   6.291   4.542  10.432  0.2599 -0.2645  0.3722
 9037SOL    HW128552   6.352   4.486  10.480  1.0353  0.4410  0.2380
 9037SOL    HW228553   6.331   4.552  10.345 -0.9295 -1.1982 -0.3033
 9038SOL     OW28554   6.670   3.606   0.623 -0.0027 -0.1541 -0.3132
 9038SOL    HW128555   6.680   3.608   0.718 -2.3723 -2.3955  0.1139
 9038SOL    HW228556   6.731   3.539   0.593  0.1510 -0.0266 -0.2891
 9039SOL     OW28557   4.362   0.072   8.792  0.0288  0.3044 -0.6358
 9039SOL    HW128558   4.285   0.024   8.821  0.2806  0.5110  0.4351
 9039SOL    HW228559   4.434   0.010   8.802  0.6385  1.2883  2.3804
 9040SOL     OW28560   6.169   2.090  11.708  0.0237  0.7038 -0.0305
 9040SOL    HW128561   6.128   2.136  11.781 -2.2969 -0.0051 -0.8225
 9040SOL    HW228562   6.263   2.090  11.730 -0.6106  0.0160  3.2374
 9041SOL     OW28563   6.661   3.190   8.533 -0.1824 -0.0950 -0.2087
 9041SOL    HW128564   6.628   3.273   8.500 -0.1414  0.7987  1.8701
 9041SOL    HW228565   6.614   3.176   8.615  0.5852 -1.5971  0.0192
 9042SOL     OW28566   5.921   0.198  11.092  0.2692  0.0278 -0.0429
 9042SOL    HW128567   5.955   0.240  11.172 -1.7517  0.8975  0.4322
 9042SOL    HW228568   5.998   0.185  11.037  1.4552  1.2023  1.2586
 9043SOL     OW28569   2.600   4.061  11.791  0.2054 -0.3005 -0.2160
 9043SOL    HW128570   2.616   4.143  11.838 -0.5586  0.3287 -1.0408
 9043SOL    HW228571   2.564   4.003  11.858 -0.7208  0.5348  0.0268
 9044SOL     OW28572   7.276   5.294   9.334 -0.4121 -0.2760  0.3930
 9044SOL    HW128573   7.274   5.389   9.322 -1.2253 -0.4689 -1.1326
 9044SOL    HW228574   7.293   5.259   9.247  2.9065 -1.4831  1.3475
 9045SOL     OW28575   4.058   0.766   2.473 -0.0316  0.4405  0.0978
 9045SOL    HW128576   4.039   0.754   2.380  0.2589 -0.6668  0.1630
 9045SOL    HW228577   4.017   0.849   2.496 -0.5444  0.4742 -0.9011
 9046SOL     OW28578   6.292   4.394   4.498  0.1615 -0.3394  0.2528
 9046SOL    HW128579   6.356   4.440   4.445 -0.4823  1.2705  0.8269
 9046SOL    HW228580   6.298   4.303   4.469 -0.2045  0.4725 -2.5953
 9047SOL     OW28581   2.495   4.354   7.122 -0.0781 -0.1636  0.2616
 9047SOL    HW128582   2.429   4.380   7.187 -0.2311 -0.7918  0.3608
 9047SOL    HW228583   2.462   4.273   7.085  0.5833 -0.4248  0.2312
 9048SOL     OW28584   5.719   4.979   0.565  0.2374  0.6996 -0.5205
 9048SOL    HW128585   5.663   4.927   0.508 -0.1762  0.7532 -0.1691
 9048SOL    HW228586   5.660   5.041   0.606  0.4131  0.2313  0.4702
 9049SOL     OW28587   1.827   1.363   2.067  0.3961  0.1202  0.3523
 9049SOL    HW128588   1.915   1.378   2.034 -0.0467  1.3683 -0.3259
 9049SOL    HW228589   1.789   1.299   2.006  0.1227  1.1996 -0.6278
 9050SOL     OW28590   1.318   0.497   8.788  0.4506 -0.2719 -0.3846
 9050SOL    HW128591   1.322   0.593   8.786  1.7560 -0.1885  2.1095
 9050SOL    HW228592   1.237   0.478   8.835  0.0060 -0.4226 -1.1971
 9051SOL     OW28593   4.883   6.343   3.166  0.2564 -0.5000 -0.1156
 9051SOL    HW128594   4.953   6.370   3.106  0.8676  0.6925  1.0778
 9051SOL    HW228595   4.812   6.404   3.150  0.0954 -0.7113 -0.2131
 9052SOL     OW28596   0.175   5.468  11.213 -0.6969  0.1852 -0.2199
 9052SOL    HW128597   0.210   5.389  11.172 -0.9089  0.1086 -0.2543
 9052SOL    HW228598   0.209   5.466  11.302  0.2434  0.6548 -0.5560
 9053SOL     OW28599   7.308   4.278   4.523 -0.6327  0.2642  0.9511
 9053SOL    HW128600   7.221   4.249   4.494  0.1139 -1.3271  0.1359
 9053SOL    HW228601   7.302   4.373   4.529 -2.1147  0.2617 -0.1254
 9054SOL     OW28602   2.881   0.922  11.876 -0.4730  0.3102 -0.0481
 9054SOL    HW128603   2.839   1.005  11.853 -0.7379  0.2068  0.0610
 9054SOL    HW228604   2.962   0.947  11.920 -1.7234  0.5566  2.2570
 9055SOL     OW28605   1.407   7.621   4.555  1.3724  0.3983  0.0649
 9055SOL    HW128606   1.352   7.565   4.500  1.7039  1.3337 -1.2770
 9055SOL    HW228607   1.474   7.655   4.495  0.4976  3.1497  0.5056
 9056SOL     OW28608   4.941   1.717   6.084  0.1471 -0.0233  0.0739
 9056SOL    HW128609   5.001   1.699   6.156 -1.3257 -0.4341  1.2471
 9056SOL    HW228610   4.922   1.632   6.045 -0.4723 -0.0383  0.3886
 9057SOL     OW28611   7.468   0.223   1.199 -0.0298 -0.4149 -0.3201
 9057SOL    HW128612   7.555   0.256   1.176  0.2104 -1.0627 -0.3416
 9057SOL    HW228613   7.450   0.155   1.134 -0.0925 -1.0338  0.3379
 9058SOL     OW28614   7.340   2.188   5.185  0.1695  0.0810  0.3937
 9058SOL    HW128615   7.253   2.184   5.145 -1.1240  2.5090  2.5882
 9058SOL    HW228616   7.346   2.109   5.239 -0.2004 -0.6430 -0.6047
 9059SOL     OW28617   4.329   1.316   0.233 -0.3221  0.1129 -0.2058
 9059SOL    HW128618   4.323   1.272   0.318 -1.8286  0.0950 -0.3063
 9059SOL    HW228619   4.422   1.339   0.225  0.0406 -0.8469  0.9515
 9060SOL     OW28620   4.967   6.956   5.394 -0.0267  0.2405 -0.0788
 9060SOL    HW128621   5.010   7.023   5.448 -1.1768  0.6816  0.3303
 9060SOL    HW228622   4.959   6.881   5.452 -1.0259  0.6263  0.3066
 9061SOL     OW28623   6.356   6.592   1.390 -0.2774  0.0519  0.1613
 9061SOL    HW128624   6.409   6.514   1.373 -0.5832 -0.3341  0.9663
 9061SOL    HW228625   6.377   6.617   1.480  0.8429  1.7115 -0.5085
 9062SOL     OW28626   3.947   6.572   7.590 -0.8690  0.8570  0.1577
 9062SOL    HW128627   3.962   6.665   7.608  1.3857  0.6123 -0.1647
 9062SOL    HW228628   3.856   6.568   7.561 -0.8448  3.0629 -0.4290
 9063SOL     OW28629   1.717   0.268  10.180 -0.3195 -0.2364 -0.0568
 9063SOL    HW128630   1.660   0.301  10.111  0.5556 -0.2740 -0.8069
 9063SOL    HW228631   1.670   0.193  10.216 -0.4403 -0.6927 -1.1409
 9064SOL     OW28632   7.773   3.930  11.326  0.5052  0.0697 -0.3262
 9064SOL    HW128633   7.784   3.886  11.242 -0.4212  0.3437 -0.6028
 9064SOL    HW228634   7.857   3.919  11.371  0.7390 -0.7680 -0.9601
 9065SOL     OW28635   2.053   0.718   2.499  0.2652 -0.4468  0.4056
 9065SOL    HW128636   1.980   0.778   2.484  0.3798 -0.1252  1.1030
 9065SOL    HW228637   2.015   0.631   2.491 -0.1195 -0.2794  0.3896
 9066SOL     OW28638   7.577   0.991   1.823 -0.2039 -0.6615  0.9923
 9066SOL    HW128639   7.484   0.969   1.818  0.0073 -1.6640  1.3477
 9066SOL    HW228640   7.622   0.916   1.785  0.4390  0.1698  0.0531
 9067SOL     OW28641   2.533   1.103   1.800 -0.6126  0.5541  0.1421
 9067SOL    HW128642   2.626   1.088   1.787 -0.8381 -0.8979  0.0558
 9067SOL    HW228643   2.529   1.180   1.858  0.6047  0.9115 -0.2249
 9068SOL     OW28644   6.900   3.466   0.516 -0.2254  0.6711 -0.1176
 9068SOL    HW128645   6.972   3.501   0.569  0.9467  2.2177 -2.5254
 9068SOL    HW228646   6.904   3.516   0.435 -3.2867 -0.0728 -0.8598
 9069SOL     OW28647   5.823   5.514  10.118 -0.0251  0.4090 -0.6122
 9069SOL    HW128648   5.770   5.517  10.039 -0.0725  3.0518 -0.5488
 9069SOL    HW228649   5.906   5.553  10.094  0.1594  0.7404  0.4825
 9070SOL     OW28650   3.128   5.188   6.409 -0.2733 -0.0074  0.1506
 9070SOL    HW128651   3.210   5.142   6.388  0.6139  1.6845 -0.3061
 9070SOL    HW228652   3.147   5.280   6.389 -2.4631  0.3673 -0.4344
 9071SOL     OW28653   1.153   2.822   4.217  0.5885 -0.1406 -0.4157
 9071SOL    HW128654   1.208   2.887   4.174  1.3007 -0.2619  0.2915
 9071SOL    HW228655   1.108   2.777   4.145 -0.1327  1.3026 -0.9046
 9072SOL     OW28656   0.516   5.107   4.022  0.7764  0.5330  0.2057
 9072SOL    HW128657   0.542   5.035   3.966  1.7353  0.1280  1.1365
 9072SOL    HW228658   0.486   5.066   4.103  0.5719  1.1406  0.4496
 9073SOL     OW28659   4.645   5.496   5.273  0.0992  0.3098  0.1907
 9073SOL    HW128660   4.604   5.426   5.324 -0.3699  1.5208  1.5436
 9073SOL    HW228661   4.578   5.563   5.266  0.9749  1.1954  0.0942
 9074SOL     OW28662   3.089   2.567   1.112 -0.2288 -0.2025  0.2082
 9074SOL    HW128663   3.039   2.647   1.094  0.3303  0.1533  0.1777
 9074SOL    HW228664   3.133   2.585   1.195  0.1689 -0.3369  0.0320
 9075SOL     OW28665   0.879   5.804  11.936  0.0997  0.3035  0.4207
 9075SOL    HW128666   0.861   5.727  11.990  0.5318  0.9145  1.4570
 9075SOL    HW228667   0.962   5.838  11.969 -0.9569  2.2641  1.2377
 9076SOL     OW28668   2.651   5.224   4.651  0.2460  0.3278 -0.3720
 9076SOL    HW128669   2.651   5.197   4.559  1.2639 -0.1286 -0.2468
 9076SOL    HW228670   2.586   5.294   4.656 -4.5482 -3.5713 -0.2586
 9077SOL     OW28671   6.287   4.145  10.387  0.0875  0.4652 -0.0641
 9077SOL    HW128672   6.273   4.087  10.312  2.1532  1.2035 -1.0897
 9077SOL    HW228673   6.206   4.197  10.392 -1.2085 -1.4480 -0.0165
 9078SOL     OW28674   7.002   2.899   4.525 -0.6301  0.0176 -0.6093
 9078SOL    HW128675   7.075   2.939   4.478  0.6887 -1.7865 -0.2353
 9078SOL    HW228676   6.945   2.865   4.456 -1.8190  2.4821 -0.9297
 9079SOL     OW28677   0.566   3.282   5.646 -0.2114 -0.3626  0.0232
 9079SOL    HW128678   0.498   3.277   5.579 -0.0918  2.5316 -0.4199
 9079SOL    HW228679   0.560   3.198   5.693 -2.0791 -1.3635 -1.8573
 9080SOL     OW28680   3.772   1.804   7.288  0.6097 -0.4845  0.4690
 9080SOL    HW128681   3.708   1.875   7.282 -0.4406 -1.3779  0.6307
 9080SOL    HW228682   3.849   1.844   7.329  0.3895  0.7600 -0.2619
 9081SOL     OW28683   3.874   5.096   5.557 -0.0974 -0.1157 -0.0316
 9081SOL    HW128684   3.852   5.006   5.580  0.2858 -0.5583 -1.3229
 9081SOL    HW228685   3.876   5.097   5.462 -0.4778  1.3659 -0.0425
 9082SOL     OW28686   0.929   5.749   1.866  0.3502 -0.4499  0.1765
 9082SOL    HW128687   0.860   5.753   1.932  0.6821  0.5819  0.4809
 9082SOL    HW228688   0.935   5.838   1.832 -0.2740 -1.1011 -1.7519
 9083SOL     OW28689   1.430   3.484   1.116  0.3364  0.0937  0.3722
 9083SOL    HW128690   1.483   3.429   1.173  1.3289 -0.7114 -1.2614
 9083SOL    HW228691   1.444   3.573   1.149  0.9593 -0.3428  1.3235
 9084SOL     OW28692   2.918   6.429   9.943  1.1762 -0.2137  0.0950
 9084SOL    HW128693   2.899   6.439   9.850  0.1078 -0.5239  0.2740
 9084SOL    HW228694   2.890   6.512   9.982  0.4434 -0.5641  0.3193
 9085SOL     OW28695   4.559   2.590   2.309  0.2515  0.2694  0.6687
 9085SOL    HW128696   4.514   2.516   2.351  1.2108 -0.8169 -0.1224
 9085SOL    HW228697   4.645   2.592   2.351  0.7175  0.0533 -0.2323
 9086SOL     OW28698   3.112   0.179   1.151 -0.0907  0.4064 -0.2654
 9086SOL    HW128699   3.079   0.122   1.221  0.4067  0.1227 -0.2552
 9086SOL    HW228700   3.159   0.120   1.092 -0.6526  0.6205 -0.9364
 9087SOL     OW28701   4.036   2.312   6.398 -0.5675  0.1139  0.1241
 9087SOL    HW128702   4.087   2.377   6.447  3.5928 -2.6483  0.0653
 9087SOL    HW228703   4.024   2.240   6.460 -0.4394 -1.0688 -1.1612
 9088SOL     OW28704   6.710   5.940   8.751  0.5338 -0.0337  0.2695
 9088SOL    HW128705   6.796   5.901   8.738  0.3715 -0.9785  1.8151
 9088SOL    HW228706   6.726   6.035   8.753  1.4545 -0.1839  0.1522
 9089SOL     OW28707   2.914   2.793   1.384 -0.0081  0.6516  0.0299
 9089SOL    HW128708   2.972   2.728   1.424  0.0293  0.3969 -0.4297
 9089SOL    HW228709   2.925   2.780   1.290 -2.7656 -1.1678 -0.1435
 9090SOL     OW28710   0.527   7.007   0.027 -0.1810  0.3299 -0.0169
 9090SOL    HW128711   0.501   7.055   0.106  0.1321  0.5081 -0.0171
 9090SOL    HW228712   0.567   6.927   0.061 -2.1037 -0.6976 -0.0442
 9091SOL     OW28713   3.769   1.994   7.652 -0.3671  0.3721 -0.5161
 9091SOL    HW128714   3.833   1.923   7.655 -1.6123 -0.7661  0.5853
 9091SOL    HW228715   3.795   2.048   7.577  0.8840 -0.9871 -1.0892
 9092SOL     OW28716   3.454   6.929   8.419  0.4713  0.1200 -0.0717
 9092SOL    HW128717   3.509   6.919   8.341  0.8064  0.8252  0.0672
 9092SOL    HW228718   3.395   6.854   8.416  0.0920  0.4374 -1.3264
 9093SOL     OW28719   0.372   1.573  11.091  0.0529 -0.0489  0.4661
 9093SOL    HW128720   0.385   1.516  11.167 -0.9303 -0.7920  0.0972
 9093SOL    HW228721   0.437   1.643  11.102 -0.0037 -0.1951  1.9319
 9094SOL     OW28722   0.947   0.099   2.350  0.2695  0.1369 -0.5626
 9094SOL    HW128723   0.872   0.041   2.365  1.0204 -0.6658  0.1239
 9094SOL    HW228724   1.023   0.049   2.378  1.1016  0.8766 -1.4268
 9095SOL     OW28725   1.241   5.110  10.345 -0.1172  0.0015  0.3054
 9095SOL    HW128726   1.248   5.028  10.393  0.0755 -0.3217 -0.2654
 9095SOL    HW228727   1.231   5.177  10.413 -0.4019 -0.5025  0.7682
 9096SOL     OW28728   5.302   2.047   6.712 -0.4480 -0.3851 -0.5206
 9096SOL    HW128729   5.291   2.112   6.644 -1.2979  0.9061  0.7961
 9096SOL    HW228730   5.336   1.970   6.667 -0.5438  0.5783 -2.2999
 9097SOL     OW28731   5.987   2.937   5.407  0.3456 -0.1422 -0.3462
 9097SOL    HW128732   5.898   2.925   5.374  0.4534  0.9431 -1.0625
 9097SOL    HW228733   6.029   2.852   5.394 -0.0390 -0.1434 -1.7425
 9098SOL     OW28734   5.200   0.692   7.587 -0.1487  0.8494 -0.4197
 9098SOL    HW128735   5.241   0.754   7.647 -0.2892  0.1834  0.3912
 9098SOL    HW228736   5.183   0.742   7.508 -1.0555  2.0831  0.5192
 9099SOL     OW28737   0.805   0.877  12.160 -0.3123 -0.8481  0.2404
 9099SOL    HW128738   0.895   0.910  12.156 -0.5804 -0.1909 -0.7250
 9099SOL    HW228739   0.777   0.895  12.250 -0.1985  0.9446 -0.0405
 9100SOL     OW28740   7.740   1.995   1.342 -0.2751  0.5808  0.2332
 9100SOL    HW128741   7.733   2.079   1.298  0.2160  0.0621 -0.8841
 9100SOL    HW228742   7.821   1.957   1.309 -1.2333 -0.9813 -0.4668
 9101SOL     OW28743   6.895   6.506   6.459  0.4011 -0.2071  0.3046
 9101SOL    HW128744   6.800   6.510   6.445  0.3513  1.3418  0.8110
 9101SOL    HW228745   6.911   6.573   6.526  1.6832 -1.4320  1.2577
 9102SOL     OW28746   7.099   5.309   9.991 -0.3448 -0.0964  0.4265
 9102SOL    HW128747   7.183   5.322  10.035 -0.0684  0.7971 -0.3353
 9102SOL    HW228748   7.111   5.230   9.938  0.4981  0.7955 -0.7631
 9103SOL     OW28749   6.733   5.552  11.177 -0.5897 -0.0639 -0.1695
 9103SOL    HW128750   6.738   5.613  11.251 -2.3522 -1.2290  0.9693
 9103SOL    HW228751   6.763   5.604  11.102 -0.3395  1.6609  1.0619
 9104SOL     OW28752   4.384   2.052  11.887  0.2187 -0.4587 -0.3863
 9104SOL    HW128753   4.297   2.093  11.889  0.5467  0.3163 -1.2630
 9104SOL    HW228754   4.445   2.125  11.897  0.8114 -0.7321 -1.8619
 9105SOL     OW28755   1.915   0.021   2.837  0.2981 -0.0580  0.1748
 9105SOL    HW128756   1.972   0.089   2.800 -1.2331  1.2933  0.2040
 9105SOL    HW228757   1.969  -0.059   2.834  1.8694  0.9687 -0.5993
 9106SOL     OW28758   6.201   6.421  10.957  0.0456 -0.1177  0.1371
 9106SOL    HW128759   6.289   6.450  10.980  0.1379 -0.0388 -0.3191
 9106SOL    HW228760   6.158   6.499  10.922 -0.1907 -0.1701  0.3051
 9107SOL     OW28761   3.657   0.072   3.264 -0.3971 -0.3820  0.4026
 9107SOL    HW128762   3.694   0.085   3.351  1.1961 -0.1340 -0.2822
 9107SOL    HW228763   3.659  -0.022   3.250 -1.5587 -0.5102  0.9925
 9108SOL     OW28764   2.152   1.244   4.526 -0.0721  0.1148  0.0932
 9108SOL    HW128765   2.146   1.336   4.554  0.4858  0.6802 -1.5416
 9108SOL    HW228766   2.090   1.238   4.453 -1.0784 -1.1784  1.0045
 9109SOL     OW28767   6.546   0.571   0.814 -0.0980  0.2037  0.4623
 9109SOL    HW128768   6.521   0.663   0.821 -0.4938  0.2419 -0.9499
 9109SOL    HW228769   6.469   0.528   0.775 -0.4235 -1.0052  2.2823
 9110SOL     OW28770   1.169   7.819   3.082 -0.1904 -0.1830  0.6852
 9110SOL    HW128771   1.204   7.738   3.044  1.0955  1.1900 -1.3138
 9110SOL    HW228772   1.246   7.864   3.117 -0.3939  1.3867 -0.7476
 9111SOL     OW28773   4.890   7.936   6.825 -0.2709  0.2386 -0.0484
 9111SOL    HW128774   4.871   7.842   6.825  3.3797 -0.6539 -1.6657
 9111SOL    HW228775   4.947   7.949   6.901  0.0419  0.9378 -0.3967
 9112SOL     OW28776   7.371   1.228   1.142 -0.2214 -0.1238  0.0041
 9112SOL    HW128777   7.307   1.284   1.186  0.1527  1.6270 -1.5323
 9112SOL    HW228778   7.421   1.288   1.088  0.4398 -1.9294 -1.4858
 9113SOL     OW28779   5.436   6.917   5.056  0.3379 -0.1272 -0.2291
 9113SOL    HW128780   5.392   6.870   4.985  0.5944 -1.4557  0.4791
 9113SOL    HW228781   5.371   6.981   5.085  0.8622  1.8068 -2.8792
 9114SOL     OW28782   3.913   6.112   7.325 -0.1969  0.1746 -0.1705
 9114SOL    HW128783   3.983   6.167   7.361 -0.5218 -0.0574  0.8354
 9114SOL    HW228784   3.920   6.029   7.374 -0.4683 -0.2555 -0.8445
 9115SOL     OW28785   5.486   5.594  10.972 -0.3890  0.8208 -0.5602
 9115SOL    HW128786   5.430   5.621  11.045 -0.1029 -0.1549  0.0372
 9115SOL    HW228787   5.425   5.579  10.900 -0.6412  2.1197 -0.6309
 9116SOL     OW28788   3.108   4.800   2.037  0.4371 -0.1808  0.0381
 9116SOL    HW128789   3.020   4.838   2.040  0.3597 -0.3534 -0.0519
 9116SOL    HW228790   3.140   4.820   1.949  0.3587 -0.4096 -0.0428
 9117SOL     OW28791   5.216   6.234  12.104 -0.3726  0.7285  0.1746
 9117SOL    HW128792   5.216   6.204  12.013  0.9111  0.5799  0.1985
 9117SOL    HW228793   5.223   6.153  12.155 -1.5416  0.7785  0.4416
 9118SOL     OW28794   3.214   4.868   8.109 -0.4285  0.0742 -0.0008
 9118SOL    HW128795   3.182   4.781   8.130  0.4512 -0.2688 -0.0214
 9118SOL    HW228796   3.246   4.862   8.019 -0.2223  0.3680  0.0482
 9119SOL     OW28797   0.799   7.099   2.425 -0.0899 -0.5271  0.0716
 9119SOL    HW128798   0.799   7.040   2.500  0.5408 -0.6271 -0.0037
 9119SOL    HW228799   0.879   7.078   2.377  0.0687  0.2738 -0.0406
 9120SOL     OW28800   2.341   4.342   8.896  0.4420  0.0232  0.4800
 9120SOL    HW128801   2.312   4.253   8.913  2.7459 -0.9560 -0.3001
 9120SOL    HW228802   2.405   4.360   8.966  0.0915  1.0231  0.5612
 9121SOL     OW28803   4.841   4.026   5.062  0.0706  0.0957  0.2205
 9121SOL    HW128804   4.874   4.088   4.997 -1.2012  0.2211 -0.3453
 9121SOL    HW228805   4.803   4.081   5.130 -0.5043 -0.0421  0.0178
 9122SOL     OW28806   3.051   1.754   5.004 -0.1443 -0.1714  0.2995
 9122SOL    HW128807   3.011   1.685   4.951 -0.6000  0.4568 -0.1969
 9122SOL    HW228808   3.060   1.716   5.091 -0.8489 -0.6872  0.1562
 9123SOL     OW28809   7.376   0.936   0.069  0.5942  0.3380  0.1872
 9123SOL    HW128810   7.446   1.001   0.062 -0.1575  1.0365 -1.4068
 9123SOL    HW228811   7.309   0.967   0.008 -0.3686 -1.2160  0.4123
 9124SOL     OW28812   2.712   3.199   4.099  0.5172  0.0681 -0.5345
 9124SOL    HW128813   2.772   3.175   4.170  0.4761  0.7771 -0.2518
 9124SOL    HW228814   2.762   3.186   4.019  0.9334  0.3170 -0.3171
 9125SOL     OW28815   1.434   2.954   8.098 -0.0759 -0.1754  0.1238
 9125SOL    HW128816   1.379   2.887   8.059  0.0836  0.1192 -0.6130
 9125SOL    HW228817   1.470   2.913   8.177 -0.8460 -0.5765  0.2742
 9126SOL     OW28818   2.701   0.021   3.287 -0.3342  0.6575 -0.1803
 9126SOL    HW128819   2.762   0.033   3.215  1.5375  0.3102  1.2612
 9126SOL    HW228820   2.676  -0.071   3.283 -1.0208  0.8649 -0.9383
 9127SOL     OW28821   0.641   1.215   6.216 -0.1492  0.2471 -0.0174
 9127SOL    HW128822   0.687   1.234   6.298  0.9168 -1.8293 -0.0599
 9127SOL    HW228823   0.706   1.231   6.148 -0.0395 -0.9082 -0.2096
 9128SOL     OW28824   6.449   6.740   1.622 -0.2087  1.1871 -0.1888
 9128SOL    HW128825   6.525   6.789   1.589 -1.7343  4.3746  0.6732
 9128SOL    HW228826   6.451   6.752   1.716 -1.2373  0.4584 -0.0549
 9129SOL     OW28827   7.206   0.163   4.823 -0.4614  0.2061  0.3762
 9129SOL    HW128828   7.199   0.075   4.785  1.5283  0.0072  0.3752
 9129SOL    HW228829   7.115   0.188   4.841 -1.4403 -0.2338 -3.2086
 9130SOL     OW28830   0.673   0.873  11.466  0.4629  0.3930 -0.0771
 9130SOL    HW128831   0.711   0.788  11.487 -0.5219 -0.3484 -1.1594
 9130SOL    HW228832   0.620   0.896  11.542  0.1275 -0.3321 -0.0859
 9131SOL     OW28833   5.653   0.704   3.152 -0.3231  0.1836 -0.2864
 9131SOL    HW128834   5.652   0.749   3.237  1.6839  0.8286 -0.5436
 9131SOL    HW228835   5.654   0.775   3.088  1.8714 -0.1514 -0.7223
 9132SOL     OW28836   7.374   2.950   1.686  0.1721 -0.4580  0.4370
 9132SOL    HW128837   7.342   2.968   1.598  2.7540  0.7006 -0.3785
 9132SOL    HW228838   7.308   2.893   1.725 -1.6512 -0.0091 -1.7912
 9133SOL     OW28839   5.474   5.511   0.142 -0.0988 -0.2259  0.0518
 9133SOL    HW128840   5.487   5.562   0.222  0.0725  1.1367 -0.7960
 9133SOL    HW228841   5.475   5.577   0.072 -1.4640 -1.2331 -0.9630
 9134SOL     OW28842   3.759   4.519   0.818  0.4876 -0.1185 -0.0577
 9134SOL    HW128843   3.739   4.430   0.788 -1.3648 -0.3068  1.4993
 9134SOL    HW228844   3.841   4.511   0.865  1.1791 -0.6511 -1.2991
 9135SOL     OW28845   4.791   1.552  10.347  0.4839 -0.3715 -0.2926
 9135SOL    HW128846   4.798   1.503  10.265  0.2091  0.0061 -0.5434
 9135SOL    HW228847   4.769   1.641  10.320  0.7917 -0.1501  0.1715
 9136SOL     OW28848   3.397   4.442  11.458  0.1014 -0.1406  0.1796
 9136SOL    HW128849   3.333   4.451  11.388  1.0125  0.4069 -0.6173
 9136SOL    HW228850   3.466   4.387  11.420  1.6965  1.9869 -0.1976
 9137SOL     OW28851   0.948   0.381   1.546  0.1651  0.4026  0.1689
 9137SOL    HW128852   0.870   0.361   1.598 -0.5780  0.1731 -0.9865
 9137SOL    HW228853   0.917   0.379   1.456  1.6151 -0.1477 -0.3426
 9138SOL     OW28854   4.036   7.299   6.608 -0.9732 -0.1790  0.3107
 9138SOL    HW128855   4.029   7.344   6.692  1.2021 -0.6324  0.8144
 9138SOL    HW228856   4.089   7.358   6.554 -0.1441 -1.0063  0.1771
 9139SOL     OW28857   7.811   1.179   6.167 -0.1730 -0.5191 -0.2990
 9139SOL    HW128858   7.893   1.156   6.211  0.9617  3.0290 -0.3020
 9139SOL    HW228859   7.743   1.150   6.227  1.1052 -2.0859  0.4616
 9140SOL     OW28860   2.432   4.180   6.493 -0.1870  0.2533  0.1295
 9140SOL    HW128861   2.504   4.204   6.551  2.4309 -2.7556 -1.5934
 9140SOL    HW228862   2.405   4.262   6.453  1.0615  1.7236  2.1059
 9141SOL     OW28863   0.688   5.204  11.592 -0.3691  0.0196  0.4890
 9141SOL    HW128864   0.699   5.155  11.511  0.8476 -0.9643  1.2071
 9141SOL    HW228865   0.615   5.161  11.636  0.5616 -1.0831  1.0216
 9142SOL     OW28866   2.762   2.359  11.320  0.1274 -0.6922  0.0987
 9142SOL    HW128867   2.766   2.277  11.369 -1.5345 -1.1897 -0.5200
 9142SOL    HW228868   2.800   2.425  11.379  0.8523 -1.7796  0.8709
 9143SOL     OW28869   6.675   6.062   8.029 -0.7058 -0.3803 -0.0182
 9143SOL    HW128870   6.750   6.055   8.088 -1.5736  0.2331  1.1968
 9143SOL    HW228871   6.713   6.072   7.942  0.6099 -0.9525  0.4719
 9144SOL     OW28872   1.207   3.456   6.444  0.1652  0.2650  0.7814
 9144SOL    HW128873   1.303   3.458   6.452  0.3391 -1.3976 -0.3031
 9144SOL    HW228874   1.183   3.547   6.428  1.8986  0.3964 -1.6515
 9145SOL     OW28875   0.853   4.288   8.204  0.0213 -0.7272  0.3839
 9145SOL    HW128876   0.873   4.341   8.280 -3.2106 -0.2788  1.0887
 9145SOL    HW228877   0.813   4.208   8.240  0.3456 -1.4585 -0.7954
 9146SOL     OW28878   1.560   4.907   6.359 -0.3590 -0.3881  0.4460
 9146SOL    HW128879   1.547   4.873   6.447  0.4453 -0.4833  0.5371
 9146SOL    HW228880   1.649   4.942   6.360 -0.5398  0.1159 -0.1676
 9147SOL     OW28881   0.107   1.232  10.846  0.0687 -0.1959  0.0856
 9147SOL    HW128882   0.055   1.300  10.804  0.6158 -0.4012 -0.9429
 9147SOL    HW228883   0.197   1.264  10.841  0.2284 -0.5860  0.3904
 9148SOL     OW28884   1.099   4.508   7.083 -0.1771 -0.4165 -0.2412
 9148SOL    HW128885   1.006   4.518   7.064  0.0319  1.4773 -0.4054
 9148SOL    HW228886   1.119   4.576   7.147  1.4031  0.1990 -1.3227
 9149SOL     OW28887   6.866   6.384   4.620  0.9247 -0.0100 -0.5945
 9149SOL    HW128888   6.861   6.289   4.627  2.0355 -0.1766 -1.6217
 9149SOL    HW228889   6.863   6.415   4.710  0.7743 -1.0373 -0.2367
 9150SOL     OW28890   5.956   4.349  11.287  0.2495 -0.2244  0.7203
 9150SOL    HW128891   5.864   4.321  11.288  0.0273  0.3608 -0.7677
 9150SOL    HW228892   5.967   4.395  11.370 -0.4518 -1.3462  1.4639
 9151SOL     OW28893   6.719   0.465   1.878  0.4114  0.1453  1.1540
 9151SOL    HW128894   6.786   0.404   1.847  1.3149  1.6310  0.0606
 9151SOL    HW228895   6.768   0.532   1.926 -0.0813  1.9204 -0.7036
 9152SOL     OW28896   7.476   2.668   1.856  0.2957 -0.0617 -0.5552
 9152SOL    HW128897   7.442   2.741   1.907 -0.3874 -0.2988 -0.6625
 9152SOL    HW228898   7.418   2.595   1.876 -1.1039  0.2642 -2.9835
 9153SOL     OW28899   3.599   2.396   3.663  0.0384 -0.5412  0.4154
 9153SOL    HW128900   3.573   2.308   3.639 -1.0819 -0.1807  0.2609
 9153SOL    HW228901   3.573   2.406   3.754  0.0077 -0.3137  0.3837
 9154SOL     OW28902   4.531   4.061   0.959 -0.1589 -0.8997  0.2972
 9154SOL    HW128903   4.510   4.119   0.886 -0.3426 -0.8793  0.3679
 9154SOL    HW228904   4.565   3.982   0.917 -0.4201 -0.9527  0.1837
 9155SOL     OW28905   1.683   3.963   4.590  0.8815  0.3910  0.4090
 9155SOL    HW128906   1.629   4.042   4.580 -0.1838 -0.4524 -1.0135
 9155SOL    HW228907   1.672   3.917   4.507  2.2597 -0.7841  0.8482
 9156SOL     OW28908   7.244   3.174   4.828  0.4170 -0.0249  0.0150
 9156SOL    HW128909   7.254   3.079   4.820  2.3024  0.1894 -0.7262
 9156SOL    HW228910   7.271   3.208   4.743  0.1631  1.2021  0.4075
 9157SOL     OW28911   7.636   2.035  12.411  0.4283  0.1316  0.0422
 9157SOL    HW128912   7.648   2.127  12.435  1.5334 -0.5670  2.4239
 9157SOL    HW228913   7.542   2.026  12.395  0.3040  1.6483 -0.1691
 9158SOL     OW28914   5.784   7.422   0.608 -0.2574  0.3245  0.3729
 9158SOL    HW128915   5.786   7.509   0.647  1.7781  1.5082 -2.0965
 9158SOL    HW228916   5.776   7.437   0.514 -1.2412 -2.2254 -0.0255
 9159SOL     OW28917   5.982   3.040   0.423  0.0432 -0.0226  0.5168
 9159SOL    HW128918   5.899   3.055   0.379 -0.2779  1.4211  1.5559
 9159SOL    HW228919   6.004   3.124   0.463  1.6672 -0.5579  0.8412
 9160SOL     OW28920   3.064   4.836   2.669  0.1937 -0.4624  0.0818
 9160SOL    HW128921   3.101   4.753   2.639  0.9415 -0.1076  0.0074
 9160SOL    HW228922   2.976   4.839   2.630  0.2984 -1.0485 -0.2091
 9161SOL     OW28923   1.148   3.527   5.128  0.9430  0.2155  0.0177
 9161SOL    HW128924   1.159   3.462   5.059  3.2834  2.1118 -1.5582
 9161SOL    HW228925   1.053   3.533   5.140  0.5891 -2.1750 -0.9849
 9162SOL     OW28926   1.513   5.996   7.333 -0.5005  0.2155 -0.3474
 9162SOL    HW128927   1.508   6.069   7.271 -0.8016  0.0183 -0.5549
 9162SOL    HW228928   1.470   6.029   7.412 -1.4065 -0.0312 -0.7288
 9163SOL     OW28929   4.822   1.923   9.300  0.2839  0.0419  0.5190
 9163SOL    HW128930   4.893   1.984   9.317  0.9285  0.0125 -1.7632
 9163SOL    HW228931   4.744   1.967   9.334  0.8912  1.6606 -0.0863
 9164SOL     OW28932   4.303   0.740   1.909  0.2057  0.4379 -0.1388
 9164SOL    HW128933   4.227   0.797   1.922  0.3025  0.5884 -0.2282
 9164SOL    HW228934   4.265   0.653   1.895  0.0396  0.5463 -0.3802
 9165SOL     OW28935   5.686   5.360   0.003  0.6147 -0.5779  0.6594
 9165SOL    HW128936   5.611   5.393   0.053  0.1912 -0.2483 -0.1803
 9165SOL    HW228937   5.655   5.280  -0.039 -0.6471  1.5382 -2.9129
 9166SOL     OW28938   6.395   6.301   9.275 -0.2383  0.2954  0.5684
 9166SOL    HW128939   6.311   6.331   9.241  0.4955  0.8535 -0.8267
 9166SOL    HW228940   6.447   6.380   9.285  1.4106 -0.2932 -2.2868
 9167SOL     OW28941   4.280   0.445   0.329  0.2947  0.0687 -0.0715
 9167SOL    HW128942   4.356   0.414   0.378  0.4491 -0.3841 -0.5801
 9167SOL    HW228943   4.230   0.366   0.311  0.0124  0.2881 -0.2566
 9168SOL     OW28944   5.052   2.328   3.824  0.5131  0.3239 -0.1577
 9168SOL    HW128945   5.023   2.403   3.773  0.5870  0.5806  0.1746
 9168SOL    HW228946   5.114   2.365   3.887  1.5499 -0.2052 -0.8444
 9169SOL     OW28947   6.149   7.611   3.196  1.1109 -0.3585  0.0457
 9169SOL    HW128948   6.192   7.574   3.273  2.1687 -1.4548 -1.0200
 9169SOL    HW228949   6.099   7.537   3.160  0.2729  0.2611 -0.0930
 9170SOL     OW28950   6.179   0.848   1.972  0.0842  0.0272 -0.2164
 9170SOL    HW128951   6.247   0.833   2.038 -0.1364 -1.2570 -0.2493
 9170SOL    HW228952   6.098   0.820   2.014  0.1178 -2.1142 -1.4280
 9171SOL     OW28953   6.941   7.784  11.535 -0.1474  0.0227  0.0861
 9171SOL    HW128954   6.958   7.837  11.613 -1.3759  0.0008  0.3937
 9171SOL    HW228955   6.856   7.744  11.552 -1.0298  0.9775 -1.7658
 9172SOL     OW28956   5.752   0.224   5.534  0.5261  0.0075 -0.1429
 9172SOL    HW128957   5.784   0.156   5.475  1.3809  1.2178 -1.1128
 9172SOL    HW228958   5.831   0.265   5.568  0.0226  0.8877 -0.0127
 9173SOL     OW28959   2.851   6.858   9.855 -0.0651 -0.0541  0.1653
 9173SOL    HW128960   2.758   6.874   9.871  0.0058  2.0513 -1.2294
 9173SOL    HW228961   2.855   6.825   9.765  0.5388 -0.2618  0.2622
 9174SOL     OW28962   1.773   2.214  10.150  0.2016  0.4177 -0.1823
 9174SOL    HW128963   1.779   2.306  10.126 -0.0395  0.2292 -0.9681
 9174SOL    HW228964   1.715   2.176  10.085  0.0940 -0.2391  0.2924
 9175SOL     OW28965   6.410   5.428   3.069  0.3202 -0.4509  0.0699
 9175SOL    HW128966   6.442   5.495   3.009  1.7199  0.0130  1.2522
 9175SOL    HW228967   6.488   5.401   3.118 -0.9245  0.0778  2.4983
 9176SOL     OW28968   4.279   1.858   5.571  0.2148  0.5880 -0.1283
 9176SOL    HW128969   4.374   1.865   5.575  0.5355 -1.2566 -2.6314
 9176SOL    HW228970   4.249   1.906   5.649  3.0804  2.2549  0.1091
 9177SOL     OW28971   6.045   7.957   1.335  0.3994  0.1760 -0.5956
 9177SOL    HW128972   6.087   7.930   1.254 -1.5713 -0.5056 -1.4596
 9177SOL    HW228973   5.963   7.998   1.307  1.1170  2.8903  0.9116
 9178SOL     OW28974   4.065   0.251   4.199 -0.2750  0.2513  0.2621
 9178SOL    HW128975   4.120   0.247   4.277  0.0648 -2.0763 -0.0323
 9178SOL    HW228976   4.091   0.175   4.148 -4.2364 -1.3915  0.4150
 9179SOL     OW28977   1.805   7.230  11.316 -0.1937  0.3755 -0.6597
 9179SOL    HW128978   1.754   7.257  11.239 -1.8372 -1.1149 -0.1602
 9179SOL    HW228979   1.744   7.237  11.389  0.7469 -0.1640  0.2055
 9180SOL     OW28980   5.398   6.459   8.713  0.2766 -0.0019  0.7442
 9180SOL    HW128981   5.491   6.434   8.713  0.1348 -0.5766 -0.1221
 9180SOL    HW228982   5.350   6.376   8.709 -0.2491  0.3206  0.1559
 9181SOL     OW28983   2.292   1.451   7.590  0.4450  0.0698 -0.3466
 9181SOL    HW128984   2.338   1.531   7.616  0.7421  0.0043 -0.6599
 9181SOL    HW228985   2.347   1.380   7.622  0.5276 -0.0083 -0.6535
 9182SOL     OW28986   6.268   6.823   2.855 -0.2577 -0.1205 -0.0305
 9182SOL    HW128987   6.223   6.751   2.810  1.7234 -0.0718 -2.3076
 9182SOL    HW228988   6.272   6.892   2.789  2.1613  0.2408  0.4090
 9183SOL     OW28989   0.114   0.923  10.145 -0.0942 -0.3037  0.3677
 9183SOL    HW128990   0.103   0.860  10.075 -0.3619  1.8445 -1.6316
 9183SOL    HW228991   0.192   0.973  10.121  0.9137 -0.6835  2.5940
 9184SOL     OW28992   6.268   6.857   5.872  0.1585  0.3132  0.1415
 9184SOL    HW128993   6.236   6.947   5.870  0.0426  0.3455  1.9673
 9184SOL    HW228994   6.347   6.859   5.817 -0.4936  1.2334 -0.8018
 9185SOL     OW28995   4.127   4.353   8.722  0.4150  0.1156  0.3381
 9185SOL    HW128996   4.185   4.430   8.728  0.2184  0.2792  0.1195
 9185SOL    HW228997   4.178   4.283   8.763  0.4514  0.4464  0.8736
 9186SOL     OW28998   6.496   0.577  10.616  0.2136 -0.3276  0.2444
 9186SOL    HW128999   6.483   0.487  10.647 -0.5786 -0.2954  0.0250
 9186SOL    HW229000   6.472   0.575  10.524  0.9983 -0.0642  0.0266
 9187SOL     OW29001   7.140   4.240   9.044  0.2870 -0.3120  0.5868
 9187SOL    HW129002   7.210   4.261   9.106 -0.7222 -1.2474  2.0984
 9187SOL    HW229003   7.061   4.278   9.083  0.0634  1.8153 -1.6969
 9188SOL     OW29004   1.757   4.474   1.904 -0.0879  0.6504  0.3317
 9188SOL    HW129005   1.798   4.512   1.982 -0.7950  0.2389  0.9282
 9188SOL    HW229006   1.677   4.526   1.892 -0.0078  0.6754 -0.0825
 9189SOL     OW29007   4.089   2.064  10.220 -0.0303 -1.1707  0.3989
 9189SOL    HW129008   4.018   2.020  10.175  0.6938 -1.2115 -0.7630
 9189SOL    HW229009   4.132   1.996  10.272 -0.9439 -1.0999  1.2675
 9190SOL     OW29010   7.085   7.579   7.540 -0.1208 -0.4618  0.0152
 9190SOL    HW129011   7.037   7.628   7.606  0.0700  0.7857 -0.7327
 9190SOL    HW229012   7.175   7.576   7.573  0.4341  1.9113 -1.0397
 9191SOL     OW29013   1.033   2.345  10.169 -0.1874  0.4423  0.2178
 9191SOL    HW129014   1.039   2.345  10.073  0.8609  0.6219  0.2702
 9191SOL    HW229015   1.095   2.412  10.197 -0.8708  0.7547  1.0139
 9192SOL     OW29016   2.464   3.064   6.809  0.2434 -0.8456 -0.3577
 9192SOL    HW129017   2.507   3.008   6.874  0.0211  0.0948  0.6380
 9192SOL    HW229018   2.388   3.099   6.855  0.4385  0.3477 -0.9127
 9193SOL     OW29019   5.251   3.320  10.790 -0.0409 -0.8540 -0.2729
 9193SOL    HW129020   5.173   3.287  10.746 -1.9559  1.7455  0.9092
 9193SOL    HW229021   5.234   3.305  10.883  0.1527  0.9606  0.1058
 9194SOL     OW29022   2.079   5.599   2.837  0.4229  0.2739 -0.3192
 9194SOL    HW129023   2.143   5.528   2.831 -0.8880 -1.0925  1.0643
 9194SOL    HW229024   2.097   5.641   2.922  1.4264  1.9195 -1.2739
 9195SOL     OW29025   6.699   7.787   4.590 -0.0070 -0.1980 -0.1873
 9195SOL    HW129026   6.605   7.801   4.595  0.0196  0.1891 -0.6885
 9195SOL    HW229027   6.726   7.769   4.680 -0.7163 -1.3600 -0.1825
 9196SOL     OW29028   7.302   1.767  10.433 -0.1383  0.4969  0.3494
 9196SOL    HW129029   7.319   1.829  10.363  0.2393  0.6907  0.6063
 9196SOL    HW229030   7.335   1.684  10.400 -0.6178  0.4347  0.0173
 9197SOL     OW29031   0.613   2.098   8.783 -0.0416  0.0453 -0.2055
 9197SOL    HW129032   0.561   2.103   8.863  2.2586  2.8937  1.3235
 9197SOL    HW229033   0.567   2.155   8.721 -0.8944 -0.7847 -0.3629
 9198SOL     OW29034   7.664   0.909   2.238  0.7174 -0.1645  0.2451
 9198SOL    HW129035   7.700   0.922   2.150  0.6964  0.5457  0.3428
 9198SOL    HW229036   7.686   0.989   2.286 -3.1594  1.4628 -0.3916
 9199SOL     OW29037   4.287   3.867  12.323  0.0062  0.1980 -0.4464
 9199SOL    HW129038   4.206   3.892  12.368  0.1232  2.2799 -1.2493
 9199SOL    HW229039   4.354   3.924  12.362  0.2664  1.4383 -2.5402
 9200SOL     OW29040   0.866   1.598   3.903 -0.3410  0.0663 -0.3828
 9200SOL    HW129041   0.948   1.612   3.856 -0.6882 -2.1637 -1.7829
 9200SOL    HW229042   0.890   1.602   3.995  1.2121  0.1497 -0.7700
 9201SOL     OW29043   6.199   4.480  11.403  0.0949  0.2608  1.0075
 9201SOL    HW129044   6.284   4.454  11.438 -0.6089 -2.5069  0.9368
 9201SOL    HW229045   6.136   4.430  11.455 -1.2924  0.2394 -0.6054
 9202SOL     OW29046   6.439   3.188   0.924 -0.3105 -0.1101  0.0184
 9202SOL    HW129047   6.350   3.191   0.957 -0.4817 -1.8831 -0.1816
 9202SOL    HW229048   6.432   3.214   0.833 -0.3763  1.1867  0.3698
 9203SOL     OW29049   3.380   4.051   4.096 -0.4355 -0.1522  0.5372
 9203SOL    HW129050   3.440   4.039   4.169  0.6832 -0.2298 -0.3626
 9203SOL    HW229051   3.378   4.146   4.082  1.7522 -0.2613 -1.1903
 9204SOL     OW29052   6.373   0.957   5.167  0.3491  0.0436 -0.6323
 9204SOL    HW129053   6.364   1.013   5.090 -2.7665  0.4383 -0.1143
 9204SOL    HW229054   6.335   0.873   5.139  1.3157 -0.5603 -0.1875
 9205SOL     OW29055   2.578   4.921  10.898 -0.1539 -0.0719 -0.1515
 9205SOL    HW129056   2.618   4.906  10.812  0.8185 -0.3144  0.3243
 9205SOL    HW229057   2.625   4.861  10.957 -1.1761 -0.2978  0.4524
 9206SOL     OW29058   5.417   5.776   7.209  0.1395 -0.0116 -0.1056
 9206SOL    HW129059   5.364   5.785   7.289  1.0723  2.1268  0.3287
 9206SOL    HW229060   5.362   5.724   7.150 -2.0101  1.2329  0.6903
 9207SOL     OW29061   5.511   6.850   1.124  0.1048 -0.0184  0.2061
 9207SOL    HW129062   5.601   6.828   1.149  1.1521  0.7500 -2.5398
 9207SOL    HW229063   5.478   6.770   1.082  1.0017  0.8712 -2.3711
 9208SOL     OW29064   5.368   6.174   1.516  0.0825  0.4710  0.5927
 9208SOL    HW129065   5.462   6.177   1.531  0.5043  2.1461 -1.9301
 9208SOL    HW229066   5.336   6.258   1.547 -0.2626  0.6732 -0.2827
 9209SOL     OW29067   3.180   2.578   2.820  0.6288 -0.2287 -0.0443
 9209SOL    HW129068   3.211   2.658   2.778  0.1699  0.1879  0.4062
 9209SOL    HW229069   3.092   2.564   2.785  0.9801 -0.9488 -0.6814
 9210SOL     OW29070   6.181   6.724   9.340 -0.5472  0.5192  0.4194
 9210SOL    HW129071   6.251   6.754   9.282  0.3762  1.3638  1.9164
 9210SOL    HW229072   6.131   6.662   9.287  2.7282 -2.0200 -0.0182
 9211SOL     OW29073   6.302   7.800  11.488 -0.3313 -0.3411  0.4211
 9211SOL    HW129074   6.248   7.853  11.546 -0.5872 -0.0673 -0.0622
 9211SOL    HW229075   6.323   7.858  11.415 -1.3578 -1.1409 -0.5543
 9212SOL     OW29076   0.269   0.827   6.766  0.0480 -0.2022 -0.7842
 9212SOL    HW129077   0.332   0.898   6.774  0.7284 -0.9374  0.8734
 9212SOL    HW229078   0.184   0.869   6.777  0.2389  0.7378 -2.6064
 9213SOL     OW29079   3.556   4.331   3.348 -0.0589  1.0608  0.4503
 9213SOL    HW129080   3.499   4.319   3.424  0.3046  0.6647  0.6653
 9213SOL    HW229081   3.519   4.273   3.281  1.4816 -1.1440  1.3705
 9214SOL     OW29082   2.697   6.078   1.287  0.5708 -0.7172 -0.7874
 9214SOL    HW129083   2.767   6.019   1.315  2.4970  2.1775  1.0619
 9214SOL    HW229084   2.632   6.073   1.357  1.2525  0.0895 -0.0732
 9215SOL     OW29085   1.320   4.712   1.980 -0.1248 -0.3218 -0.0160
 9215SOL    HW129086   1.228   4.690   1.962 -0.1992 -1.4179  1.5010
 9215SOL    HW229087   1.315   4.780   2.047  0.1918  1.2723 -1.5186
 9216SOL     OW29088   4.817   0.116   3.976  0.2998 -0.1689 -0.5994
 9216SOL    HW129089   4.857   0.148   4.057  1.3440  1.0307 -1.5485
 9216SOL    HW229090   4.891   0.101   3.917 -0.5409  0.5893 -1.8830
 9217SOL     OW29091   0.687   2.851   8.789  0.3552 -0.2500 -0.0261
 9217SOL    HW129092   0.600   2.888   8.771  0.7739  1.4221  1.1782
 9217SOL    HW229093   0.745   2.894   8.726  0.5677 -0.1661  0.2256
 9218SOL     OW29094   0.802   4.544   5.307 -0.0059  0.1371 -0.2955
 9218SOL    HW129095   0.808   4.576   5.397 -3.5574 -1.2290  0.5904
 9218SOL    HW229096   0.840   4.456   5.310 -1.9101 -0.7171  0.4601
 9219SOL     OW29097   6.598   3.004   6.688 -0.3414  0.4031  0.5655
 9219SOL    HW129098   6.508   2.985   6.714  0.3337 -2.4816  1.1206
 9219SOL    HW229099   6.644   3.021   6.771  0.5081 -2.7599  0.8880
 9220SOL     OW29100   3.515   7.339   6.906 -0.0241 -0.5313 -0.3261
 9220SOL    HW129101   3.568   7.294   6.972 -1.2410 -2.9896 -0.9338
 9220SOL    HW229102   3.578   7.395   6.859  1.4210 -1.0329  0.9159
 9221SOL     OW29103   5.975   3.108   3.584  0.1352 -0.4115 -0.5247
 9221SOL    HW129104   5.912   3.131   3.516 -0.0113 -0.2879 -0.3487
 9221SOL    HW229105   5.967   3.178   3.648 -0.8236 -1.3145  0.3742
 9222SOL     OW29106   3.702   1.102  11.864  0.3876 -0.6180 -0.1472
 9222SOL    HW129107   3.699   1.142  11.951  0.4050 -0.5419 -0.1817
 9222SOL    HW229108   3.684   1.174  11.803 -0.5179 -0.8412 -0.1600
 9223SOL     OW29109   3.903   7.142   4.394  0.0440  0.7497  0.1889
 9223SOL    HW129110   3.950   7.059   4.400 -2.4426 -0.8770 -1.0343
 9223SOL    HW229111   3.933   7.181   4.312 -1.6378 -0.9870 -1.3488
 9224SOL     OW29112   6.179   0.845   1.517  0.3858 -0.4186 -0.1447
 9224SOL    HW129113   6.183   0.907   1.590  0.7896  1.2065 -1.4906
 9224SOL    HW229114   6.184   0.759   1.558 -0.3871  0.4169  1.8099
 9225SOL     OW29115   5.602   6.141   2.772 -0.3028  0.5059  0.2426
 9225SOL    HW129116   5.522   6.091   2.789  0.5153 -1.0785 -0.3235
 9225SOL    HW229117   5.600   6.213   2.835 -0.5634 -1.3636  2.4686
 9226SOL     OW29118   0.910   5.754  10.510 -0.4981 -0.1700 -0.0763
 9226SOL    HW129119   0.941   5.837  10.473 -0.3498 -0.8382 -1.5587
 9226SOL    HW229120   0.949   5.688  10.453 -0.1543 -1.2939  1.4251
 9227SOL     OW29121   4.224   5.561   0.440 -0.2346  0.7116  0.2456
 9227SOL    HW129122   4.273   5.639   0.468  0.0226  0.3165  0.9409
 9227SOL    HW229123   4.139   5.594   0.413 -0.2851  1.1832  0.9663
 9228SOL     OW29124   7.793   2.747   8.961 -0.1071 -0.3507  0.0356
 9228SOL    HW129125   7.780   2.678   9.026 -0.2080  0.5515  1.0085
 9228SOL    HW229126   7.868   2.717   8.908  1.2267 -0.2495  1.7807
 9229SOL     OW29127   4.446   4.756   6.505 -0.5745  0.2553 -0.4863
 9229SOL    HW129128   4.393   4.754   6.585 -1.4830 -1.5673 -1.0694
 9229SOL    HW229129   4.394   4.805   6.442 -0.2067  1.0307 -0.1904
 9230SOL     OW29130   6.057   0.209   4.529 -0.1520  0.4432 -0.1477
 9230SOL    HW129131   5.969   0.237   4.553 -0.7030  0.6318 -2.2382
 9230SOL    HW229132   6.055   0.203   4.434  1.5502 -1.3993 -0.1214
 9231SOL     OW29133   0.748   7.384   4.283 -0.6401 -0.7541  0.3152
 9231SOL    HW129134   0.739   7.289   4.296  0.8857 -0.7852  1.4637
 9231SOL    HW229135   0.665   7.420   4.312 -1.1313 -1.7140  0.1501
 9232SOL     OW29136   2.608   2.749   5.655 -0.1162 -0.5131  0.2634
 9232SOL    HW129137   2.557   2.818   5.699  0.2121  0.6609 -1.1038
 9232SOL    HW229138   2.699   2.772   5.673  0.0642  0.5885 -1.7931
 9233SOL     OW29139   3.902   6.715   9.177 -0.2748  0.0902 -0.4826
 9233SOL    HW129140   3.867   6.667   9.102  1.2989 -0.8841 -0.6460
 9233SOL    HW229141   3.854   6.798   9.177 -0.8419 -0.2006 -2.1188
 9234SOL     OW29142   1.008   1.489   1.236  0.5744  0.4778  0.3383
 9234SOL    HW129143   1.099   1.516   1.246  0.8748  0.4293 -1.7948
 9234SOL    HW229144   1.008   1.433   1.159 -1.5549  2.0488 -0.9236
 9235SOL     OW29145   1.243   4.894   6.401 -0.1808  0.1680 -0.4636
 9235SOL    HW129146   1.280   4.808   6.422  0.2330  0.3891 -0.2781
 9235SOL    HW229147   1.316   4.955   6.414 -0.8776  0.7483  0.9554
 9236SOL     OW29148   3.267   4.740  11.350 -0.4636  0.3051 -0.5923
 9236SOL    HW129149   3.253   4.835  11.345  0.3229  0.6513  2.3321
 9236SOL    HW229150   3.318   4.720  11.271  1.6563  2.8077 -0.0036
 9237SOL     OW29151   4.352   1.417   9.099 -0.3739  0.6499 -0.3355
 9237SOL    HW129152   4.262   1.420   9.132 -0.6154  1.0091 -1.0134
 9237SOL    HW229153   4.383   1.507   9.108 -0.8346  1.0229 -2.1243
 9238SOL     OW29154   6.328   5.524   7.816 -0.1959  0.0227  0.1190
 9238SOL    HW129155   6.272   5.592   7.779  0.8211  0.6718 -0.2842
 9238SOL    HW229156   6.394   5.572   7.866  1.4373 -0.5352 -1.3972
 9239SOL     OW29157   2.014   5.471   4.697 -0.1513 -0.5106  0.1884
 9239SOL    HW129158   1.932   5.512   4.668 -0.0695 -0.4735  0.0046
 9239SOL    HW229159   2.050   5.532   4.761  1.0518  0.8150 -1.6449
 9240SOL     OW29160   6.875   0.242   9.546 -0.3739  0.1786  1.4736
 9240SOL    HW129161   6.847   0.286   9.466  0.8848  0.2727  1.0686
 9240SOL    HW229162   6.797   0.245   9.603 -0.7110  1.8020  0.9893
 9241SOL     OW29163   2.241   1.772  12.201  0.3485 -0.6378 -0.5888
 9241SOL    HW129164   2.322   1.820  12.188  0.2003 -0.6766 -1.7400
 9241SOL    HW229165   2.221   1.734  12.115 -0.7626 -0.8088 -0.2708
 9242SOL     OW29166   7.958   2.034   6.881  0.1256  0.2929 -0.4041
 9242SOL    HW129167   7.941   1.940   6.879 -0.6557  0.4091  0.3384
 9242SOL    HW229168   7.885   2.071   6.929  1.4286  1.0498  1.1074
 9243SOL     OW29169   1.457   0.884   4.039  0.0931  0.0235 -0.2755
 9243SOL    HW129170   1.365   0.900   4.059 -0.1376 -2.5776  1.1018
 9243SOL    HW229171   1.479   0.805   4.087  3.3840  1.1432  0.3191
 9244SOL     OW29172   6.832   0.066   8.072  0.4448  0.0295 -0.2801
 9244SOL    HW129173   6.870   0.141   8.026 -0.5632  0.1880 -0.8776
 9244SOL    HW229174   6.902   0.037   8.131  0.8906  1.3853 -0.0855
 9245SOL     OW29175   0.041   3.592   8.224 -0.0644  0.5584 -0.6747
 9245SOL    HW129176  -0.051   3.608   8.245 -0.3102 -0.4372 -0.9412
 9245SOL    HW229177   0.047   3.498   8.210  0.9181  0.6630 -1.0766
 9246SOL     OW29178   0.616   7.896   9.819  0.7108 -0.1121  0.3213
 9246SOL    HW129179   0.523   7.907   9.800  0.5750  0.4004  1.2224
 9246SOL    HW229180   0.653   7.983   9.807  0.7947  0.0104  1.3917
 9247SOL     OW29181   1.140   3.602   4.256  0.1841  0.3772  0.4761
 9247SOL    HW129182   1.190   3.672   4.298  0.4332  0.7948 -0.4824
 9247SOL    HW229183   1.168   3.605   4.164 -0.2656 -0.5747  0.2994
 9248SOL     OW29184   2.154   5.512   5.659  0.4583 -0.6156 -0.2477
 9248SOL    HW129185   2.233   5.521   5.712  0.1637 -0.8275  0.2351
 9248SOL    HW229186   2.148   5.418   5.641  0.3723 -0.5886 -0.3639
 9249SOL     OW29187   7.324   6.843   5.105  0.1907 -0.2878 -0.2573
 9249SOL    HW129188   7.298   6.781   5.173 -3.7874  1.8932  0.5374
 9249SOL    HW229189   7.290   6.805   5.024 -2.7668  0.8840  0.3026
 9250SOL     OW29190   1.222   7.646   1.014  0.6111 -0.0963 -0.0085
 9250SOL    HW129191   1.170   7.676   0.939  1.3138 -2.7154 -1.6896
 9250SOL    HW229192   1.284   7.584   0.976  1.5937 -0.8662  2.6550
 9251SOL     OW29193   4.482   5.715   5.590  0.5093  0.5386 -0.1223
 9251SOL    HW129194   4.522   5.735   5.675 -1.3173 -0.5806  1.0928
 9251SOL    HW229195   4.388   5.723   5.607  0.1221  0.8065 -2.2129
 9252SOL     OW29196   3.103   1.815   6.907 -0.0438 -0.4315  0.5706
 9252SOL    HW129197   3.121   1.887   6.966 -0.2536  0.8012 -0.8093
 9252SOL    HW229198   3.181   1.808   6.852  1.9760 -4.2664  3.4881
 9253SOL     OW29199   1.756   7.930   9.995 -0.4586 -0.7367 -0.1990
 9253SOL    HW129200   1.748   7.907  10.088 -0.0246 -1.1295 -0.2566
 9253SOL    HW229201   1.678   7.983   9.977 -0.2379 -0.1331  0.5414
 9254SOL     OW29202   5.301   3.404   2.269  0.2360 -0.2117  0.7544
 9254SOL    HW129203   5.334   3.472   2.210  0.6011  0.5591  1.8208
 9254SOL    HW229204   5.225   3.368   2.223 -0.5219  1.5359  0.5573
 9255SOL     OW29205   5.062   5.853   7.584 -0.6043 -0.4254  0.3901
 9255SOL    HW129206   4.998   5.904   7.536 -0.5640 -0.0755  0.7080
 9255SOL    HW229207   5.093   5.911   7.654  1.6634  0.2390 -1.0362
 9256SOL     OW29208   3.563   6.145   8.792 -0.0171  0.1189 -0.2566
 9256SOL    HW129209   3.606   6.228   8.775 -1.1293  0.5344 -1.2193
 9256SOL    HW229210   3.560   6.138   8.887  0.5734  0.9073 -0.1677
 9257SOL     OW29211   2.354   2.015  11.985  0.1508  0.5001 -0.8617
 9257SOL    HW129212   2.439   2.055  12.000  0.2666 -0.3661  1.1232
 9257SOL    HW229213   2.291   2.085  12.006  0.3772  0.3177  0.5680
 9258SOL     OW29214   3.156   7.320  10.550 -0.0554  0.1252  0.0852
 9258SOL    HW129215   3.193   7.232  10.541 -0.4623 -0.0969  0.5702
 9258SOL    HW229216   3.223   7.378  10.514 -0.4225 -0.5025 -1.7053
 9259SOL     OW29217   1.056   6.836   4.063 -0.5508  0.2134 -0.2349
 9259SOL    HW129218   1.017   6.769   4.006 -0.4779  0.2268 -0.3005
 9259SOL    HW229219   1.023   6.919   4.028 -1.2442  0.1736  0.3063
 9260SOL     OW29220   0.870   7.451   8.328  0.0586  0.6709 -0.4382
 9260SOL    HW129221   0.937   7.518   8.310 -1.3268  2.0525 -0.6904
 9260SOL    HW229222   0.801   7.499   8.375 -1.5057 -0.3059 -1.6596
 9261SOL     OW29223   3.029   5.203   4.742 -0.2300 -0.2336 -0.2378
 9261SOL    HW129224   2.990   5.145   4.677 -2.4836 -0.0287  0.8437
 9261SOL    HW229225   2.954   5.249   4.782  1.1812  0.7428  1.4454
 9262SOL     OW29226   7.315   1.365   2.822 -0.2137  0.1133 -0.2344
 9262SOL    HW129227   7.267   1.293   2.781  0.0339 -0.3041  0.1966
 9262SOL    HW229228   7.390   1.323   2.865  0.3260  0.7132 -0.5744
 9263SOL     OW29229   0.076   3.360   9.653 -0.2091  0.5743  0.4300
 9263SOL    HW129230   0.019   3.339   9.727  0.4889 -0.6958  0.6447
 9263SOL    HW229231   0.022   3.342   9.576 -0.4671  0.4991  0.6248
 9264SOL     OW29232   6.098   7.761   5.107  0.0826  0.1910 -0.0530
 9264SOL    HW129233   6.098   7.666   5.101 -2.9013  0.1476 -1.3010
 9264SOL    HW229234   6.190   7.786   5.094  1.1616 -2.5011  1.5429
 9265SOL     OW29235   1.722   3.397   2.412  0.2544 -0.0019  0.0306
 9265SOL    HW129236   1.793   3.410   2.350  0.8505 -1.5061  0.3586
 9265SOL    HW229237   1.761   3.410   2.498 -0.2318  0.6603  0.1593
 9266SOL     OW29238   1.106   2.544   0.973  0.4845  0.2755 -0.1439
 9266SOL    HW129239   1.136   2.517   1.060 -0.5434 -0.5746 -0.0352
 9266SOL    HW229240   1.187   2.558   0.924  1.0754  0.2139  0.7735
 9267SOL     OW29241   2.909   1.885  10.896  0.8397 -0.2374 -0.1095
 9267SOL    HW129242   2.865   1.885  10.811  0.2956 -2.1586  0.1234
 9267SOL    HW229243   2.866   1.815  10.945 -0.7869  2.5143  2.8263
 9268SOL     OW29244   1.225   6.134  10.545 -0.0793  0.5672 -0.0650
 9268SOL    HW129245   1.251   6.074  10.475  1.1452 -0.0276  0.8526
 9268SOL    HW229246   1.135   6.109  10.566  0.1499 -0.4530 -0.2302
 9269SOL     OW29247   2.293   4.608  11.205 -0.6603  0.0790 -0.2510
 9269SOL    HW129248   2.320   4.639  11.119  0.8015  0.8884  0.4612
 9269SOL    HW229249   2.374   4.575  11.245 -1.1342  0.5177  1.1322
 9270SOL     OW29250   1.254   5.800  10.118 -0.1326  0.4041  0.2239
 9270SOL    HW129251   1.164   5.775  10.100  0.3515 -0.7728 -0.6729
 9270SOL    HW229252   1.279   5.748  10.194  0.3238 -0.6153 -0.5945
 9271SOL     OW29253   5.183   3.893  12.022 -0.0680 -0.0347  0.2913
 9271SOL    HW129254   5.187   3.893  12.118 -0.2815  0.7382  0.3113
 9271SOL    HW229255   5.089   3.897  12.002 -0.0185 -0.0371  0.0598
 9272SOL     OW29256   6.432   2.436   4.756 -0.3637  0.5807 -0.1572
 9272SOL    HW129257   6.448   2.530   4.754 -0.3688  0.5805 -0.2115
 9272SOL    HW229258   6.500   2.401   4.814 -0.2807  0.6015 -0.2416
 9273SOL     OW29259   6.944   5.290   7.021 -0.1569  0.0776  0.1282
 9273SOL    HW129260   6.900   5.216   6.980  0.2584 -0.0018 -0.1771
 9273SOL    HW229261   6.991   5.252   7.095 -2.1447  0.4341  1.6659
 9274SOL     OW29262   4.578   1.840   7.499 -0.1882 -1.0052 -0.6481
 9274SOL    HW129263   4.531   1.924   7.498  1.1163 -0.2442 -1.0305
 9274SOL    HW229264   4.621   1.836   7.413  0.2223 -1.7920 -0.4106
 9275SOL     OW29265   0.366   5.480   0.482  0.7846  0.1600 -0.0243
 9275SOL    HW129266   0.296   5.437   0.434 -0.4162  2.9331 -0.9427
 9275SOL    HW229267   0.444   5.429   0.460  0.1092  0.5099 -4.0553
 9276SOL     OW29268   1.036   3.344   4.223 -0.3176  0.2038 -0.5660
 9276SOL    HW129269   1.075   3.419   4.269 -1.0357 -0.7896  1.8000
 9276SOL    HW229270   1.077   3.267   4.262 -0.5505 -0.7084 -2.0358
 9277SOL     OW29271   1.760   5.523  11.812  0.3412  0.3359  0.5054
 9277SOL    HW129272   1.714   5.439  11.806 -0.2224  0.6540  0.2537
 9277SOL    HW229273   1.843   5.508  11.766 -0.3247  0.2877 -0.7275
 9278SOL     OW29274   1.750   2.166   2.412 -0.4199 -0.4522 -0.2020
 9278SOL    HW129275   1.759   2.261   2.420  2.4870 -0.6604  0.3632
 9278SOL    HW229276   1.675   2.153   2.354 -0.2193  2.2276 -1.1856
 9279SOL     OW29277   1.757   7.452   4.441 -0.0717 -0.0125  0.0959
 9279SOL    HW129278   1.836   7.500   4.467 -0.3578  0.1971  0.5965
 9279SOL    HW229279   1.761   7.449   4.346  1.6738 -1.8997  0.1572
 9280SOL     OW29280   4.547   1.462   4.478  0.1614 -0.0225 -0.1236
 9280SOL    HW129281   4.557   1.529   4.545  1.9068  0.0476 -0.4228
 9280SOL    HW229282   4.581   1.382   4.517  2.0765  0.2184 -1.1931
 9281SOL     OW29283   2.075   1.995  11.509  0.4382 -0.1825 -0.2792
 9281SOL    HW129284   1.990   2.020  11.544  0.0860  0.2520 -1.3957
 9281SOL    HW229285   2.055   1.951  11.426  1.3229  2.9074 -2.3635
 9282SOL     OW29286   5.928   0.650  11.017  0.5664  0.3340  0.6973
 9282SOL    HW129287   6.015   0.610  11.025  1.6511  2.5804  1.0411
 9282SOL    HW229288   5.892   0.646  11.105  0.0868 -1.0041  0.4661
 9283SOL     OW29289   0.681   3.217   8.942  0.1373 -0.3204 -0.4172
 9283SOL    HW129290   0.760   3.168   8.921  1.2546  1.1044  0.2868
 9283SOL    HW229291   0.679   3.289   8.878  0.2721  0.5482  0.5376
 9284SOL     OW29292   2.213   4.042   6.627  0.1116  0.1143 -0.0962
 9284SOL    HW129293   2.287   4.079   6.578 -0.1284 -0.6087 -1.0275
 9284SOL    HW229294   2.136   4.084   6.589 -0.4109 -2.9460 -2.8994
 9285SOL     OW29295   4.761   5.098   0.022  0.5055  0.1806  0.0709
 9285SOL    HW129296   4.719   5.084  -0.063  2.6948  1.9494 -1.4225
 9285SOL    HW229297   4.737   5.021   0.074  0.4865 -1.8291 -2.7019
 9286SOL     OW29298   2.421   2.057   9.146 -0.1591  0.4356 -0.0040
 9286SOL    HW129299   2.515   2.072   9.141 -0.0790  0.2628  0.8324
 9286SOL    HW229300   2.391   2.112   9.218 -0.6659  0.3314 -0.1268
 9287SOL     OW29301   7.295   6.992  10.544  0.3328  0.5401 -0.0268
 9287SOL    HW129302   7.311   7.080  10.578  1.0423  0.2126  0.5069
 9287SOL    HW229303   7.371   6.973  10.489  0.1824  0.2571 -0.1395
 9288SOL     OW29304   3.424   3.611   8.480  0.0876 -0.0144  0.4110
 9288SOL    HW129305   3.409   3.560   8.400  0.0397  0.8892 -0.1650
 9288SOL    HW229306   3.460   3.547   8.541 -1.0924 -1.0320  0.1111
 9289SOL     OW29307   1.013   6.473   1.300 -0.0424  0.1433 -0.1001
 9289SOL    HW129308   1.091   6.450   1.249 -1.9822 -2.1790 -2.2556
 9289SOL    HW229309   1.036   6.450   1.390  1.1235 -2.4140 -0.9530
 9290SOL     OW29310   4.805   0.719   8.809 -1.0553  0.4603  0.5029
 9290SOL    HW129311   4.824   0.804   8.770 -0.9864 -0.4477 -1.5394
 9290SOL    HW229312   4.719   0.695   8.773 -1.7043  0.2244  2.1098
 9291SOL     OW29313   5.321   0.079   3.046 -0.2678  0.2752  0.0618
 9291SOL    HW129314   5.324   0.172   3.023 -0.2022 -0.0903 -1.4969
 9291SOL    HW229315   5.310   0.078   3.142  0.6795  1.8683  0.2121
 9292SOL     OW29316   1.956   4.277   4.744 -0.4047 -0.1661  0.1868
 9292SOL    HW129317   1.993   4.317   4.665 -0.3323  0.2921  0.4439
 9292SOL    HW229318   1.929   4.190   4.717 -1.2501  0.3168 -0.5902
 9293SOL     OW29319   1.554   7.250   2.810  0.2749  0.1720  0.3329
 9293SOL    HW129320   1.474   7.282   2.851  1.5088 -0.3020  3.4185
 9293SOL    HW229321   1.536   7.158   2.791 -1.3606  1.0920 -3.3392
 9294SOL     OW29322   1.060   4.655   1.940 -1.0011  0.0496  0.1785
 9294SOL    HW129323   0.971   4.686   1.953 -0.7825  2.1481 -2.4364
 9294SOL    HW229324   1.051   4.583   1.876 -0.8264  0.3751 -0.2163
 9295SOL     OW29325   2.863   2.881   8.991  0.2001 -0.1955 -0.2725
 9295SOL    HW129326   2.847   2.929   9.072  1.2036 -1.3281  0.6327
 9295SOL    HW229327   2.956   2.896   8.972 -0.0869  0.2862 -1.3833
 9296SOL     OW29328   0.600   6.505   2.953  0.0425 -0.3833  0.1494
 9296SOL    HW129329   0.635   6.514   2.865  0.4342  0.7667  0.4010
 9296SOL    HW229330   0.677   6.496   3.009 -0.0301  1.3915  0.6202
 9297SOL     OW29331   0.690   3.787   4.394  0.1230  0.1050  0.8857
 9297SOL    HW129332   0.769   3.733   4.388  0.7391  0.8982  1.6064
 9297SOL    HW229333   0.623   3.727   4.425  0.1716 -0.8137 -0.6352
 9298SOL     OW29334   3.445   7.570   9.137 -0.2448  0.3802  0.1121
 9298SOL    HW129335   3.400   7.535   9.061 -1.3076 -0.6421  1.1750
 9298SOL    HW229336   3.472   7.658   9.111 -0.7121  0.1031 -1.3778
 9299SOL     OW29337   5.516   6.931  10.115  0.4923  0.2682 -0.0452
 9299SOL    HW129338   5.456   6.873  10.163  1.1316 -0.6924 -0.3640
 9299SOL    HW229339   5.603   6.895  10.133  0.8813  0.9559 -0.5118
 9300SOL     OW29340   4.291   3.875   1.149 -0.4389 -0.0328 -0.1912
 9300SOL    HW129341   4.292   3.781   1.131  0.2001 -0.1345  0.3310
 9300SOL    HW229342   4.207   3.905   1.115 -0.0738 -0.5418 -1.6108
 9301SOL     OW29343   5.286   4.723   1.688 -0.1401 -0.1173  0.6167
 9301SOL    HW129344   5.290   4.637   1.730  1.0363 -0.6482 -0.5328
 9301SOL    HW229345   5.225   4.773   1.743 -0.8340 -1.6572  1.3206
 9302SOL     OW29346   1.166   1.152   8.101 -0.4246 -0.3414  0.6749
 9302SOL    HW129347   1.243   1.151   8.044 -1.1975  0.1487 -0.4164
 9302SOL    HW229348   1.198   1.187   8.184  1.0529 -2.4442  1.0869
 9303SOL     OW29349   6.696   7.183   7.300 -0.7401 -0.4205 -0.6962
 9303SOL    HW129350   6.725   7.224   7.218  0.4320 -1.6588 -0.9269
 9303SOL    HW229351   6.774   7.180   7.355 -1.3341 -0.3285  0.1810
 9304SOL     OW29352   6.393   0.531   0.153  0.4130  0.0246  0.0365
 9304SOL    HW129353   6.303   0.549   0.125  0.7589  2.6826  0.4199
 9304SOL    HW229354   6.438   0.506   0.072 -0.0641  1.2785 -0.6400
 9305SOL     OW29355   7.628   6.006  10.790 -0.1816  0.1930  0.3527
 9305SOL    HW129356   7.551   5.991  10.845  0.0980 -0.8355  0.4724
 9305SOL    HW229357   7.685   6.061  10.843 -1.2217  1.8100 -0.1026
 9306SOL     OW29358   2.116   3.526  10.380  0.2890  0.2689 -0.1035
 9306SOL    HW129359   2.081   3.477  10.455 -0.3890  0.9696  0.0445
 9306SOL    HW229360   2.167   3.596  10.418 -0.0706  0.6381 -0.2910
 9307SOL     OW29361   6.743   3.809   0.063  0.1667  0.3351 -0.3422
 9307SOL    HW129362   6.680   3.758   0.113 -0.2859  1.6919  0.5466
 9307SOL    HW229363   6.704   3.820  -0.023 -0.5438  0.6453  0.0123
 9308SOL     OW29364   3.416   4.703   6.836  0.4450 -0.2265  0.0640
 9308SOL    HW129365   3.497   4.744   6.864  0.3295  0.3611 -0.4304
 9308SOL    HW229366   3.347   4.747   6.886  0.2966  0.3910 -0.6554
 9309SOL     OW29367   7.637   1.104  10.396 -0.6498 -0.0375 -0.0030
 9309SOL    HW129368   7.625   1.060  10.312  0.2862  1.1356 -0.7864
 9309SOL    HW229369   7.729   1.090  10.418 -0.6872  0.3564  0.4248
 9310SOL     OW29370   4.777   5.605   3.099 -0.7215 -0.0994 -0.0721
 9310SOL    HW129371   4.718   5.680   3.095 -0.3543  0.1468 -1.6381
 9310SOL    HW229372   4.750   5.550   3.026 -0.4955 -1.1345  0.6054
 9311SOL     OW29373   0.815   0.464   3.357  0.2365  0.0640 -0.7574
 9311SOL    HW129374   0.888   0.498   3.409  0.0099 -0.4222 -0.1051
 9311SOL    HW229375   0.833   0.370   3.349  0.4053  0.1646 -1.7969
 9312SOL     OW29376   0.473   1.750  10.585 -0.6025  0.3849  0.2842
 9312SOL    HW129377   0.434   1.671  10.623  1.1537 -1.0054 -0.6335
 9312SOL    HW229378   0.541   1.776  10.647 -0.1176  0.2235 -0.1722
 9313SOL     OW29379   4.595   1.045   4.779 -0.1005  0.0018  0.0258
 9313SOL    HW129380   4.518   1.006   4.821  1.0197 -0.8933  1.3575
 9313SOL    HW229381   4.646   0.971   4.748  0.9311  0.5031  0.4800
 9314SOL     OW29382   2.962   2.922  11.713  0.1598  0.1702  0.1601
 9314SOL    HW129383   3.025   2.993  11.724  0.6784 -0.4495  1.5880
 9314SOL    HW229384   3.013   2.851  11.674  0.5194 -0.4769  1.7024
 9315SOL     OW29385   1.932   6.365   2.088  0.2833 -0.0122 -0.0432
 9315SOL    HW129386   1.935   6.298   2.156  1.6335 -0.5672 -0.6014
 9315SOL    HW229387   1.847   6.353   2.045 -0.0132 -0.5246  0.6747
 9316SOL     OW29388   5.847   4.148   1.009  0.3892  0.2819  0.3320
 9316SOL    HW129389   5.825   4.146   1.102  1.3824 -2.0889  0.6094
 9316SOL    HW229390   5.916   4.214   1.001  3.1368 -2.0934  2.1383
 9317SOL     OW29391   7.450   1.785  10.186 -0.5931 -0.9589 -0.8170
 9317SOL    HW129392   7.410   1.715  10.136  0.5276 -0.2379 -2.8299
 9317SOL    HW229393   7.450   1.860  10.127  1.8535 -0.3916 -0.2074
 9318SOL     OW29394   6.416   3.306  10.182 -0.2989 -0.2178 -0.4497
 9318SOL    HW129395   6.328   3.312  10.220  0.2891  1.1771  0.8017
 9318SOL    HW229396   6.402   3.266  10.096 -2.3367  1.1462 -0.8288
 9319SOL     OW29397   6.166   7.341   2.946  0.5651  0.0334  0.2217
 9319SOL    HW129398   6.260   7.357   2.953 -0.0395  3.6962  3.0974
 9319SOL    HW229399   6.141   7.382   2.863  1.2857  0.7546  0.3460
 9320SOL     OW29400   5.144   5.029  12.427 -0.4659 -0.5140  0.2601
 9320SOL    HW129401   5.099   5.111  12.446 -1.3908 -0.8793 -0.2517
 9320SOL    HW229402   5.079   4.977  12.380  1.2434 -0.1659 -2.7241
 9321SOL     OW29403   1.986   3.877   3.750 -0.4978  0.2067  0.2311
 9321SOL    HW129404   2.057   3.850   3.692  0.0679 -2.1967  1.9235
 9321SOL    HW229405   2.029   3.911   3.828 -1.1119 -1.4504  1.3561
 9322SOL     OW29406   1.563   7.914   9.490  1.3314  0.1383 -0.3658
 9322SOL    HW129407   1.611   7.915   9.574 -1.3425  1.3744  1.2831
 9322SOL    HW229408   1.602   7.985   9.440  1.9572  0.4069  0.4624
 9323SOL     OW29409   2.745   6.524   9.437 -0.2004  0.4241 -0.4607
 9323SOL    HW129410   2.822   6.517   9.380  0.2306 -1.5087  0.2950
 9323SOL    HW229411   2.680   6.570   9.383  0.6798 -0.0201 -1.9712
 9324SOL     OW29412   7.642   0.038   6.377 -0.2025  0.2318  0.7222
 9324SOL    HW129413   7.676   0.006   6.293 -0.4617  2.0854 -0.1413
 9324SOL    HW229414   7.658  -0.034   6.438  1.3983 -0.5834 -0.5738
 9325SOL     OW29415   6.185   3.967  10.204  0.0059 -0.0759  0.3162
 9325SOL    HW129416   6.092   3.983  10.190 -0.0751 -1.5897 -1.2210
 9325SOL    HW229417   6.188   3.882  10.248  0.6452  0.4716  1.3740
 9326SOL     OW29418   1.451   0.417   1.259  0.0496 -0.2871  0.1727
 9326SOL    HW129419   1.476   0.349   1.321  3.3713 -0.5097 -1.1756
 9326SOL    HW229420   1.514   0.488   1.275 -1.7176  1.4412 -0.1408
 9327SOL     OW29421   1.332   7.470   9.030  0.1957  0.2603 -0.0670
 9327SOL    HW129422   1.257   7.527   9.044  0.6156  0.6828  0.4573
 9327SOL    HW229423   1.301   7.383   9.058 -0.7422  0.0012 -1.7019
 9328SOL     OW29424   1.945   1.689   0.188  0.1611  0.2799  0.1290
 9328SOL    HW129425   1.969   1.749   0.259  1.3033  0.1424 -0.1253
 9328SOL    HW229426   1.851   1.703   0.176 -0.1387  0.0915  1.8768
 9329SOL     OW29427   7.124   5.817   8.476 -0.4627 -0.0489  0.4581
 9329SOL    HW129428   7.090   5.735   8.440 -1.4493  0.6459 -0.2488
 9329SOL    HW229429   7.190   5.845   8.413  1.9015 -1.6283  2.0575
 9330SOL     OW29430   2.956   1.845   0.518 -0.3358 -0.0266 -0.2015
 9330SOL    HW129431   2.997   1.917   0.566  0.1346 -0.6067  0.2771
 9330SOL    HW229432   3.025   1.812   0.461 -0.1324 -0.9589  0.5557
 9331SOL     OW29433   5.225   6.416   6.439  0.3792  0.0808  0.0046
 9331SOL    HW129434   5.303   6.405   6.384 -0.1637 -1.4875 -0.5011
 9331SOL    HW229435   5.154   6.378   6.388 -0.9200  2.1919  0.1138
 9332SOL     OW29436   6.480   6.415   7.303  0.0845 -0.0559 -0.4983
 9332SOL    HW129437   6.452   6.497   7.262 -0.7647 -0.9885 -1.8574
 9332SOL    HW229438   6.401   6.378   7.342  0.2722 -0.6649 -0.6767
 9333SOL     OW29439   0.063   5.632   1.123  0.8996 -0.2800 -0.0155
 9333SOL    HW129440   0.094   5.559   1.070  0.0928 -1.4078  1.0367
 9333SOL    HW229441   0.139   5.659   1.175  1.4488  0.2568 -1.0650
 9334SOL     OW29442   7.732   5.754   2.148 -0.6300 -0.2570  0.0131
 9334SOL    HW129443   7.727   5.660   2.135  1.5907 -0.2116 -1.7725
 9334SOL    HW229444   7.668   5.772   2.218 -2.3326 -2.8014 -0.7289
 9335SOL     OW29445   2.882   4.626   8.904 -0.0082  0.4703  0.7215
 9335SOL    HW129446   2.869   4.611   8.810 -0.0463 -0.7910  0.9160
 9335SOL    HW229447   2.967   4.588   8.923  0.7815  2.2286  0.8968
 9336SOL     OW29448   5.048   3.480  11.028  0.7295 -0.3336 -0.0547
 9336SOL    HW129449   5.006   3.447  10.948 -0.0446 -0.1006  0.2396
 9336SOL    HW229450   5.125   3.425  11.040  0.0118 -1.3898 -0.1243
 9337SOL     OW29451   0.708   5.388   2.317 -0.0042 -0.0006 -0.0255
 9337SOL    HW129452   0.613   5.390   2.306  0.1557  2.3105 -1.8277
 9337SOL    HW229453   0.737   5.313   2.264 -0.7194  0.2151 -0.7370
 9338SOL     OW29454   2.204   6.811  10.155 -0.3790 -0.5094  0.5233
 9338SOL    HW129455   2.194   6.864  10.234  1.3195 -1.1493  1.2168
 9338SOL    HW229456   2.267   6.743  10.180  0.2465 -0.6846 -1.4072
 9339SOL     OW29457   7.383   5.439   5.089 -0.5113  0.1805  0.6593
 9339SOL    HW129458   7.410   5.387   5.014  0.5108 -0.4207  1.4125
 9339SOL    HW229459   7.287   5.441   5.084 -0.4568  0.2533 -0.7054
 9340SOL     OW29460   7.412   3.218   9.768  0.2393 -0.0865  0.1769
 9340SOL    HW129461   7.454   3.207   9.682  1.5354  1.5594  0.5303
 9340SOL    HW229462   7.320   3.233   9.748  0.3458 -0.7059 -0.8564
 9341SOL     OW29463   4.434   7.948   9.368  0.4169 -0.0628  0.4584
 9341SOL    HW129464   4.395   7.956   9.455  2.0349  0.7027  1.1742
 9341SOL    HW229465   4.519   7.906   9.384  0.4972 -0.4462 -0.8402
 9342SOL     OW29466   2.052   6.621   1.843  0.1766  1.0013  0.0350
 9342SOL    HW129467   2.135   6.599   1.886 -0.8333  1.2025  2.1729
 9342SOL    HW229468   2.072   6.699   1.792  1.0977  1.6091  1.2752
 9343SOL     OW29469   2.678   3.685  11.248  0.0539 -0.3420  0.2413
 9343SOL    HW129470   2.586   3.699  11.225  0.3381  1.5993  0.1539
 9343SOL    HW229471   2.675   3.653  11.339 -0.6617  1.1847  0.7776
 9344SOL     OW29472   7.370   1.827   3.682  0.7512  0.4226  0.3138
 9344SOL    HW129473   7.293   1.841   3.737  0.3392 -0.9506  0.1064
 9344SOL    HW229474   7.419   1.758   3.725  1.2487  0.4422 -0.2066
 9345SOL     OW29475   4.079   5.232   0.930 -0.1678  0.3470 -0.2596
 9345SOL    HW129476   3.985   5.232   0.912 -0.0524  0.9357 -0.9077
 9345SOL    HW229477   4.095   5.148   0.972 -0.9140  0.0611 -0.5246
 9346SOL     OW29478   4.912   6.167   3.814 -0.5077  0.0176  0.5260
 9346SOL    HW129479   4.839   6.165   3.753 -0.1344 -0.0747  0.0818
 9346SOL    HW229480   4.896   6.093   3.873 -0.1362 -0.7620 -0.3231
 9347SOL     OW29481   5.496   6.785   4.141  0.0460  0.7979 -0.4732
 9347SOL    HW129482   5.428   6.722   4.119  1.3347 -0.7768 -0.1383
 9347SOL    HW229483   5.493   6.850   4.070  0.2818 -1.0011 -2.2015
 9348SOL     OW29484   4.996   3.693   3.076 -0.0031  0.2896 -0.1212
 9348SOL    HW129485   5.078   3.644   3.073 -0.2849 -0.1961 -0.0131
 9348SOL    HW229486   4.935   3.636   3.124  0.8337  2.5391  4.0198
 9349SOL     OW29487   3.801   6.637   1.748  0.2565 -0.2645 -0.1924
 9349SOL    HW129488   3.731   6.609   1.690 -0.8544  1.4414  0.2470
 9349SOL    HW229489   3.757   6.669   1.827  1.3150  2.6321 -0.6336
 9350SOL     OW29490   6.281   0.840   9.354 -0.2286  0.2050  0.0264
 9350SOL    HW129491   6.217   0.788   9.402 -2.6143  0.3397 -2.6931
 9350SOL    HW229492   6.253   0.930   9.366  1.1757  0.5346  1.0364
 9351SOL     OW29493   1.126   4.405   4.183  0.0243  0.0312  0.5004
 9351SOL    HW129494   1.119   4.442   4.271  0.4503 -1.4008  1.1687
 9351SOL    HW229495   1.208   4.356   4.184 -0.1827 -0.3690 -0.5596
 9352SOL     OW29496   6.027   3.898   7.900  0.2690 -0.0865 -0.1389
 9352SOL    HW129497   5.955   3.844   7.934  0.6896 -0.1769  0.6088
 9352SOL    HW229498   5.990   3.938   7.821  0.6462 -3.2450 -2.0735
 9353SOL     OW29499   0.261   4.651   9.753  0.0000  0.0522  0.6810
 9353SOL    HW129500   0.323   4.664   9.825  0.3939  1.0502  0.1747
 9353SOL    HW229501   0.266   4.557   9.734 -0.9008 -0.4544  2.6489
 9354SOL     OW29502   1.164   0.842   5.450 -0.5911 -0.1055  0.0728
 9354SOL    HW129503   1.214   0.867   5.372  0.1763  1.1782  0.9428
 9354SOL    HW229504   1.224   0.785   5.499 -0.1075  1.0636  0.8920
 9355SOL     OW29505   2.104   4.756  10.995  0.1518  0.2825 -0.2610
 9355SOL    HW129506   2.200   4.752  10.994  0.1248 -1.4072  0.9503
 9355SOL    HW229507   2.084   4.806  11.075  0.0258 -2.1205  1.2929
 9356SOL     OW29508   4.755   6.290   1.769  0.2561 -0.3704 -0.3475
 9356SOL    HW129509   4.777   6.197   1.768  2.3132  0.0176 -3.2221
 9356SOL    HW229510   4.685   6.299   1.705  0.8271  0.1759 -0.9119
 9357SOL     OW29511   1.628   4.213   6.943  0.2373 -0.3736  0.4127
 9357SOL    HW129512   1.551   4.209   6.886  1.6359  2.4402 -1.9227
 9357SOL    HW229513   1.591   4.220   7.031 -2.3256  2.4974 -0.7040
 9358SOL     OW29514   4.775   7.393  11.422 -0.1319 -0.0979 -0.1513
 9358SOL    HW129515   4.715   7.464  11.398  1.5466  1.0285 -1.2442
 9358SOL    HW229516   4.733   7.313  11.391 -0.2210  0.8464 -2.6539
 9359SOL     OW29517   6.062   1.317   8.311 -0.0874  0.0951  0.3969
 9359SOL    HW129518   6.130   1.347   8.371  0.9658 -0.8165 -0.2973
 9359SOL    HW229519   6.002   1.391   8.304  1.4107  1.3443  0.1954
 9360SOL     OW29520   7.103   7.045   1.457 -0.1994  0.5203 -0.1523
 9360SOL    HW129521   7.150   6.970   1.493 -1.6186 -0.1234  0.4436
 9360SOL    HW229522   7.020   7.009   1.427 -1.3308  2.0027  1.0230
 9361SOL     OW29523   6.072   6.890  11.552  0.2731  0.1929  0.4180
 9361SOL    HW129524   6.051   6.932  11.636  1.2009  1.7446 -0.0771
 9361SOL    HW229525   6.127   6.954  11.507  0.5110 -0.9803 -1.0242
 9362SOL     OW29526   1.919   4.895  10.000 -0.0586 -0.7461 -0.3764
 9362SOL    HW129527   1.997   4.841  10.006 -0.8044 -1.8534 -0.3257
 9362SOL    HW229528   1.870   4.860   9.926  0.7713  1.7127 -2.1848
 9363SOL     OW29529   7.701   3.474   2.948 -0.4189 -0.2881 -0.6612
 9363SOL    HW129530   7.650   3.454   3.027  0.8404 -1.8283 -0.2130
 9363SOL    HW229531   7.778   3.419   2.954  0.3191  0.4953 -2.3709
 9364SOL     OW29532   4.072   6.529   9.299 -0.2175  0.4220 -0.5517
 9364SOL    HW129533   4.005   6.588   9.264 -1.9566 -0.7057  0.7434
 9364SOL    HW229534   4.085   6.559   9.389  0.9045  0.4766 -0.7117
 9365SOL     OW29535   7.099   1.434   0.282  0.1680  0.4952 -0.2795
 9365SOL    HW129536   7.137   1.479   0.358  0.2732 -0.8644  0.5096
 9365SOL    HW229537   7.173   1.384   0.246 -0.3798 -0.5686  0.0430
 9366SOL     OW29538   5.478   7.309  10.870 -0.1374 -0.4935  0.3292
 9366SOL    HW129539   5.420   7.299  10.946  0.7547 -0.6525  1.0193
 9366SOL    HW229540   5.434   7.371  10.813 -0.3772  0.4135  1.4659
 9367SOL     OW29541   5.783   1.343   6.750  0.0194  0.1767  0.2144
 9367SOL    HW129542   5.815   1.345   6.840 -1.3645  0.0124  0.7392
 9367SOL    HW229543   5.728   1.264   6.747 -0.3861  0.4841 -0.6111
 9368SOL     OW29544   1.995   7.947   6.800 -0.1869 -0.4256 -0.6806
 9368SOL    HW129545   1.978   8.039   6.819 -0.2168 -0.6537  0.4868
 9368SOL    HW229546   2.085   7.945   6.769  0.0463 -0.0784 -0.0486
 9369SOL     OW29547   1.617   4.322  12.276  0.7268  0.7012 -0.7291
 9369SOL    HW129548   1.643   4.413  12.288 -1.3321  1.2396 -0.0535
 9369SOL    HW229549   1.541   4.310  12.333 -0.4872 -0.7648 -2.5362
 9370SOL     OW29550   4.953   3.486   6.057  0.2147  0.2755  0.1053
 9370SOL    HW129551   5.028   3.544   6.044  0.7891 -0.8608 -2.2000
 9370SOL    HW229552   4.992   3.402   6.080 -0.4594 -0.0017  0.2623
 9371SOL     OW29553   2.098   3.008   7.663  0.0217 -0.0466  0.1525
 9371SOL    HW129554   2.021   3.016   7.606 -0.6878 -0.0791  1.0805
 9371SOL    HW229555   2.166   3.058   7.618 -0.5401 -0.0089 -0.6852
 9372SOL     OW29556   1.210   5.598   5.133 -0.7904  0.5239  0.1518
 9372SOL    HW129557   1.222   5.514   5.088  0.2548  0.6405  0.1986
 9372SOL    HW229558   1.144   5.643   5.082 -1.8603 -0.5849  0.4909
 9373SOL     OW29559   7.793   2.755   6.782 -0.7680 -0.0347  0.4799
 9373SOL    HW129560   7.701   2.734   6.766 -0.4979 -0.2116 -1.0022
 9373SOL    HW229561   7.791   2.832   6.839 -1.8426  0.3685 -0.0794
 9374SOL     OW29562   2.443   1.015  11.139  0.6048  0.6955  0.3324
 9374SOL    HW129563   2.360   0.976  11.167  0.7328  0.9972  1.1389
 9374SOL    HW229564   2.479   1.056  11.217  0.4218  2.5809 -0.5184
 9375SOL     OW29565   0.521   2.494   7.637  0.2285 -0.3015 -0.2316
 9375SOL    HW129566   0.530   2.589   7.640  1.1953 -0.3824  2.8943
 9375SOL    HW229567   0.438   2.477   7.683  0.2527 -0.9849 -0.4306
 9376SOL     OW29568   2.822   7.105   1.403  0.4578  0.2318  0.2237
 9376SOL    HW129569   2.841   7.015   1.430 -0.2394 -0.1375 -0.4709
 9376SOL    HW229570   2.908   7.143   1.384  0.8321  0.0419  1.4933
 9377SOL     OW29571   0.727   4.251   6.717  0.0285  0.2966  0.0002
 9377SOL    HW129572   0.720   4.303   6.798  1.5796 -0.1333  0.4406
 9377SOL    HW229573   0.667   4.294   6.656  1.1617  2.5779  0.3744
 9378SOL     OW29574   1.828   3.688   5.952 -0.1013  0.3370 -0.2460
 9378SOL    HW129575   1.845   3.635   6.030 -1.6313 -2.3121 -1.5708
 9378SOL    HW229576   1.886   3.763   5.961  1.5192 -1.0711  2.2561
 9379SOL     OW29577   3.618   0.885  12.045 -0.3638  0.7107  0.3547
 9379SOL    HW129578   3.663   0.801  12.055 -1.7492 -0.0124  0.8950
 9379SOL    HW229579   3.604   0.893  11.950  0.2306  0.5904  0.2505
 9380SOL     OW29580   0.382   1.210   8.219 -0.0746  0.4097 -0.2034
 9380SOL    HW129581   0.442   1.247   8.283  0.6023 -0.4504 -0.3329
 9380SOL    HW229582   0.437   1.180   8.147 -0.7086  0.1556 -0.5998
 9381SOL     OW29583   7.486   3.314   1.137 -0.3395  0.0743  0.3468
 9381SOL    HW129584   7.453   3.403   1.123 -0.2975  0.2944  1.5277
 9381SOL    HW229585   7.430   3.278   1.206  0.5527 -0.2819  0.9103
 9382SOL     OW29586   7.555   3.885   7.306 -0.0501  0.1653 -0.2135
 9382SOL    HW129587   7.490   3.931   7.360  0.5254 -1.0111  1.5638
 9382SOL    HW229588   7.503   3.842   7.238 -0.8194  1.5476 -0.5476
 9383SOL     OW29589   7.653   4.085   4.292 -0.2595  0.5078 -0.1549
 9383SOL    HW129590   7.703   4.086   4.210 -0.5488  0.6241 -0.3292
 9383SOL    HW229591   7.572   4.132   4.272  0.0460  1.3183  0.4440
 9384SOL     OW29592   0.068   2.353   7.211  0.1423 -0.1555  0.4554
 9384SOL    HW129593   0.023   2.422   7.259  0.0144 -0.6299  1.0297
 9384SOL    HW229594   0.003   2.284   7.201  0.2292 -0.1466 -0.2262
 9385SOL     OW29595   7.265   6.528   4.665  0.8877  0.0944 -0.8830
 9385SOL    HW129596   7.204   6.498   4.597  1.1815 -1.6919 -0.4035
 9385SOL    HW229597   7.352   6.517   4.625  1.0552 -0.8479 -0.2918
 9386SOL     OW29598   3.149   6.097  11.814 -0.4492 -0.0152 -0.0692
 9386SOL    HW129599   3.190   6.079  11.899  0.5887 -0.8676 -0.7323
 9386SOL    HW229600   3.191   6.036  11.753 -2.8259 -1.0692 -0.7765
 9387SOL     OW29601   0.280   7.284  10.847  0.0838 -0.0557 -0.4807
 9387SOL    HW129602   0.353   7.237  10.887 -0.1641  0.0420  0.0901
 9387SOL    HW229603   0.320   7.333  10.775  0.5780 -0.0411 -0.1989
 9388SOL     OW29604   3.479   3.964   9.615 -0.8174  0.5403 -0.3764
 9388SOL    HW129605   3.489   3.958   9.520 -1.6949  0.7197 -0.4872
 9388SOL    HW229606   3.487   3.874   9.646 -0.7556  0.4521 -0.6424
 9389SOL     OW29607   1.207   4.213  12.343 -0.6125 -0.1468 -0.0452
 9389SOL    HW129608   1.279   4.255  12.390 -0.0426 -1.9898  0.8269
 9389SOL    HW229609   1.154   4.286  12.311  0.9466  1.2419  0.3597
 9390SOL     OW29610   2.706   1.836  12.153 -0.0305  0.0562  0.4983
 9390SOL    HW129611   2.698   1.915  12.099 -1.4943 -0.6052 -0.3117
 9390SOL    HW229612   2.721   1.868  12.241  0.0388  1.2248  0.0743
 9391SOL     OW29613   6.317   0.749   4.019 -0.7491 -0.6956  0.1445
 9391SOL    HW129614   6.253   0.678   4.014 -0.9784 -0.4329 -0.9402
 9391SOL    HW229615   6.284   0.807   4.087 -2.0385 -0.2279 -0.8445
 9392SOL     OW29616   2.779   2.148  11.862 -0.2010  0.5471 -0.8050
 9392SOL    HW129617   2.739   2.232  11.836 -1.0208  0.2117 -0.6574
 9392SOL    HW229618   2.795   2.158  11.956 -0.0302  0.6336 -0.8409
 9393SOL     OW29619   6.143   5.171   0.744 -0.3124 -0.3607  0.2641
 9393SOL    HW129620   6.111   5.093   0.698 -1.0442  0.6241 -0.9686
 9393SOL    HW229621   6.187   5.223   0.676 -0.8265  0.8198  0.7998
 9394SOL     OW29622   7.277   6.090  11.154 -0.3920 -0.2373  0.0741
 9394SOL    HW129623   7.298   6.175  11.194 -0.3043 -0.0590 -0.3458
 9394SOL    HW229624   7.205   6.056  11.207 -0.9722  0.4733 -0.2349
 9395SOL     OW29625   4.901   4.288   5.723 -0.0259  0.4713 -0.3631
 9395SOL    HW129626   4.855   4.272   5.805 -0.6558 -0.9076 -0.9558
 9395SOL    HW229627   4.989   4.313   5.750 -0.0223 -0.6049  0.7392
 9396SOL     OW29628   7.161   1.568   8.382  0.1245  0.0238 -0.2268
 9396SOL    HW129629   7.094   1.609   8.436  0.2086  0.0858 -0.1699
 9396SOL    HW229630   7.211   1.640   8.346 -0.7262  0.0416 -1.4298
 9397SOL     OW29631   1.262   2.308   4.325  0.5622 -0.6597  0.1365
 9397SOL    HW129632   1.180   2.356   4.338  0.0978 -1.1143 -0.9617
 9397SOL    HW229633   1.304   2.308   4.411  0.8801  2.2026  0.0611
 9398SOL     OW29634   2.904   0.062   3.057  0.8538 -0.2513 -0.3470
 9398SOL    HW129635   2.956   0.038   3.134 -0.5240 -2.5222 -0.0467
 9398SOL    HW229636   2.962   0.045   2.983  1.9170  1.1860  0.1231
 9399SOL     OW29637   1.077   6.675  12.250 -0.1976  0.3778 -0.1645
 9399SOL    HW129638   1.121   6.757  12.268  0.0968  0.1574  0.1348
 9399SOL    HW229639   1.146   6.618  12.215 -0.5441  0.4781 -1.0464
 9400SOL     OW29640   3.257   4.118   5.404  0.3223  0.2202 -0.3811
 9400SOL    HW129641   3.315   4.186   5.439  0.8483  0.4948 -1.6972
 9400SOL    HW229642   3.299   4.091   5.322 -0.6335 -0.6624 -0.6055
 9401SOL     OW29643   7.050   1.778  11.792 -0.6012  0.0612  0.4535
 9401SOL    HW129644   6.992   1.741  11.858 -0.2637  0.7075  1.1336
 9401SOL    HW229645   6.992   1.824  11.731 -0.8440  0.2540  0.8280
 9402SOL     OW29646   0.667   5.209   9.123  0.2367  0.2441  0.4265
 9402SOL    HW129647   0.609   5.265   9.073  1.3436  1.1753  0.1368
 9402SOL    HW229648   0.688   5.137   9.063  0.0547  0.3502  0.2361
 9403SOL     OW29649   3.600   3.405   5.341 -0.6517 -0.4670 -0.6184
 9403SOL    HW129650   3.663   3.373   5.276 -0.0900 -2.3236  0.7621
 9403SOL    HW229651   3.538   3.333   5.352  0.6977 -1.3250  2.6618
 9404SOL     OW29652   7.828   5.221   0.627  0.1655  0.4510  0.7217
 9404SOL    HW129653   7.763   5.251   0.564 -2.4015 -4.0586  0.7867
 9404SOL    HW229654   7.897   5.182   0.574  1.0356  1.9271  0.7196
 9405SOL     OW29655   3.144   7.606   3.095 -0.5367 -0.1378 -0.5265
 9405SOL    HW129656   3.215   7.549   3.066  0.3103 -1.0972  3.0050
 9405SOL    HW229657   3.187   7.684   3.129 -1.4045  0.6440 -1.1882
 9406SOL     OW29658   2.267   3.484   7.182 -0.0494  0.0541 -0.6106
 9406SOL    HW129659   2.215   3.559   7.156 -0.3149  0.1830  0.2455
 9406SOL    HW229660   2.349   3.493   7.132 -0.5418  0.2584 -1.3921
 9407SOL     OW29661   1.517   5.303  11.353 -0.0215  0.1776  0.3273
 9407SOL    HW129662   1.448   5.269  11.410 -0.4322  1.1023  0.3987
 9407SOL    HW229663   1.474   5.312  11.268  0.0987  0.4532  0.2962
 9408SOL     OW29664   0.298   0.801  11.497  0.5378  0.0648  0.5073
 9408SOL    HW129665   0.351   0.731  11.534  1.4666  0.4367 -0.0657
 9408SOL    HW229666   0.223   0.809  11.556  0.6476 -1.0930  0.8240
 9409SOL     OW29667   4.790   2.052   8.632 -0.1486  0.7187  0.4166
 9409SOL    HW129668   4.722   2.012   8.686 -0.5575  0.9158  0.0466
 9409SOL    HW229669   4.807   1.988   8.563 -0.6781  1.0939 -0.0735
 9410SOL     OW29670   1.256   3.248  10.404 -0.4681 -0.2009 -0.5543
 9410SOL    HW129671   1.246   3.343  10.407 -2.4272 -0.3957  0.6720
 9410SOL    HW229672   1.280   3.223  10.493  1.2478 -0.7942 -1.1346
 9411SOL     OW29673   0.497   3.345   4.345  0.1727  0.2220  0.5276
 9411SOL    HW129674   0.435   3.387   4.285 -0.9925 -0.2462  1.3724
 9411SOL    HW229675   0.565   3.309   4.288  1.7646  3.9283 -0.2486
 9412SOL     OW29676   4.612   7.172   5.725  0.3405 -0.2112 -0.0120
 9412SOL    HW129677   4.624   7.169   5.630 -0.5153  1.2305 -0.1961
 9412SOL    HW229678   4.572   7.257   5.742 -0.2898 -0.7741  1.5624
 9413SOL     OW29679   7.738   6.483  10.356 -0.5626 -0.0079 -0.2239
 9413SOL    HW129680   7.753   6.559  10.412 -1.5324  0.7197 -0.9001
 9413SOL    HW229681   7.817   6.430  10.365 -1.0057 -0.3165  2.4105
 9414SOL     OW29682   7.405   5.916   8.339 -0.7115  0.0171  0.4698
 9414SOL    HW129683   7.365   5.943   8.257 -0.7937 -1.9001 -0.1584
 9414SOL    HW229684   7.405   5.820   8.336 -0.0742 -0.0869  2.3929
 9415SOL     OW29685   6.372   7.582   3.789  0.2831 -0.0966  0.5041
 9415SOL    HW129686   6.387   7.620   3.702  0.4510  0.0946  0.6134
 9415SOL    HW229687   6.335   7.496   3.772 -0.8297  0.4102  0.2593
 9416SOL     OW29688   6.546   1.441  11.387  0.0636  0.2496 -0.8544
 9416SOL    HW129689   6.473   1.503  11.397 -0.5421 -0.6460  0.8045
 9416SOL    HW229690   6.504   1.360  11.358  0.6728  0.2287 -1.7093
 9417SOL     OW29691   6.046   6.881   6.617  0.8829 -0.2466 -0.3330
 9417SOL    HW129692   5.971   6.935   6.592  1.5476  0.1316 -1.6005
 9417SOL    HW229693   6.013   6.823   6.686  0.0849  1.5879  0.8831
 9418SOL     OW29694   1.582   2.731   9.100 -0.2306  0.3495 -0.3921
 9418SOL    HW129695   1.538   2.667   9.044  1.2612 -1.3646  0.2543
 9418SOL    HW229696   1.512   2.771   9.151 -1.1964 -1.2688 -0.3594
 9419SOL     OW29697   2.612   3.633   6.181  0.0940 -0.3200 -0.6939
 9419SOL    HW129698   2.655   3.622   6.096 -0.5578  2.0566 -1.4156
 9419SOL    HW229699   2.524   3.597   6.168  0.1273 -0.3225 -0.9242
 9420SOL     OW29700   3.022   7.953   8.128 -0.3082  0.0345  0.3208
 9420SOL    HW129701   2.964   8.003   8.071 -0.5853  0.1664  0.7061
 9420SOL    HW229702   2.975   7.951   8.212 -1.8486 -3.4999 -0.4259
 9421SOL     OW29703   4.979   0.274   3.405 -0.2167  0.5985  0.4688
 9421SOL    HW129704   4.978   0.287   3.310 -1.1132  2.9326  0.7403
 9421SOL    HW229705   5.071   0.258   3.426  0.1484  1.1043 -0.6741
 9422SOL     OW29706   7.075   3.385   2.698 -0.1356  0.3747 -0.2166
 9422SOL    HW129707   7.019   3.378   2.621  2.6087  0.2467 -2.3769
 9422SOL    HW229708   7.077   3.478   2.718 -0.1425  0.5342 -0.9208
 9423SOL     OW29709   7.911   2.247  12.100  0.2092  1.6556  0.4660
 9423SOL    HW129710   7.908   2.194  12.180  1.1102  1.7337  0.5634
 9423SOL    HW229711   7.996   2.292  12.104  1.0288  0.3940 -1.3271
 9424SOL     OW29712   5.884   4.897   9.394 -0.7472 -0.2409 -0.6476
 9424SOL    HW129713   5.940   4.828   9.358 -0.9676 -0.5910 -0.3274
 9424SOL    HW229714   5.889   4.885   9.488  0.8379  1.4578 -0.4378
 9425SOL     OW29715   7.909   6.256   0.514  0.2840  0.5596 -0.3229
 9425SOL    HW129716   7.977   6.213   0.461  0.1791 -1.5935  1.1594
 9425SOL    HW229717   7.947   6.340   0.538  1.6660  0.1797 -1.0730
 9426SOL     OW29718   6.893   5.098   9.567 -0.1943  0.4208  0.9797
 9426SOL    HW129719   6.931   5.044   9.636  0.8711 -0.9401 -0.5810
 9426SOL    HW229720   6.945   5.179   9.569 -0.1582  0.3893  1.7276
 9427SOL     OW29721   2.685   2.361   4.656  0.3604  0.2545  0.0801
 9427SOL    HW129722   2.681   2.457   4.657  0.9247  0.3243 -1.5423
 9427SOL    HW229723   2.641   2.335   4.576 -1.1109 -0.9692  1.2186
 9428SOL     OW29724   2.436   0.467   2.986  0.2845 -0.1770  0.3768
 9428SOL    HW129725   2.350   0.438   3.015 -0.2707 -0.0932 -1.0814
 9428SOL    HW229726   2.492   0.390   2.998 -0.4307 -0.8350 -0.3671
 9429SOL     OW29727   6.132   7.568   8.284  0.5783 -0.5728  0.4441
 9429SOL    HW129728   6.161   7.656   8.309  2.3808 -0.8488 -0.4849
 9429SOL    HW229729   6.041   7.564   8.313 -0.1919  2.2722 -1.1668
 9430SOL     OW29730   0.711   1.808   7.017 -0.2091  0.4819  0.0250
 9430SOL    HW129731   0.645   1.847   6.959  0.2264 -0.1329 -0.9048
 9430SOL    HW229732   0.782   1.782   6.959 -0.5663 -1.9111  0.5213
 9431SOL     OW29733   4.865   0.617   2.503 -0.2294 -0.5365  0.4945
 9431SOL    HW129734   4.815   0.692   2.536  2.5397  1.3931  0.6680
 9431SOL    HW229735   4.878   0.637   2.410 -1.3537 -2.0295 -0.0368
 9432SOL     OW29736   7.191   5.629   0.669  0.3312 -0.0280 -0.3803
 9432SOL    HW129737   7.155   5.662   0.586  1.9470  0.2316 -1.0116
 9432SOL    HW229738   7.170   5.697   0.733 -3.9424 -1.6846  0.2958
 9433SOL     OW29739   3.972   3.812  11.680 -0.0608  0.0171 -0.0601
 9433SOL    HW129740   3.970   3.793  11.587  1.1111  0.6107 -0.2363
 9433SOL    HW229741   3.889   3.857  11.698 -0.7068 -0.9343 -0.6057
 9434SOL     OW29742   7.315   1.774   8.286 -0.4191 -0.4685 -0.0883
 9434SOL    HW129743   7.252   1.844   8.299 -0.0429 -0.2051  0.3737
 9434SOL    HW229744   7.398   1.819   8.268 -0.6302 -0.8178 -2.1228
 9435SOL     OW29745   1.806   5.275  12.150  0.2175 -0.2075  0.2997
 9435SOL    HW129746   1.775   5.332  12.220  1.4185  2.3639 -1.1060
 9435SOL    HW229747   1.730   5.263  12.093 -0.1861 -0.4579  0.8854
 9436SOL     OW29748   7.242   6.206  12.417 -0.7499 -0.0251 -0.4128
 9436SOL    HW129749   7.311   6.154  12.459 -2.0307 -1.1463  0.4020
 9436SOL    HW229750   7.287   6.252  12.347  1.3540  1.2911  1.6266
 9437SOL     OW29751   6.548   1.181   5.959  0.0468  0.7521 -0.5914
 9437SOL    HW129752   6.486   1.139   5.898 -2.7154  3.9076 -0.2473
 9437SOL    HW229753   6.591   1.249   5.907  2.2661 -0.4274 -0.4226
 9438SOL     OW29754   5.787   4.540   2.528 -0.1017 -0.4986  0.3006
 9438SOL    HW129755   5.746   4.610   2.578  1.2432 -0.4106  1.3348
 9438SOL    HW229756   5.820   4.479   2.593  0.0471 -1.3441 -0.5393
 9439SOL     OW29757   6.417   7.014   1.214 -0.6078  0.0167 -0.3408
 9439SOL    HW129758   6.388   7.006   1.305  0.8361 -0.5099  0.1034
 9439SOL    HW229759   6.391   6.932   1.173  0.5207 -0.6056  0.1493
 9440SOL     OW29760   6.833   7.751   5.963  0.9230 -0.2231 -0.2679
 9440SOL    HW129761   6.778   7.674   5.973  0.7340 -0.0753 -0.1811
 9440SOL    HW229762   6.833   7.794   6.049  2.3459 -1.0043  0.1648
 9441SOL     OW29763   3.712   6.843   3.797 -0.1631 -0.1127  0.3081
 9441SOL    HW129764   3.758   6.784   3.737  0.2723 -0.0415  0.5617
 9441SOL    HW229765   3.625   6.805   3.807 -0.2034 -0.1869 -0.2739
 9442SOL     OW29766   4.109   6.014   0.658  0.1059  0.0956 -0.5544
 9442SOL    HW129767   4.160   6.012   0.577  0.3278  2.2568 -0.5441
 9442SOL    HW229768   4.175   6.012   0.727  0.0199  0.0436 -0.4738
 9443SOL     OW29769   1.179   7.641   6.463  0.6204 -0.4881 -0.2330
 9443SOL    HW129770   1.115   7.710   6.447 -0.9088 -1.6621  0.6315
 9443SOL    HW229771   1.233   7.674   6.534  1.8977  1.0662 -1.8177
 9444SOL     OW29772   1.842   3.642   3.440  0.6612 -0.7434  0.2033
 9444SOL    HW129773   1.934   3.619   3.453  1.1054  1.5077  1.7085
 9444SOL    HW229774   1.814   3.678   3.525 -1.7676 -1.7354 -0.0748
 9445SOL     OW29775   5.739   4.305   9.535 -0.1619 -0.2172 -0.9346
 9445SOL    HW129776   5.785   4.326   9.616 -0.0346  2.5684 -1.6216
 9445SOL    HW229777   5.765   4.215   9.516  3.6789  0.5659 -0.3237
 9446SOL     OW29778   5.750   5.117   5.989 -0.0303 -0.0512  0.5656
 9446SOL    HW129779   5.831   5.095   5.943 -0.3723 -1.3928  0.5750
 9446SOL    HW229780   5.683   5.063   5.947 -0.5420 -0.4875  1.9004
 9447SOL     OW29781   2.925   6.664   3.410  0.2245 -0.1658 -0.1059
 9447SOL    HW129782   2.942   6.668   3.504  0.1849 -2.0613  0.0224
 9447SOL    HW229783   3.011   6.673   3.370  0.4403 -0.8175  0.1897
 9448SOL     OW29784   3.167   5.077   2.544 -0.5992  0.1994 -0.3042
 9448SOL    HW129785   3.137   5.013   2.608 -1.5649  2.8586  2.0927
 9448SOL    HW229786   3.102   5.072   2.473 -1.9652  0.1035  0.9198
 9449SOL     OW29787   3.891   6.579   5.205  0.4477 -0.1501 -0.3624
 9449SOL    HW129788   3.949   6.641   5.250 -1.5356  0.0302  2.1172
 9449SOL    HW229789   3.900   6.498   5.254 -0.6601 -0.4015 -0.5618
 9450SOL     OW29790   4.803   4.337  10.265  0.3150  0.3255  0.3189
 9450SOL    HW129791   4.793   4.410  10.203  0.5594  0.5851  0.5775
 9450SOL    HW229792   4.726   4.343  10.321  0.1769  0.1918  0.1433
 9451SOL     OW29793   5.678   5.583   6.461  0.3020 -0.1720  0.0223
 9451SOL    HW129794   5.715   5.644   6.525 -0.1555 -0.3116  0.4338
 9451SOL    HW229795   5.662   5.503   6.512  0.0294 -0.3199 -0.2930
 9452SOL     OW29796   0.311   6.693  11.492  0.2572  0.0259  0.5204
 9452SOL    HW129797   0.217   6.696  11.475  0.1019 -1.3391  1.0730
 9452SOL    HW229798   0.326   6.609  11.534  1.7330  0.2347  0.4731
 9453SOL     OW29799   2.556   7.823   7.651 -0.0787 -0.4455  0.0022
 9453SOL    HW129800   2.588   7.913   7.643 -0.0042 -0.5113 -0.4524
 9453SOL    HW229801   2.616   7.782   7.714  1.0754 -0.7110 -1.2205
 9454SOL     OW29802   3.463   5.754   3.311  0.5116  0.1190  0.2994
 9454SOL    HW129803   3.439   5.666   3.341 -0.8030  0.8462  1.4954
 9454SOL    HW229804   3.403   5.772   3.239  1.5934 -0.4025 -0.7731
 9455SOL     OW29805   1.811   0.677  10.915 -1.0459 -0.0150 -0.3503
 9455SOL    HW129806   1.718   0.696  10.926 -1.3686 -1.1061 -1.1253
 9455SOL    HW229807   1.818   0.582  10.924 -0.2404 -0.1246 -1.8597
 9456SOL     OW29808   3.663   6.301   7.424 -0.2573  0.3822  0.0287
 9456SOL    HW129809   3.732   6.343   7.373  0.7715 -0.8351  0.3615
 9456SOL    HW229810   3.691   6.210   7.431 -2.5215 -0.4352 -0.8478
 9457SOL     OW29811   6.354   7.007   1.471  0.5819 -0.3565 -0.0952
 9457SOL    HW129812   6.444   6.975   1.483  0.6599 -0.0271  0.2198
 9457SOL    HW229813   6.341   7.068   1.543  0.5870  0.6741 -0.9445
 9458SOL     OW29814   2.929   6.953  10.119  0.0236 -0.1547  0.5871
 9458SOL    HW129815   2.906   6.965  10.027  1.8163  1.1783  0.2515
 9458SOL    HW229816   3.018   6.918  10.118  0.4065  0.6918  1.7896
 9459SOL     OW29817   1.286   6.657   3.200 -0.0186  0.1841  0.1194
 9459SOL    HW129818   1.254   6.632   3.287 -1.9402  0.9725 -0.3077
 9459SOL    HW229819   1.304   6.751   3.207  1.8241 -0.1450  0.2012
 9460SOL     OW29820   2.450   2.922   4.302 -0.0494  0.1878 -0.7984
 9460SOL    HW129821   2.407   2.963   4.376 -1.3275 -1.8749 -0.3124
 9460SOL    HW229822   2.383   2.868   4.261  1.1041 -0.1632 -2.3637
 9461SOL     OW29823   2.596   6.870  10.131  0.2095  0.1476 -0.3933
 9461SOL    HW129824   2.659   6.887  10.202 -1.1400 -0.1758  0.9299
 9461SOL    HW229825   2.563   6.782  10.148  0.3779 -0.2260 -1.8628
 9462SOL     OW29826   3.167   0.967   9.991 -0.1618  0.3893 -0.1492
 9462SOL    HW129827   3.109   1.032  10.030 -1.9185 -1.1113 -0.0595
 9462SOL    HW229828   3.237   0.955  10.055 -0.4630  1.3256  0.3678
 9463SOL     OW29829   5.776   3.995  12.220 -0.3316 -0.6389  0.4045
 9463SOL    HW129830   5.868   3.967  12.220 -0.5476 -1.3875 -0.4939
 9463SOL    HW229831   5.755   4.008  12.313  0.6616 -0.4983  0.6220
 9464SOL     OW29832   7.785   2.258   8.377  0.1500  0.2253 -0.3384
 9464SOL    HW129833   7.872   2.299   8.378  0.7441 -0.9902  1.0807
 9464SOL    HW229834   7.800   2.169   8.410 -1.7546  0.2259  0.6372
 9465SOL     OW29835   1.789   0.252   2.145  0.3203 -0.1143 -0.2985
 9465SOL    HW129836   1.756   0.337   2.174  0.8764  0.6401 -1.7621
 9465SOL    HW229837   1.711   0.199   2.133 -0.2771  1.0591 -1.9286
 9466SOL     OW29838   6.248   5.285   0.148  0.4556  1.0475 -1.0950
 9466SOL    HW129839   6.325   5.271   0.202  0.3170  1.4062 -0.8019
 9466SOL    HW229840   6.238   5.203   0.099 -0.5309 -0.0400  0.8285
 9467SOL     OW29841   7.324   0.701   4.842 -0.3413 -0.0904  0.5891
 9467SOL    HW129842   7.388   0.665   4.903  0.9089  0.5326 -0.3088
 9467SOL    HW229843   7.325   0.641   4.767 -0.2205  0.3382  0.2392
 9468SOL     OW29844   2.150   3.958   1.025 -0.3992  0.7785  0.0413
 9468SOL    HW129845   2.078   4.005   0.983  0.3913  1.2174 -0.8530
 9468SOL    HW229846   2.175   3.890   0.962 -0.0970  0.5653  0.3877
 9469SOL     OW29847   5.488   5.206   2.690  0.1848 -0.5520 -0.3098
 9469SOL    HW129848   5.457   5.119   2.664  0.2289 -1.0281  1.1620
 9469SOL    HW229849   5.571   5.217   2.642  0.5887 -1.6666  0.0970
 9470SOL     OW29850   0.172   7.326   9.128  0.0968 -0.1513 -0.0805
 9470SOL    HW129851   0.086   7.356   9.160 -0.0928 -0.5291 -0.2384
 9470SOL    HW229852   0.184   7.373   9.045 -0.2895 -0.6542 -0.4270
 9471SOL     OW29853   1.548   3.157   9.137 -0.4005 -0.5720 -0.4654
 9471SOL    HW129854   1.488   3.106   9.191 -0.8863 -1.2648 -1.6070
 9471SOL    HW229855   1.521   3.248   9.149  0.0010 -0.6285  1.0265
 9472SOL     OW29856   1.072   7.176   0.396  0.0022  0.7203 -0.2620
 9472SOL    HW129857   1.030   7.255   0.362  0.3425  1.6257  1.3237
 9472SOL    HW229858   1.092   7.197   0.487  1.7537 -0.5255 -0.3034
 9473SOL     OW29859   0.238   5.886   7.279  0.5476 -0.2381  0.6659
 9473SOL    HW129860   0.264   5.856   7.192 -0.1828  0.4318  0.2086
 9473SOL    HW229861   0.155   5.932   7.265  1.9993  2.7463  1.1907
 9474SOL     OW29862   7.480   3.446  10.563 -0.2795  0.1737 -0.0275
 9474SOL    HW129863   7.528   3.375  10.522  0.7648  0.6760  0.2769
 9474SOL    HW229864   7.432   3.405  10.635  2.3544  0.1108  1.8145
 9475SOL     OW29865   2.452   7.531   8.407  0.3712  0.3482 -0.3519
 9475SOL    HW129866   2.376   7.476   8.426 -1.3571  2.5291 -0.5710
 9475SOL    HW229867   2.480   7.503   8.320  0.3939 -1.0727  0.0845
 9476SOL     OW29868   4.800   3.548   5.776  0.5832 -0.1381  0.2285
 9476SOL    HW129869   4.724   3.595   5.811  1.3312 -0.3786  2.3344
 9476SOL    HW229870   4.792   3.460   5.813  1.2267 -0.5357 -0.5577
 9477SOL     OW29871   7.938   7.226   9.546 -0.1636  0.0730 -0.1858
 9477SOL    HW129872   7.957   7.134   9.525 -0.1071  0.0924 -0.2204
 9477SOL    HW229873   7.851   7.224   9.585 -0.4089  0.0845 -0.7310
 9478SOL     OW29874   1.272   5.047   9.461 -0.3368  0.1383  0.2427
 9478SOL    HW129875   1.180   5.022   9.464 -0.1242 -1.0085 -1.3535
 9478SOL    HW229876   1.271   5.141   9.443 -1.2220 -0.1421 -1.3005
 9479SOL     OW29877   5.670   3.666   4.617 -0.4565 -0.3152 -0.0688
 9479SOL    HW129878   5.605   3.651   4.548  1.4676  0.8779 -2.2688
 9479SOL    HW229879   5.753   3.675   4.570  0.7586  1.8831  2.2887
 9480SOL     OW29880   5.393   1.269   5.934  0.4351 -1.0153  0.2876
 9480SOL    HW129881   5.389   1.223   6.017  1.1347  0.9376  1.4867
 9480SOL    HW229882   5.364   1.358   5.954 -0.3675 -0.7380 -1.7931
 9481SOL     OW29883   3.435   0.368   6.511 -0.3535  0.4312 -0.4147
 9481SOL    HW129884   3.484   0.286   6.514  2.6932  2.1140 -0.6337
 9481SOL    HW229885   3.382   0.361   6.432  0.7989 -0.8414 -1.1152
 9482SOL     OW29886   6.345   5.795   7.109  0.2351 -0.0636  0.1767
 9482SOL    HW129887   6.322   5.720   7.054  0.2122 -0.1675  0.3280
 9482SOL    HW229888   6.399   5.850   7.052 -0.8464  0.4745 -0.3798
 9483SOL     OW29889   2.615   1.165   6.552 -0.5257 -0.3374  0.1647
 9483SOL    HW129890   2.571   1.133   6.472 -1.2792  0.4574  0.2515
 9483SOL    HW229891   2.707   1.144   6.538 -0.8923 -1.9093 -0.0936
 9484SOL     OW29892   4.788   2.560   2.422  0.2359 -0.3071 -0.0401
 9484SOL    HW129893   4.814   2.581   2.511 -1.3091 -0.9365  0.5887
 9484SOL    HW229894   4.866   2.521   2.382  1.0948  0.4763  0.8512
 9485SOL     OW29895   6.147   7.056   0.847 -0.0263 -0.3391 -0.6285
 9485SOL    HW129896   6.210   7.114   0.802 -1.2619 -0.5511 -2.8051
 9485SOL    HW229897   6.094   7.019   0.776 -0.8687 -2.2600  0.9081
 9486SOL     OW29898   5.666   4.527   6.011 -0.1588 -0.4291 -0.2668
 9486SOL    HW129899   5.702   4.453   6.060 -2.2283 -1.3571 -0.0437
 9486SOL    HW229900   5.591   4.491   5.965 -0.0493  1.1243 -1.7395
 9487SOL     OW29901   5.584   2.896  10.621 -0.1168  0.0302  0.0656
 9487SOL    HW129902   5.529   2.964  10.659  1.0207 -0.1906  2.2763
 9487SOL    HW229903   5.544   2.877  10.536 -1.2204  2.4932 -0.0454
 9488SOL     OW29904   0.220   7.025   7.389  0.6580  0.6129  0.4888
 9488SOL    HW129905   0.151   7.085   7.357  1.2795  1.8119  1.3243
 9488SOL    HW229906   0.266   7.075   7.456  0.9927 -0.9537  1.4794
 9489SOL     OW29907   6.068   1.411   4.750  0.2007  0.0138  0.5196
 9489SOL    HW129908   6.028   1.392   4.835 -2.9075 -1.3695 -1.0649
 9489SOL    HW229909   6.007   1.473   4.708  0.6590 -0.7032 -1.3353
 9490SOL     OW29910   0.680   4.007   7.797 -0.1201  0.5046 -0.1210
 9490SOL    HW129911   0.671   3.925   7.845  0.4684  0.5719  0.1271
 9490SOL    HW229912   0.774   4.027   7.802 -0.1316  0.7710 -0.8847
 9491SOL     OW29913   6.834   7.895   2.168 -0.0808 -0.0064  0.3689
 9491SOL    HW129914   6.880   7.918   2.249  1.4650 -0.1012 -0.4399
 9491SOL    HW229915   6.880   7.817   2.136 -0.0632  0.5649 -1.0516
 9492SOL     OW29916   6.191   0.714   6.663 -0.5162 -0.3953  0.0309
 9492SOL    HW129917   6.281   0.684   6.674 -0.4905 -0.3095  0.0551
 9492SOL    HW229918   6.186   0.742   6.571 -0.4497 -0.1719  0.0953
 9493SOL     OW29919   7.827   6.052   1.035  0.0236 -0.2710  0.1369
 9493SOL    HW129920   7.736   6.073   1.014  0.5880  0.6320 -1.6146
 9493SOL    HW229921   7.827   5.957   1.049 -1.6011 -0.0013  2.7651
 9494SOL     OW29922   0.648   6.592   0.738  0.0602 -0.9086 -0.0296
 9494SOL    HW129923   0.557   6.590   0.769  0.5517 -2.2810  1.4491
 9494SOL    HW229924   0.676   6.683   0.752 -1.0434 -0.4849 -0.4427
 9495SOL     OW29925   7.619   1.955  10.340  0.2613  0.5623 -0.0304
 9495SOL    HW129926   7.702   1.921  10.373  0.6034  0.0915 -1.3114
 9495SOL    HW229927   7.576   1.879  10.300  1.1393  1.5932 -3.1602
 9496SOL     OW29928   5.084   5.678   9.148 -0.0487 -0.1965 -0.0201
 9496SOL    HW129929   5.114   5.762   9.115 -0.3300  0.3172  1.0060
 9496SOL    HW229930   5.157   5.618   9.130  0.7440  0.5737  0.5465
 9497SOL     OW29931   5.237   2.038   9.526 -0.1339 -0.2590  0.5965
 9497SOL    HW129932   5.162   2.068   9.475 -0.2712 -0.1479  0.8630
 9497SOL    HW229933   5.205   1.959   9.571  0.1509 -0.6738  0.0882
 9498SOL     OW29934   5.192   7.713   8.959 -0.7138 -0.3188 -0.9273
 9498SOL    HW129935   5.151   7.740   8.876  0.0356  0.5213 -1.0329
 9498SOL    HW229936   5.158   7.774   9.024 -0.0176  0.0932 -0.9329
 9499SOL     OW29937   2.237   7.455  11.129  0.5973  0.3367  0.0477
 9499SOL    HW129938   2.269   7.546  11.128  1.0553  0.1965 -1.4280
 9499SOL    HW229939   2.259   7.422  11.216 -1.7167  2.3349  1.5073
 9500SOL     OW29940   0.206   4.347   7.072  0.3213  0.5191  0.2207
 9500SOL    HW129941   0.199   4.270   7.017  1.7488  1.0920 -0.8320
 9500SOL    HW229942   0.196   4.313   7.162 -3.9303 -0.1689 -0.3216
 9501SOL     OW29943   0.651   5.985   2.985 -0.1143 -0.6703 -0.1497
 9501SOL    HW129944   0.608   5.902   2.966  0.1287 -0.8118 -0.0881
 9501SOL    HW229945   0.614   6.012   3.069  1.6361 -1.9901  1.1362
 9502SOL     OW29946   3.837   3.420   3.605 -0.2147 -0.2763 -0.4293
 9502SOL    HW129947   3.893   3.395   3.531 -0.0566 -0.1573 -0.3506
 9502SOL    HW229948   3.892   3.479   3.657 -0.2337 -0.5702 -0.0759
 9503SOL     OW29949   2.291   1.256   2.398  0.2222  0.2714 -0.2268
 9503SOL    HW129950   2.199   1.278   2.416  0.2823 -0.8644  1.7667
 9503SOL    HW229951   2.288   1.199   2.322 -0.4843  2.0774 -1.6160
 9504SOL     OW29952   1.942   5.959   9.874 -0.7836 -0.3089  0.6417
 9504SOL    HW129953   1.878   5.892   9.849 -1.0583 -0.2122  1.0895
 9504SOL    HW229954   2.001   5.915   9.935  0.1356 -0.6608 -0.4635
 9505SOL     OW29955   6.536   5.998   5.718  0.2145 -0.4429  0.2458
 9505SOL    HW129956   6.529   5.949   5.800  0.4838 -0.3172  0.3462
 9505SOL    HW229957   6.446   6.013   5.691  0.1299 -1.6132 -0.1539
 9506SOL     OW29958   6.202   1.875   6.098 -0.1716 -0.8127 -0.6571
 9506SOL    HW129959   6.158   1.904   6.178 -0.3479 -0.1700 -0.9763
 9506SOL    HW229960   6.288   1.844   6.127 -0.2191 -0.5486 -0.2249
 9507SOL     OW29961   4.318   7.232   4.545  0.3409 -0.1649  0.5984
 9507SOL    HW129962   4.333   7.278   4.462  0.4253  0.8423  1.1506
 9507SOL    HW229963   4.385   7.165   4.547  0.3262 -0.2160 -0.1594
 9508SOL     OW29964   7.457   2.794  11.870 -0.5454 -0.4456  0.3809
 9508SOL    HW129965   7.459   2.711  11.918  1.5457 -0.1184  0.9681
 9508SOL    HW229966   7.425   2.857  11.934  1.7183 -0.1123  1.2726
 9509SOL     OW29967   7.249   7.054   5.341 -0.6869  0.0410 -0.3432
 9509SOL    HW129968   7.226   6.972   5.385  0.6231 -0.5081 -0.6542
 9509SOL    HW229969   7.171   7.108   5.351 -1.7876 -1.4232 -0.5765
 9510SOL     OW29970   0.157   6.361   5.948  0.0352  0.5059 -0.5561
 9510SOL    HW129971   0.208   6.282   5.927 -0.9843 -1.1754  2.7012
 9510SOL    HW229972   0.187   6.387   6.035 -1.8005  1.9342 -0.2843
 9511SOL     OW29973   1.745   1.722   1.260  0.3075 -0.1100  0.0579
 9511SOL    HW129974   1.703   1.792   1.309  1.9105  0.4851  0.6278
 9511SOL    HW229975   1.720   1.642   1.306  0.0673  0.2620  0.5759
 9512SOL     OW29976   0.950   1.291   6.695  0.2545 -0.0682  0.0758
 9512SOL    HW129977   0.880   1.348   6.665 -0.9903 -1.9497 -0.8392
 9512SOL    HW229978   0.989   1.257   6.614  1.4267  0.0070  0.5882
 9513SOL     OW29979   5.484   5.111   0.653  0.6471 -0.0372 -0.4077
 9513SOL    HW129980   5.411   5.051   0.639  0.7265 -0.1923 -0.1672
 9513SOL    HW229981   5.446   5.184   0.702  0.9025 -0.7028  0.8355
 9514SOL     OW29982   1.079   5.688   8.583  0.2941  0.3191  0.0306
 9514SOL    HW129983   0.985   5.692   8.600  0.4475  0.3768  0.8697
 9514SOL    HW229984   1.086   5.695   8.487 -0.6645 -1.7069 -0.2421
 9515SOL     OW29985   1.624   4.514   8.674 -0.2089  0.4027 -0.2072
 9515SOL    HW129986   1.653   4.600   8.705 -1.5799  0.1935  1.8759
 9515SOL    HW229987   1.552   4.534   8.614 -0.1808  0.7083 -0.1429
 9516SOL     OW29988   7.165   3.168   7.623 -0.0553 -0.2196 -0.1708
 9516SOL    HW129989   7.253   3.153   7.659  0.8439 -0.7919 -2.4318
 9516SOL    HW229990   7.154   3.263   7.627  0.1560 -0.2224  1.1607
 9517SOL     OW29991   7.763   5.113   4.308 -0.6342 -0.0312 -0.5604
 9517SOL    HW129992   7.789   5.203   4.330  0.3156 -0.4349  0.0283
 9517SOL    HW229993   7.731   5.119   4.218  1.5556  0.5337 -1.3893
 9518SOL     OW29994   3.208   3.917   1.319 -0.5470 -0.5145 -0.4149
 9518SOL    HW129995   3.290   3.869   1.329 -0.0561  0.8245  3.2153
 9518SOL    HW229996   3.231   3.991   1.262  0.6271 -0.4414  0.1361
 9519SOL     OW29997   7.046   4.511  10.808  0.0369 -0.3469 -0.4135
 9519SOL    HW129998   6.953   4.508  10.786 -0.1201 -0.7380  0.2890
 9519SOL    HW229999   7.053   4.466  10.892  1.3152 -3.5105 -2.0250
 9520SOL     OW30000   0.977   1.519   8.810 -0.4664 -0.0304 -0.0825
 9520SOL    HW130001   1.066   1.485   8.819  1.0965  2.6469 -3.3236
 9520SOL    HW230002   0.927   1.445   8.773  0.7504 -1.1077  0.3477
 9521SOL     OW30003   0.105   2.336   6.910  0.6063  0.5837 -0.4429
 9521SOL    HW130004   0.106   2.345   7.005  2.4781  0.0082 -0.3712
 9521SOL    HW230005   0.047   2.261   6.893  1.9302 -0.6735  0.4107
 9522SOL     OW30006   5.643   3.444   6.943 -0.4151  0.0657  0.3321
 9522SOL    HW130007   5.735   3.467   6.930 -0.5501  1.2077  1.2712
 9522SOL    HW230008   5.598   3.486   6.870 -0.1559 -0.8933 -0.4011
 9523SOL     OW30009   2.403   2.259   5.801  0.4522  0.2917 -0.4228
 9523SOL    HW130010   2.410   2.346   5.763  2.0052  1.2141  1.7590
 9523SOL    HW230011   2.477   2.253   5.861 -1.1586 -1.4510  1.5566
 9524SOL     OW30012   2.078   6.335   3.070  0.0481  0.2021  0.5652
 9524SOL    HW130013   1.993   6.309   3.107  1.0245 -0.9841  2.1048
 9524SOL    HW230014   2.135   6.260   3.087  1.3261  0.8318 -0.7844
 9525SOL     OW30015   2.863   5.365   3.960  0.3151  0.1314 -0.2268
 9525SOL    HW130016   2.848   5.274   3.935 -3.3291  0.7602 -0.8169
 9525SOL    HW230017   2.952   5.365   3.997  0.7436 -3.4577 -0.8895
 9526SOL     OW30018   1.739   5.093  10.940  0.3947 -0.0331 -0.2443
 9526SOL    HW130019   1.831   5.096  10.913  0.9617  2.3046  1.5582
 9526SOL    HW230020   1.689   5.108  10.860  1.5087 -1.9229 -1.3588
 9527SOL     OW30021   2.390   4.840   7.010 -0.3098 -0.3337 -1.0775
 9527SOL    HW130022   2.331   4.864   7.082 -1.3284  1.0151 -2.3136
 9527SOL    HW230023   2.449   4.776   7.049 -2.8245 -2.1050  0.1216
 9528SOL     OW30024   5.309   1.952   4.464 -0.2362 -0.0978 -0.6170
 9528SOL    HW130025   5.342   1.988   4.546  1.5048 -0.1643 -1.2537
 9528SOL    HW230026   5.232   1.901   4.489  1.9766 -2.7326  1.4754
 9529SOL     OW30027   2.589   6.512   5.839 -0.3759 -0.1065  0.1892
 9529SOL    HW130028   2.569   6.468   5.756 -0.7630  0.8799 -0.2589
 9529SOL    HW230029   2.600   6.440   5.902  0.4008 -0.8965 -0.8026
 9530SOL     OW30030   7.162   3.001   7.130  0.1916  0.3041 -0.8751
 9530SOL    HW130031   7.130   3.082   7.169  1.0420 -0.1487  0.8544
 9530SOL    HW230032   7.119   2.931   7.180 -0.0783 -0.3175 -1.9473
 9531SOL     OW30033   2.831   1.661  11.832  0.1255  0.2306  0.1285
 9531SOL    HW130034   2.812   1.742  11.784 -0.2692 -0.4023 -0.8231
 9531SOL    HW230035   2.870   1.603  11.766 -1.3258 -1.0191  0.3049
 9532SOL     OW30036   0.040   1.728   4.594 -0.4503 -0.4801 -0.1292
 9532SOL    HW130037  -0.000   1.813   4.612  0.4073 -0.2432  0.7979
 9532SOL    HW230038   0.076   1.700   4.679  1.4989 -0.5605 -0.9303
 9533SOL     OW30039   2.827   1.665  10.714 -0.0664  0.5626  0.0433
 9533SOL    HW130040   2.834   1.571  10.699 -1.0287  0.7783 -2.2197
 9533SOL    HW230041   2.737   1.687  10.689 -0.0518  2.0001  1.1072
 9534SOL     OW30042   5.265   6.391   1.674  0.1581  0.0331  0.0200
 9534SOL    HW130043   5.238   6.483   1.670 -0.7114 -0.2360 -0.7295
 9534SOL    HW230044   5.297   6.379   1.763 -0.7241  0.7952  0.4592
 9535SOL     OW30045   6.450   5.008  10.994 -0.1144  0.0586  0.3638
 9535SOL    HW130046   6.395   5.086  11.007  0.3463  0.3346  0.6835
 9535SOL    HW230047   6.421   4.947  11.062  0.2273  0.3508  0.7797
 9536SOL     OW30048   2.637   6.445   1.652 -0.5839 -0.1016 -0.2911
 9536SOL    HW130049   2.639   6.526   1.704 -1.6768 -0.6887  0.7050
 9536SOL    HW230050   2.681   6.380   1.707  1.6529  0.1034 -1.7018
 9537SOL     OW30051   1.254   6.904   3.334  0.6042 -0.0734 -0.4286
 9537SOL    HW130052   1.298   6.887   3.417  1.2603  1.6967 -0.3756
 9537SOL    HW230053   1.166   6.935   3.359  0.5140 -0.3379 -0.4194
 9538SOL     OW30054   2.036   7.262   6.988  0.1785 -0.6006  0.1281
 9538SOL    HW130055   1.992   7.190   7.034 -2.4399  0.4935 -0.5141
 9538SOL    HW230056   1.986   7.340   7.012  3.3282  1.2373  1.3285
 9539SOL     OW30057   2.087   0.033  11.698 -0.0824  0.6560  0.5123
 9539SOL    HW130058   2.087   0.095  11.771 -0.7421  1.4657 -0.1660
 9539SOL    HW230059   1.997   0.001  11.693 -0.3554  1.5626 -0.7385
 9540SOL     OW30060   7.619   3.235   0.379 -0.5081  0.9153  0.0235
 9540SOL    HW130061   7.608   3.229   0.474  2.4518  2.3262  0.5622
 9540SOL    HW230062   7.584   3.321   0.356 -1.8241  0.3152 -0.3337
 9541SOL     OW30063   4.240   3.070   4.934  0.2601  0.5921  0.4044
 9541SOL    HW130064   4.213   3.126   5.007  0.8162  0.7934  0.4586
 9541SOL    HW230065   4.201   2.985   4.954 -0.4572  0.9064  0.4035
 9542SOL     OW30066   5.712   0.867   7.137  0.2001 -0.2691  0.6271
 9542SOL    HW130067   5.793   0.913   7.159 -0.1110  0.6043 -0.0038
 9542SOL    HW230068   5.739   0.777   7.117  1.1158  0.1983 -0.2995
 9543SOL     OW30069   6.725   5.057   1.367 -0.0756 -0.4092  0.0165
 9543SOL    HW130070   6.816   5.081   1.353 -0.0998 -0.4983 -0.2831
 9543SOL    HW230071   6.689   5.045   1.279  0.0425 -1.9879  0.1544
 9544SOL     OW30072   6.478   7.500   4.040  0.0749  0.1416 -0.1623
 9544SOL    HW130073   6.433   7.432   4.089 -2.2156  1.8592  0.3186
 9544SOL    HW230074   6.424   7.514   3.963 -0.0173  1.9333  0.1726
 9545SOL     OW30075   2.670   5.073   1.599  0.3007 -0.1150  0.8784
 9545SOL    HW130076   2.650   5.098   1.509 -1.2008  0.4012  1.3166
 9545SOL    HW230077   2.748   5.018   1.593  0.9560  0.9330 -0.5980
 9546SOL     OW30078   2.099   2.734   2.821  0.0264 -0.6853 -0.0230
 9546SOL    HW130079   2.050   2.804   2.778 -0.2588 -0.2892  0.9423
 9546SOL    HW230080   2.095   2.661   2.759 -1.5828 -0.5880 -0.0648
 9547SOL     OW30081   1.610   2.683   9.483 -0.1094 -0.2376 -0.1153
 9547SOL    HW130082   1.691   2.732   9.471 -0.7728  0.7365 -0.7401
 9547SOL    HW230083   1.541   2.749   9.474 -1.0404 -1.3266 -1.2773
 9548SOL     OW30084   6.701   0.221  10.428  0.2560  0.1044 -0.0128
 9548SOL    HW130085   6.607   0.239  10.424 -0.1100 -1.7184 -1.1208
 9548SOL    HW230086   6.720   0.209  10.521 -0.8539 -0.5640  0.1474
 9549SOL     OW30087   7.072   4.235   4.031  0.2923  0.0016 -0.1701
 9549SOL    HW130088   7.160   4.263   4.004 -0.9191  1.8199 -2.5752
 9549SOL    HW230089   7.054   4.157   3.979  0.4330 -0.3328  0.2750
 9550SOL     OW30090   2.739   0.357  10.054  0.0523 -0.2905 -1.2009
 9550SOL    HW130091   2.769   0.405  10.131 -2.6692 -1.4937  0.7445
 9550SOL    HW230092   2.742   0.265  10.080 -2.5427 -0.6272 -1.8443
 9551SOL     OW30093   2.293   6.827   2.925 -0.1247  0.0220  0.2362
 9551SOL    HW130094   2.309   6.757   2.988 -1.2153  0.0084  0.5072
 9551SOL    HW230095   2.200   6.821   2.905  0.0339  0.5679 -0.7335
 9552SOL     OW30096   4.607   3.694   8.398 -0.5044 -0.5853 -0.3862
 9552SOL    HW130097   4.687   3.681   8.448 -0.9065  0.6232  0.6199
 9552SOL    HW230098   4.560   3.611   8.405  0.5956 -1.2853 -0.9225
 9553SOL     OW30099   1.604   4.826  10.067  0.0702  0.2145 -0.6186
 9553SOL    HW130100   1.666   4.894  10.092 -0.5046  0.9773 -1.2558
 9553SOL    HW230101   1.645   4.780   9.994  0.6281 -0.3910  0.0584
 9554SOL     OW30102   3.706   0.346   6.180 -0.1729 -0.5008  0.0637
 9554SOL    HW130103   3.725   0.418   6.239 -2.2864  0.0388  0.1674
 9554SOL    HW230104   3.777   0.284   6.193  0.7522  0.7719  1.2618
 9555SOL     OW30105   3.945   5.993   1.715  0.5527 -0.1584 -0.7521
 9555SOL    HW130106   3.885   5.928   1.751 -0.6315  0.8129 -0.8940
 9555SOL    HW230107   3.936   6.068   1.774  0.2656  0.6470 -1.7929
 9556SOL     OW30108   6.127   2.599   5.658  0.6513 -0.1275  0.3153
 9556SOL    HW130109   6.189   2.556   5.598  0.5103  0.4177 -0.2343
 9556SOL    HW230110   6.046   2.605   5.608  0.6466  0.6964  0.4101
 9557SOL     OW30111   4.411   5.189  10.847  0.4227  0.2702 -0.0641
 9557SOL    HW130112   4.333   5.178  10.793  0.6161  1.7878 -0.7092
 9557SOL    HW230113   4.385   5.159  10.934 -0.7769  0.4134 -0.3545
 9558SOL     OW30114   0.394   0.435   8.319 -0.9895  0.2954  0.3424
 9558SOL    HW130115   0.483   0.430   8.283  0.0349 -1.1992  2.7986
 9558SOL    HW230116   0.360   0.346   8.311 -1.8676  0.6167  0.3710
 9559SOL     OW30117   7.046   0.729   4.082 -0.4889  0.0415  0.1384
 9559SOL    HW130118   7.105   0.713   4.155 -0.0176  0.3789 -0.1588
 9559SOL    HW230119   7.105   0.750   4.009 -0.9851  0.6790 -0.0859
 9560SOL     OW30120   1.868   3.515  11.443  0.1039 -0.2014 -0.4248
 9560SOL    HW130121   1.926   3.571  11.495  1.7466  0.1040 -2.4418
 9560SOL    HW230122   1.884   3.542  11.353 -1.6977 -1.5538 -1.2067
 9561SOL     OW30123   1.568   3.084   7.161  0.8170  0.3488 -0.1486
 9561SOL    HW130124   1.593   3.139   7.087  0.4712  1.3383  0.4587
 9561SOL    HW230125   1.497   3.132   7.204 -0.1447 -1.0152 -0.1483
 9562SOL     OW30126   3.217   5.822   8.265  0.5378  0.2388 -0.1620
 9562SOL    HW130127   3.261   5.804   8.348  0.6502  0.6324 -0.1333
 9562SOL    HW230128   3.230   5.742   8.214 -2.0897 -1.2231  1.2492
 9563SOL     OW30129   0.357   2.868   0.576 -0.8542 -0.4951 -0.1122
 9563SOL    HW130130   0.318   2.925   0.509 -1.2734 -0.9772 -0.2826
 9563SOL    HW230131   0.295   2.796   0.586 -1.5717  0.3374  1.9118
 9564SOL     OW30132   1.396   2.422   2.421 -0.1433 -0.1736  0.5395
 9564SOL    HW130133   1.489   2.403   2.431  0.1290 -0.2475 -1.6258
 9564SOL    HW230134   1.377   2.485   2.491  1.5932  0.0649  0.8431
 9565SOL     OW30135   1.306   1.259   4.073  0.1388  0.4694  0.2617
 9565SOL    HW130136   1.257   1.247   4.154 -0.4004 -1.3845 -0.2750
 9565SOL    HW230137   1.264   1.332   4.029 -0.0040  1.0397  1.3283
 9566SOL     OW30138   7.942   0.042   4.889  0.1782  0.1220  0.3450
 9566SOL    HW130139   8.026   0.001   4.870 -0.3808 -1.3036  0.7543
 9566SOL    HW230140   7.958   0.136   4.884  1.6174 -0.1358 -0.2772
 9567SOL     OW30141   5.868   1.255   8.541  0.0099  0.0850  0.0398
 9567SOL    HW130142   5.799   1.190   8.559  0.1793 -0.4428 -1.1538
 9567SOL    HW230143   5.840   1.298   8.461  0.8058  0.2515 -0.1541
 9568SOL     OW30144   7.577   7.554   6.911 -0.3828 -0.4858  0.1967
 9568SOL    HW130145   7.566   7.632   6.857 -2.1379 -1.7134 -1.3598
 9568SOL    HW230146   7.639   7.499   6.862 -0.5133 -0.8087  0.3870
 9569SOL     OW30147   1.510   5.850   9.759 -0.3021  0.4887 -0.4080
 9569SOL    HW130148   1.464   5.933   9.744  0.2698  0.9336  0.2155
 9569SOL    HW230149   1.507   5.839   9.854  0.7050  0.4304 -0.3745
 9570SOL     OW30150   3.513   5.166   5.306  0.0752 -0.2398  0.2894
 9570SOL    HW130151   3.608   5.173   5.316  0.0960 -0.6112  0.3734
 9570SOL    HW230152   3.498   5.073   5.290 -0.0778  0.1204 -1.9859
 9571SOL     OW30153   1.874   7.526   6.488  0.4460 -0.1986 -0.1380
 9571SOL    HW130154   1.789   7.545   6.528  0.3208 -1.6491  0.3137
 9571SOL    HW230155   1.867   7.435   6.459  2.0834 -0.5390  0.4866
 9572SOL     OW30156   6.766   4.262   4.590  0.2156 -0.0967 -0.2478
 9572SOL    HW130157   6.723   4.209   4.523  0.9783  1.2587 -1.8970
 9572SOL    HW230158   6.859   4.243   4.579  0.3888  0.5605  0.0655
 9573SOL     OW30159   0.669   3.115   2.525 -0.0527 -0.6998  0.2602
 9573SOL    HW130160   0.729   3.187   2.547  0.8569 -0.6840 -2.0506
 9573SOL    HW230161   0.583   3.149   2.547  0.2504  1.5301 -1.6432
 9574SOL     OW30162   5.604   5.246   9.318  0.1378 -0.1145  0.3028
 9574SOL    HW130163   5.543   5.274   9.250 -0.2884  0.1730  0.7901
 9574SOL    HW230164   5.567   5.164   9.351 -0.1050  0.1689  0.7424
 9575SOL     OW30165   3.504   6.672   9.007  0.1656 -0.6663 -0.0763
 9575SOL    HW130166   3.498   6.764   9.034 -0.3617 -1.0633  1.2598
 9575SOL    HW230167   3.593   6.646   9.030  0.7356 -0.1754 -1.6072
 9576SOL     OW30168   6.154   3.616  10.843  0.1866 -0.1468 -0.4246
 9576SOL    HW130169   6.160   3.708  10.817  1.0714  0.1555  0.7988
 9576SOL    HW230170   6.060   3.600  10.852  0.0864  1.1844  1.2094
 9577SOL     OW30171   1.565   4.770   4.863 -0.4132 -0.2040 -0.0945
 9577SOL    HW130172   1.620   4.821   4.923 -0.6885  0.8248 -0.6810
 9577SOL    HW230173   1.535   4.696   4.915  1.6935 -0.9222  0.1849
 9578SOL     OW30174   0.726   1.066   1.424  0.2203 -0.8148  0.2281
 9578SOL    HW130175   0.787   1.002   1.387  1.5476  1.4707 -1.8590
 9578SOL    HW230176   0.669   1.090   1.351 -0.5948 -0.0069  1.1034
 9579SOL     OW30177   4.469   4.305   7.886  0.7212 -0.0209 -0.4997
 9579SOL    HW130178   4.399   4.370   7.886  0.0290 -0.6830  1.8469
 9579SOL    HW230179   4.427   4.223   7.913  1.9413 -1.0524 -1.5413
 9580SOL     OW30180   0.932   0.883   7.139  0.7819 -0.5256 -0.1907
 9580SOL    HW130181   1.010   0.832   7.116  1.2795 -0.3493  1.0004
 9580SOL    HW230182   0.927   0.951   7.072  0.5158 -1.6956 -1.3957
 9581SOL     OW30183   1.225   6.171   5.999  0.4457  0.1776 -0.4269
 9581SOL    HW130184   1.182   6.086   5.992  0.1588  0.3502 -0.8027
 9581SOL    HW230185   1.316   6.154   5.976  0.7905 -0.3597  1.2490
 9582SOL     OW30186   2.898   0.796  10.237 -0.5820  0.3418 -0.3318
 9582SOL    HW130187   2.864   0.881  10.265  0.5084  0.1248  1.8496
 9582SOL    HW230188   2.993   0.805  10.240 -0.4416 -0.8396 -0.4357
 9583SOL     OW30189   1.760   2.717   5.244 -0.0631  0.3220 -0.0726
 9583SOL    HW130190   1.780   2.747   5.156  0.2081  1.5987  0.3940
 9583SOL    HW230191   1.720   2.793   5.287 -0.4690 -0.3657  0.8107
 9584SOL     OW30192   1.624   3.799   4.377  0.4529 -0.1907 -0.2161
 9584SOL    HW130193   1.630   3.704   4.386  0.2203 -0.2332 -0.4796
 9584SOL    HW230194   1.620   3.813   4.282 -1.5189 -0.0527 -0.1471
 9585SOL     OW30195   0.481   2.898   8.384 -0.1046 -0.4288  0.0671
 9585SOL    HW130196   0.433   2.817   8.371 -2.1118  0.4991  1.1531
 9585SOL    HW230197   0.461   2.924   8.475  3.1143 -0.3410  0.8975
 9586SOL     OW30198   4.705   2.792  10.090  0.1698 -0.1192 -0.1213
 9586SOL    HW130199   4.777   2.779  10.028 -1.2883 -0.1859 -1.8908
 9586SOL    HW230200   4.704   2.711  10.142  1.5513  0.0183  0.1523
 9587SOL     OW30201   4.092   6.747   9.815  0.7181  0.2467 -0.2002
 9587SOL    HW130202   4.002   6.771   9.791  0.5023 -1.4606 -1.2104
 9587SOL    HW230203   4.140   6.830   9.809 -0.9976  1.4571  1.5985
 9588SOL     OW30204   2.048   5.715   4.862  0.3031  0.5220  0.4868
 9588SOL    HW130205   2.103   5.763   4.923 -0.9735  1.7567  0.7242
 9588SOL    HW230206   2.024   5.780   4.795 -0.4875 -0.0891  0.1531
 9589SOL     OW30207   1.876   3.167   5.946  0.8260  0.2395  0.3215
 9589SOL    HW130208   1.850   3.228   5.877 -1.0148  1.1644  1.7460
 9589SOL    HW230209   1.797   3.154   5.998  2.2761  0.0587  2.6358
 9590SOL     OW30210   3.821   7.300   2.647  0.3629  0.4819 -0.0902
 9590SOL    HW130211   3.899   7.355   2.657  1.0114 -0.6265  1.1748
 9590SOL    HW230212   3.796   7.311   2.555  2.9902 -0.4073 -0.9955
 9591SOL     OW30213   0.078   4.689   6.329 -0.1478 -0.4375 -0.3941
 9591SOL    HW130214  -0.001   4.662   6.377 -3.0733  1.6746 -3.5539
 9591SOL    HW230215   0.094   4.617   6.267  0.2427 -0.7311  0.0439
 9592SOL     OW30216   4.190   4.037   2.027  0.4734 -0.1738 -0.2391
 9592SOL    HW130217   4.215   4.129   2.016 -0.3291  0.1642  0.6731
 9592SOL    HW230218   4.246   4.006   2.099 -2.5811  1.0345  2.9698
 9593SOL     OW30219   3.758   1.185   1.945  0.8119  0.0153  0.2130
 9593SOL    HW130220   3.701   1.119   1.984 -0.2201  1.3703  1.0903
 9593SOL    HW230221   3.703   1.263   1.936  1.5577  0.3368 -2.2259
 9594SOL     OW30222   6.280   7.780   3.004 -0.2757 -0.0046 -0.1654
 9594SOL    HW130223   6.371   7.766   3.029 -0.2873  0.5652  0.2190
 9594SOL    HW230224   6.229   7.737   3.072 -0.2965  0.3151  0.0230
 9595SOL     OW30225   1.183   6.460  11.556  0.1420 -0.2043  0.1282
 9595SOL    HW130226   1.250   6.507  11.605  0.2847  0.6007 -0.7890
 9595SOL    HW230227   1.121   6.430  11.622  0.9140 -0.1487  0.8946
 9596SOL     OW30228   1.702   4.688   4.639 -0.4727  0.3265  0.0252
 9596SOL    HW130229   1.702   4.773   4.595  0.3296 -0.2286 -1.0884
 9596SOL    HW230230   1.653   4.703   4.720 -1.3817  1.5491 -0.7158
 9597SOL     OW30231   1.310   1.217   2.611 -0.2987 -0.0733 -0.2496
 9597SOL    HW130232   1.351   1.213   2.698 -0.2217  0.5569 -0.2507
 9597SOL    HW230233   1.339   1.301   2.576 -1.2034  0.1551 -0.4515
 9598SOL     OW30234   4.750   0.174   0.284  0.2686  0.1925  0.3804
 9598SOL    HW130235   4.792   0.261   0.287  0.5566  0.0637  0.1032
 9598SOL    HW230236   4.757   0.142   0.374 -0.8298  0.9155  0.7418
 9599SOL     OW30237   2.174   1.295   9.690  0.2748 -0.3287 -0.0590
 9599SOL    HW130238   2.090   1.266   9.656 -0.6265 -0.0062  1.7677
 9599SOL    HW230239   2.182   1.251   9.775  2.1583 -0.6793 -0.3561
 9600SOL     OW30240   7.655   1.704   8.900 -0.3641 -0.3559  0.3337
 9600SOL    HW130241   7.749   1.707   8.881 -0.0275  3.5750  1.6106
 9600SOL    HW230242   7.634   1.611   8.904  2.9592 -1.4090 -2.1586
 9601SOL     OW30243   2.868   4.512   5.616 -0.3339 -0.4254 -0.1667
 9601SOL    HW130244   2.921   4.445   5.572  0.3849  0.5401 -0.7928
 9601SOL    HW230245   2.794   4.525   5.557 -1.1850 -1.6055  0.5963
 9602SOL     OW30246   0.130   2.726   0.534  0.0490  0.0892 -0.1679
 9602SOL    HW130247   0.065   2.757   0.470 -1.2712 -1.1373  0.5200
 9602SOL    HW230248   0.112   2.632   0.543  1.0353 -0.0050  1.0824
 9603SOL     OW30249   5.661   3.466  12.315  0.0844  0.2211 -0.5546
 9603SOL    HW130250   5.571   3.447  12.289 -0.3572  0.1434  0.9679
 9603SOL    HW230251   5.662   3.561  12.331  0.0086  0.0641  0.4022
 9604SOL     OW30252   4.950   2.036   8.949  0.3773 -0.0546  0.1108
 9604SOL    HW130253   4.994   2.053   9.032 -0.8682  0.8288  0.6316
 9604SOL    HW230254   4.971   2.111   8.894  0.4597 -0.1945 -0.0494
 9605SOL     OW30255   2.829   3.693   8.241  0.4874  0.1585  0.0671
 9605SOL    HW130256   2.904   3.660   8.192  0.0575 -2.0264  0.7673
 9605SOL    HW230257   2.767   3.721   8.174  1.1874  0.2260 -0.5601
 9606SOL     OW30258   1.843   5.289   3.580  0.0740 -0.7648  0.1532
 9606SOL    HW130259   1.756   5.256   3.554  0.2512 -1.5511  0.5211
 9606SOL    HW230260   1.846   5.276   3.675  1.6773 -3.4994 -0.1654
 9607SOL     OW30261   7.685   5.788   6.839  0.0544 -0.4891  0.4611
 9607SOL    HW130262   7.615   5.779   6.775  0.7374 -1.6253 -0.1758
 9607SOL    HW230263   7.758   5.738   6.801  0.5129 -1.1097  2.0649
 9608SOL     OW30264   6.166   6.751   0.011  0.3733  0.5659  0.3018
 9608SOL    HW130265   6.144   6.659  -0.005  0.3559  0.4379  1.0284
 9608SOL    HW230266   6.135   6.797  -0.068 -0.3032  0.0530  0.2570
 9609SOL     OW30267   3.151   2.478   7.877 -0.4496 -0.4108  0.4451
 9609SOL    HW130268   3.057   2.496   7.874 -0.1001  1.4507 -1.4835
 9609SOL    HW230269   3.168   2.424   7.800  0.1425 -0.3377  0.5159
 9610SOL     OW30270   4.547   7.053   5.470  0.4645  0.0957  0.3933
 9610SOL    HW130271   4.459   7.019   5.456  0.5684  0.5345 -1.6789
 9610SOL    HW230272   4.599   6.977   5.496  0.1895 -0.9400 -1.8666
 9611SOL     OW30273   0.868   0.631   6.631 -0.1270  0.0042  0.2209
 9611SOL    HW130274   0.778   0.599   6.627  0.3847 -1.7910  1.7741
 9611SOL    HW230275   0.880   0.659   6.722  0.7473  0.6949 -0.0919
 9612SOL     OW30276   3.939   3.967   2.106  0.4098 -0.1236 -0.1863
 9612SOL    HW130277   4.031   3.989   2.092 -0.1124  1.0400 -2.2028
 9612SOL    HW230278   3.917   3.908   2.034 -0.6193  0.2244 -0.1768
 9613SOL     OW30279   3.188   7.608   6.665  0.1138  0.1448  0.3038
 9613SOL    HW130280   3.199   7.538   6.729  1.6059  0.2582  0.2106
 9613SOL    HW230281   3.105   7.649   6.689 -0.0341 -0.6742  1.3032
 9614SOL     OW30282   1.405   5.526   5.491 -0.5262 -0.4293  0.4553
 9614SOL    HW130283   1.371   5.510   5.403  1.3901 -0.2798 -0.3424
 9614SOL    HW230284   1.355   5.601   5.522 -0.0650  0.5866 -1.1764
 9615SOL     OW30285   5.521   2.210   9.670 -0.1772 -0.3723 -0.1662
 9615SOL    HW130286   5.542   2.295   9.630 -0.4701 -0.1681  0.1160
 9615SOL    HW230287   5.426   2.208   9.673 -0.1532 -0.1387  1.0619
 9616SOL     OW30288   6.767   7.557  11.950 -0.3305 -0.5175  0.3992
 9616SOL    HW130289   6.772   7.652  11.958 -0.7816 -0.3376 -1.1230
 9616SOL    HW230290   6.746   7.527  12.038  0.0419  0.7692  0.9504
 9617SOL     OW30291   1.148   3.783   1.045 -0.1166 -0.1218  0.3252
 9617SOL    HW130292   1.070   3.831   1.074 -1.0978 -2.0315  0.9865
 9617SOL    HW230293   1.145   3.787   0.950  0.6520  2.3369  0.3278
 9618SOL     OW30294   1.720   7.404   8.771  0.3447 -0.5193 -0.5237
 9618SOL    HW130295   1.780   7.445   8.833 -1.6687 -1.1254  2.0272
 9618SOL    HW230296   1.638   7.453   8.780 -0.3470 -1.3550 -1.8683
 9619SOL     OW30297   4.738   7.519   4.987  0.2692 -0.4242  0.1362
 9619SOL    HW130298   4.724   7.516   4.893 -0.2209 -0.7726  0.2159
 9619SOL    HW230299   4.773   7.607   5.004 -0.8205  0.0924 -0.2125
 9620SOL     OW30300   4.027   0.886   1.951 -0.4880  0.5687  0.3076
 9620SOL    HW130301   3.940   0.855   1.926 -0.4940  0.8838 -0.0894
 9620SOL    HW230302   4.060   0.928   1.871  0.0625  0.3694  0.4312
 9621SOL     OW30303   6.550   2.551  12.032  0.0881  0.0761 -0.1119
 9621SOL    HW130304   6.522   2.638  12.059 -0.0831  0.8385 -2.4873
 9621SOL    HW230305   6.635   2.565  11.990  0.9024 -1.1967  1.0558
 9622SOL     OW30306   4.184   0.190  12.015 -0.6345  0.1132  0.0551
 9622SOL    HW130307   4.122   0.122  11.989  1.1885 -1.5560 -0.2160
 9622SOL    HW230308   4.257   0.181  11.953  0.8924  0.4474  1.7124
 9623SOL     OW30309   7.883   2.896   7.167  0.6290  0.3522 -0.2946
 9623SOL    HW130310   7.790   2.875   7.165  0.9762 -1.2978 -0.0981
 9623SOL    HW230311   7.892   2.971   7.107 -0.4773 -0.8779 -2.0945
 9624SOL     OW30312   1.909   1.833  11.703 -0.0011  0.3024 -0.6222
 9624SOL    HW130313   1.837   1.883  11.740 -0.9812 -1.7750  0.4334
 9624SOL    HW230314   1.979   1.840  11.768 -0.7507 -1.0515  0.3879
 9625SOL     OW30315   5.903   7.566   9.313 -0.9227  0.1602  0.0267
 9625SOL    HW130316   5.846   7.612   9.251  0.3801 -0.0451 -1.3958
 9625SOL    HW230317   5.886   7.608   9.397 -3.1505  0.0963 -0.3225
 9626SOL     OW30318   4.821   1.812  11.062  0.3396 -0.5031  0.1096
 9626SOL    HW130319   4.819   1.816  11.157  0.1609  0.4560  0.0830
 9626SOL    HW230320   4.763   1.883  11.034 -1.3266 -2.1006 -0.7079
 9627SOL     OW30321   6.370   0.879   6.237  0.3642 -0.1403  0.6915
 9627SOL    HW130322   6.393   0.786   6.245  1.5658 -0.1741 -1.8746
 9627SOL    HW230323   6.444   0.917   6.188 -2.2008  1.0810 -2.6350
 9628SOL     OW30324   5.691   1.587  11.708  0.2185 -0.2880  0.2862
 9628SOL    HW130325   5.702   1.659  11.770 -1.4235 -0.4325  0.8025
 9628SOL    HW230326   5.772   1.586  11.657 -0.8399  3.8719 -1.8491
 9629SOL     OW30327   5.838   0.045   6.956 -0.4605  0.2467 -0.8647
 9629SOL    HW130328   5.774  -0.001   7.009 -1.6962  3.2966  0.5408
 9629SOL    HW230329   5.921   0.001   6.974 -1.5119 -1.3146  0.4024
 9630SOL     OW30330   5.093   6.014   9.002  0.0958 -0.0987 -0.4230
 9630SOL    HW130331   5.031   6.071   9.049  1.9888  1.6569  0.1007
 9630SOL    HW230332   5.056   6.007   8.914 -1.1091  0.4516  0.0072
 9631SOL     OW30333   5.419   1.832   0.646 -0.3309 -0.0446  0.3065
 9631SOL    HW130334   5.465   1.878   0.576 -0.4852 -1.2985 -0.6533
 9631SOL    HW230335   5.396   1.901   0.709 -0.6604  1.2112 -1.1313
 9632SOL     OW30336   4.866   7.603   2.219 -0.4176  0.4667  0.1128
 9632SOL    HW130337   4.847   7.516   2.184  0.5351  0.3835 -0.2243
 9632SOL    HW230338   4.867   7.660   2.142 -0.8336  0.7428  0.3089
 9633SOL     OW30339   2.747   5.373  12.273 -0.0818 -0.4127 -0.0772
 9633SOL    HW130340   2.773   5.460  12.304 -1.9866  0.4701 -0.7821
 9633SOL    HW230341   2.667   5.353  12.322 -1.0023 -0.6823 -1.6300
 9634SOL     OW30342   2.067   2.668   4.689 -0.0496  0.0431 -0.5280
 9634SOL    HW130343   2.143   2.623   4.651 -0.5937 -0.9665 -0.4646
 9634SOL    HW230344   2.097   2.696   4.776  0.7009  0.9714 -1.0650
 9635SOL     OW30345   7.712   4.344   6.884 -0.0853  0.3402  0.0056
 9635SOL    HW130346   7.720   4.379   6.973 -0.3770 -0.0817  0.2054
 9635SOL    HW230347   7.781   4.387   6.835  0.5853 -0.0008  0.6242
 9636SOL     OW30348   5.402   2.903   9.139  0.1395  0.1265  0.3424
 9636SOL    HW130349   5.343   2.935   9.070 -0.7545 -0.7034  0.7001
 9636SOL    HW230350   5.358   2.928   9.220  1.2495  1.2123  0.6340
 9637SOL     OW30351   0.302   3.527   9.277  0.2697 -0.0084 -0.3360
 9637SOL    HW130352   0.278   3.613   9.313  0.4642  1.2796 -3.0325
 9637SOL    HW230353   0.218   3.481   9.268  0.2154 -0.3876  1.6285
 9638SOL     OW30354   2.667   5.824   0.982 -0.0673  0.4306  0.0614
 9638SOL    HW130355   2.663   5.736   0.946 -0.8352  0.1353  0.8352
 9638SOL    HW230356   2.648   5.881   0.907 -1.4441 -0.1595 -0.0790
 9639SOL     OW30357   0.139   5.616  12.463 -0.0541 -0.5377 -0.2829
 9639SOL    HW130358   0.151   5.575  12.377 -0.2741 -1.2324  0.0124
 9639SOL    HW230359   0.192   5.696  12.459 -0.0644 -0.5633 -1.0630
 9640SOL     OW30360   7.687   3.505   9.596 -0.1248 -0.0956 -0.0583
 9640SOL    HW130361   7.664   3.582   9.544 -4.2893 -0.7133  0.5152
 9640SOL    HW230362   7.763   3.468   9.553 -0.0074  2.4984 -2.3159
 9641SOL     OW30363   1.852   1.458   0.453  0.5281  0.3422 -0.4018
 9641SOL    HW130364   1.919   1.407   0.497  0.5608  1.3875  0.8183
 9641SOL    HW230365   1.900   1.514   0.391  0.8870  1.5214  0.8921
 9642SOL     OW30366   2.014   6.780   4.534  0.3107  0.0755 -0.5931
 9642SOL    HW130367   2.017   6.697   4.582  3.1189  0.9728  0.9971
 9642SOL    HW230368   2.095   6.782   4.483 -0.5978  1.0566 -2.0827
 9643SOL     OW30369   0.941   1.590   7.481  0.6526 -0.1731 -0.1319
 9643SOL    HW130370   0.932   1.613   7.388 -0.3358  2.2595  0.4969
 9643SOL    HW230371   1.030   1.616   7.503  0.3922  0.6977 -0.0609
 9644SOL     OW30372   4.693   0.081   5.300  0.2663 -0.1340 -0.2909
 9644SOL    HW130373   4.752   0.129   5.359  0.4254  1.1936 -1.4790
 9644SOL    HW230374   4.743   0.072   5.219 -0.5652 -0.4470 -0.7774
 9645SOL     OW30375   3.240   6.977   1.923 -0.3754  0.2501  0.2002
 9645SOL    HW130376   3.205   6.891   1.900 -0.0186  0.3064 -0.6024
 9645SOL    HW230377   3.205   7.036   1.856 -1.9904  1.0751  1.6957
 9646SOL     OW30378   2.160   3.212   1.113 -0.3026 -0.7554  0.1017
 9646SOL    HW130379   2.202   3.126   1.117  0.1408 -0.5203  0.6711
 9646SOL    HW230380   2.221   3.266   1.062 -0.4439 -0.7039 -0.0125
 9647SOL     OW30381   3.694   5.292   0.379 -0.3100 -0.8049 -0.0036
 9647SOL    HW130382   3.727   5.247   0.458  2.2541 -1.6846 -1.4490
 9647SOL    HW230383   3.722   5.383   0.391 -0.0522 -0.9035  0.1763
 9648SOL     OW30384   2.441   7.071   4.893  0.3661  0.1131  0.4754
 9648SOL    HW130385   2.484   7.145   4.935 -0.2210  0.9222 -0.3185
 9648SOL    HW230386   2.352   7.072   4.927 -0.2847  1.1151 -1.1375
 9649SOL     OW30387   6.486   7.948   2.116  0.3014 -0.4321  0.3281
 9649SOL    HW130388   6.565   8.002   2.113  0.0874 -0.1586 -0.5584
 9649SOL    HW230389   6.501   7.880   2.050  0.3358 -1.1513  1.0561
 9650SOL     OW30390   0.484   6.985   5.256  0.0013  0.1130  0.1112
 9650SOL    HW130391   0.453   7.075   5.267  1.4524  0.9489 -1.9843
 9650SOL    HW230392   0.579   6.994   5.248  0.3125 -1.7884  1.1983
 9651SOL     OW30393   6.770   6.779   9.066  0.5073 -0.2061 -0.1900
 9651SOL    HW130394   6.736   6.690   9.075 -1.6859  0.2488 -2.4623
 9651SOL    HW230395   6.863   6.772   9.087  0.4278 -3.0299 -0.3346
 9652SOL     OW30396   6.729   6.982   8.864  0.4945 -0.2452  0.2148
 9652SOL    HW130397   6.721   6.914   8.931 -1.6969  0.7559  1.0665
 9652SOL    HW230398   6.639   7.000   8.837  1.1500  1.1293 -1.2271
 9653SOL     OW30399   5.585   0.421   4.155  0.1154 -0.9146  0.1192
 9653SOL    HW130400   5.517   0.361   4.125 -0.0148  0.1384 -1.8656
 9653SOL    HW230401   5.545   0.467   4.229 -1.0894 -0.8059 -0.5703
 9654SOL     OW30402   7.481   5.702   3.860  0.5982  0.0714 -0.1578
 9654SOL    HW130403   7.463   5.651   3.939 -1.4317  0.9849  0.0128
 9654SOL    HW230404   7.399   5.703   3.812  1.6249  0.0617 -2.0169
 9655SOL     OW30405   1.050   6.240   5.105  0.3511 -0.2953 -0.6334
 9655SOL    HW130406   1.029   6.329   5.076  0.2368 -0.6386 -1.6413
 9655SOL    HW230407   1.110   6.253   5.178  1.6228  0.6178 -1.7765
 9656SOL     OW30408   3.250   4.213   6.279  0.3207  0.6811  0.2777
 9656SOL    HW130409   3.261   4.131   6.231 -0.9995  1.1694 -0.9520
 9656SOL    HW230410   3.256   4.189   6.371 -1.6466 -1.0908  0.0084
 9657SOL     OW30411   2.122   1.983   9.392  0.2072 -0.3444  0.4131
 9657SOL    HW130412   2.063   1.960   9.464  2.1696 -0.5995  2.0487
 9657SOL    HW230413   2.181   2.049   9.430  2.3143 -1.6415 -0.4167
 9658SOL     OW30414   2.472   2.163   5.287 -0.5764 -0.0289 -0.4386
 9658SOL    HW130415   2.475   2.116   5.371  1.7857  0.1508 -0.3602
 9658SOL    HW230416   2.460   2.094   5.222 -1.3934 -0.2673 -0.0622
 9659SOL     OW30417   0.887   1.708   3.598  0.7497 -0.1758  0.0534
 9659SOL    HW130418   0.799   1.737   3.571  1.0969  1.4589  0.5924
 9659SOL    HW230419   0.934   1.789   3.617  1.2993 -1.1177  3.2068
 9660SOL     OW30420   3.296   0.628   2.289 -0.3025  0.3474  0.0924
 9660SOL    HW130421   3.259   0.711   2.318 -0.4669 -0.2597  1.7402
 9660SOL    HW230422   3.288   0.570   2.365  0.4833 -0.9574 -0.7712
 9661SOL     OW30423   3.572   2.771   1.335 -0.3404  0.2348 -0.0888
 9661SOL    HW130424   3.551   2.858   1.300  0.8672  0.6812  0.2617
 9661SOL    HW230425   3.504   2.755   1.400 -1.6833  0.0793 -1.4635
 9662SOL     OW30426   0.089   1.001   3.347  0.4644  0.0031 -0.0354
 9662SOL    HW130427   0.081   1.089   3.309 -0.2788 -0.0708 -0.0729
 9662SOL    HW230428   0.129   1.016   3.433  2.9716  0.0876 -1.1359
 9663SOL     OW30429   0.230   4.881   6.690  0.6061  0.5191 -1.0026
 9663SOL    HW130430   0.235   4.954   6.751 -0.1899 -0.8616  0.8391
 9663SOL    HW230431   0.142   4.844   6.704  1.7918 -2.2449  0.0099
 9664SOL     OW30432   5.635   2.691   3.328 -0.4653  0.1097  0.2017
 9664SOL    HW130433   5.723   2.670   3.360 -0.6471  0.6382  1.0845
 9664SOL    HW230434   5.615   2.622   3.265  0.0112 -0.8315  1.0566
 9665SOL     OW30435   7.716   3.389  11.626 -0.1499 -0.6400  0.2492
 9665SOL    HW130436   7.739   3.347  11.709 -0.3805 -1.5507 -0.1323
 9665SOL    HW230437   7.704   3.316  11.565  0.5693  0.0444 -0.7327
 9666SOL     OW30438   7.152   0.102   5.837 -0.4911 -0.2199  0.2662
 9666SOL    HW130439   7.057   0.093   5.825 -0.4760 -1.3855  0.8663
 9666SOL    HW230440   7.164   0.195   5.857 -1.2035  0.4636 -2.1610
 9667SOL     OW30441   2.692   1.472   9.398 -0.1274 -0.0020 -0.1823
 9667SOL    HW130442   2.690   1.562   9.367  0.0610  0.0863  0.0546
 9667SOL    HW230443   2.771   1.435   9.360 -0.2644 -0.1007 -0.3709
 9668SOL     OW30444   1.288   3.052  12.121 -0.5829 -0.0065  0.2544
 9668SOL    HW130445   1.226   3.098  12.178  1.4032  2.9352  0.2346
 9668SOL    HW230446   1.350   3.012  12.181  0.1906  1.1374  0.2442
 9669SOL     OW30447   1.131   6.267   1.979 -0.0214  0.1332  0.2703
 9669SOL    HW130448   1.145   6.173   1.994  0.7071  0.2439  0.3296
 9669SOL    HW230449   1.061   6.271   1.914 -0.1956 -0.4476  0.4141
 9670SOL     OW30450   0.288   4.223   3.988 -0.1409  0.3185  0.1648
 9670SOL    HW130451   0.253   4.256   3.905  0.0786  2.1801  0.7596
 9670SOL    HW230452   0.345   4.150   3.963  1.1421  1.7923 -1.5178
 9671SOL     OW30453   1.523   5.974  12.421 -0.2787  0.8252 -0.2187
 9671SOL    HW130454   1.563   6.055  12.453 -1.6030  1.4650 -0.0976
 9671SOL    HW230455   1.565   5.958  12.337  1.3241  0.6008  0.5745
 9672SOL     OW30456   2.485   2.645   3.409  0.1138  0.4789  0.0550
 9672SOL    HW130457   2.422   2.586   3.368 -0.5386  1.1153  0.1221
 9672SOL    HW230458   2.471   2.633   3.503 -0.4478  1.1694  0.0708
 9673SOL     OW30459   3.748   2.732  10.180 -0.0803  0.0275 -0.3658
 9673SOL    HW130460   3.749   2.826  10.196 -0.0331  0.4404 -2.4819
 9673SOL    HW230461   3.807   2.720  10.106 -1.7772 -1.3538 -1.5858
 9674SOL     OW30462   2.923   4.775  10.853 -0.6311 -0.0377 -0.0926
 9674SOL    HW130463   2.935   4.684  10.880  1.2485 -0.4918 -2.1805
 9674SOL    HW230464   2.989   4.824  10.902 -0.5548 -0.0680 -0.1647
 9675SOL     OW30465   6.488   3.977  11.709  0.3761  0.2621  0.1334
 9675SOL    HW130466   6.506   3.906  11.771  0.9812 -0.5951 -0.9793
 9675SOL    HW230467   6.399   4.006  11.731  0.2928 -0.5241  0.9096
 9676SOL     OW30468   6.817   4.098   8.535 -0.0979  0.1371  0.2995
 9676SOL    HW130469   6.878   4.031   8.566  0.8093  0.6507 -0.3258
 9676SOL    HW230470   6.739   4.086   8.588 -0.5733 -2.4486 -0.8184
 9677SOL     OW30471   3.302   7.286   3.224  0.0737  0.1746 -0.0945
 9677SOL    HW130472   3.213   7.266   3.253  0.2170 -0.6009 -0.1819
 9677SOL    HW230473   3.298   7.284   3.129 -0.2797  2.2330 -0.1757
 9678SOL     OW30474   2.793   0.384   3.634 -0.5614 -0.3671 -0.3078
 9678SOL    HW130475   2.785   0.477   3.611 -0.9827 -0.8726 -2.4668
 9678SOL    HW230476   2.731   0.340   3.575 -1.9694 -1.8599  2.1071
 9679SOL     OW30477   3.543   2.341  10.327 -0.6672  0.3320  0.9009
 9679SOL    HW130478   3.509   2.413  10.379 -1.8038  0.3820  0.1220
 9679SOL    HW230479   3.466   2.290  10.303 -0.0296 -0.3678  0.2890
 9680SOL     OW30480   2.251   6.247   8.963 -0.2880  0.1248  0.6736
 9680SOL    HW130481   2.167   6.288   8.943 -1.4603 -2.1256  0.5988
 9680SOL    HW230482   2.317   6.306   8.926 -1.8357  1.7334  0.3565
 9681SOL     OW30483   6.511   6.363   1.374  0.3146 -0.0332  0.0437
 9681SOL    HW130484   6.604   6.344   1.367  0.1932 -0.1979 -1.2977
 9681SOL    HW230485   6.469   6.304   1.311 -0.7980 -0.5921  1.2432
 9682SOL     OW30486   3.893   4.517  12.026  0.2518  0.8934 -0.3974
 9682SOL    HW130487   3.916   4.471  12.107 -0.3379  1.2005 -0.0451
 9682SOL    HW230488   3.899   4.451  11.958 -0.5390  0.2879  0.0980
 9683SOL     OW30489   6.336   2.897   1.198  0.3555  0.8396  0.3370
 9683SOL    HW130490   6.402   2.964   1.176  0.8521  0.4408  0.5819
 9683SOL    HW230491   6.381   2.814   1.184 -0.3441  0.5489 -0.2081
 9684SOL     OW30492   7.085   1.805   3.760  0.3216 -0.0563 -0.1210
 9684SOL    HW130493   7.013   1.847   3.713  1.4432  0.6081 -1.3146
 9684SOL    HW230494   7.045   1.772   3.841 -1.7831 -1.5733 -1.6568
 9685SOL     OW30495   1.183   7.290   0.094 -0.7723 -0.5106 -0.0226
 9685SOL    HW130496   1.127   7.323   0.164  0.9006  1.3046  0.5227
 9685SOL    HW230497   1.271   7.289   0.131  0.4928  2.2707 -2.5482
 9686SOL     OW30498   2.141   0.948   7.658 -0.4388  0.2683  0.0153
 9686SOL    HW130499   2.136   1.039   7.687 -1.4202 -0.0328  0.8488
 9686SOL    HW230500   2.195   0.950   7.579 -0.5955  1.5916 -0.0636
 9687SOL     OW30501   7.559   5.822   6.117 -0.5775 -0.4632 -0.3293
 9687SOL    HW130502   7.635   5.879   6.103 -1.5816  1.2329  0.7613
 9687SOL    HW230503   7.535   5.837   6.209 -1.0276 -2.5103 -0.0821
 9688SOL     OW30504   2.491   2.061   8.286 -0.0045 -0.1896  0.0163
 9688SOL    HW130505   2.568   2.092   8.238  0.0289  1.1877  0.9001
 9688SOL    HW230506   2.524   2.043   8.374 -0.2824 -1.6300 -0.1624
 9689SOL     OW30507   7.980   1.891   1.255 -0.0170 -0.5765  0.3550
 9689SOL    HW130508   8.047   1.945   1.298  0.6116 -1.0255 -0.0429
 9689SOL    HW230509   7.985   1.916   1.162  3.3741 -4.2900 -0.7457
 9690SOL     OW30510   2.851   7.284   9.109  0.1036 -0.2359  0.4168
 9690SOL    HW130511   2.855   7.204   9.160  0.1838 -0.1085  0.6100
 9690SOL    HW230512   2.782   7.268   9.044  1.9730 -1.5367 -1.3687
 9691SOL     OW30513   2.925   7.718   5.600 -0.8592  0.5675  0.4791
 9691SOL    HW130514   2.929   7.686   5.690 -1.5946  1.4802  0.8455
 9691SOL    HW230515   2.860   7.788   5.601 -0.1801  1.2588 -0.5537
 9692SOL     OW30516   4.285   7.114   7.961  0.2040 -0.1590  0.3160
 9692SOL    HW130517   4.285   7.105   8.056  0.1126  0.1279  0.3442
 9692SOL    HW230518   4.253   7.202   7.945 -0.0485 -0.3031  0.0092
 9693SOL     OW30519   6.494   6.957   0.491  0.0668 -0.4381  0.5537
 9693SOL    HW130520   6.414   6.998   0.525  1.1946  2.4703  0.0587
 9693SOL    HW230521   6.546   6.936   0.568  0.4795  1.4386  0.8330
 9694SOL     OW30522   6.770   5.320  10.621  0.2694  0.2090  0.0068
 9694SOL    HW130523   6.761   5.312  10.526  0.1679 -0.1875  0.0448
 9694SOL    HW230524   6.686   5.292  10.655  0.3473  0.2308  0.2178
 9695SOL     OW30525   1.340   6.213   3.210  0.4810  0.2402  0.5085
 9695SOL    HW130526   1.302   6.126   3.226  1.4831 -0.1805  0.7325
 9695SOL    HW230527   1.366   6.244   3.296  0.9304  0.3687  0.3325
 9696SOL     OW30528   0.179   3.756   1.089 -0.5387  0.1976 -0.0075
 9696SOL    HW130529   0.269   3.768   1.119 -0.3003  0.1420 -0.6892
 9696SOL    HW230530   0.170   3.816   1.014 -1.0632  0.1933  0.0475
 9697SOL     OW30531   3.551   7.063   4.863  0.4223 -0.4725 -0.3877
 9697SOL    HW130532   3.475   7.033   4.812 -1.0513 -1.3561  2.1282
 9697SOL    HW230533   3.625   7.017   4.825 -0.9035 -2.6246 -0.5371
 9698SOL     OW30534   7.154   1.341   2.569 -0.1221 -0.3772  0.0180
 9698SOL    HW130535   7.147   1.261   2.517 -0.0358 -0.0277 -0.5423
 9698SOL    HW230536   7.234   1.383   2.538 -0.0511 -0.1780  0.4603
 9699SOL     OW30537   5.742   6.944   7.969  0.5541  0.3580  0.0970
 9699SOL    HW130538   5.785   6.891   8.037  0.4147 -1.4536 -1.1424
 9699SOL    HW230539   5.814   6.987   7.923  0.7441  0.5011  0.5244
 9700SOL     OW30540   5.741   0.965   7.973 -0.2216  0.1350  0.1546
 9700SOL    HW130541   5.665   0.971   8.030 -0.9066 -1.1541 -0.5884
 9700SOL    HW230542   5.725   1.031   7.905  0.1883  1.0671  0.9234
 9701SOL     OW30543   0.429   2.639  10.168  0.0503  0.1087 -0.2010
 9701SOL    HW130544   0.457   2.637  10.076  1.2144 -0.0563  0.1427
 9701SOL    HW230545   0.456   2.554  10.203 -1.8251 -0.4901 -0.0850
 9702SOL     OW30546   2.852   6.571   6.959 -0.7494 -0.0440  0.0117
 9702SOL    HW130547   2.805   6.487   6.960  0.9398 -1.0930  2.0834
 9702SOL    HW230548   2.849   6.600   6.868 -1.5303 -2.2858 -0.7438
 9703SOL     OW30549   7.581   7.063   8.238 -0.4676 -0.3359 -0.0319
 9703SOL    HW130550   7.602   7.091   8.328  1.5278 -1.6091 -0.0518
 9703SOL    HW230551   7.624   6.979   8.228 -1.6049 -0.7632 -1.8534
 9704SOL     OW30552   7.094   4.664   5.139 -0.3546 -0.3203 -0.2570
 9704SOL    HW130553   7.103   4.740   5.197  0.2861  0.8663 -1.8494
 9704SOL    HW230554   7.008   4.628   5.160 -0.5217  0.6206  0.7882
 9705SOL     OW30555   0.866   6.204   4.449  0.2134  0.3080 -0.0742
 9705SOL    HW130556   0.922   6.186   4.525  2.0643 -0.5294 -1.5520
 9705SOL    HW230557   0.823   6.120   4.431  1.1974 -0.0117 -1.0191
 9706SOL     OW30558   6.973   4.109   8.841  0.3928  0.3238  0.2156
 9706SOL    HW130559   7.021   4.106   8.758  2.8762  0.8704  1.5297
 9706SOL    HW230560   7.030   4.158   8.900 -1.3836  0.1392  2.2065
 9707SOL     OW30561   1.837   7.933  11.678  0.2856 -0.6822  0.4345
 9707SOL    HW130562   1.796   7.934  11.592 -0.6595  2.5053  0.7919
 9707SOL    HW230563   1.778   7.880  11.732 -2.7898  2.5147  0.5437
 9708SOL     OW30564   4.015   0.237   1.799  0.2234  0.2419  0.2723
 9708SOL    HW130565   3.972   0.250   1.714 -0.0096 -0.9257  0.1909
 9708SOL    HW230566   4.010   0.142   1.814  0.5407  0.3954  1.4489
 9709SOL     OW30567   4.339   2.636   6.363 -0.3685  0.4789  0.1143
 9709SOL    HW130568   4.390   2.579   6.305  0.0151 -0.5574  1.4100
 9709SOL    HW230569   4.402   2.666   6.428 -1.4004 -1.0681  1.9378
 9710SOL     OW30570   0.064   4.602   1.761 -0.3619 -0.0372  0.7371
 9710SOL    HW130571   0.100   4.540   1.824  0.9863  1.8901  1.9765
 9710SOL    HW230572   0.128   4.606   1.690  0.2869  0.9280  1.3460
 9711SOL     OW30573   1.796   2.921   2.483 -0.0071 -0.3940 -0.1665
 9711SOL    HW130574   1.847   2.927   2.402 -0.3719  0.3172 -0.3637
 9711SOL    HW230575   1.747   3.004   2.485 -1.0972 -1.0307  0.0353
 9712SOL     OW30576   5.015   3.188   4.715  0.0106 -0.6579  0.5197
 9712SOL    HW130577   4.989   3.158   4.802 -0.4109 -1.8585  0.0032
 9712SOL    HW230578   5.080   3.124   4.685  0.4719 -0.0201  0.1172
 9713SOL     OW30579   1.538   1.803   2.282  0.1527 -0.3350  0.8488
 9713SOL    HW130580   1.492   1.819   2.200 -0.5400  0.8384  1.4515
 9713SOL    HW230581   1.553   1.708   2.282  0.7553 -0.2872 -0.9216
 9714SOL     OW30582   3.443   1.445   8.140 -0.4535 -0.2630  0.2094
 9714SOL    HW130583   3.519   1.489   8.102 -0.1193 -0.9520  0.0748
 9714SOL    HW230584   3.469   1.425   8.230 -1.0914  0.9903  0.6940
 9715SOL     OW30585   3.530   5.950  10.970 -0.3376 -0.2288  0.0381
 9715SOL    HW130586   3.439   5.979  10.977 -0.1351  0.3266  0.4223
 9715SOL    HW230587   3.564   5.956  11.059 -0.0253 -0.7885 -0.0392
 9716SOL     OW30588   3.735   7.934   8.618  0.1216  0.3951  0.4116
 9716SOL    HW130589   3.731   8.012   8.562 -0.6653 -1.2755 -2.0507
 9716SOL    HW230590   3.646   7.899   8.618  0.3914 -0.3758  1.6890
 9717SOL     OW30591   1.174   1.574  10.034 -0.5766  0.4552 -0.9680
 9717SOL    HW130592   1.248   1.572   9.974 -0.5781 -0.0083 -0.9577
 9717SOL    HW230593   1.147   1.666  10.036  1.3108  1.0453  0.6597
 9718SOL     OW30594   2.872   4.517  11.146  0.3778 -0.3181 -0.4356
 9718SOL    HW130595   2.947   4.519  11.087 -0.1481 -0.2605 -1.1135
 9718SOL    HW230596   2.905   4.473  11.225  1.6104  1.2643 -0.0169
 9719SOL     OW30597   2.735   6.182  11.203 -0.2849  0.2596  0.6233
 9719SOL    HW130598   2.741   6.212  11.293 -1.9672  0.7288  0.6114
 9719SOL    HW230599   2.691   6.253  11.156 -1.2514 -0.7845 -0.1196
 9720SOL     OW30600   1.490   3.306  10.244 -0.4327 -0.0574 -0.1539
 9720SOL    HW130601   1.469   3.385  10.193 -0.0207  0.2140  0.0912
 9720SOL    HW230602   1.406   3.280  10.283 -1.0742 -1.1262 -2.1227
 9721SOL     OW30603   4.939   5.984   3.414  0.0783 -0.2299  0.2929
 9721SOL    HW130604   4.890   6.062   3.442 -0.0343 -0.3048  0.3091
 9721SOL    HW230605   4.921   5.919   3.481  0.5205 -0.1371  0.5021
 9722SOL     OW30606   4.633   6.027   5.401 -0.1404 -0.0077 -0.2733
 9722SOL    HW130607   4.684   5.945   5.401 -0.1915 -0.0403 -0.1333
 9722SOL    HW230608   4.556   6.007   5.454 -0.4812 -0.0674 -0.7899
 9723SOL     OW30609   7.948   0.878   8.049  0.5372  0.0199  0.0345
 9723SOL    HW130610   7.939   0.862   8.143  0.4067  0.1074  0.0368
 9723SOL    HW230611   7.881   0.943   8.029  1.3848  0.9465  0.1264
 9724SOL     OW30612   4.736   0.948   1.814 -0.1642  0.2536 -0.5941
 9724SOL    HW130613   4.769   1.021   1.763 -0.7885  0.0780 -1.2796
 9724SOL    HW230614   4.671   0.907   1.756 -0.1314 -0.5749 -0.0567
 9725SOL     OW30615   3.194   3.512   7.003 -0.3702  0.4370 -0.0348
 9725SOL    HW130616   3.162   3.466   7.080 -0.5602  1.0591  0.2653
 9725SOL    HW230617   3.273   3.558   7.033 -0.4333  0.6639 -0.2149
 9726SOL     OW30618   4.213   4.417  12.410 -0.3184 -0.0016  0.2064
 9726SOL    HW130619   4.122   4.449  12.406  0.0781  1.2028  0.5571
 9726SOL    HW230620   4.212   4.353  12.482 -1.0185 -0.4623 -0.1968
 9727SOL     OW30621   4.647   0.660  11.537  0.1285  0.1590 -0.5518
 9727SOL    HW130622   4.603   0.604  11.602 -0.9536  3.9125  2.2833
 9727SOL    HW230623   4.579   0.677  11.471 -0.7500  0.9916  0.5273
 9728SOL     OW30624   6.659   2.735   7.865  0.3578 -0.2968  0.2021
 9728SOL    HW130625   6.622   2.816   7.830  3.0522  0.7728 -0.4059
 9728SOL    HW230626   6.639   2.739   7.959 -1.6588 -0.1963 -0.1886
 9729SOL     OW30627   5.720   5.636   0.399 -0.6429 -0.1152 -0.1499
 9729SOL    HW130628   5.784   5.663   0.333 -0.1358 -0.7604  0.0713
 9729SOL    HW230629   5.765   5.570   0.451 -1.5705 -0.7666 -0.1459
 9730SOL     OW30630   2.249   6.342   8.065  0.5127  0.0038 -0.0699
 9730SOL    HW130631   2.295   6.423   8.042 -0.9077  0.3444 -1.9357
 9730SOL    HW230632   2.177   6.336   8.002 -1.5556 -0.9038  2.1890
 9731SOL     OW30633   5.850   1.226   3.742 -0.1530  0.2138  0.3147
 9731SOL    HW130634   5.882   1.316   3.740  1.1002 -0.1808  1.7047
 9731SOL    HW230635   5.872   1.192   3.655  0.8980  0.7345  0.3579
 9732SOL     OW30636   7.955   3.425   7.843  0.1478 -0.0823  0.5987
 9732SOL    HW130637   8.003   3.506   7.824 -0.2691  0.1981  0.7329
 9732SOL    HW230638   7.956   3.419   7.939 -1.6665  0.9121  0.7335
 9733SOL     OW30639   2.969   5.300  12.079  0.2160 -0.1108  0.0872
 9733SOL    HW130640   2.909   5.341  12.141 -1.2823 -0.6357 -0.9707
 9733SOL    HW230641   2.939   5.210  12.071 -0.3865  0.2355 -2.2560
 9734SOL     OW30642   2.621   0.568   1.224 -0.4280 -0.0280 -0.2241
 9734SOL    HW130643   2.647   0.649   1.179  0.7425  0.8798  1.9015
 9734SOL    HW230644   2.673   0.500   1.182  0.8978  0.8414 -0.0670
 9735SOL     OW30645   6.840   7.106   3.895 -0.2138  0.2333 -0.3035
 9735SOL    HW130646   6.906   7.156   3.847 -0.9100 -0.4622 -2.0554
 9735SOL    HW230647   6.757   7.149   3.875 -0.4800  0.2142  0.6895
 9736SOL     OW30648   0.129   5.251   9.207  0.5416 -0.3219  0.1918
 9736SOL    HW130649   0.081   5.180   9.250 -0.8904  0.9388  0.7445
 9736SOL    HW230650   0.203   5.269   9.265  0.8568 -1.2718  0.0992
 9737SOL     OW30651   3.197   6.690  12.334  0.0168 -0.0369  0.4283
 9737SOL    HW130652   3.105   6.716  12.332  0.0730  0.5384  2.6958
 9737SOL    HW230653   3.244   6.765  12.297 -0.4476 -0.8189 -1.9059
 9738SOL     OW30654   0.818   0.536   0.563  0.0480  0.6638  0.2442
 9738SOL    HW130655   0.737   0.499   0.597 -0.4274  0.2160 -1.2868
 9738SOL    HW230656   0.878   0.462   0.556  0.5258  0.9495  1.1267
 9739SOL     OW30657   2.938   2.445   2.906 -0.3916  0.4226 -0.2356
 9739SOL    HW130658   3.001   2.403   2.965  1.3987  1.3966 -1.3542
 9739SOL    HW230659   2.932   2.386   2.831 -0.9987  0.2301 -0.0411
 9740SOL     OW30660   1.641   0.021   0.403 -0.2902 -0.7792  0.2052
 9740SOL    HW130661   1.613   0.109   0.427 -0.3084  0.0958 -2.7069
 9740SOL    HW230662   1.565  -0.034   0.423 -1.7106  0.5038 -1.3903
 9741SOL     OW30663   1.061   5.166   4.941  0.1450 -0.0197  0.5264
 9741SOL    HW130664   1.077   5.084   4.895 -0.8872 -0.6705  1.2645
 9741SOL    HW230665   1.002   5.215   4.884 -1.6811 -1.1109  1.3578
 9742SOL     OW30666   7.381   1.776   6.834 -0.7494  0.1596 -0.8105
 9742SOL    HW130667   7.387   1.780   6.929 -1.2031 -0.7345 -0.7274
 9742SOL    HW230668   7.360   1.865   6.807 -0.5708  0.4291 -0.0748
 9743SOL     OW30669   1.790   0.280   6.580  0.3617  0.4900 -0.0307
 9743SOL    HW130670   1.827   0.287   6.667 -0.9173 -0.1552  0.5990
 9743SOL    HW230671   1.778   0.186   6.566  0.8339  0.5600 -1.0335
 9744SOL     OW30672   1.878   6.585   8.060 -0.0057 -0.6371 -0.3508
 9744SOL    HW130673   1.903   6.494   8.075  1.1181 -0.2352  0.3170
 9744SOL    HW230674   1.898   6.630   8.142  1.3840  0.6079 -1.3219
 9745SOL     OW30675   6.872   5.425   6.741 -0.1959  0.3184  0.0436
 9745SOL    HW130676   6.963   5.442   6.715 -0.3235 -0.2127 -0.7996
 9745SOL    HW230677   6.851   5.341   6.700 -0.7967  0.0196  0.9463
 9746SOL     OW30678   4.357   2.509   2.966 -0.5102 -0.1593 -0.3289
 9746SOL    HW130679   4.349   2.437   2.903 -1.1404  0.2560 -0.7328
 9746SOL    HW230680   4.434   2.487   3.018 -0.4572 -0.9190 -0.7165
 9747SOL     OW30681   7.715   0.893   3.099  0.2603 -0.2410 -0.0000
 9747SOL    HW130682   7.791   0.884   3.042 -0.1749 -1.1816 -0.4571
 9747SOL    HW230683   7.640   0.895   3.039 -0.1520 -0.5028  0.4990
 9748SOL     OW30684   3.588   0.400   4.590 -0.0427  0.1696  0.4658
 9748SOL    HW130685   3.581   0.474   4.529 -0.6149 -0.4864 -0.2936
 9748SOL    HW230686   3.641   0.433   4.662  2.0529  0.5385 -1.1178
 9749SOL     OW30687   5.446   4.182  12.437  0.1202 -0.3686 -0.1641
 9749SOL    HW130688   5.361   4.139  12.442 -0.5331  0.9130  0.4819
 9749SOL    HW230689   5.470   4.178  12.344  0.3998 -2.6124 -0.0318
 9750SOL     OW30690   5.624   4.839   4.268 -1.0126  0.2268 -0.2866
 9750SOL    HW130691   5.598   4.761   4.218  0.6259 -1.0419  0.7109
 9750SOL    HW230692   5.664   4.897   4.203 -0.1613 -0.7948 -0.7212
 9751SOL     OW30693   2.759   4.722   4.801  0.2346 -0.0237  0.3840
 9751SOL    HW130694   2.807   4.773   4.866 -0.5995  1.5472 -0.1686
 9751SOL    HW230695   2.668   4.723   4.832  0.3173 -2.0233  0.8471
 9752SOL     OW30696   3.612   1.750  11.661 -0.1333  0.3303  0.0228
 9752SOL    HW130697   3.631   1.794  11.744 -2.0287  0.6910  0.3050
 9752SOL    HW230698   3.544   1.803  11.620  0.0272 -0.4235 -1.2896
 9753SOL     OW30699   4.651   4.751  10.440  0.7293  0.6044  0.2573
 9753SOL    HW130700   4.691   4.687  10.499  0.4769 -1.4778 -1.6619
 9753SOL    HW230701   4.640   4.829  10.493 -0.1640 -1.3313  3.2028
 9754SOL     OW30702   3.110   0.837   1.002  0.5601 -0.1987 -0.3349
 9754SOL    HW130703   3.049   0.849   0.929  0.5244 -0.1524 -0.2969
 9754SOL    HW230704   3.155   0.755   0.981 -0.0859 -0.6629  0.0463
 9755SOL     OW30705   0.199   6.599   6.113  0.1709 -0.3157 -0.4474
 9755SOL    HW130706   0.133   6.645   6.163  0.1292  0.3768 -1.1208
 9755SOL    HW230707   0.221   6.658   6.041  0.6227 -1.0517 -0.9359
 9756SOL     OW30708   6.398   4.449   2.417 -0.0577 -0.9059 -0.3505
 9756SOL    HW130709   6.411   4.478   2.327 -0.8708 -0.9762 -0.5061
 9756SOL    HW230710   6.308   4.475   2.438  0.2802 -0.4739  0.6077
 9757SOL     OW30711   0.864   3.482   1.428 -0.0207  0.0965 -0.0803
 9757SOL    HW130712   0.833   3.399   1.465  0.7790  0.0529  0.5207
 9757SOL    HW230713   0.959   3.470   1.420 -0.1382  0.1681 -2.0059
 9758SOL     OW30714   2.259   6.343   4.397  0.0576  0.2191 -0.1422
 9758SOL    HW130715   2.338   6.322   4.349  0.4732  0.0543  0.5996
 9758SOL    HW230716   2.278   6.426   4.441  0.5376 -0.7374  1.5589
 9759SOL     OW30717   6.618   0.816   2.479 -0.1786 -0.6162 -0.0890
 9759SOL    HW130718   6.651   0.846   2.395 -2.3329 -0.2964 -0.8903
 9759SOL    HW230719   6.673   0.740   2.502  0.9530 -0.2083 -1.3537
 9760SOL     OW30720   2.893   2.577   7.844  0.4395 -0.1841 -0.5170
 9760SOL    HW130721   2.803   2.610   7.848  0.2103 -0.8770  0.3768
 9760SOL    HW230722   2.945   2.652   7.816 -0.4043  0.2531 -0.9406
 9761SOL     OW30723   5.084   7.716   1.288 -0.5304 -0.9978  0.3470
 9761SOL    HW130724   5.105   7.692   1.378  0.7853 -0.4355  0.2202
 9761SOL    HW230725   4.996   7.682   1.273 -1.3044  0.0906  2.2680
 9762SOL     OW30726   7.672   1.050   8.964 -0.1692 -0.5495  0.4166
 9762SOL    HW130727   7.759   1.038   8.927 -0.5011 -1.6397 -0.0671
 9762SOL    HW230728   7.680   1.021   9.055  0.6700  2.2178  1.3241
 9763SOL     OW30729   2.712   2.055   5.791 -0.1874  0.3635  0.2835
 9763SOL    HW130730   2.776   2.045   5.721 -0.1985  1.3564  0.1088
 9763SOL    HW230731   2.689   1.966   5.816  0.1775 -0.0066 -0.6470
 9764SOL     OW30732   0.349   4.432   1.073  0.1764 -0.4574 -0.1889
 9764SOL    HW130733   0.276   4.410   1.015 -0.0442 -1.2825  0.3794
 9764SOL    HW230734   0.396   4.502   1.027 -1.2113  0.3985 -0.3527
 9765SOL     OW30735   2.368   0.273   6.102  0.0349  0.1124  0.3375
 9765SOL    HW130736   2.449   0.322   6.091  0.4070 -0.1799  1.5694
 9765SOL    HW230737   2.298   0.338   6.092  0.4971  0.7631  1.2724
 9766SOL     OW30738   6.311   5.013   1.818  0.2606  0.1791 -0.3496
 9766SOL    HW130739   6.285   4.927   1.783 -0.4613  0.0949  0.3673
 9766SOL    HW230740   6.237   5.040   1.872 -0.2580  2.0146 -1.8633
 9767SOL     OW30741   7.955   4.993   0.961  0.0965  0.1902  0.5500
 9767SOL    HW130742   7.916   4.913   0.996  0.0942  0.0241  0.1736
 9767SOL    HW230743   8.046   4.969   0.943 -0.1281  0.0179 -0.3801
 9768SOL     OW30744   2.239   5.809  11.096  0.4832 -0.5364 -0.4508
 9768SOL    HW130745   2.194   5.751  11.035 -0.6856  1.0108 -1.1309
 9768SOL    HW230746   2.327   5.819  11.058 -0.4198  0.9274 -2.3409
 9769SOL     OW30747   2.511   3.404   6.496 -0.2684 -0.2616  0.0647
 9769SOL    HW130748   2.571   3.343   6.454  0.9715  0.7028  0.3989
 9769SOL    HW230749   2.498   3.369   6.584 -1.9753 -1.6609 -0.6679
 9770SOL     OW30750   6.261   5.926   9.495  0.1570  0.6978 -0.6506
 9770SOL    HW130751   6.238   5.890   9.409  1.1341  0.0815 -0.6805
 9770SOL    HW230752   6.228   5.862   9.558  1.2163  0.0942 -0.6729
 9771SOL     OW30753   4.676   6.868  12.003 -0.0804 -0.0832 -0.1809
 9771SOL    HW130754   4.674   6.964  11.997 -0.6742 -0.0892 -0.1315
 9771SOL    HW230755   4.690   6.850  12.096 -2.0569 -0.0425  0.1678
 9772SOL     OW30756   1.932   0.992   1.507 -0.6176 -0.1052  0.2681
 9772SOL    HW130757   1.935   1.087   1.497 -2.6214 -0.0493 -0.0998
 9772SOL    HW230758   1.907   0.978   1.598 -3.3451 -0.1755 -0.4326
 9773SOL     OW30759   3.080   3.436   9.276  0.1313  0.3605 -0.5278
 9773SOL    HW130760   3.173   3.415   9.267 -0.0373 -0.4173 -0.5247
 9773SOL    HW230761   3.063   3.425   9.370  0.0639  0.6285 -0.5085
 9774SOL     OW30762   4.737   3.166   7.396  0.6747  0.3411 -0.4697
 9774SOL    HW130763   4.649   3.175   7.432  0.5384  0.1063 -0.7410
 9774SOL    HW230764   4.788   3.126   7.466  0.6637  0.8336 -0.1691
 9775SOL     OW30765   3.057   2.973   3.493 -0.3038 -0.1665  0.3555
 9775SOL    HW130766   3.132   3.034   3.499  0.8971 -1.5046 -0.3892
 9775SOL    HW230767   3.054   2.948   3.401 -0.1571 -1.9520  0.7963
 9776SOL     OW30768   4.954   4.673   7.291 -0.2596 -0.1159  1.0275
 9776SOL    HW130769   4.904   4.714   7.362 -0.7386 -1.3425  1.4165
 9776SOL    HW230770   5.022   4.623   7.336  1.8686  2.0828  0.5025
 9777SOL     OW30771   4.819   7.029  10.788  0.3796  0.0657  1.1674
 9777SOL    HW130772   4.821   6.942  10.828  1.3684 -0.1024  0.7977
 9777SOL    HW230773   4.850   7.014  10.698  0.7386  0.8211  1.1563
 9778SOL     OW30774   2.286   5.121   1.207  0.2701 -0.0872  0.1840
 9778SOL    HW130775   2.309   5.033   1.180 -0.3730  0.0932 -1.0343
 9778SOL    HW230776   2.359   5.175   1.178  0.7700 -0.2388  1.1341
 9779SOL     OW30777   5.452   6.871   8.538 -0.3677 -0.5054 -0.1281
 9779SOL    HW130778   5.508   6.855   8.613  0.0618  1.0860 -0.0888
 9779SOL    HW230779   5.370   6.906   8.575 -0.6537 -0.9503 -0.3246
 9780SOL     OW30780   4.609   0.049   7.281  0.4867 -0.0799  0.1102
 9780SOL    HW130781   4.540   0.061   7.345 -0.0304 -2.4944  0.0978
 9780SOL    HW230782   4.684   0.098   7.315 -0.3955  0.3234  1.5028
 9781SOL     OW30783   0.436   7.870   5.613 -0.4586  0.0312  0.3185
 9781SOL    HW130784   0.460   7.863   5.521 -0.7265 -0.1398  0.2635
 9781SOL    HW230785   0.520   7.879   5.659 -0.3887  1.5688 -0.0670
 9782SOL     OW30786   6.548   2.789   8.130  0.0643 -0.1402 -0.1213
 9782SOL    HW130787   6.584   2.844   8.200 -0.0065 -0.3909  0.1152
 9782SOL    HW230788   6.463   2.762   8.163  0.8296 -1.8482  0.5447
 9783SOL     OW30789   2.387   5.355   1.468 -0.2001  0.0389  0.1397
 9783SOL    HW130790   2.433   5.271   1.471  0.4483  0.4052  2.0692
 9783SOL    HW230791   2.307   5.340   1.517  0.9952  1.0717  2.5927
 9784SOL     OW30792   2.652   3.910   8.909 -0.1980 -0.1164  0.0801
 9784SOL    HW130793   2.745   3.892   8.925 -0.1160 -0.9411 -1.1981
 9784SOL    HW230794   2.651   3.989   8.856 -0.0721 -1.3220 -1.7990
 9785SOL     OW30795   2.869   3.197   3.804 -0.8510  0.2696 -0.2754
 9785SOL    HW130796   2.872   3.282   3.759  0.9841  0.2288 -0.3226
 9785SOL    HW230797   2.846   3.134   3.736 -1.3622  0.6189 -0.4289
 9786SOL     OW30798   2.235   7.929   6.676 -0.2196 -0.0214  0.3888
 9786SOL    HW130799   2.305   7.973   6.724 -0.0980  0.1809  0.0300
 9786SOL    HW230800   2.252   7.950   6.584  1.2573 -2.7239 -0.0879
 9787SOL     OW30801   7.559   7.732   4.705  0.2140  0.1236 -0.3788
 9787SOL    HW130802   7.524   7.710   4.618  1.7661  1.1992 -1.3438
 9787SOL    HW230803   7.641   7.779   4.686  0.2839  0.9228  1.6683
 9788SOL     OW30804   0.727   2.421   6.827 -0.0532  0.1304 -0.4134
 9788SOL    HW130805   0.761   2.396   6.741  0.6792  0.2741 -0.1672
 9788SOL    HW230806   0.632   2.422   6.815 -0.2210 -3.1176 -0.3872
 9789SOL     OW30807   0.449   2.967   9.118  0.0673  0.2212 -0.5830
 9789SOL    HW130808   0.539   2.951   9.147 -0.1403 -0.3566 -0.2388
 9789SOL    HW230809   0.455   3.045   9.062  1.1033 -0.9753 -2.2127
 9790SOL     OW30810   7.559   0.498   4.523  0.4722 -0.8070  0.0532
 9790SOL    HW130811   7.642   0.539   4.498  1.1694 -1.8426  0.5470
 9790SOL    HW230812   7.504   0.570   4.552  0.6766  0.0771 -1.6286
 9791SOL     OW30813   3.927   4.650   4.632  0.3636 -0.0046  0.0469
 9791SOL    HW130814   3.896   4.732   4.593 -0.0506  0.5664  1.4757
 9791SOL    HW230815   4.006   4.675   4.681 -0.9744  0.0744  2.3299
 9792SOL     OW30816   0.173   1.036   4.406  0.5531  0.1759  0.2235
 9792SOL    HW130817   0.258   1.038   4.362  0.1433  0.1897 -0.5696
 9792SOL    HW230818   0.156   1.128   4.429 -0.5807  0.6506 -2.2298
 9793SOL     OW30819   6.840   1.386   6.708 -0.2636  0.2786  0.0626
 9793SOL    HW130820   6.804   1.396   6.796  2.4728 -0.5885  1.3821
 9793SOL    HW230821   6.862   1.293   6.701 -1.3984  0.0861 -2.0057
 9794SOL     OW30822   6.649   1.323   5.371 -0.0560  0.1154 -0.3377
 9794SOL    HW130823   6.578   1.261   5.386 -1.5429  1.7410 -0.3271
 9794SOL    HW230824   6.619   1.376   5.297  0.9621  1.1035 -0.0652
 9795SOL     OW30825   5.920   2.045   5.497  0.4843  0.1923 -0.8736
 9795SOL    HW130826   5.924   2.007   5.409 -1.0754  1.6225 -1.6277
 9795SOL    HW230827   6.011   2.043   5.528  1.0907 -0.2733 -2.5505
 9796SOL     OW30828   1.651   4.856   7.432 -0.2347 -0.2295  0.5382
 9796SOL    HW130829   1.691   4.906   7.503  1.7533  3.0232 -2.5671
 9796SOL    HW230830   1.719   4.849   7.366 -2.3154 -2.0725 -1.5757
 9797SOL     OW30831   7.509   0.985   4.690  0.0773 -0.1421  0.5009
 9797SOL    HW130832   7.446   1.031   4.746  0.3622  0.9602 -0.0568
 9797SOL    HW230833   7.591   0.986   4.740  0.3130  0.7759  0.1073
 9798SOL     OW30834   2.311   6.742   6.468  0.7439 -0.7887  0.2796
 9798SOL    HW130835   2.388   6.711   6.419  0.5126  1.1281 -1.4662
 9798SOL    HW230836   2.236   6.716   6.414  0.2922 -0.8286  0.9168
 9799SOL     OW30837   5.782   7.675   3.777 -0.1630  0.0825  0.1595
 9799SOL    HW130838   5.759   7.747   3.717  0.4242  0.3879  0.2910
 9799SOL    HW230839   5.873   7.654   3.755 -0.6309 -1.3001 -0.5535
 9800SOL     OW30840   5.749   1.415  10.205  0.1950 -0.1688 -0.4932
 9800SOL    HW130841   5.777   1.486  10.148  2.5231 -1.3220 -0.9402
 9800SOL    HW230842   5.662   1.391  10.174  0.8839  0.0604 -2.7976
 9801SOL     OW30843   3.825   3.437  11.691 -0.2515  0.1378 -0.4202
 9801SOL    HW130844   3.731   3.424  11.686 -0.3814  1.2610 -1.5175
 9801SOL    HW230845   3.840   3.522  11.648  1.2153  0.1475  0.0381
 9802SOL     OW30846   7.406   7.549   9.913  0.1199 -0.0987  0.5982
 9802SOL    HW130847   7.458   7.479   9.873  1.1657  1.2668 -0.5137
 9802SOL    HW230848   7.395   7.614   9.844 -1.1437  0.7023  1.4969
 9803SOL     OW30849   7.915   4.988   3.230  0.5385 -0.9853  0.3743
 9803SOL    HW130850   7.827   4.957   3.250  0.1267 -0.5948 -0.7909
 9803SOL    HW230851   7.928   5.062   3.290 -0.6786  0.1690 -0.7381
 9804SOL     OW30852   4.819   2.764   7.606  0.3770  0.0757 -0.4597
 9804SOL    HW130853   4.732   2.729   7.587 -0.2628  1.6841 -0.6573
 9804SOL    HW230854   4.864   2.692   7.651 -0.7025 -1.1260 -1.2021
 9805SOL     OW30855   6.921   5.749   0.729 -0.2345  0.0036  0.3085
 9805SOL    HW130856   6.947   5.800   0.806  1.1523  1.3535 -1.0013
 9805SOL    HW230857   6.938   5.807   0.655 -0.9461 -1.4918 -1.0699
 9806SOL     OW30858   4.541   7.577  10.789  0.6479  0.2341  0.1593
 9806SOL    HW130859   4.541   7.628  10.870  0.1644 -0.8942  0.8845
 9806SOL    HW230860   4.481   7.505  10.806 -0.4112  0.6254 -1.6264
 9807SOL     OW30861   0.360   1.548   0.120 -0.4326 -1.2331 -0.0536
 9807SOL    HW130862   0.377   1.640   0.101 -1.0095 -1.3866 -1.4397
 9807SOL    HW230863   0.276   1.547   0.165 -0.0981 -1.0380  0.5873
 9808SOL     OW30864   7.641   6.442   6.321  0.2140  0.4245  0.0096
 9808SOL    HW130865   7.683   6.358   6.307 -0.4029  0.0843  0.1461
 9808SOL    HW230866   7.551   6.430   6.289  0.1884  1.1016 -0.1917
 9809SOL     OW30867   3.830   7.479   4.670  0.1510  0.2747 -0.5164
 9809SOL    HW130868   3.877   7.411   4.719  0.3096 -0.5932 -1.8260
 9809SOL    HW230869   3.738   7.468   4.693  0.3015  0.3465  0.1245
 9810SOL     OW30870   2.616   0.956   3.306  0.1416 -0.1807  0.3130
 9810SOL    HW130871   2.558   0.954   3.382 -0.1753 -1.2087  0.0605
 9810SOL    HW230872   2.636   0.864   3.289  1.5336  0.1330  0.1475
 9811SOL     OW30873   5.825   6.969   0.476  0.5035 -0.7639 -0.7425
 9811SOL    HW130874   5.814   7.028   0.550  1.2736 -1.4542 -0.0535
 9811SOL    HW230875   5.753   6.906   0.484  0.7889 -1.0443 -0.3771
 9812SOL     OW30876   2.156   5.630  10.250 -0.1378 -0.5198 -0.3699
 9812SOL    HW130877   2.117   5.566  10.191  0.0997 -1.8782  0.8939
 9812SOL    HW230878   2.085   5.691  10.270  0.2862  1.3645 -3.7162
 9813SOL     OW30879   1.957   1.914   9.601 -0.8593  0.4800 -0.4208
 9813SOL    HW130880   1.979   1.983   9.663 -0.0594  0.0761 -0.2494
 9813SOL    HW230881   1.987   1.833   9.642 -0.4504  0.1907 -1.2595
 9814SOL     OW30882   2.971   6.971   5.021  0.2634 -0.2695  0.0721
 9814SOL    HW130883   3.037   6.922   4.971 -1.7998 -2.1834 -0.9089
 9814SOL    HW230884   2.896   6.978   4.962 -1.2659 -0.1310  1.9343
 9815SOL     OW30885   5.676   5.583   5.476 -0.2201  0.0291  0.0205
 9815SOL    HW130886   5.582   5.597   5.461 -0.1075 -0.5245 -1.2971
 9815SOL    HW230887   5.711   5.672   5.484 -0.8574  0.2425  0.6229
 9816SOL     OW30888   2.075   1.007  12.001  0.4899 -0.0298 -0.1166
 9816SOL    HW130889   2.028   1.078  11.957 -1.0532 -1.6309 -1.1804
 9816SOL    HW230890   2.149   1.050  12.044 -1.0648  2.3847  0.3182
 9817SOL     OW30891   5.694   1.562  11.011 -0.1884  0.7795 -0.4178
 9817SOL    HW130892   5.782   1.546  10.977 -0.0255  0.4999  0.1337
 9817SOL    HW230893   5.657   1.628  10.952  0.2817  0.6804 -0.8230
 9818SOL     OW30894   3.025   1.856   5.367 -0.4909 -0.1150 -0.0365
 9818SOL    HW130895   3.004   1.765   5.344 -0.5662  0.1074 -0.8801
 9818SOL    HW230896   3.120   1.856   5.382 -0.4003 -0.2272 -0.5843
 9819SOL     OW30897   7.848   0.870   2.715  0.0421 -0.2648 -0.1264
 9819SOL    HW130898   7.899   0.884   2.795 -0.7708  0.3681  0.2950
 9819SOL    HW230899   7.851   0.775   2.701 -0.6502 -0.5131  1.2358
 9820SOL     OW30900   5.830   7.741   2.756  0.1407 -0.6125  0.5764
 9820SOL    HW130901   5.861   7.652   2.737  0.7006 -0.0819 -1.1274
 9820SOL    HW230902   5.735   7.736   2.744  0.3577 -0.5709 -1.4099
 9821SOL     OW30903   7.142   0.868   6.293  0.1016 -0.8796 -0.4684
 9821SOL    HW130904   7.108   0.880   6.204  0.6276  0.6335 -0.5024
 9821SOL    HW230905   7.231   0.904   6.288 -0.1989  0.1158  0.8947
 9822SOL     OW30906   5.743   5.894   0.551  0.0837  0.2823  0.6004
 9822SOL    HW130907   5.738   5.810   0.505 -0.4315  0.4070  0.4269
 9822SOL    HW230908   5.678   5.887   0.621 -0.3899  0.7612  0.2149
 9823SOL     OW30909   6.262   0.794   1.244 -0.2641 -0.0168  0.1587
 9823SOL    HW130910   6.261   0.845   1.324 -0.6620  0.3438 -0.0731
 9823SOL    HW230911   6.355   0.776   1.228 -0.2620 -1.9839  1.8844
 9824SOL     OW30912   4.063   0.803   9.650  0.6971  0.0012  0.0179
 9824SOL    HW130913   4.158   0.799   9.639  0.5565 -2.6478 -0.9873
 9824SOL    HW230914   4.046   0.760   9.733  0.2636 -3.3393 -1.6092
 9825SOL     OW30915   7.272   4.752  11.359  0.1028 -0.1460 -0.2000
 9825SOL    HW130916   7.245   4.703  11.436  1.4335  0.4808  0.7054
 9825SOL    HW230917   7.282   4.686  11.290 -0.7675 -0.7561  0.2437
 9826SOL     OW30918   1.981   6.754   0.058  0.1049  0.8363 -0.0844
 9826SOL    HW130919   1.973   6.675   0.004 -0.2728  1.1394 -0.4812
 9826SOL    HW230920   2.028   6.816   0.002  0.1329  0.9888  0.1107
 9827SOL     OW30921   1.821   1.771   4.567 -0.3726  0.2162  0.0582
 9827SOL    HW130922   1.806   1.796   4.476 -0.5791  0.0097  0.0326
 9827SOL    HW230923   1.914   1.751   4.572 -0.5457 -0.7656 -0.3630
 9828SOL     OW30924   5.232   2.088  10.158 -0.3656 -0.0164  0.3502
 9828SOL    HW130925   5.194   2.002  10.176  0.8659 -0.7203 -0.2507
 9828SOL    HW230926   5.185   2.119  10.080 -1.7154  0.4719  1.3146
 9829SOL     OW30927   6.224   5.065   1.546  0.2019  0.6374 -0.1799
 9829SOL    HW130928   6.129   5.062   1.534 -0.0279 -1.6653  1.6039
 9829SOL    HW230929   6.236   5.075   1.640  1.6836 -0.8186 -0.1691
 9830SOL     OW30930   1.070   7.854   0.272  0.0493  0.4717 -0.2754
 9830SOL    HW130931   1.019   7.872   0.352 -0.5972  0.0174 -0.5735
 9830SOL    HW230932   1.013   7.884   0.201  0.7056  1.0505 -0.5581
 9831SOL     OW30933   7.314   3.680   2.818  0.6019  0.1490  0.5982
 9831SOL    HW130934   7.259   3.759   2.818  0.5404  0.1056  0.6112
 9831SOL    HW230935   7.402   3.713   2.840  0.6655  0.2790  0.1558
 9832SOL     OW30936   4.471   2.641   5.668 -0.3428  0.1219 -1.1830
 9832SOL    HW130937   4.544   2.655   5.728 -1.3546  0.6573 -0.0431
 9832SOL    HW230938   4.409   2.588   5.718 -1.2660  0.6983 -1.6954
 9833SOL     OW30939   0.992   0.366  11.665 -0.3808  0.6838  0.1685
 9833SOL    HW130940   1.042   0.401  11.591  1.1437 -1.6555 -0.0060
 9833SOL    HW230941   1.056   0.314  11.714 -0.9994  3.0029  3.8761
 9834SOL     OW30942   5.778   7.097   9.141  0.3240 -0.4415  0.2666
 9834SOL    HW130943   5.775   7.003   9.160  0.2071  0.0016  2.8425
 9834SOL    HW230944   5.861   7.126   9.180  0.8419  0.3862 -1.3825
 9835SOL     OW30945   6.954   7.092  10.187  0.5250  0.1037 -0.0331
 9835SOL    HW130946   6.916   7.164  10.138  2.5250  0.5448 -1.0399
 9835SOL    HW230947   6.928   7.108  10.278 -0.7232  0.9457 -0.5151
 9836SOL     OW30948   1.332   3.483  10.748  0.2060 -0.4810 -0.4715
 9836SOL    HW130949   1.281   3.448  10.821  1.1340 -0.1302  0.3731
 9836SOL    HW230950   1.292   3.567  10.728  1.5947  0.7281  1.5094
 9837SOL     OW30951   1.095   1.267   9.133 -0.0010 -0.1233 -0.0825
 9837SOL    HW130952   1.187   1.252   9.158 -0.7707 -3.4741  1.2257
 9837SOL    HW230953   1.083   1.215   9.054 -1.1333 -0.9830  0.6339
 9838SOL     OW30954   5.228   7.207   2.937  0.0447  0.3441  0.3753
 9838SOL    HW130955   5.220   7.116   2.966  1.4522  0.3657  0.9359
 9838SOL    HW230956   5.169   7.214   2.862  0.5381 -1.2774 -0.2091
 9839SOL     OW30957   5.413   5.196  12.068 -0.0117  0.2075 -0.0297
 9839SOL    HW130958   5.394   5.262  12.134 -1.7401  0.9769 -1.2398
 9839SOL    HW230959   5.426   5.115  12.118  0.2099  1.0485  1.3279
 9840SOL     OW30960   1.974   5.458  11.662 -0.0489  0.3979 -0.2985
 9840SOL    HW130961   2.043   5.393  11.647 -0.3812 -0.4778  1.7074
 9840SOL    HW230962   1.951   5.488  11.574 -0.3582 -2.7028 -1.4123
 9841SOL     OW30963   1.963   7.749   3.336  0.4130  0.0454  0.0039
 9841SOL    HW130964   2.034   7.800   3.297 -0.8866  2.1390  0.2046
 9841SOL    HW230965   1.982   7.749   3.430 -1.4400  3.5861  0.5630
 9842SOL     OW30966   6.594   4.829   6.256 -0.1045 -0.1755  0.2026
 9842SOL    HW130967   6.630   4.817   6.168 -0.8468 -0.8705 -0.0195
 9842SOL    HW230968   6.584   4.924   6.264  0.1881 -0.0879 -0.3782
 9843SOL     OW30969   7.547   5.482   8.791 -0.0377 -0.1353 -0.0738
 9843SOL    HW130970   7.521   5.509   8.879 -0.5870 -0.1387 -0.2315
 9843SOL    HW230971   7.499   5.540   8.732 -0.0594 -0.4562 -0.3816
 9844SOL     OW30972   5.301   7.664  10.478 -0.0154  0.3349 -0.2338
 9844SOL    HW130973   5.378   7.613  10.453  1.6013  2.2567  0.5931
 9844SOL    HW230974   5.268   7.698  10.395 -0.9153 -1.6492 -0.7619
 9845SOL     OW30975   6.785   7.982   7.636 -0.5394  0.3294 -0.0210
 9845SOL    HW130976   6.823   7.953   7.718  0.3491 -1.2012 -0.9315
 9845SOL    HW230977   6.694   8.002   7.658  0.2212  2.1706  1.7833
 9846SOL     OW30978   4.298   1.559   8.721  0.5606 -0.5013  0.3752
 9846SOL    HW130979   4.270   1.622   8.787 -2.1850 -0.8902 -0.3012
 9846SOL    HW230980   4.368   1.603   8.673  0.0559  1.2496  1.1757
 9847SOL     OW30981   2.640   3.007  12.179  0.1159  0.2765  0.1821
 9847SOL    HW130982   2.710   3.021  12.116  0.4499 -0.5916  0.3458
 9847SOL    HW230983   2.643   2.913  12.198  0.6958  0.6668  2.2689
 9848SOL     OW30984   7.103   7.271  11.357  0.0109 -0.0110 -0.6583
 9848SOL    HW130985   7.140   7.230  11.435  1.0336  2.1316  0.0625
 9848SOL    HW230986   7.169   7.256  11.289 -0.6694 -1.4774 -1.0271
 9849SOL     OW30987   0.651   5.845   9.104  0.1464 -0.0517 -0.1998
 9849SOL    HW130988   0.710   5.901   9.154 -0.4614  0.4740 -0.0481
 9849SOL    HW230989   0.666   5.757   9.138 -1.3890  0.4858  2.0848
 9850SOL     OW30990   4.789   4.978   8.703 -0.2298 -0.4567 -0.5920
 9850SOL    HW130991   4.844   4.962   8.626 -1.0040 -0.4753 -1.1421
 9850SOL    HW230992   4.830   5.053   8.746  1.0750 -1.3550 -0.1913
 9851SOL     OW30993   5.092   0.794   5.845  0.1565  0.2340  0.1019
 9851SOL    HW130994   5.005   0.766   5.817  0.0337 -0.6606  1.2931
 9851SOL    HW230995   5.109   0.874   5.794 -1.6592  0.8543  0.3758
 9852SOL     OW30996   6.857   6.645  10.984  0.0544 -0.6394 -0.5532
 9852SOL    HW130997   6.850   6.600  11.068  0.6997  0.2472 -0.0035
 9852SOL    HW230998   6.949   6.634  10.958  0.9018  2.3326  0.7868
 9853SOL     OW30999   3.230   7.398   1.236 -0.1411  0.4949  0.1013
 9853SOL    HW131000   3.201   7.319   1.281 -0.8282 -0.1572 -1.4075
 9853SOL    HW231001   3.307   7.427   1.284 -0.3505 -0.6275  1.1583
 9854SOL     OW31002   5.616   5.441   7.537 -0.1402  0.8383  0.7224
 9854SOL    HW131003   5.689   5.501   7.551  0.9578 -0.6610  1.6722
 9854SOL    HW231004   5.640   5.362   7.586 -1.9302 -0.0670  0.2113
 9855SOL     OW31005   2.111   0.977   1.825  0.2021  0.2061  0.4774
 9855SOL    HW131006   2.127   0.887   1.855  0.1408 -0.7997 -2.2493
 9855SOL    HW231007   2.183   0.996   1.764 -1.2367  0.9328 -1.0819
 9856SOL     OW31008   2.627   6.270   6.015 -0.2458 -0.5975 -0.1332
 9856SOL    HW131009   2.532   6.264   6.008 -0.5323  0.3599  2.0955
 9856SOL    HW231010   2.647   6.230   6.100  1.3694 -0.8008 -0.5740
 9857SOL     OW31011   3.712   1.950   1.991 -0.3436  0.3085  0.8609
 9857SOL    HW131012   3.703   2.023   1.929 -1.3157 -2.0369 -2.0129
 9857SOL    HW231013   3.622   1.924   2.011 -0.0607 -1.2395  0.2787
 9858SOL     OW31014   6.894   3.044   0.436  0.1656 -0.1267  0.1148
 9858SOL    HW131015   6.824   3.088   0.388 -1.5661 -1.5466  1.2495
 9858SOL    HW231016   6.958   3.022   0.369 -1.6601 -1.0519 -1.4065
 9859SOL     OW31017   1.513   0.160   9.938 -0.4630 -0.1418 -0.0702
 9859SOL    HW131018   1.419   0.168   9.951 -0.2481  1.0659  0.9310
 9859SOL    HW231019   1.536   0.236   9.885  0.1311  0.3195  0.8250
 9860SOL     OW31020   3.210   1.638   5.510  0.5227 -0.2173 -0.2325
 9860SOL    HW131021   3.273   1.705   5.482  1.0606 -0.6158 -0.0004
 9860SOL    HW231022   3.251   1.555   5.486  0.5275 -0.5229  0.7777
 9861SOL     OW31023   2.150   1.709   3.896 -0.0972  0.2379  0.1892
 9861SOL    HW131024   2.235   1.686   3.859 -0.6040 -0.3660 -0.6310
 9861SOL    HW231025   2.130   1.638   3.958  0.0077  0.3958  0.4050
 9862SOL     OW31026   0.036   5.185   6.536 -0.1331 -0.1999  0.6496
 9862SOL    HW131027   0.129   5.171   6.552 -0.2969 -2.5121 -0.0234
 9862SOL    HW231028   0.033   5.247   6.463  0.8661 -0.3186  0.4940
 9863SOL     OW31029   3.509   1.769  10.526 -0.3151 -0.0750 -0.0803
 9863SOL    HW131030   3.568   1.843  10.539 -1.0111  0.6699 -0.9754
 9863SOL    HW231031   3.457   1.766  10.606 -0.1188  0.2576  0.0618
 9864SOL     OW31032   6.813   3.461  11.324  0.0185 -0.1713  0.3531
 9864SOL    HW131033   6.812   3.551  11.356  0.4613 -0.7876  2.2458
 9864SOL    HW231034   6.813   3.407  11.404 -1.0003 -1.8633 -0.7251
 9865SOL     OW31035   2.686   7.876  10.465 -0.6978  0.3305 -0.4196
 9865SOL    HW131036   2.750   7.808  10.444 -0.5194  0.3370  0.0773
 9865SOL    HW231037   2.633   7.838  10.535  0.9789  1.5638  1.6957
 9866SOL     OW31038   0.883   1.339  10.939  0.4534  0.2194  0.0245
 9866SOL    HW131039   0.934   1.318  11.018 -2.5478 -2.5579  1.4700
 9866SOL    HW231040   0.877   1.256  10.892 -1.7442  0.6713 -0.6103
 9867SOL     OW31041   2.719   7.217  12.057  0.0132  0.2308  0.0204
 9867SOL    HW131042   2.708   7.176  12.142 -1.5746 -0.2127 -0.3841
 9867SOL    HW231043   2.812   7.243  12.055  0.3485 -0.7798  1.3998
 9868SOL     OW31044   4.471   5.511  10.143 -0.7876 -0.2717 -0.2714
 9868SOL    HW131045   4.522   5.578  10.188  1.0328 -1.5950 -0.2383
 9868SOL    HW231046   4.383   5.518  10.181 -0.7452  2.2516 -0.5057
 9869SOL     OW31047   2.193   2.844   0.213 -0.8672  0.0079  0.2191
 9869SOL    HW131048   2.233   2.770   0.168 -1.6763 -0.7307  0.6786
 9869SOL    HW231049   2.257   2.915   0.205  0.8443 -1.2866  1.4937
 9870SOL     OW31050   6.566   6.024   2.684  0.2177  0.1719 -0.8563
 9870SOL    HW131051   6.540   6.039   2.593  0.0605 -0.8613 -0.9927
 9870SOL    HW231052   6.581   5.929   2.689 -0.2930  0.1393  0.3243
 9871SOL     OW31053   2.179   7.855   5.729  0.2044  0.3059 -0.2635
 9871SOL    HW131054   2.196   7.898   5.645  0.0126  1.0146  0.0503
 9871SOL    HW231055   2.094   7.812   5.716 -2.0080  3.8589  0.7832
 9872SOL     OW31056   3.390   5.771   8.482 -0.2208  0.0099 -0.2514
 9872SOL    HW131057   3.484   5.774   8.464 -0.0305 -0.0399  0.6820
 9872SOL    HW231058   3.374   5.846   8.539 -0.3822 -1.0434  1.1500
 9873SOL     OW31059   3.789   1.216  12.388 -0.0848 -0.4284  0.4901
 9873SOL    HW131060   3.757   1.127  12.372  1.4484 -0.7101 -1.2016
 9873SOL    HW231061   3.865   1.204  12.444 -1.1853  0.0379  2.1615
 9874SOL     OW31062   6.751   6.677   1.443  0.4105  0.0991 -0.1394
 9874SOL    HW131063   6.846   6.680   1.451  0.2789 -0.1223  2.0337
 9874SOL    HW231064   6.729   6.584   1.453 -0.1027  0.3020  0.7195
 9875SOL     OW31065   0.879   3.870  12.341  0.0669  0.0894  0.1914
 9875SOL    HW131066   0.908   3.918  12.419 -1.7302 -0.2771  1.1327
 9875SOL    HW231067   0.889   3.932  12.269  0.4911  0.8852  0.9189
 9876SOL     OW31068   6.708   1.820   8.420 -0.0793  0.3083  0.0386
 9876SOL    HW131069   6.680   1.846   8.508  0.6239  0.1420  0.3196
 9876SOL    HW231070   6.675   1.731   8.410 -1.6057  0.9021 -0.5300
 9877SOL     OW31071   2.390   3.884   9.030 -0.1729  0.2897  0.5022
 9877SOL    HW131072   2.333   3.809   9.011 -0.2213  0.1405  1.2193
 9877SOL    HW231073   2.476   3.858   8.996  0.6355 -1.4628  3.5173
 9878SOL     OW31074   4.482   2.034   5.805 -0.0751  0.1498 -0.1698
 9878SOL    HW131075   4.561   2.017   5.856 -0.3160 -1.8002 -0.3613
 9878SOL    HW231076   4.511   2.093   5.736  0.7506  1.0578  0.9206
 9879SOL     OW31077   5.858   2.633   3.798 -0.3112  0.5549 -0.4077
 9879SOL    HW131078   5.952   2.641   3.814  0.4156 -0.4357 -3.4945
 9879SOL    HW231079   5.819   2.706   3.845  1.9638  0.8686  1.1220
 9880SOL     OW31080   0.959   4.573   9.998 -0.3747 -0.2603 -0.3278
 9880SOL    HW131081   0.972   4.602  10.088 -2.9390  0.6041 -0.1563
 9880SOL    HW231082   0.980   4.649   9.945  1.8536 -0.9809 -0.6039
 9881SOL     OW31083   3.424   2.275   0.561 -0.0175  0.5820 -0.0035
 9881SOL    HW131084   3.421   2.341   0.629 -0.6292  0.5792 -0.0184
 9881SOL    HW231085   3.420   2.324   0.479 -0.4082  0.5325 -0.0158
 9882SOL     OW31086   1.773   3.182   9.762  0.2083 -0.0661 -0.4885
 9882SOL    HW131087   1.733   3.095   9.753 -0.7948  0.2191  0.9565
 9882SOL    HW231088   1.866   3.164   9.770  0.2681 -0.8470 -2.3412
 9883SOL     OW31089   3.003   0.245  12.271 -0.3193  0.5297 -0.3270
 9883SOL    HW131090   3.099   0.246  12.268 -0.2918 -0.6342 -0.1600
 9883SOL    HW231091   2.977   0.208  12.187 -0.4788 -2.6402  1.0070
 9884SOL     OW31092   5.170   6.872  10.160 -0.1274  0.3892  0.2397
 9884SOL    HW131093   5.129   6.927  10.094 -0.1020 -0.2362 -0.3031
 9884SOL    HW231094   5.165   6.783  10.124  1.4973  0.2601  0.2668
 9885SOL     OW31095   6.077   2.166   9.888  0.3276 -0.2058  0.3026
 9885SOL    HW131096   6.117   2.199   9.968 -0.9179  2.7654 -0.1504
 9885SOL    HW231097   6.133   2.093   9.861  0.7703 -1.3275  3.8229
 9886SOL     OW31098   1.196   1.091  10.325 -0.0902 -0.3608  0.3367
 9886SOL    HW131099   1.278   1.073  10.279  0.4649 -0.1956  1.2474
 9886SOL    HW231100   1.185   1.018  10.385  0.1238  0.3042  1.2123
 9887SOL     OW31101   3.482   7.666   5.984  0.0335  0.2940  0.1568
 9887SOL    HW131102   3.388   7.687   5.981  0.0017  0.1677  0.2563
 9887SOL    HW231103   3.488   7.579   5.944  0.1791  0.5446 -0.3623
 9888SOL     OW31104   5.701   7.205   2.587 -0.2185 -0.1004  0.5169
 9888SOL    HW131105   5.644   7.258   2.531  1.7472  2.3502  0.6837
 9888SOL    HW231106   5.643   7.174   2.657 -1.4335  2.0131  0.5151
 9889SOL     OW31107   6.380   2.964  11.558  0.5833  0.5076 -0.0875
 9889SOL    HW131108   6.357   2.885  11.608 -1.0672 -0.7111 -2.5489
 9889SOL    HW231109   6.459   2.939  11.510  2.0916  1.6322  1.6775
 9890SOL     OW31110   3.861   5.094   7.593  0.4682 -0.3143 -0.0742
 9890SOL    HW131111   3.896   5.146   7.666  1.5877  0.3530 -1.0337
 9890SOL    HW231112   3.850   5.006   7.629 -4.8864  1.0408  2.7177
 9891SOL     OW31113   7.718   4.329  10.186 -0.5353  0.0919  0.9139
 9891SOL    HW131114   7.735   4.285  10.102  0.3040  1.3379  0.3984
 9891SOL    HW231115   7.697   4.258  10.246  0.4567 -0.9868  0.0412
 9892SOL     OW31116   0.766   4.875   2.984  0.0032 -0.6028 -0.6490
 9892SOL    HW131117   0.714   4.926   2.922  0.8498  0.2807 -0.6634
 9892SOL    HW231118   0.811   4.811   2.931 -0.8428 -1.1982 -0.6710
 9893SOL     OW31119   4.229   3.064   0.292  0.2747 -0.4480 -0.1234
 9893SOL    HW131120   4.153   3.044   0.237 -0.7914  0.6569  0.8874
 9893SOL    HW231121   4.274   2.980   0.301 -0.2998 -0.9392 -1.4968
 9894SOL     OW31122   7.020   6.139   0.068  0.3732 -0.0254 -0.1064
 9894SOL    HW131123   7.097   6.172   0.021  0.6542 -0.8453 -0.2372
 9894SOL    HW231124   7.055   6.101   0.148 -0.2242  2.6593  1.5678
 9895SOL     OW31125   0.732   6.413   8.487 -0.0997  0.5280 -0.1710
 9895SOL    HW131126   0.827   6.403   8.492  0.0178  1.0896 -1.0606
 9895SOL    HW231127   0.711   6.396   8.395 -0.8976  0.1823  0.0643
 9896SOL     OW31128   3.926   0.201   6.228 -0.5245 -0.3016 -0.1876
 9896SOL    HW131129   3.974   0.225   6.149 -0.1768 -0.6039 -0.0698
 9896SOL    HW231130   3.993   0.176   6.291 -0.8481 -1.2964 -0.2071
 9897SOL     OW31131   7.551   3.290   2.024 -0.0590  0.6857  0.0872
 9897SOL    HW131132   7.606   3.247   1.958  0.1565  0.4039  0.4470
 9897SOL    HW231133   7.507   3.218   2.069  0.7384  0.7886  1.0780
 9898SOL     OW31134   1.714   3.874   6.632 -0.0819  0.3785 -0.2034
 9898SOL    HW131135   1.631   3.881   6.585  0.3715  0.1482 -1.0655
 9898SOL    HW231136   1.759   3.801   6.590  0.7922  0.8601 -0.1283
 9899SOL     OW31137   6.849   2.077   4.976 -0.0210  0.7400  0.1118
 9899SOL    HW131138   6.812   2.044   5.057  0.0654 -0.6538 -0.3959
 9899SOL    HW231139   6.792   2.042   4.907 -0.1793  2.0090 -0.4410
 9900SOL     OW31140   6.833   4.552  11.967 -0.0103 -0.1813  0.3359
 9900SOL    HW131141   6.879   4.614  12.024 -0.3473 -0.4792  0.9416
 9900SOL    HW231142   6.760   4.521  12.019  0.4338 -1.4629  0.2421
 9901SOL     OW31143   4.952   6.691   3.392  0.3558 -0.1641 -0.2853
 9901SOL    HW131144   5.010   6.676   3.466 -1.4001 -0.7326  1.0330
 9901SOL    HW231145   4.877   6.633   3.407 -0.1006 -0.2631 -2.4853
 9902SOL     OW31146   1.601   3.091   5.260 -0.0812  0.4764 -0.2541
 9902SOL    HW131147   1.688   3.129   5.261 -0.5335  1.6232  2.1029
 9902SOL    HW231148   1.547   3.154   5.309 -1.5794 -1.6019  0.9177
 9903SOL     OW31149   5.402   0.749  11.951 -0.5350 -0.6723 -0.0766
 9903SOL    HW131150   5.492   0.765  11.924  0.0172 -2.1398  0.7920
 9903SOL    HW231151   5.349   0.784  11.879  0.6698  0.7860 -0.3259
 9904SOL     OW31152   0.794   0.872   2.858 -0.6676 -0.0418 -0.1238
 9904SOL    HW131153   0.852   0.947   2.872 -0.9725  0.3168 -0.7515
 9904SOL    HW231154   0.718   0.890   2.914 -0.9100  0.3112 -0.5600
 9905SOL     OW31155   7.501   2.606   4.015 -0.3563  0.0396  0.1148
 9905SOL    HW131156   7.557   2.548   4.066 -0.9494 -1.2465 -0.6653
 9905SOL    HW231157   7.553   2.686   4.005  0.8819 -0.7068  0.3750
 9906SOL     OW31158   1.311   2.880   2.650 -0.1250  0.2184  0.0266
 9906SOL    HW131159   1.219   2.852   2.648  0.5063 -2.0852  0.9793
 9906SOL    HW231160   1.307   2.973   2.627 -2.6808  0.1637 -0.0879
 9907SOL     OW31161   5.540   6.595   8.166 -0.7494 -0.4550  0.2059
 9907SOL    HW131162   5.481   6.543   8.111 -0.4815  0.1332 -0.6588
 9907SOL    HW231163   5.512   6.576   8.255 -0.0148 -2.8826  0.0071
 9908SOL     OW31164   0.582   2.539   9.526  0.0008  0.0137  0.0845
 9908SOL    HW131165   0.650   2.569   9.586 -0.4190  1.1199  0.0339
 9908SOL    HW231166   0.564   2.449   9.552  1.5710 -0.3495  0.0067
 9909SOL     OW31167   3.578   4.426  12.387  0.2892 -0.7712 -1.0916
 9909SOL    HW131168   3.634   4.403  12.461  0.4393  0.3709 -0.8444
 9909SOL    HW231169   3.579   4.347  12.332  0.2027 -1.6163  0.0852
 9910SOL     OW31170   1.875   2.997   6.963 -0.0775 -0.1776  0.1333
 9910SOL    HW131171   1.835   3.044   7.036  1.0964  0.6147  0.2996
 9910SOL    HW231172   1.890   3.064   6.896  3.7623  0.3355  1.2549
 9911SOL     OW31173   7.916   2.843   0.370 -0.3233 -0.1576  0.1467
 9911SOL    HW131174   7.933   2.930   0.334  1.7981 -0.6433 -0.1276
 9911SOL    HW231175   7.851   2.858   0.438 -0.7476  1.4874 -0.5852
 9912SOL     OW31176   3.241   4.246   1.865  0.1834  0.0396 -0.0310
 9912SOL    HW131177   3.285   4.162   1.875 -0.9529 -0.8576 -1.8739
 9912SOL    HW231178   3.157   4.234   1.909 -0.9339 -0.6630 -2.2194
 9913SOL     OW31179   2.942   6.568   9.248 -0.1909  0.0758 -0.0632
 9913SOL    HW131180   2.916   6.539   9.161 -1.6326  0.3537  0.2489
 9913SOL    HW231181   3.005   6.638   9.232 -1.2100  0.8274 -0.9204
 9914SOL     OW31182   7.951   2.674  11.400  0.2161 -0.0569  0.4699
 9914SOL    HW131183   7.903   2.602  11.360  1.5156 -1.4139  1.2663
 9914SOL    HW231184   7.990   2.637  11.479  0.4148  1.6848  1.2545
 9915SOL     OW31185   2.295   2.475   3.331 -0.1684  0.0456 -0.6844
 9915SOL    HW131186   2.312   2.388   3.297  1.9279  0.5051 -0.9222
 9915SOL    HW231187   2.259   2.523   3.257  0.5402 -0.0833 -1.1217
 9916SOL     OW31188   6.709   5.155  11.204 -0.1189  0.1311  0.9938
 9916SOL    HW131189   6.711   5.216  11.130  0.7902  1.1019  1.7883
 9916SOL    HW231190   6.800   5.127  11.213 -0.2613 -0.1244  1.6349
 9917SOL     OW31191   4.669   5.181  10.747  0.1672 -0.4262 -0.3264
 9917SOL    HW131192   4.726   5.197  10.822  0.2351  1.8296 -0.7927
 9917SOL    HW231193   4.580   5.188  10.783  0.1982  0.0935 -0.3486
 9918SOL     OW31194   7.292   5.785   6.963  0.2633 -0.5476  0.3225
 9918SOL    HW131195   7.332   5.771   6.877 -0.0858 -2.1945  0.4101
 9918SOL    HW231196   7.242   5.706   6.980 -0.5352  0.1944  1.5968
 9919SOL     OW31197   1.682   2.468   9.295  0.5082 -0.2177  0.2118
 9919SOL    HW131198   1.636   2.529   9.353 -0.4902 -0.9341  0.2015
 9919SOL    HW231199   1.614   2.435   9.236  1.5364  0.6500 -1.5495
 9920SOL     OW31200   3.004   5.979   1.602  0.4702  0.1129 -0.2261
 9920SOL    HW131201   3.050   5.957   1.683 -0.9698  0.0087  0.5963
 9920SOL    HW231202   3.072   6.014   1.544  1.6500 -0.4740  0.7632
 9921SOL     OW31203   0.817   0.932   4.386  0.4721  0.3866  0.0546
 9921SOL    HW131204   0.802   0.844   4.352  0.9703  1.0592 -2.0507
 9921SOL    HW231205   0.912   0.942   4.384  0.4038  1.0731 -0.0437
 9922SOL     OW31206   1.401   0.559  10.239  0.2659  0.9894  0.0715
 9922SOL    HW131207   1.390   0.653  10.250 -1.5554  0.8064  0.2164
 9922SOL    HW231208   1.351   0.521  10.312  2.2627 -0.1039  0.9611
 9923SOL     OW31209   2.665   5.659   9.311 -0.4000  0.4089 -0.4185
 9923SOL    HW131210   2.664   5.564   9.318  0.0920  0.5334  2.1952
 9923SOL    HW231211   2.719   5.689   9.384 -2.1701  2.7465  0.0867
 9924SOL     OW31212   5.149   4.531   7.383  0.0516 -0.4883  0.0597
 9924SOL    HW131213   5.086   4.473   7.425  1.5670  0.5531  4.1875
 9924SOL    HW231214   5.220   4.473   7.354 -1.2392 -1.2721 -1.7376
 9925SOL     OW31215   5.730   3.682   0.231 -0.0490  0.0542  0.0980
 9925SOL    HW131216   5.791   3.753   0.214 -0.2821 -0.1949 -1.9492
 9925SOL    HW231217   5.645   3.716   0.202 -0.1855 -0.9985 -0.7689
 9926SOL     OW31218   6.185   5.424   4.921  0.1409  0.4646  0.0692
 9926SOL    HW131219   6.245   5.496   4.903 -2.3092  2.5598 -0.2214
 9926SOL    HW231220   6.204   5.360   4.852  0.2780  2.2439 -1.6443
 9927SOL     OW31221   7.984   2.555  11.881 -0.0795  0.0941 -0.4030
 9927SOL    HW131222   8.007   2.571  11.972 -0.1368 -2.1354  0.0621
 9927SOL    HW231223   8.016   2.466  11.864  1.2978  0.9805 -3.0239
 9928SOL     OW31224   7.818   0.489   5.816 -0.0073 -0.3769 -0.5699
 9928SOL    HW131225   7.879   0.416   5.806 -1.2837 -1.4656 -0.6653
 9928SOL    HW231226   7.843   0.550   5.746  3.5031  1.1626  1.7748
 9929SOL     OW31227   5.503   4.235   7.613 -0.3645  0.2768 -0.3119
 9929SOL    HW131228   5.546   4.170   7.668  1.6022 -1.3277 -3.4540
 9929SOL    HW231229   5.549   4.317   7.633  0.9634 -0.4616 -0.2376
 9930SOL     OW31230   3.690   2.491   0.174 -0.3969 -0.1431 -0.3099
 9930SOL    HW131231   3.728   2.405   0.191 -3.4423 -1.7920 -1.0352
 9930SOL    HW231232   3.700   2.504   0.079  1.7114  1.2790  0.0302
 9931SOL     OW31233   0.823   0.723   9.396  0.2034 -0.6233 -0.5949
 9931SOL    HW131234   0.767   0.723   9.474 -1.2255 -0.6988 -1.5856
 9931SOL    HW231235   0.788   0.794   9.342  1.7386  0.0177 -0.7993
 9932SOL     OW31236   3.771   5.694   0.083 -0.7943 -0.5539  0.2099
 9932SOL    HW131237   3.755   5.768   0.024  0.8307  0.5483  1.0918
 9932SOL    HW231238   3.735   5.722   0.167 -0.2689 -0.8006  0.5222
 9933SOL     OW31239   0.459   3.260   9.085 -0.2606  0.2871  0.3038
 9933SOL    HW131240   0.541   3.221   9.056  0.2041  0.5219  1.2584
 9933SOL    HW231241   0.435   3.319   9.014  0.4183  0.2412  0.0228
 9934SOL     OW31242   5.122   3.895   2.659 -0.4338  0.3607 -0.0646
 9934SOL    HW131243   5.047   3.894   2.719 -0.4103  0.9405 -0.0196
 9934SOL    HW231244   5.086   3.864   2.576 -0.4366 -0.5723  0.2731
 9935SOL     OW31245   6.989   6.887   8.376  0.0326 -0.1847  0.5719
 9935SOL    HW131246   7.067   6.859   8.424  1.0441  2.0868  0.4136
 9935SOL    HW231247   6.970   6.975   8.411 -2.0815 -0.4008  0.1322
 9936SOL     OW31248   3.677   0.341   1.924 -0.7261  0.2512 -0.3845
 9936SOL    HW131249   3.614   0.372   1.989 -1.0245  0.0363 -0.5664
 9936SOL    HW231250   3.738   0.287   1.974 -0.9349  0.1141 -0.2754
 9937SOL     OW31251   0.277   2.326   7.450  0.1425  0.2705  1.1616
 9937SOL    HW131252   0.236   2.351   7.367  1.6408  1.2230  0.6604
 9937SOL    HW231253   0.273   2.230   7.451 -1.9207  0.3252  1.0856
 9938SOL     OW31254   0.758   6.349   2.381  0.1838  0.2052 -0.0359
 9938SOL    HW131255   0.727   6.340   2.471  0.1938  0.0544 -0.0481
 9938SOL    HW231256   0.824   6.418   2.385  0.5847 -0.1896  0.1711
 9939SOL     OW31257   1.119   7.196  11.346  0.7428 -0.1775  0.6103
 9939SOL    HW131258   1.150   7.137  11.278 -1.0557 -0.9700  0.4146
 9939SOL    HW231259   1.092   7.139  11.418 -0.3966  0.4218  0.6842
 9940SOL     OW31260   4.908   6.851   7.105  0.0896 -0.3836  0.0688
 9940SOL    HW131261   4.917   6.887   7.016  0.8717  1.1099  0.7030
 9940SOL    HW231262   4.816   6.828   7.113 -0.5449  1.8005 -0.3261
 9941SOL     OW31263   1.585   2.461   0.154 -0.2323 -0.2270  0.0413
 9941SOL    HW131264   1.503   2.509   0.152  0.1489  0.4453  0.3609
 9941SOL    HW231265   1.652   2.526   0.136  0.4374 -0.2876  2.0551
 9942SOL     OW31266   5.652   1.922   6.196 -0.3804  0.2869  0.0336
 9942SOL    HW131267   5.704   1.970   6.261  0.6506  0.5523 -0.9649
 9942SOL    HW231268   5.562   1.930   6.228  0.1275  0.0792  1.6450
 9943SOL     OW31269   0.520   3.915   8.184  0.6444 -0.1009 -0.1319
 9943SOL    HW131270   0.456   3.986   8.183  0.7303 -0.0246 -0.5222
 9943SOL    HW231271   0.490   3.854   8.116 -0.2444 -1.1865  1.1919
 9944SOL     OW31272   1.482   1.423   4.994 -0.1434  0.4197 -0.0067
 9944SOL    HW131273   1.506   1.342   5.038 -1.9688 -1.4581 -2.2081
 9944SOL    HW231274   1.546   1.434   4.924 -1.0930 -0.3456 -1.0326
 9945SOL     OW31275   5.252   2.985   8.922  0.7796  0.3163 -0.4746
 9945SOL    HW131276   5.160   3.003   8.901  0.4271  0.4598  1.0812
 9945SOL    HW231277   5.299   3.062   8.890  0.1788  0.8436 -0.1241
 9946SOL     OW31278   1.761   4.749   9.820 -0.3187  0.0986 -1.0212
 9946SOL    HW131279   1.802   4.668   9.789  1.5730  0.5931  0.0242
 9946SOL    HW231280   1.750   4.802   9.742 -0.5759 -0.7290 -1.5645
 9947SOL     OW31281   0.883   4.543   6.812 -0.0366 -0.4569  0.2291
 9947SOL    HW131282   0.937   4.480   6.766 -0.0106  0.0234 -0.4130
 9947SOL    HW231283   0.833   4.491   6.875  0.2207 -1.0672 -0.0640
 9948SOL     OW31284   4.608   1.767   3.648  0.4965 -0.0849  0.0795
 9948SOL    HW131285   4.624   1.700   3.715  0.7462  0.5928  0.7037
 9948SOL    HW231286   4.675   1.833   3.664  0.8300 -0.1239 -1.1290
 9949SOL     OW31287   4.948   2.935   2.699  0.0610  0.3744  0.4626
 9949SOL    HW131288   4.960   3.003   2.765  0.1607  0.4287  0.3888
 9949SOL    HW231289   4.941   2.983   2.616 -1.2821  0.3940  0.5605
 9950SOL     OW31290   3.384   6.495   3.606  0.1045  0.2538 -0.3011
 9950SOL    HW131291   3.387   6.400   3.622  2.1794  0.3094 -0.0786
 9950SOL    HW231292   3.292   6.519   3.619 -0.3532 -1.6243  0.2198
 9951SOL     OW31293   7.687   0.233   7.150 -0.7151 -0.7205  0.2020
 9951SOL    HW131294   7.629   0.306   7.131  0.9266  0.0421 -2.2889
 9951SOL    HW231295   7.769   0.255   7.107  0.6387 -2.9371  1.4357
 9952SOL     OW31296   7.655   4.310   2.790 -0.3245  0.6809  0.2019
 9952SOL    HW131297   7.648   4.292   2.884 -1.7085 -0.2795 -0.0506
 9952SOL    HW231298   7.686   4.228   2.752  0.5461  1.1657 -0.1599
 9953SOL     OW31299   0.549   1.614   8.696 -0.7439 -0.0942  0.1149
 9953SOL    HW131300   0.611   1.685   8.681  0.0999 -0.9283 -0.4511
 9953SOL    HW231301   0.473   1.636   8.643  0.7252 -1.1257 -2.5900
 9954SOL     OW31302   3.180   6.030   1.402  0.6535  0.0803  0.4150
 9954SOL    HW131303   3.173   6.109   1.348 -2.2483 -1.9414 -2.5899
 9954SOL    HW231304   3.249   5.978   1.360 -1.9788 -1.7413 -2.0992
 9955SOL     OW31305   4.006   6.412  10.016 -0.1223 -0.3853  0.2716
 9955SOL    HW131306   4.024   6.357  10.093 -2.4779 -1.2538  0.2825
 9955SOL    HW231307   4.007   6.351   9.943  0.2419  0.1090 -0.1403
 9956SOL     OW31308   2.852   2.862   2.904 -0.0684  0.2239 -0.0581
 9956SOL    HW131309   2.855   2.957   2.889 -0.6359  0.3248  0.4228
 9956SOL    HW231310   2.848   2.824   2.817 -0.9447  0.6939 -0.2290
 9957SOL     OW31311   7.932   4.415   6.709 -0.2205  0.2806 -0.1293
 9957SOL    HW131312   7.908   4.471   6.635  1.7205 -0.6891 -1.5547
 9957SOL    HW231313   7.922   4.326   6.677  1.5852 -0.1596  0.4368
 9958SOL     OW31314   0.963   0.581   8.449  0.1446 -0.2026  0.2860
 9958SOL    HW131315   1.030   0.607   8.513 -0.8652  1.7490  0.6377
 9958SOL    HW231316   0.880   0.601   8.493 -0.5764  1.2417 -1.6195
 9959SOL     OW31317   3.914   1.007   4.027 -0.2656 -0.3468  0.8495
 9959SOL    HW131318   3.901   0.945   3.956  0.8221 -0.6122  0.8715
 9959SOL    HW231319   3.842   1.070   4.017 -0.0981 -0.3442 -0.5069
 9960SOL     OW31320   0.129   5.613   1.456  0.4026  0.0738  0.1686
 9960SOL    HW131321   0.068   5.574   1.393  1.3898 -0.3117 -0.5805
 9960SOL    HW231322   0.146   5.544   1.519 -0.8609  0.5730  1.0852
 9961SOL     OW31323   1.452   6.171   4.141  0.7174 -0.1639 -0.2332
 9961SOL    HW131324   1.393   6.247   4.142  1.9565  0.8343  0.5458
 9961SOL    HW231325   1.531   6.202   4.186  1.3893 -1.8242 -0.2193
 9962SOL     OW31326   0.302   3.192   6.916 -0.2839  0.6697 -0.2455
 9962SOL    HW131327   0.374   3.246   6.883  0.9860 -1.6700 -1.5451
 9962SOL    HW231328   0.223   3.232   6.879  0.3018  3.0843  0.9270
 9963SOL     OW31329   4.478   0.120   1.015  0.1363 -0.1176  0.2878
 9963SOL    HW131330   4.490   0.201   1.063 -0.5144  1.4645 -2.0373
 9963SOL    HW231331   4.544   0.061   1.050  2.1528  2.1521  0.5207
 9964SOL     OW31332   2.045   7.082   4.398  0.1660  0.2025  0.0232
 9964SOL    HW131333   2.123   7.027   4.411 -1.8135 -2.7952  0.4758
 9964SOL    HW231334   1.999   7.042   4.324 -1.5367  1.0850  0.5380
 9965SOL     OW31335   6.846   2.669  10.039  0.5471  0.4628 -0.0258
 9965SOL    HW131336   6.917   2.625   9.991 -0.1234 -1.2514  0.4737
 9965SOL    HW231337   6.798   2.597  10.081 -0.0609  1.7837  1.6000
 9966SOL     OW31338   0.503   1.664   2.866 -0.4229  0.1619 -0.3285
 9966SOL    HW131339   0.493   1.682   2.959  0.3562 -0.0079 -0.2022
 9966SOL    HW231340   0.493   1.749   2.823  0.1612  0.3993 -0.0038
 9967SOL     OW31341   1.749   1.817   4.291  0.8228 -0.0997  0.5260
 9967SOL    HW131342   1.825   1.874   4.286  0.3682  0.4495 -0.1101
 9967SOL    HW231343   1.746   1.772   4.207  0.5105 -0.2184  0.5983
 9968SOL     OW31344   3.739   3.009   4.538 -0.0780 -0.4622  0.2251
 9968SOL    HW131345   3.692   2.929   4.517 -0.5459 -0.2342  0.3854
 9968SOL    HW231346   3.743   3.058   4.456  0.4186 -0.7547  0.0728
 9969SOL     OW31347   5.382   5.807   2.773 -0.0966  0.0821  0.3150
 9969SOL    HW131348   5.346   5.895   2.762 -2.4663 -1.1042 -2.6600
 9969SOL    HW231349   5.351   5.779   2.859  0.7675  2.0799  1.3553
 9970SOL     OW31350   0.061   6.371  10.719  0.6411  0.1040  1.1027
 9970SOL    HW131351   0.156   6.376  10.717  0.5710  1.5778  0.2721
 9970SOL    HW231352   0.034   6.450  10.766 -0.2044  0.5219 -0.0363
 9971SOL     OW31353   7.896   4.685   3.076 -0.3617  0.1088  0.4191
 9971SOL    HW131354   7.887   4.613   3.014 -1.4151  1.5058 -1.1728
 9971SOL    HW231355   7.821   4.675   3.135  0.7334 -1.3172  1.6468
 9972SOL     OW31356   6.662   1.412   1.504  1.1057  0.0990 -0.3376
 9972SOL    HW131357   6.597   1.345   1.483  0.2843  0.7416  0.1321
 9972SOL    HW231358   6.665   1.468   1.426  2.0113 -0.6185 -0.8538
 9973SOL     OW31359   6.876   4.347  10.429  0.3054 -0.0629 -0.3058
 9973SOL    HW131360   6.966   4.339  10.461  0.4274 -0.4799 -0.7393
 9973SOL    HW231361   6.826   4.287  10.483  0.6701 -1.4792 -1.4631
 9974SOL     OW31362   0.595   7.222   6.375 -0.0989  0.0034  0.0074
 9974SOL    HW131363   0.676   7.244   6.423  0.7533 -2.4961 -0.1169
 9974SOL    HW231364   0.525   7.248   6.434  0.8437  0.5016  0.9561
 9975SOL     OW31365   0.509   0.349   5.537  0.6458  0.6416  0.0251
 9975SOL    HW131366   0.483   0.281   5.600 -0.2578  0.1195 -0.8850
 9975SOL    HW231367   0.578   0.309   5.485 -0.0167  0.3215 -0.6359
 9976SOL     OW31368   2.836   6.906   5.984 -0.3333  0.3554  0.5977
 9976SOL    HW131369   2.759   6.864   5.948 -1.2540  1.2355  1.4583
 9976SOL    HW231370   2.856   6.977   5.922 -0.7352  0.6503  0.7993
 9977SOL     OW31371   5.617   0.670   7.810 -0.5856  0.0449 -0.2912
 9977SOL    HW131372   5.585   0.595   7.860  1.3350 -1.1862 -0.8179
 9977SOL    HW231373   5.712   0.667   7.819 -0.1921  0.2976 -3.2034
 9978SOL     OW31374   7.422   7.583   0.607  0.0843 -0.1641 -0.1110
 9978SOL    HW131375   7.391   7.533   0.683  0.9306  1.1075  1.1250
 9978SOL    HW231376   7.343   7.599   0.555 -0.6974 -0.1544  1.0399
 9979SOL     OW31377   6.185   4.810  10.532 -0.4434  0.0194 -0.2435
 9979SOL    HW131378   6.256   4.755  10.499 -0.1295  0.3900 -0.1826
 9979SOL    HW231379   6.161   4.769  10.616 -0.6426 -0.3941 -0.4956
 9980SOL     OW31380   0.107   1.297  10.263 -0.1531 -0.3064 -0.0515
 9980SOL    HW131381   0.059   1.300  10.181  0.9987 -1.1013 -0.7870
 9980SOL    HW231382   0.040   1.304  10.331 -0.9176  3.8611 -0.9863
 9981SOL     OW31383   2.644   3.195   2.958  0.0276 -0.8029  0.1006
 9981SOL    HW131384   2.738   3.207   2.944  0.3386 -2.1839  0.8390
 9981SOL    HW231385   2.633   3.101   2.968 -1.5535 -0.7402 -0.6544
 9982SOL     OW31386   3.216   1.004   8.825  0.5742 -0.0524 -0.1348
 9982SOL    HW131387   3.257   1.010   8.911  1.1277 -1.3837 -0.2873
 9982SOL    HW231388   3.221   1.094   8.791 -0.1508  0.6201  1.4160
 9983SOL     OW31389   1.901   7.618   5.252 -0.7350 -0.1447  0.1700
 9983SOL    HW131390   1.924   7.529   5.278  0.7111 -0.2032 -1.1435
 9983SOL    HW231391   1.884   7.611   5.158  0.1189  1.0804 -0.0998
 9984SOL     OW31392   6.931   2.506  11.749  0.0902  0.2921 -0.4702
 9984SOL    HW131393   6.991   2.446  11.794  0.8647  1.1753 -0.3081
 9984SOL    HW231394   6.845   2.464  11.757  0.5339 -0.5278  0.1135
 9985SOL     OW31395   5.368   0.370   4.758  0.5532 -0.3299 -0.0011
 9985SOL    HW131396   5.332   0.379   4.669  1.4148  1.0209 -0.2315
 9985SOL    HW231397   5.325   0.439   4.809  0.8449 -0.4170  0.3677
 9986SOL     OW31398   2.449   5.719   4.606 -0.7793  0.3283  0.7740
 9986SOL    HW131399   2.417   5.784   4.668  2.1747  0.8672  1.9013
 9986SOL    HW231400   2.424   5.754   4.520 -1.8817  1.3676  1.4842
 9987SOL     OW31401   4.253   4.151   4.534 -0.4393  0.4319  0.1097
 9987SOL    HW131402   4.278   4.136   4.625  1.1881  2.6686  0.1056
 9987SOL    HW231403   4.157   4.154   4.536 -0.4137  1.9818  2.0733
 9988SOL     OW31404   3.017   7.533   5.439  0.3920 -0.2150 -0.4355
 9988SOL    HW131405   2.998   7.599   5.506  1.8736 -0.4990  0.2828
 9988SOL    HW231406   3.048   7.457   5.487  1.2311 -0.5170 -1.4091
 9989SOL     OW31407   1.870   5.805   0.477 -0.2088  0.1371  1.1220
 9989SOL    HW131408   1.851   5.868   0.407  0.9288  0.2656  0.9134
 9989SOL    HW231409   1.825   5.725   0.449 -0.7573  0.5295  0.8491
 9990SOL     OW31410   0.767   1.652   4.681 -0.0402  0.1851 -0.4117
 9990SOL    HW131411   0.672   1.659   4.689  0.0128 -0.5989  1.6867
 9990SOL    HW231412   0.800   1.733   4.718  0.1100  0.0803 -0.3155
 9991SOL     OW31413   4.426   5.719   8.142 -0.4477  0.1314  0.1320
 9991SOL    HW131414   4.429   5.802   8.189 -0.3561  0.1820  0.0367
 9991SOL    HW231415   4.479   5.734   8.064  2.1410 -0.9294  1.5763
 9992SOL     OW31416   7.517   5.686   7.833  0.6430 -0.5177  0.1147
 9992SOL    HW131417   7.595   5.732   7.800 -0.1960  1.2436  0.4546
 9992SOL    HW231418   7.456   5.686   7.760 -0.2192  1.0289  0.7769
 9993SOL     OW31419   4.958   4.757  10.272  0.4165 -0.0395 -0.8005
 9993SOL    HW131420   4.915   4.792  10.351  0.7898 -1.0526 -0.1217
 9993SOL    HW231421   4.899   4.780  10.201 -0.0069  0.7723 -0.2064
 9994SOL     OW31422   6.968   2.166   0.956 -0.3644  0.2203  0.3413
 9994SOL    HW131423   6.939   2.156   0.865  1.6192  2.7559 -0.7144
 9994SOL    HW231424   6.946   2.257   0.977  0.9609  0.2553  1.7130
 9995SOL     OW31425   5.794   2.300   8.983  0.1054 -0.8342 -0.5510
 9995SOL    HW131426   5.716   2.254   9.013 -1.6101  2.3342  0.3184
 9995SOL    HW231427   5.857   2.293   9.055 -1.7345  1.5753  1.4899
 9996SOL     OW31428   0.373   7.488  11.627 -0.4221  0.2264 -0.3772
 9996SOL    HW131429   0.375   7.411  11.683 -0.1921  0.1431 -0.5003
 9996SOL    HW231430   0.298   7.474  11.570 -0.4774  0.1689 -0.2906
 9997SOL     OW31431   6.845   2.296   6.231  0.0230  0.7088 -0.2619
 9997SOL    HW131432   6.776   2.312   6.167  0.4219  2.1807 -0.3595
 9997SOL    HW231433   6.910   2.364   6.214  0.9276  0.0882  0.6111
 9998SOL     OW31434   0.041   7.821   2.503  0.1978  0.1918 -0.2870
 9998SOL    HW131435   0.023   7.823   2.409  0.1487 -0.2534 -0.2895
 9998SOL    HW231436   0.135   7.810   2.510  0.0227 -1.7390 -0.3140
 9999SOL     OW31437   2.067   0.558   7.897 -0.1751  0.7747 -0.5239
 9999SOL    HW131438   2.007   0.626   7.868 -1.2269  0.0341 -0.1481
 9999SOL    HW231439   2.043   0.542   7.989 -0.2512 -0.4001 -0.7341
10000SOL     OW31440   5.427   3.374   3.598 -0.0775  0.0660  0.1702
10000SOL    HW131441   5.399   3.327   3.677 -1.2795  0.2142 -0.1453
10000SOL    HW231442   5.377   3.455   3.599  0.1290  0.2144 -0.5865
10001SOL     OW31443   1.533   3.155   1.604 -0.2834 -0.5327 -0.6723
10001SOL    HW131444   1.452   3.105   1.606  0.0550 -1.1203 -1.3284
10001SOL    HW231445   1.602   3.091   1.624  0.1552 -0.3340 -1.4988
10002SOL     OW31446   0.424   4.892   9.781 -0.1902  0.3133 -0.3884
10002SOL    HW131447   0.468   4.815   9.817  0.5664  0.8610 -0.1162
10002SOL    HW231448   0.494   4.943   9.740 -0.6696  0.8913 -0.5032
10003SOL     OW31449   5.340   5.699   3.032  0.3885 -0.1772 -0.2017
10003SOL    HW131450   5.298   5.634   3.087 -1.0045 -0.2706 -1.3269
10003SOL    HW231451   5.351   5.775   3.089 -0.6400 -0.4147  0.3346
10004SOL     OW31452   4.793   2.890   2.108 -0.6303  0.2255 -0.0584
10004SOL    HW131453   4.704   2.853   2.110 -0.4280 -0.2412  0.5854
10004SOL    HW231454   4.835   2.846   2.035 -0.5192 -0.5473  0.4508
10005SOL     OW31455   4.606   5.384   9.889  0.2730 -0.0989  1.0059
10005SOL    HW131456   4.684   5.430   9.859  0.0423  0.8197  1.7605
10005SOL    HW231457   4.564   5.445   9.949 -0.6098 -0.8940  1.2218
10006SOL     OW31458   6.662   3.479   2.135  0.0982 -0.3516  0.1652
10006SOL    HW131459   6.640   3.402   2.083 -0.9416 -0.2681  0.4642
10006SOL    HW231460   6.757   3.485   2.129  0.2826 -2.1450  0.8252
10007SOL     OW31461   7.412   6.296   7.754  0.0625 -0.6493 -0.4740
10007SOL    HW131462   7.336   6.320   7.807  0.9221 -0.3828  0.6571
10007SOL    HW231463   7.470   6.372   7.758  0.3967 -0.8459 -1.3290
10008SOL     OW31464   0.950   0.335   0.415 -0.5116  0.1673 -0.3145
10008SOL    HW131465   1.024   0.275   0.408  0.5959  1.4766 -0.2648
10008SOL    HW231466   0.881   0.283   0.456  1.4213 -0.2178  2.8113
10009SOL     OW31467   4.831   1.429   0.177  0.7036  0.0161  0.2368
10009SOL    HW131468   4.832   1.525   0.177  0.2739  0.0609 -1.7229
10009SOL    HW231469   4.923   1.404   0.187  0.9509  0.6696 -0.3242
10010SOL     OW31470   5.397   6.513   5.728  0.0534 -0.6588  0.0381
10010SOL    HW131471   5.488   6.482   5.731 -1.0576 -4.3427  0.3256
10010SOL    HW231472   5.374   6.526   5.820  0.3570  0.8322 -0.0582
10011SOL     OW31473   3.742   2.253   4.021  0.7667 -0.8426 -0.3860
10011SOL    HW131474   3.791   2.221   4.097 -0.7812  1.0555  1.5276
10011SOL    HW231475   3.766   2.193   3.950  2.0332 -2.9097  1.6551
10012SOL     OW31476   4.145   4.039   8.210 -0.7019  0.2497 -0.0847
10012SOL    HW131477   4.205   3.967   8.231  1.2986  1.7754 -0.2734
10012SOL    HW231478   4.124   4.078   8.295 -1.8415 -0.5634  0.0240
10013SOL     OW31479   7.843   1.730   9.444 -0.2414 -0.2255 -0.6491
10013SOL    HW131480   7.881   1.749   9.359  0.9804  0.3957  0.0028
10013SOL    HW231481   7.855   1.811   9.494 -0.1912 -0.8377  0.3647
10014SOL     OW31482   3.327   6.407   2.466 -0.2575  0.3389  0.3127
10014SOL    HW131483   3.371   6.325   2.487 -0.7733 -0.1752 -0.5578
10014SOL    HW231484   3.396   6.473   2.468  0.5734 -0.4441 -1.0449
10015SOL     OW31485   7.505   6.981   7.618  0.0555  0.1552  0.3297
10015SOL    HW131486   7.535   6.902   7.663  0.3635  0.2570  0.3073
10015SOL    HW231487   7.416   6.994   7.649 -0.1602 -0.4616 -0.0227
10016SOL     OW31488   0.883   2.017  10.456  0.0042  0.2364  0.6216
10016SOL    HW131489   0.794   1.987  10.439  0.6559 -1.0906 -0.6711
10016SOL    HW231490   0.916   2.045  10.371  1.4636 -1.1611  0.6837
10017SOL     OW31491   5.551   2.339   3.577 -0.2529 -0.0081 -0.0367
10017SOL    HW131492   5.509   2.409   3.628 -0.7388 -0.7149  0.5625
10017SOL    HW231493   5.633   2.378   3.547 -0.8326  1.0505 -0.3213
10018SOL     OW31494   1.616   1.195  11.293 -0.3269  0.2093  0.1583
10018SOL    HW131495   1.527   1.224  11.273  0.4246  1.8792 -0.9854
10018SOL    HW231496   1.672   1.250  11.239  1.5531  0.7482  2.4984
10019SOL     OW31497   5.984   1.288   9.880  0.4450 -0.0939  0.3049
10019SOL    HW131498   5.956   1.380   9.888  0.7140 -0.1321  2.1552
10019SOL    HW231499   5.911   1.238   9.917  0.5312 -0.5964 -0.1930
10020SOL     OW31500   5.338   5.986   9.647 -0.2820  0.0481  0.2204
10020SOL    HW131501   5.423   5.942   9.641 -1.2126 -2.0679  1.5955
10020SOL    HW231502   5.359   6.079   9.640  1.9669 -0.4736 -1.0142
10021SOL     OW31503   1.931   1.165  10.767  0.0873 -0.2139 -0.4719
10021SOL    HW131504   1.952   1.129  10.853  0.6359  0.1166 -0.4628
10021SOL    HW231505   1.897   1.090  10.718 -1.1595 -0.1966  0.3276
10022SOL     OW31506   1.011   7.009   5.152 -0.2542  0.4244 -0.5342
10022SOL    HW131507   0.982   6.986   5.240  1.7982  0.5807  0.2507
10022SOL    HW231508   1.011   7.105   5.151  1.4015  0.4566 -0.0512
10023SOL     OW31509   2.338   0.482   7.992 -0.1769 -0.4332  0.5083
10023SOL    HW131510   2.246   0.489   7.966  0.5109  1.1103 -1.8333
10023SOL    HW231511   2.361   0.571   8.020  0.3471 -1.0688  2.2049
10024SOL     OW31512   6.298   5.942  11.687 -0.1694  0.4661 -0.0663
10024SOL    HW131513   6.346   6.007  11.636 -1.9895  2.1149  0.2222
10024SOL    HW231514   6.250   5.993  11.753 -0.4128 -1.3182  1.2086
10025SOL     OW31515   4.760   7.459   9.729 -0.2144 -0.1035  0.0398
10025SOL    HW131516   4.770   7.454   9.634 -0.8912  0.8205 -0.0968
10025SOL    HW231517   4.665   7.464   9.743 -0.1044  0.2729  0.7286
10026SOL     OW31518   3.325   1.226  10.329  0.0512 -0.3255  0.4304
10026SOL    HW131519   3.327   1.299  10.267 -2.9227 -0.9225 -0.5280
10026SOL    HW231520   3.311   1.267  10.414  0.5162  0.3007  0.2119
10027SOL     OW31521   0.878   1.696   6.811  0.3295  0.0310 -0.6257
10027SOL    HW131522   0.968   1.689   6.842  0.6875  1.3399 -1.2766
10027SOL    HW231523   0.834   1.620   6.848  1.2819  0.2676  1.1357
10028SOL     OW31524   4.076   7.216   0.344 -0.1363  0.0859  0.3329
10028SOL    HW131525   4.097   7.259   0.260 -0.2816  0.2454  0.3775
10028SOL    HW231526   4.016   7.146   0.320 -0.8766  0.6824  0.4062
10029SOL     OW31527   0.664   6.639   2.678 -0.5420 -0.0630 -0.2660
10029SOL    HW131528   0.589   6.673   2.629 -0.0047 -0.4877 -1.4328
10029SOL    HW231529   0.657   6.544   2.667 -0.2000 -0.1366  0.1722
10030SOL     OW31530   3.237   1.140   1.787 -0.5770 -0.0209 -0.3441
10030SOL    HW131531   3.213   1.142   1.694  0.5222 -0.7699 -0.6679
10030SOL    HW231532   3.294   1.217   1.798 -1.7357  0.8183  0.0422
10031SOL     OW31533   3.587   3.247   9.725 -0.0739  0.6454  0.6992
10031SOL    HW131534   3.507   3.251   9.777 -0.0391  0.5737  0.7586
10031SOL    HW231535   3.616   3.338   9.717 -0.8052  0.8148 -0.3113
10032SOL     OW31536   7.592   6.579   6.581 -0.0988 -0.3446 -0.2384
10032SOL    HW131537   7.610   6.530   6.502 -0.8479 -0.3826 -0.3905
10032SOL    HW231538   7.677   6.611   6.609  0.1242  0.0096 -1.2804
10033SOL     OW31539   5.097   1.915   8.488  0.0677 -0.2978 -0.6665
10033SOL    HW131540   5.137   1.973   8.554  0.4383 -0.7556 -0.4772
10033SOL    HW231541   5.010   1.951   8.475  0.1226  0.0279 -0.2000
10034SOL     OW31542   6.106   7.050   6.940 -0.0861  0.1161 -0.0761
10034SOL    HW131543   6.154   7.124   6.977  1.6031 -0.6977 -0.5580
10034SOL    HW231544   6.165   7.014   6.874 -0.3836 -2.3408  0.9181
10035SOL     OW31545   5.911   2.787   1.750  0.4843  0.3983 -0.5050
10035SOL    HW131546   5.854   2.770   1.825  1.1343  0.7442  0.0687
10035SOL    HW231547   5.872   2.863   1.707 -0.1473 -0.0708 -0.8006
10036SOL     OW31548   2.083   5.251   3.241  0.2983  0.0198  0.2246
10036SOL    HW131549   2.097   5.294   3.156 -1.3771  0.6655  0.2446
10036SOL    HW231550   2.043   5.167   3.218  0.2061  0.0251  0.3692
10037SOL     OW31551   3.292   5.256   2.953  0.2445 -0.4741  0.4613
10037SOL    HW131552   3.350   5.288   3.023  0.4638  0.6700 -0.2212
10037SOL    HW231553   3.266   5.169   2.982  0.1556  0.0536  2.0779
10038SOL     OW31554   1.054   6.822  10.577 -0.0334 -0.1653 -0.3727
10038SOL    HW131555   1.016   6.782  10.655  0.2016  2.1846  1.0756
10038SOL    HW231556   1.146   6.799  10.580  0.2761  1.0513  0.9300
10039SOL     OW31557   4.184   1.198  10.041 -0.2785  0.3259 -0.3497
10039SOL    HW131558   4.190   1.134   9.970  0.5903  1.0103 -0.9011
10039SOL    HW231559   4.253   1.261  10.023  0.0779  0.4121  1.2092
10040SOL     OW31560   0.810   4.383   7.699  0.0809  0.7921  0.4101
10040SOL    HW131561   0.813   4.357   7.607 -1.1209  0.9427  0.3142
10040SOL    HW231562   0.853   4.469   7.700 -4.2850  3.3002 -0.9938
10041SOL     OW31563   5.614   4.294   1.826  0.1458 -0.1786 -0.2148
10041SOL    HW131564   5.530   4.258   1.798  0.2782 -0.8698  0.2693
10041SOL    HW231565   5.599   4.389   1.828 -0.9473 -0.3490  0.8867
10042SOL     OW31566   1.184   7.018  11.130  0.4158 -0.4078 -0.0111
10042SOL    HW131567   1.245   6.998  11.059 -0.1049 -0.2883 -0.4982
10042SOL    HW231568   1.217   6.968  11.204 -1.2704 -3.8903 -1.3597
10043SOL     OW31569   5.191   0.360   8.133 -0.0614 -0.5591 -0.1008
10043SOL    HW131570   5.264   0.338   8.191 -0.0522  1.3193  0.6819
10043SOL    HW231571   5.232   0.383   8.050  0.1489 -0.5058  0.0177
10044SOL     OW31572   3.169   1.209   8.658  0.0072  0.4693 -0.3757
10044SOL    HW131573   3.181   1.268   8.583  2.5726  0.4167 -0.0761
10044SOL    HW231574   3.092   1.244   8.703 -0.2688  1.8254 -1.7944
10045SOL     OW31575   0.917   2.049   2.744 -0.2398 -0.6403  0.6617
10045SOL    HW131576   1.004   2.087   2.726  0.2099 -1.5771  0.7890
10045SOL    HW231577   0.869   2.119   2.788  0.7042 -0.3329  1.2488
10046SOL     OW31578   7.521   4.859  10.365  0.7903 -0.3380 -0.4620
10046SOL    HW131579   7.486   4.780  10.322  1.1129 -0.1837 -1.0182
10046SOL    HW231580   7.457   4.879  10.433 -0.5499  0.2901 -1.8382
10047SOL     OW31581   0.790   2.067   5.727 -0.3734 -0.6703 -0.4475
10047SOL    HW131582   0.884   2.079   5.742 -0.0334 -0.1916 -2.6611
10047SOL    HW231583   0.768   1.989   5.778  1.4173 -1.2671 -0.5030
10048SOL     OW31584   4.669   3.102   7.139  0.5586  0.5901  0.4822
10048SOL    HW131585   4.595   3.047   7.163  1.3166 -0.4901  0.4245
10048SOL    HW231586   4.688   3.153   7.218  1.4961 -1.1683  1.4574
10049SOL     OW31587   6.597   2.829   8.941 -0.2459  0.1915 -0.4970
10049SOL    HW131588   6.670   2.768   8.930  0.2689  1.0079 -1.7753
10049SOL    HW231589   6.601   2.854   9.033  0.1981 -0.8663 -0.2098
10050SOL     OW31590   5.909   1.482  11.529  0.5458  0.0875  0.3831
10050SOL    HW131591   5.913   1.387  11.514 -0.1601  0.2838 -1.2716
10050SOL    HW231592   5.999   1.512  11.520  0.6819 -0.3458  0.2723
10051SOL     OW31593   5.458   4.094   9.175  0.4558 -0.0668  0.5831
10051SOL    HW131594   5.398   4.070   9.105  1.4768 -0.4116 -0.2027
10051SOL    HW231595   5.458   4.190   9.175 -0.4048 -0.0598  0.8796
10052SOL     OW31596   0.919   6.180   9.009  0.3465  0.5367 -0.1476
10052SOL    HW131597   0.882   6.230   9.081 -0.8989 -1.2805  0.5386
10052SOL    HW231598   0.855   6.188   8.938 -0.0478 -0.3577  0.0963
10053SOL     OW31599   5.569   1.227   1.612  0.1954  0.4012  0.4366
10053SOL    HW131600   5.475   1.232   1.631 -0.4961 -0.3229 -2.3134
10053SOL    HW231601   5.590   1.313   1.575  0.1149 -0.0483 -0.7067
10054SOL     OW31602   4.004   0.192   7.281 -0.4859 -0.2660 -0.1604
10054SOL    HW131603   4.061   0.124   7.317 -0.7396  0.3469  1.5104
10054SOL    HW231604   4.044   0.215   7.197  2.2044  0.5968  1.2099
10055SOL     OW31605   2.713   4.227   4.420  0.5307 -0.2039  0.4094
10055SOL    HW131606   2.628   4.188   4.441  1.0260 -1.2056  0.5931
10055SOL    HW231607   2.776   4.180   4.475  1.3640 -0.3102 -0.5996
10056SOL     OW31608   2.387   4.354   0.870  0.4897  0.5673 -0.2989
10056SOL    HW131609   2.337   4.279   0.836  1.3357  0.2920 -0.9765
10056SOL    HW231610   2.337   4.384   0.945 -0.9117  0.5532 -1.1881
10057SOL     OW31611   7.662   5.865   2.722 -0.3973  0.2138  0.0491
10057SOL    HW131612   7.698   5.930   2.783  0.3644  0.5305 -0.7179
10057SOL    HW231613   7.737   5.815   2.692 -0.3509  1.5713 -2.3939
10058SOL     OW31614   6.837   2.584   3.007 -0.7665 -0.3270 -0.0363
10058SOL    HW131615   6.892   2.662   3.003  0.6263 -1.2097  1.0506
10058SOL    HW231616   6.753   2.616   3.041  0.0761  0.5886  1.3014
10059SOL     OW31617   3.113   0.638   7.501 -0.6862 -0.0903  0.1711
10059SOL    HW131618   3.136   0.545   7.507  3.2960  0.7589  0.8962
10059SOL    HW231619   3.055   0.653   7.575  0.3885 -1.6040  1.3868
10060SOL     OW31620   5.752   4.650  12.327  0.3550  0.2030 -0.5545
10060SOL    HW131621   5.771   4.735  12.287 -0.0249  0.3538 -0.4182
10060SOL    HW231622   5.684   4.612  12.272 -0.7773  0.7698  0.3934
10061SOL     OW31623   1.455   7.126   3.261  0.3682  0.3857  0.3025
10061SOL    HW131624   1.393   7.052   3.260 -0.1385  0.7918  0.7963
10061SOL    HW231625   1.400   7.203   3.246  0.9088  0.6647 -0.3075
10062SOL     OW31626   6.949   1.341   0.851  0.5029  0.3934 -0.5080
10062SOL    HW131627   7.005   1.269   0.820  0.3233 -0.0782  0.2243
10062SOL    HW231628   6.946   1.402   0.777  3.5574  1.4109  0.0335
10063SOL     OW31629   0.722   5.747   6.577 -0.5918 -0.1510  0.4432
10063SOL    HW131630   0.638   5.777   6.541  0.2035  1.8823  0.1275
10063SOL    HW231631   0.718   5.770   6.670  1.0803  3.8644 -0.2800
10064SOL     OW31632   6.528   7.172  12.348 -0.3721  0.2530 -0.2413
10064SOL    HW131633   6.607   7.138  12.391 -0.2606 -1.8075 -1.8793
10064SOL    HW231634   6.463   7.179  12.418  0.9361  0.9318  0.9416
10065SOL     OW31635   1.569   7.098   1.859  0.1175  0.1977 -0.2418
10065SOL    HW131636   1.533   7.144   1.783 -0.3548 -2.3458 -1.6955
10065SOL    HW231637   1.523   7.014   1.859  1.6380 -0.7018  1.6276
10066SOL     OW31638   3.724   1.758   1.698 -0.2495 -0.0124  0.1863
10066SOL    HW131639   3.752   1.827   1.759  0.3242  0.3613 -0.4870
10066SOL    HW231640   3.805   1.729   1.657 -0.4328 -1.3840  0.7490
10067SOL     OW31641   7.321   3.555   5.544  0.0866  0.1512 -0.2920
10067SOL    HW131642   7.390   3.568   5.479  1.3520  0.6015  1.1143
10067SOL    HW231643   7.360   3.579   5.627 -0.6731 -2.7967  1.0669
10068SOL     OW31644   4.267   4.079   5.724  0.2277 -0.7043  0.1786
10068SOL    HW131645   4.285   4.157   5.671 -0.6062 -1.1310 -0.7689
10068SOL    HW231646   4.188   4.042   5.685 -0.3409 -1.1091  1.6650
10069SOL     OW31647   0.887   0.340   9.862 -0.2764  0.4243  0.7313
10069SOL    HW131648   0.932   0.424   9.859  0.5866  0.0142  1.4870
10069SOL    HW231649   0.950   0.281   9.904 -0.4320 -0.8762 -0.7699
10070SOL     OW31650   7.376   2.440  10.205 -0.0684 -0.2533  0.2771
10070SOL    HW131651   7.437   2.366  10.199  1.3470  0.9042 -0.3511
10070SOL    HW231652   7.393   2.478  10.291  2.4201  1.8737 -0.9858
10071SOL     OW31653   2.005   2.429   8.440 -0.3398 -0.3259 -0.4113
10071SOL    HW131654   2.088   2.447   8.484  0.2293 -1.9374 -0.7860
10071SOL    HW231655   1.939   2.438   8.509  0.2862 -0.3832  0.2036
10072SOL     OW31656   4.219   7.347   1.042  0.2631  0.5794 -0.0425
10072SOL    HW131657   4.166   7.280   1.085 -0.0125  1.1038  0.4439
10072SOL    HW231658   4.303   7.305   1.026  0.5358  0.5190  1.4451
10073SOL     OW31659   4.656   4.987  10.563  0.0180 -0.5242 -0.4100
10073SOL    HW131660   4.633   5.036  10.642  0.1034 -0.3685 -0.4821
10073SOL    HW231661   4.646   5.050  10.491  1.6440 -0.1569 -0.3442
10074SOL     OW31662   7.740   5.734  10.456 -0.4979 -0.2172 -0.1949
10074SOL    HW131663   7.670   5.714  10.518 -0.7931 -0.6913 -0.6781
10074SOL    HW231664   7.746   5.656  10.401  0.2850 -0.1067 -0.2793
10075SOL     OW31665   1.816   7.147   9.966  0.4620 -0.0046  0.4839
10075SOL    HW131666   1.840   7.117  10.053 -0.2888 -0.8363  0.4217
10075SOL    HW231667   1.808   7.066   9.914 -0.5173  0.3721  0.0206
10076SOL     OW31668   7.224   2.151   1.064  0.1322  0.3147  0.1511
10076SOL    HW131669   7.274   2.224   1.027  0.1438 -0.0964 -0.6656
10076SOL    HW231670   7.139   2.155   1.019 -0.0006  0.0392  0.3731
10077SOL     OW31671   2.741   5.488   7.164  0.7124 -0.7936  0.1073
10077SOL    HW131672   2.648   5.484   7.144  1.2823 -0.6463 -3.2296
10077SOL    HW231673   2.759   5.581   7.180  0.2190 -0.9110  1.4463
10078SOL     OW31674   2.289   0.545  10.873 -0.5668 -0.4188 -0.1474
10078SOL    HW131675   2.230   0.549  10.798  4.1765  1.6623 -4.4093
10078SOL    HW231676   2.330   0.458  10.866  0.3660  0.0328 -0.5222
10079SOL     OW31677   6.047   0.730   9.091 -0.0900 -0.3415 -0.1041
10079SOL    HW131678   6.104   0.659   9.120 -0.5824 -0.8329 -0.3187
10079SOL    HW231679   5.964   0.715   9.137 -0.6050 -0.6402 -1.0843
10080SOL     OW31680   4.884   6.205   1.136 -0.2464 -0.0449  0.1147
10080SOL    HW131681   4.804   6.159   1.113  0.6466 -1.3340 -0.5207
10080SOL    HW231682   4.931   6.144   1.193  0.2358  0.7448  0.5819
10081SOL     OW31683   2.437   6.223  11.819  0.1549  0.3388 -0.1346
10081SOL    HW131684   2.509   6.160  11.809  0.9316  1.1391  0.3334
10081SOL    HW231685   2.462   6.277  11.893 -0.9430  0.6352  0.0434
10082SOL     OW31686   1.233   1.456   7.347  0.5673 -0.1756  0.2220
10082SOL    HW131687   1.256   1.507   7.270 -2.8211  0.7539 -0.3378
10082SOL    HW231688   1.231   1.520   7.418 -0.1104 -0.2295  0.2598
10083SOL     OW31689   6.776   7.608  10.128  0.4147 -0.0820  0.0890
10083SOL    HW131690   6.784   7.518  10.159  0.3035 -0.1712 -0.1390
10083SOL    HW231691   6.723   7.601  10.049  1.2847  0.0593 -0.5131
10084SOL     OW31692   6.233   2.472   3.949  0.2745 -0.0797 -0.2489
10084SOL    HW131693   6.315   2.429   3.925 -0.6107 -1.7037 -0.5048
10084SOL    HW231694   6.227   2.461   4.044  0.3639  0.0587 -0.2272
10085SOL     OW31695   5.535   3.576   6.762 -0.0629 -0.2613  0.1594
10085SOL    HW131696   5.488   3.643   6.811  0.8704 -0.4204  1.3180
10085SOL    HW231697   5.479   3.559   6.685 -0.0350  2.2379 -0.5080
10086SOL     OW31698   1.761   1.052   3.424 -0.6300  0.3844  0.1923
10086SOL    HW131699   1.808   1.136   3.428  1.7287 -0.9226  2.1330
10086SOL    HW231700   1.668   1.076   3.432 -0.0918  2.8249 -0.1246
10087SOL     OW31701   1.139   4.007   7.859  0.6865  0.4704 -0.4739
10087SOL    HW131702   1.115   3.937   7.799  0.1504 -0.0287  0.3183
10087SOL    HW231703   1.064   4.068   7.855  0.1997 -0.0574  0.4295
10088SOL     OW31704   6.440   6.529  11.020  1.0037 -0.5641  0.2522
10088SOL    HW131705   6.472   6.619  11.019 -0.7584  0.1315  1.2399
10088SOL    HW231706   6.476   6.492  11.100 -0.4513  0.1947  1.3233
10089SOL     OW31707   3.173   5.935   5.594 -0.1971 -0.2862  0.0615
10089SOL    HW131708   3.219   5.955   5.512 -0.1028 -0.7003  0.0160
10089SOL    HW231709   3.096   5.992   5.591  1.4365  2.1459  1.2095
10090SOL     OW31710   2.689   7.212   6.730 -0.2959  0.2186 -0.4952
10090SOL    HW131711   2.663   7.121   6.719 -0.9059  0.1932  0.9922
10090SOL    HW231712   2.612   7.263   6.704 -1.3432  0.1795  2.1748
10091SOL     OW31713   0.954   3.969   0.860  0.2120 -0.4460 -0.0092
10091SOL    HW131714   0.898   3.983   0.936 -0.6166  1.3331 -0.8893
10091SOL    HW231715   0.894   3.938   0.792  0.0257  2.3248 -1.2261
10092SOL     OW31716   2.614   3.091   7.411 -0.0313  0.2812 -0.5173
10092SOL    HW131717   2.604   3.185   7.425  0.7242  0.3110 -0.1230
10092SOL    HW231718   2.707   3.074   7.425  0.0125 -0.3746 -1.5346
10093SOL     OW31719   0.532   3.824   2.628  0.4018 -0.5520 -0.2712
10093SOL    HW131720   0.482   3.903   2.604 -0.0892 -0.4850  0.8615
10093SOL    HW231721   0.483   3.752   2.589 -0.9641 -0.5348  1.3113
10094SOL     OW31722   1.777   6.993   3.923 -0.5992 -0.6632  0.7606
10094SOL    HW131723   1.721   6.929   3.967  0.2558  0.1407  3.1907
10094SOL    HW231724   1.728   7.075   3.928 -0.3525 -0.4989  0.4881
10095SOL     OW31725   7.653   2.268   1.622  0.6819  0.1818 -0.0557
10095SOL    HW131726   7.685   2.273   1.712  1.5978  0.5560 -0.3920
10095SOL    HW231727   7.605   2.185   1.619 -1.9150  1.4709  1.5587
10096SOL     OW31728   0.062   4.337   2.385  0.0216  0.4869  0.4117
10096SOL    HW131729  -0.009   4.352   2.323 -1.1240  1.0624  1.7837
10096SOL    HW231730   0.139   4.322   2.331 -1.4754 -2.2305 -1.2024
10097SOL     OW31731   3.779   6.660   6.523  0.3690  0.3216 -0.2566
10097SOL    HW131732   3.696   6.639   6.567  1.1270 -2.0878  0.1731
10097SOL    HW231733   3.754   6.685   6.434 -0.8230 -0.8399 -0.2792
10098SOL     OW31734   4.031   5.156   4.856  0.0442  0.1706 -0.2874
10098SOL    HW131735   3.968   5.086   4.876 -0.9993  1.3829  0.8461
10098SOL    HW231736   4.110   5.132   4.903  0.4425 -1.3128 -1.6262
10099SOL     OW31737   6.064   6.640  10.859 -0.3366 -0.6049  0.0266
10099SOL    HW131738   6.088   6.730  10.837 -0.7115  0.1343  2.3541
10099SOL    HW231739   5.969   6.640  10.864 -0.4665 -1.5897 -1.5231
10100SOL     OW31740   4.042   0.293   6.001  0.4293  0.7870 -0.0594
10100SOL    HW131741   4.128   0.304   6.042  0.0604  0.9448  0.7001
10100SOL    HW231742   4.012   0.383   5.984  0.5472  0.7221 -0.6008
10101SOL     OW31743   6.116   5.976   4.612  0.4912  0.2742 -0.6175
10101SOL    HW131744   6.136   5.944   4.700  1.8197 -0.6861 -1.2165
10101SOL    HW231745   6.077   6.062   4.625  2.1166  0.8422  0.8557
10102SOL     OW31746   4.478   3.063   7.476  0.0867 -0.3106 -0.0197
10102SOL    HW131747   4.455   3.018   7.394  1.3189  0.2806 -0.7178
10102SOL    HW231748   4.492   2.992   7.539  3.6151 -1.1392 -1.5195
10103SOL     OW31749   0.934   5.190   5.484  0.0107 -0.3519  0.2561
10103SOL    HW131750   0.980   5.271   5.508 -0.5139  0.2780 -0.8264
10103SOL    HW231751   0.935   5.189   5.389  1.7683 -2.6404  0.2118
10104SOL     OW31752   3.376   3.958   1.097 -0.0542  0.3526 -0.1168
10104SOL    HW131753   3.463   3.967   1.058 -0.5037  1.5816 -0.8734
10104SOL    HW231754   3.316   3.963   1.022 -0.9817  3.4516  0.7009
10105SOL     OW31755   0.439   2.449  12.123  0.3034 -0.2561 -0.0573
10105SOL    HW131756   0.479   2.478  12.041  0.0392 -1.5835 -0.6748
10105SOL    HW231757   0.511   2.443  12.185  0.2833  2.3889  0.3285
10106SOL     OW31758   7.348   6.550  10.608  0.6461 -0.4651  0.2776
10106SOL    HW131759   7.271   6.495  10.624 -1.0813  1.2717 -1.4993
10106SOL    HW231760   7.418   6.488  10.588 -0.7459 -2.0825  0.1608
10107SOL     OW31761   1.640   4.805   1.534  0.0880  0.6288  0.0294
10107SOL    HW131762   1.554   4.845   1.547 -0.6093 -0.7575 -0.1011
10107SOL    HW231763   1.660   4.823   1.442 -1.0997 -0.8670 -0.5789
10108SOL     OW31764   0.720   5.761   5.514 -0.5831 -0.1159  0.2364
10108SOL    HW131765   0.765   5.766   5.429 -1.4151 -0.0751 -0.2113
10108SOL    HW231766   0.629   5.781   5.494 -0.4635  1.9767  1.4358
10109SOL     OW31767   7.362   0.276  10.043  0.3561  0.2339 -0.3968
10109SOL    HW131768   7.334   0.361  10.010  1.3698  1.3488  1.4340
10109SOL    HW231769   7.282   0.238  10.081 -0.0467  0.4674 -0.9978
10110SOL     OW31770   3.118   4.692   4.325  0.8179  0.0744  0.4059
10110SOL    HW131771   3.095   4.621   4.384  1.7300  0.3883  1.1582
10110SOL    HW231772   3.074   4.670   4.242 -1.5252  0.2575  1.5084
10111SOL     OW31773   0.064   4.752   8.713  0.3141  0.3848  0.0659
10111SOL    HW131774   0.112   4.670   8.698  0.8962  0.1663  2.5807
10111SOL    HW231775   0.027   4.775   8.628  2.0225 -1.2870 -1.2001
10112SOL     OW31776   4.409   5.625   0.241  0.3340 -0.1324 -0.3376
10112SOL    HW131777   4.353   5.657   0.170 -1.6669  0.9521  1.6152
10112SOL    HW231778   4.361   5.550   0.278  1.3866 -0.7408 -0.1584
10113SOL     OW31779   0.109   7.885   5.199  0.6273 -0.2642 -0.2617
10113SOL    HW131780   0.151   7.878   5.285 -0.8975 -1.9796  0.4116
10113SOL    HW231781   0.045   7.955   5.210  0.8075 -0.1103 -0.1770
10114SOL     OW31782   4.805   3.318   2.736 -0.4309 -0.0085 -0.0553
10114SOL    HW131783   4.836   3.316   2.646 -1.0184  0.7035 -0.2770
10114SOL    HW231784   4.851   3.246   2.778  0.5433  0.2234 -0.6933
10115SOL     OW31785   3.966   0.523   4.709  0.1493 -0.4947  0.0820
10115SOL    HW131786   3.881   0.481   4.724 -0.9918  1.6790  0.1315
10115SOL    HW231787   3.969   0.536   4.614  0.7001 -1.0779  0.0172
10116SOL     OW31788   4.002   1.588   0.384 -0.0770  0.4529 -0.1060
10116SOL    HW131789   4.084   1.581   0.434 -0.3637 -1.3689  0.1660
10116SOL    HW231790   4.025   1.558   0.296 -0.5146 -0.4000  0.0634
10117SOL     OW31791   7.697   4.231   5.063 -0.2641  0.1276 -0.2530
10117SOL    HW131792   7.616   4.263   5.101 -0.3433 -1.6299  1.2337
10117SOL    HW231793   7.688   4.135   5.065  2.7419 -0.2465  2.2005
10118SOL     OW31794   0.516   7.707   7.941 -0.6193 -0.9521 -0.4421
10118SOL    HW131795   0.559   7.770   7.884 -1.1668 -0.6410 -0.5277
10118SOL    HW231796   0.548   7.729   8.029  1.0071 -2.0866 -0.7134
10119SOL     OW31797   1.675   0.276   3.249 -0.5747 -0.3545 -0.2140
10119SOL    HW131798   1.709   0.203   3.198 -0.0586 -0.5392  0.3825
10119SOL    HW231799   1.696   0.354   3.196 -1.2296 -0.6381 -0.9021
10120SOL     OW31800   5.375   1.963  10.759  0.2587  0.3190  0.1664
10120SOL    HW131801   5.452   2.017  10.743 -1.2907  2.6482  0.0439
10120SOL    HW231802   5.346   1.987  10.847 -0.9082  0.2603 -0.1855
10121SOL     OW31803   3.505   1.574   2.823 -0.1129 -0.3708 -1.2058
10121SOL    HW131804   3.489   1.517   2.898 -0.7006 -1.1672 -1.9201
10121SOL    HW231805   3.465   1.529   2.749 -1.9643  1.6880 -1.5626
10122SOL     OW31806   5.558   3.756   0.538  0.0073  0.0068 -0.2560
10122SOL    HW131807   5.513   3.840   0.545  0.7750  0.2826  2.3106
10122SOL    HW231808   5.488   3.693   0.523 -0.6278  0.9922 -1.7387
10123SOL     OW31809   5.653   5.836   2.681  0.2660 -0.0812  0.4928
10123SOL    HW131810   5.560   5.853   2.696 -0.2397 -1.8633 -0.3577
10123SOL    HW231811   5.672   5.755   2.729  1.2066 -0.1147  0.1037
10124SOL     OW31812   6.628   1.133  11.695  0.0360 -0.2225 -0.4784
10124SOL    HW131813   6.704   1.106  11.747 -0.6130 -1.1868  0.0089
10124SOL    HW231814   6.599   1.216  11.735 -1.1098 -1.4818  1.4784
10125SOL     OW31815   3.302   0.082   7.878 -0.0366 -0.1758  0.6220
10125SOL    HW131816   3.343   0.104   7.795 -0.2104 -0.0350  0.5737
10125SOL    HW231817   3.363   0.020   7.919  0.6518  0.7081  0.9522
10126SOL     OW31818   4.403   6.648  10.487  0.4916 -0.5361  0.4163
10126SOL    HW131819   4.477   6.695  10.448  1.1623 -1.4238  0.5749
10126SOL    HW231820   4.326   6.689  10.449  1.0635  0.4369  0.2739
10127SOL     OW31821   1.038   6.637   7.366 -0.3846  0.7537  0.3097
10127SOL    HW131822   1.105   6.569   7.362 -1.7406 -0.6206 -3.7288
10127SOL    HW231823   1.082   6.716   7.336  0.1859  0.6965  0.9700
10128SOL     OW31824   1.222   5.429   1.620 -0.0372  0.0896 -0.0143
10128SOL    HW131825   1.168   5.433   1.541  1.0465  1.1689 -0.7387
10128SOL    HW231826   1.188   5.499   1.676  0.8061  1.0416 -0.6415
10129SOL     OW31827   4.903   7.249   2.433  0.0733  0.1413 -0.4314
10129SOL    HW131828   4.934   7.219   2.519  2.3866 -0.7142 -1.4929
10129SOL    HW231829   4.955   7.327   2.414 -0.3901  0.2983 -1.0822
10130SOL     OW31830   5.564   3.136   6.950 -0.3786  0.0845  0.3771
10130SOL    HW131831   5.616   3.085   6.889  3.1578 -0.9378  3.7768
10130SOL    HW231832   5.599   3.225   6.942 -0.0536 -0.0094  0.7001
10131SOL     OW31833   5.536   5.336   6.508 -0.0681  0.1605 -0.0972
10131SOL    HW131834   5.586   5.280   6.449  1.3551 -0.7778  1.8762
10131SOL    HW231835   5.498   5.275   6.571 -0.1222  1.2541  0.9578
10132SOL     OW31836   1.536   6.715   3.764 -0.2242 -0.2999  0.3401
10132SOL    HW131837   1.561   6.627   3.735 -0.9995 -0.0745 -1.1482
10132SOL    HW231838   1.618   6.762   3.774  0.2263 -1.3051  1.6027
10133SOL     OW31839   2.085   3.228   1.730  0.1561 -0.3944 -0.5789
10133SOL    HW131840   2.024   3.277   1.675  0.6743 -0.4437 -1.2135
10133SOL    HW231841   2.172   3.253   1.697  0.4770 -0.4450  0.1987
10134SOL     OW31842   3.539   6.107  11.381 -0.6232  0.2447 -0.1158
10134SOL    HW131843   3.596   6.180  11.357 -0.4254  0.4658  0.9717
10134SOL    HW231844   3.552   6.096  11.475 -0.9687 -0.9238 -0.1863
10135SOL     OW31845   0.301   0.782   0.876  0.0728  0.1496 -0.5830
10135SOL    HW131846   0.274   0.772   0.785 -2.0876  3.2658 -0.4311
10135SOL    HW231847   0.365   0.853   0.875 -1.3997  1.5501  0.4608
10136SOL     OW31848   7.300   7.262   3.178  0.2853 -0.2483 -0.1009
10136SOL    HW131849   7.342   7.279   3.094  0.3164 -1.6752 -0.3852
10136SOL    HW231850   7.308   7.345   3.226  0.8130  0.3859 -1.2588
10137SOL     OW31851   7.862   6.761  12.247 -0.3224 -0.1193  0.3671
10137SOL    HW131852   7.860   6.780  12.341  1.0513  2.0525 -0.0006
10137SOL    HW231853   7.954   6.747  12.227 -0.2872  1.7662 -1.0384
10138SOL     OW31854   3.349   3.432  11.205 -0.1227  0.6350  0.0111
10138SOL    HW131855   3.441   3.406  11.199 -0.3267 -0.3268  0.9012
10138SOL    HW231856   3.349   3.523  11.175  1.4181  1.2676  1.6988
10139SOL     OW31857   5.855   3.383  12.154  0.3747  0.2922  0.3042
10139SOL    HW131858   5.924   3.363  12.217 -1.5244 -1.4830  1.9786
10139SOL    HW231859   5.777   3.395  12.208 -0.7483  1.8985 -1.5354
10140SOL     OW31860   5.426   2.857   3.037  0.2224  0.5020  0.8077
10140SOL    HW131861   5.393   2.780   3.083 -0.3592 -0.6448 -1.4049
10140SOL    HW231862   5.517   2.836   3.016 -0.1035  0.1504 -0.2981
10141SOL     OW31863   4.589   6.097  11.571  0.3960 -0.1700 -0.0950
10141SOL    HW131864   4.577   6.125  11.480 -1.0595  1.1338  0.4468
10141SOL    HW231865   4.518   6.035  11.586 -1.7652  2.4185  1.1614
10142SOL     OW31866   0.776   1.429   4.840  0.4261  0.2466  0.5762
10142SOL    HW131867   0.744   1.345   4.809  1.7738 -0.0939  0.0834
10142SOL    HW231868   0.748   1.492   4.773  0.3077  0.0432  0.4345
10143SOL     OW31869   2.543   5.333  12.422 -0.0730  0.4861  0.4795
10143SOL    HW131870   2.480   5.406  12.424 -1.0858 -0.3716  1.8809
10143SOL    HW231871   2.492   5.257  12.450  0.8890 -0.8510 -1.1598
10144SOL     OW31872   2.671   6.131   1.014  0.2968  0.4463 -0.2651
10144SOL    HW131873   2.628   6.050   0.988 -2.1749  1.3159  0.8204
10144SOL    HW231874   2.695   6.117   1.105 -0.8537  1.1796  0.1649
10145SOL     OW31875   2.487   2.046   3.646  0.3441  0.1209  0.3495
10145SOL    HW131876   2.503   2.140   3.646 -0.0398  0.3034 -2.5966
10145SOL    HW231877   2.398   2.036   3.680 -0.1973  1.0373 -0.7145
10146SOL     OW31878   3.462   4.620   8.438 -0.3048  0.0602  0.3002
10146SOL    HW131879   3.374   4.649   8.462 -0.2139  1.7001 -1.1739
10146SOL    HW231880   3.456   4.524   8.434 -1.2641 -0.0774  2.9380
10147SOL     OW31881   1.556   7.023   7.626  0.1012 -0.2709  0.1896
10147SOL    HW131882   1.575   7.115   7.648  0.2409 -0.0833 -0.6861
10147SOL    HW231883   1.471   7.026   7.584 -0.1386 -0.6201  0.6457
10148SOL     OW31884   5.351   3.434   7.078 -0.0762 -0.1449  0.3073
10148SOL    HW131885   5.411   3.506   7.058 -1.7770  1.2964  0.0566
10148SOL    HW231886   5.269   3.478   7.101 -0.8721 -2.0088  1.2370
10149SOL     OW31887   0.466   3.873   5.460  0.0739 -0.9809 -0.0592
10149SOL    HW131888   0.379   3.913   5.462 -0.9207 -3.0348 -0.0880
10149SOL    HW231889   0.461   3.806   5.391  2.0176 -0.4556 -0.7822
10150SOL     OW31890   4.073   5.964   6.229  0.7762  0.0670 -0.0594
10150SOL    HW131891   4.033   5.973   6.315 -0.6253  0.7980 -0.7605
10150SOL    HW231892   4.128   5.886   6.236 -3.4365 -3.2945  0.0071
10151SOL     OW31893   5.147   3.607   6.720 -0.1993  0.1534  0.0532
10151SOL    HW131894   5.177   3.693   6.752  0.4153  0.2479 -0.7520
10151SOL    HW231895   5.221   3.573   6.670 -0.0870 -1.2744  1.1279
10152SOL     OW31896   6.317   0.196   8.734 -0.3814  0.3684  0.0331
10152SOL    HW131897   6.390   0.179   8.674  0.3544  1.3555  0.6159
10152SOL    HW231898   6.299   0.289   8.725  0.7231  0.8766  2.3619
10153SOL     OW31899   4.958   5.999   5.672 -0.0886  0.0008  0.0303
10153SOL    HW131900   5.040   6.047   5.656  1.0998 -1.2796  1.8532
10153SOL    HW231901   4.938   6.016   5.764 -1.4442 -0.3547 -0.1807
10154SOL     OW31902   6.268   3.160   6.914 -0.0513  0.0402  0.7062
10154SOL    HW131903   6.280   3.227   6.846  0.6978  0.1218  0.9114
10154SOL    HW231904   6.253   3.080   6.865  0.9177  0.0182  0.4211
10155SOL     OW31905   6.867   7.111   7.835 -0.6101  0.4635 -0.3623
10155SOL    HW131906   6.912   7.035   7.797  1.2079  1.3174 -0.0490
10155SOL    HW231907   6.778   7.105   7.802 -0.5043 -1.7616 -0.3964
10156SOL     OW31908   1.603   6.573   6.275  0.2046 -0.4617  0.3198
10156SOL    HW131909   1.684   6.569   6.326  0.1760 -1.4853  0.3044
10156SOL    HW231910   1.625   6.627   6.199  0.9406 -0.9445  0.1855
10157SOL     OW31911   1.998   2.206   3.356 -0.4095  0.1478  0.4273
10157SOL    HW131912   1.947   2.248   3.287  0.1400 -0.5301 -0.4128
10157SOL    HW231913   2.087   2.202   3.321 -0.1679 -0.4162  1.0868
10158SOL     OW31914   2.571   3.193   0.871 -0.6127 -0.0561  0.8022
10158SOL    HW131915   2.594   3.149   0.789 -3.7999 -2.4975  1.0038
10158SOL    HW231916   2.652   3.194   0.922  0.7749 -1.1212 -1.2581
10159SOL     OW31917   3.591   0.646   2.745  0.0974 -0.1570 -0.2076
10159SOL    HW131918   3.642   0.568   2.769 -0.1227  0.0558  1.0427
10159SOL    HW231919   3.501   0.616   2.741 -0.1932  0.2789  1.7563
10160SOL     OW31920   4.112   4.329   3.160 -0.0755  0.2982  0.4527
10160SOL    HW131921   4.061   4.264   3.112  3.7117 -2.0973 -0.7227
10160SOL    HW231922   4.085   4.318   3.251  1.4960 -4.3130  0.5951
10161SOL     OW31923   6.418   4.878   1.385 -0.1799 -0.1625  0.4957
10161SOL    HW131924   6.378   4.903   1.468 -0.9219 -0.0382  0.1073
10161SOL    HW231925   6.345   4.849   1.330  0.0351  1.5340 -0.7568
10162SOL     OW31926   7.191   3.006   9.484 -0.1371  0.6895  0.1986
10162SOL    HW131927   7.128   2.942   9.515  0.1648 -0.4204 -1.3724
10162SOL    HW231928   7.146   3.091   9.494 -2.1964 -0.1043 -1.5000
10163SOL     OW31929   7.210   4.893   3.501  0.9127  0.4359 -0.2950
10163SOL    HW131930   7.301   4.872   3.481  0.7361  0.5773 -1.3199
10163SOL    HW231931   7.191   4.843   3.580  1.2547 -1.2925 -1.2527
10164SOL     OW31932   3.302   1.184   3.393 -0.3163  0.0353 -0.1894
10164SOL    HW131933   3.392   1.218   3.398  0.2181 -1.0710 -1.6902
10164SOL    HW231934   3.312   1.093   3.367 -1.9055  0.1001 -1.1220
10165SOL     OW31935   3.455   3.172   5.317  0.0035 -0.6270 -0.0363
10165SOL    HW131936   3.476   3.138   5.404  0.1325  0.7676  0.5032
10165SOL    HW231937   3.498   3.111   5.257 -0.0939 -1.6179  0.8643
10166SOL     OW31938   4.843   6.727   6.677  0.3715  0.3482  0.1368
10166SOL    HW131939   4.790   6.712   6.755  0.9309 -0.0976  0.4405
10166SOL    HW231940   4.875   6.640   6.653 -1.7631  0.0632 -2.0390
10167SOL     OW31941   0.096   4.821   8.962 -0.1238 -0.2424  0.2114
10167SOL    HW131942   0.039   4.898   8.961  0.5401  0.2628  0.3197
10167SOL    HW231943   0.102   4.795   8.870 -2.6691 -1.9533  0.4211
10168SOL     OW31944   4.656   3.108   3.451 -0.1591 -0.2799 -0.6274
10168SOL    HW131945   4.594   3.057   3.504  1.2043 -0.7511  0.6109
10168SOL    HW231946   4.605   3.137   3.376 -2.1311  0.1615  0.7829
10169SOL     OW31947   2.860   1.986   1.751  0.4284 -0.2322 -0.3283
10169SOL    HW131948   2.934   2.045   1.765  0.1015 -0.1348  1.1683
10169SOL    HW231949   2.798   2.038   1.699  1.2386 -0.1975 -1.2967
10170SOL     OW31950   7.127   2.354   7.754  0.0324 -0.4843 -0.4126
10170SOL    HW131951   7.090   2.305   7.827 -1.5336  1.8606  0.5027
10170SOL    HW231952   7.071   2.431   7.746  3.1234  1.9517 -0.7294
10171SOL     OW31953   4.853   6.495   4.444  0.4737  0.4463 -0.8700
10171SOL    HW131954   4.917   6.479   4.375  0.1400  0.2203 -1.1299
10171SOL    HW231955   4.800   6.415   4.447  1.2760 -0.0640  0.5008
10172SOL     OW31956   6.880   4.642  11.685  0.0998  0.3530 -0.2390
10172SOL    HW131957   6.831   4.609  11.610  1.4933  0.8112 -1.4045
10172SOL    HW231958   6.824   4.625  11.761 -1.0124 -0.8196 -1.2893
10173SOL     OW31959   0.783   1.806   2.838  0.3525  0.3154  0.8585
10173SOL    HW131960   0.698   1.849   2.828  0.3398  0.0742 -0.1458
10173SOL    HW231961   0.846   1.875   2.817  0.3410 -0.0221 -0.3721
10174SOL     OW31962   4.008   1.612   9.612 -0.3202 -0.0021  0.7020
10174SOL    HW131963   4.081   1.644   9.560 -0.2002 -0.5101  0.5552
10174SOL    HW231964   3.945   1.684   9.613 -0.0877  0.2038  0.3045
10175SOL     OW31965   4.138   1.467   7.682 -0.3336  0.0306 -0.1991
10175SOL    HW131966   4.140   1.555   7.719 -0.8458  0.4067 -1.0453
10175SOL    HW231967   4.199   1.470   7.608 -1.3938  0.0849 -1.0922
10176SOL     OW31968   2.225   1.073   8.468  0.1213 -0.2393  0.9485
10176SOL    HW131969   2.318   1.084   8.447  0.3903  0.4284  2.3650
10176SOL    HW231970   2.224   1.002   8.533 -0.4051 -0.4967  0.6665
10177SOL     OW31971   0.412   3.456   6.427  0.9155 -0.2632 -0.0451
10177SOL    HW131972   0.487   3.397   6.429  1.2710  0.1457 -0.7898
10177SOL    HW231973   0.416   3.496   6.340 -0.5239 -0.7020 -0.3288
10178SOL     OW31974   0.269   6.643   1.855 -0.1108 -0.4505  0.4561
10178SOL    HW131975   0.275   6.734   1.885 -0.9741  0.9188 -2.9189
10178SOL    HW231976   0.319   6.642   1.773 -0.0454 -3.0672  0.4527
10179SOL     OW31977   2.250   6.436   9.780 -0.3602  0.4894  0.2241
10179SOL    HW131978   2.239   6.342   9.766  0.5736  0.5037 -0.7706
10179SOL    HW231979   2.215   6.476   9.700  1.5328  0.8231 -0.4762
10180SOL     OW31980   3.059   1.185   4.434  0.3740 -0.7658  0.7807
10180SOL    HW131981   3.077   1.217   4.345 -0.4597 -0.5671  0.6751
10180SOL    HW231982   3.069   1.090   4.427  0.8351 -0.7083  0.6043
10181SOL     OW31983   7.153   7.426  12.304 -0.0559 -0.2773 -0.4822
10181SOL    HW131984   7.097   7.454  12.377  0.6041  2.3829 -0.8974
10181SOL    HW231985   7.228   7.384  12.347 -1.5436 -2.5095  0.1294
10182SOL     OW31986   0.748   0.558   5.554 -0.2859  0.4343  0.4089
10182SOL    HW131987   0.679   0.493   5.537 -0.2213  0.0439  1.5389
10182SOL    HW231988   0.806   0.551   5.479 -1.2932  0.5278 -0.3987
10183SOL     OW31989   4.213   5.210   5.785  0.2523 -0.5944 -0.4139
10183SOL    HW131990   4.233   5.151   5.712 -0.2446  0.3315 -1.3227
10183SOL    HW231991   4.117   5.217   5.783  0.3305  0.5485 -0.5761
10184SOL     OW31992   0.845   4.486   3.941  0.8494 -0.4760 -0.6018
10184SOL    HW131993   0.853   4.482   4.036 -0.5668  0.0724 -0.4346
10184SOL    HW231994   0.822   4.577   3.922 -1.4896 -1.1092 -1.1939
10185SOL     OW31995   6.967   1.060   3.013 -0.4060  0.4742 -0.6729
10185SOL    HW131996   6.990   1.127   3.077 -1.0366 -0.3697  0.4700
10185SOL    HW231997   6.984   1.101   2.928  0.1988  1.7059  0.0206
10186SOL     OW31998   5.103   5.969   1.851 -0.2772  0.1661  0.2351
10186SOL    HW131999   5.173   5.925   1.899 -0.1743  0.8047  0.6800
10186SOL    HW232000   5.113   5.937   1.761 -0.5196 -1.0818  0.6416
10187SOL     OW32001   6.590   2.493   2.641 -0.0795  0.5329 -0.6206
10187SOL    HW132002   6.649   2.567   2.653  0.5325  0.3160 -2.0642
10187SOL    HW232003   6.575   2.489   2.546 -0.7926 -0.6555 -0.4846
10188SOL     OW32004   7.315   2.136   2.877 -0.0363  0.1872 -0.3839
10188SOL    HW132005   7.405   2.145   2.908  0.1843 -3.4792  0.4514
10188SOL    HW232006   7.324   2.093   2.791 -0.9666  2.9442 -1.9881
10189SOL     OW32007   2.594   7.288  10.065  0.5751 -0.1869 -0.0822
10189SOL    HW132008   2.541   7.208  10.075  0.1190  0.2173  0.8456
10189SOL    HW232009   2.682   7.260  10.091  0.0450  0.0399  2.2055
10190SOL     OW32010   1.394   5.568   2.875 -0.1292  0.3383 -0.0784
10190SOL    HW132011   1.334   5.549   2.804 -0.0766 -2.3399  0.5083
10190SOL    HW232012   1.471   5.606   2.832 -1.6949  2.7924 -0.9360
10191SOL     OW32013   5.995   6.987   5.210  0.0781 -0.0656 -0.8455
10191SOL    HW132014   6.073   7.033   5.179 -0.3878  0.7946 -0.7544
10191SOL    HW232015   5.998   6.997   5.305 -0.1971  0.0531 -0.8493
10192SOL     OW32016   1.091   2.466   5.227 -0.3393  0.4501  0.1269
10192SOL    HW132017   1.003   2.489   5.258 -0.6925  1.0118 -1.2177
10192SOL    HW232018   1.111   2.383   5.271 -1.5150  0.3530  0.5123
10193SOL     OW32019   7.061   3.544   7.298  0.0831 -0.3980  0.2301
10193SOL    HW132020   7.110   3.462   7.302 -1.0125 -1.0587  0.5312
10193SOL    HW232021   7.033   3.559   7.388  0.5028  0.4603  0.2239
10194SOL     OW32022   5.889   7.533  11.367 -0.1696 -0.3016 -0.0167
10194SOL    HW132023   5.962   7.515  11.308 -0.5605 -0.4349 -0.4695
10194SOL    HW232024   5.821   7.471  11.340 -0.7326  0.3549 -0.1244
10195SOL     OW32025   0.511   0.163  12.301  0.1019  0.0924 -0.0097
10195SOL    HW132026   0.418   0.185  12.304  0.0429  0.1924 -1.6827
10195SOL    HW232027   0.556   0.242  12.330 -0.3024  0.4897 -0.4507
10196SOL     OW32028   2.942   3.575   5.440  0.1582  0.3641 -0.1168
10196SOL    HW132029   2.945   3.645   5.374 -2.1461  1.0955  0.4359
10196SOL    HW232030   2.980   3.615   5.519  0.7098  0.2956 -0.3438
10197SOL     OW32031   1.318   7.279   3.588 -0.3429  0.1249  0.2696
10197SOL    HW132032   1.395   7.223   3.598 -0.7078 -0.3256  0.5937
10197SOL    HW232033   1.352   7.360   3.550  0.4442  0.2743  1.2402
10198SOL     OW32034   6.273   1.425   7.385  0.5797 -0.1264  0.3386
10198SOL    HW132035   6.217   1.470   7.447  0.6667  0.5293 -0.0447
10198SOL    HW232036   6.328   1.368   7.438  1.4668  1.2850  0.9939
10199SOL     OW32037   7.908   5.871   3.075  0.1458 -0.0475  0.4468
10199SOL    HW132038   7.821   5.830   3.070  0.5962 -1.0490  0.4236
10199SOL    HW232039   7.914   5.902   3.166  0.0844 -0.7517  0.7044
10200SOL     OW32040   2.811   2.338   4.136  0.4255 -0.5167 -0.1025
10200SOL    HW132041   2.753   2.267   4.106  0.3946  0.0004 -1.3208
10200SOL    HW232042   2.899   2.310   4.112  0.2792  0.5098 -2.0239
10201SOL     OW32043   4.914   1.822  10.779 -0.1569  0.1081  0.0275
10201SOL    HW132044   4.886   1.808  10.869 -1.8982  1.7547 -0.1921
10201SOL    HW232045   4.950   1.738  10.751 -0.1295 -0.5915  2.0518
10202SOL     OW32046   4.915   3.434  10.784 -0.2334 -0.4276 -1.0774
10202SOL    HW132047   4.927   3.524  10.752  0.3457 -0.0120  0.2501
10202SOL    HW232048   4.955   3.380  10.717  2.0020  0.4913 -0.5805
10203SOL     OW32049   3.383   7.600   4.914  0.2303  0.1011 -0.7115
10203SOL    HW132050   3.450   7.632   4.974  0.6256  0.3507 -1.2866
10203SOL    HW232051   3.407   7.508   4.899  1.6274  0.7053 -2.4892
10204SOL     OW32052   1.240   5.875   3.567 -0.1293 -0.1464 -0.0590
10204SOL    HW132053   1.213   5.965   3.549 -1.9173 -1.1134 -2.8973
10204SOL    HW232054   1.171   5.840   3.623 -0.5053 -0.3062 -0.6165
10205SOL     OW32055   5.071   7.140  10.351  0.2536  0.0367  0.2598
10205SOL    HW132056   5.147   7.137  10.293 -1.2385 -0.0244 -1.8154
10205SOL    HW232057   4.996   7.134  10.292 -1.3787  0.0496  2.2275
10206SOL     OW32058   4.789   2.175  12.379 -0.2360  0.0047  0.2894
10206SOL    HW132059   4.758   2.087  12.403 -0.2461  0.1095  0.6680
10206SOL    HW232060   4.714   2.232  12.392  0.0338  0.2162  0.9441
10207SOL     OW32061   7.614   0.304   0.615 -0.3207  0.8986  0.4691
10207SOL    HW132062   7.677   0.376   0.622  1.8244 -0.6465 -1.3585
10207SOL    HW232063   7.572   0.318   0.529 -1.5178  1.1400  1.0697
10208SOL     OW32064   2.143   2.073  10.493  0.5002 -0.4743  0.0674
10208SOL    HW132065   2.113   2.057  10.403 -2.5429 -2.1186  1.2081
10208SOL    HW232066   2.147   2.168  10.500 -2.6668 -0.1525 -0.9041
10209SOL     OW32067   6.423   6.805   4.196  0.2885 -0.2004  0.0347
10209SOL    HW132068   6.442   6.757   4.277  1.7651 -0.5484 -0.4823
10209SOL    HW232069   6.386   6.739   4.137 -1.9747  0.3069  0.7713
10210SOL     OW32070   3.801   5.266   1.662  0.3031 -0.6355  0.5103
10210SOL    HW132071   3.712   5.236   1.646 -0.2192 -0.3959  2.6540
10210SOL    HW232072   3.856   5.209   1.608 -1.1840  0.6478 -2.6492
10211SOL     OW32073   5.460   7.433  10.516 -0.1487 -0.3189  0.3985
10211SOL    HW132074   5.387   7.379  10.548 -0.2567 -0.4873 -0.1272
10211SOL    HW232075   5.524   7.371  10.484 -0.4704 -0.1372 -0.6360
10212SOL     OW32076   6.485   6.626  12.000 -0.0987 -0.8500 -0.4249
10212SOL    HW132077   6.556   6.568  11.972 -0.6081 -0.8753 -1.6959
10212SOL    HW232078   6.497   6.706  11.949 -0.6571 -0.6391 -0.2288
10213SOL     OW32079   3.371   6.198  10.871 -0.4053  0.1531 -0.3332
10213SOL    HW132080   3.360   6.192  10.966  0.5000 -2.0786 -0.3004
10213SOL    HW232081   3.303   6.141  10.835  0.8743 -1.1203 -0.8476
10214SOL     OW32082   6.338   1.712   7.602  0.3019 -0.4669 -0.1639
10214SOL    HW132083   6.408   1.654   7.571  1.2972 -0.2113  1.4794
10214SOL    HW232084   6.363   1.799   7.571  0.3747 -0.4842 -0.1545
10215SOL     OW32085   4.855   1.765   6.867  0.0751 -0.0072 -0.0163
10215SOL    HW132086   4.875   1.844   6.816  0.1245  0.1015  0.1728
10215SOL    HW232087   4.765   1.744   6.843  0.0202  0.1756  0.0233
10216SOL     OW32088   5.472   6.164   7.604  0.1974 -0.2451  0.3570
10216SOL    HW132089   5.378   6.177   7.608  0.3387  0.9915  0.1482
10216SOL    HW232090   5.492   6.165   7.510  0.4564 -0.1253  0.4113
10217SOL     OW32091   5.834   6.014   2.824 -0.7063 -0.0373 -0.0761
10217SOL    HW132092   5.771   6.084   2.807 -0.9387 -0.2919 -0.2766
10217SOL    HW232093   5.794   5.936   2.786 -0.5599 -0.3272  0.3483
10218SOL     OW32094   3.454   7.544   1.340  0.1591  0.1643  0.2037
10218SOL    HW132095   3.453   7.588   1.255  1.5445  1.0532  0.6053
10218SOL    HW232096   3.454   7.615   1.404 -0.8669 -0.4959  0.9564
10219SOL     OW32097   4.894   5.710   2.276  0.1852 -0.0370 -0.1639
10219SOL    HW132098   4.821   5.654   2.304 -1.4463  2.1298  0.1299
10219SOL    HW232099   4.955   5.708   2.349 -0.0207 -1.0842  0.0071
10220SOL     OW32100   5.248   7.491   4.932  0.0340 -0.1777 -0.1761
10220SOL    HW132101   5.283   7.575   4.902  0.0219  0.0652  0.4683
10220SOL    HW232102   5.279   7.483   5.022  0.5290 -1.1481 -0.4232
10221SOL     OW32103   6.462   7.029   8.522 -0.0035  0.7072  0.1176
10221SOL    HW132104   6.408   7.063   8.593 -0.3069  1.4036 -0.4346
10221SOL    HW232105   6.400   6.984   8.465  0.4022 -0.8985  0.8774
10222SOL     OW32106   4.928   4.730   8.629 -0.0637  0.8137  0.4489
10222SOL    HW132107   5.022   4.723   8.613 -0.1451 -0.9411  0.5484
10222SOL    HW232108   4.919   4.723   8.724 -0.3570 -0.4322  0.3509
10223SOL     OW32109   1.574   5.678   6.287  0.9620 -0.1965 -0.2374
10223SOL    HW132110   1.660   5.672   6.245  1.0638  0.2960 -0.1050
10223SOL    HW232111   1.594   5.688   6.380  0.7768  0.5233 -0.2693
10224SOL     OW32112   0.005   6.884   5.972  0.2892  0.1149 -0.0143
10224SOL    HW132113   0.007   6.852   6.062 -0.4775 -0.6264 -0.2575
10224SOL    HW232114   0.088   6.855   5.935  0.4144  0.0383  0.3181
10225SOL     OW32115   5.615   2.951   4.179  0.0357 -0.1634 -0.3204
10225SOL    HW132116   5.708   2.975   4.173 -0.3324  1.1062 -1.4636
10225SOL    HW232117   5.610   2.892   4.254  1.4176  1.4546  1.1262
10226SOL     OW32118   1.898   6.789   0.489  0.4102 -0.5434  0.3274
10226SOL    HW132119   1.960   6.848   0.445  0.9102 -1.2500  0.0736
10226SOL    HW232120   1.856   6.741   0.418  0.1244 -0.6229  0.5473
10227SOL     OW32121   5.357   0.776   4.538  0.0224 -0.3943  0.1934
10227SOL    HW132122   5.381   0.869   4.540 -1.8782  0.1291  0.8238
10227SOL    HW232123   5.264   0.775   4.560  0.1638 -2.5213  0.8862
10228SOL     OW32124   0.019   0.740   3.409 -0.4605 -0.5887 -0.2323
10228SOL    HW132125   0.042   0.825   3.372  0.1174  0.7289  2.9045
10228SOL    HW232126  -0.054   0.710   3.354 -0.0153  1.4090 -2.0568
10229SOL     OW32127   4.100   6.996   2.355 -0.0948 -0.6713  0.0605
10229SOL    HW132128   4.110   6.995   2.260 -0.1902  0.6112  0.0156
10229SOL    HW232129   4.006   6.999   2.370 -0.0586  0.7444  0.1357
10230SOL     OW32130   7.963   7.795   2.207  0.1535  0.3122  0.1809
10230SOL    HW132131   7.992   7.886   2.195 -0.2155  0.3131 -0.7336
10230SOL    HW232132   7.871   7.795   2.181  0.2378 -0.3902 -0.1512
10231SOL     OW32133   6.640   2.458   0.079  0.2378  0.0650  0.2063
10231SOL    HW132134   6.600   2.463  -0.007  1.2071 -5.0562 -0.8475
10231SOL    HW232135   6.731   2.435   0.062  1.0339  1.0740  2.6535
10232SOL     OW32136   7.807   1.206   5.308  0.5178  0.5815  0.1989
10232SOL    HW132137   7.852   1.134   5.263 -2.1288 -0.8552 -0.3668
10232SOL    HW232138   7.828   1.284   5.256  0.6828 -0.3736 -1.2137
10233SOL     OW32139   0.550   1.499  11.875  0.5146  0.3569 -0.7100
10233SOL    HW132140   0.559   1.404  11.871 -0.2281  0.0685  2.1885
10233SOL    HW232141   0.458   1.516  11.852 -0.0793  0.0629  1.2983
10234SOL     OW32142   0.161   7.923  10.963 -0.1683  0.7846 -0.5230
10234SOL    HW132143   0.097   7.995  10.963 -0.5187  0.4953  0.5650
10234SOL    HW232144   0.130   7.864  10.894 -1.1185  0.6386  0.0004
10235SOL     OW32145   1.870   3.117   4.146 -0.1147 -0.1102 -0.1258
10235SOL    HW132146   1.919   3.193   4.177  0.8303 -0.1759 -1.3688
10235SOL    HW232147   1.784   3.151   4.123 -0.2177  0.2738  0.8031
10236SOL     OW32148   7.719   0.085   3.950 -0.1129 -0.3832  0.5013
10236SOL    HW132149   7.716   0.173   3.986 -0.4626  0.6459 -1.8683
10236SOL    HW232150   7.795   0.044   3.991  0.2008  1.1064  1.4532
10237SOL     OW32151   1.849   4.872   7.248 -0.2687 -0.6664 -0.3302
10237SOL    HW132152   1.936   4.840   7.227  0.2718  0.3098  0.3277
10237SOL    HW232153   1.825   4.928   7.175  0.7385  1.0716  0.6124
10238SOL     OW32154   2.639   3.742   1.274 -0.1788 -0.3885  0.0327
10238SOL    HW132155   2.562   3.798   1.267 -0.2103 -0.6455 -2.2376
10238SOL    HW232156   2.713   3.802   1.263 -0.0206 -0.2062  1.7976
10239SOL     OW32157   3.033   0.526   9.701  0.2642  0.1782 -0.3512
10239SOL    HW132158   3.036   0.601   9.760  0.3028 -1.1797  1.4942
10239SOL    HW232159   3.003   0.454   9.757  0.3052 -1.1936 -2.0198
10240SOL     OW32160   2.028   2.834   4.916 -0.4538  0.3546 -0.1112
10240SOL    HW132161   1.958   2.891   4.946 -0.0560  0.6591  0.2586
10240SOL    HW232162   2.080   2.816   4.995 -0.4932 -0.4086 -0.2483
10241SOL     OW32163   2.094   5.955   2.390  0.4914 -0.1010  0.1941
10241SOL    HW132164   2.054   5.935   2.474  0.9106 -0.9242  0.1975
10241SOL    HW232165   2.167   6.013   2.411  0.5250 -0.2119  0.3798
10242SOL     OW32166   2.247   6.098   4.612 -0.3265 -0.0580 -0.1933
10242SOL    HW132167   2.215   6.175   4.566 -0.9729 -1.4771 -2.2423
10242SOL    HW232168   2.322   6.068   4.561 -0.1908 -0.8951  0.4734
10243SOL     OW32169   7.262   6.772   1.081 -0.2894  0.5870 -0.2138
10243SOL    HW132170   7.231   6.862   1.089  0.0851  0.6182  1.1383
10243SOL    HW232171   7.291   6.749   1.169  0.2407 -0.6346 -0.6894
10244SOL     OW32172   2.083   5.766   9.630  0.5295  0.0372 -0.0707
10244SOL    HW132173   2.095   5.795   9.539  0.7113 -0.4670 -0.2057
10244SOL    HW232174   1.988   5.768   9.642  0.5729  2.7767  0.6059
10245SOL     OW32175   3.764   2.547   0.614 -0.0235  0.2313  0.2713
10245SOL    HW132176   3.820   2.470   0.609  1.0762  1.0631 -0.8406
10245SOL    HW232177   3.717   2.549   0.531  0.5211  1.1553 -0.0307
10246SOL     OW32178   7.882   6.786   2.535 -0.3778  0.3442 -0.2119
10246SOL    HW132179   7.817   6.757   2.472 -1.4662  0.2363  0.9374
10246SOL    HW232180   7.924   6.861   2.492 -0.3245 -0.3811 -1.4992
10247SOL     OW32181   4.669   6.923   0.921  0.3482  0.2016 -0.9724
10247SOL    HW132182   4.692   7.016   0.918 -0.1393  0.3063 -3.6583
10247SOL    HW232183   4.574   6.922   0.915  0.3747 -0.4751 -1.3607
10248SOL     OW32184   3.853   5.436   1.070 -0.1782 -0.4953 -0.3112
10248SOL    HW132185   3.804   5.518   1.071  1.2337  0.3857 -0.3588
10248SOL    HW232186   3.906   5.441   0.991  0.9460 -0.8030  0.3941
10249SOL     OW32187   6.535   5.529   8.412  0.6569 -0.0200  0.1831
10249SOL    HW132188   6.473   5.469   8.370 -0.4739  0.7914  0.6618
10249SOL    HW232189   6.577   5.477   8.480 -0.1425 -0.3349  0.4386
10250SOL     OW32190   4.593   5.854   0.318  0.5440  0.3175 -0.1890
10250SOL    HW132191   4.678   5.839   0.358 -0.1955  1.0155  1.7615
10250SOL    HW232192   4.562   5.766   0.294  2.0203  0.1032 -1.5085
10251SOL     OW32193   5.769   6.892  12.003 -0.3311 -0.4243 -0.5072
10251SOL    HW132194   5.790   6.952  12.075 -1.7418  1.6095 -1.6760
10251SOL    HW232195   5.831   6.914  11.934 -0.2668 -0.9630 -0.6268
10252SOL     OW32196   5.610   5.950  12.263  0.3499  0.0078 -0.3168
10252SOL    HW132197   5.554   5.947  12.186 -0.2109  2.4039 -0.0838
10252SOL    HW232198   5.555   5.917  12.334 -0.1323  0.4733 -0.4613
10253SOL     OW32199   6.138   2.204   5.805  0.0097 -0.0561 -0.4701
10253SOL    HW132200   6.203   2.240   5.865 -0.7150 -0.5657  0.6645
10253SOL    HW232201   6.101   2.129   5.852 -0.7543 -0.3203 -1.4563
10254SOL     OW32202   4.810   5.105   2.468  0.5756  0.3174 -0.2305
10254SOL    HW132203   4.881   5.056   2.508  0.5619 -0.9086 -1.6055
10254SOL    HW232204   4.792   5.058   2.386 -1.1803  1.1430 -0.3624
10255SOL     OW32205   3.983   6.743   4.273 -0.0326  0.4348  0.9637
10255SOL    HW132206   4.003   6.829   4.237 -0.7101  0.3313  0.3095
10255SOL    HW232207   4.053   6.725   4.335  0.7613  0.9434  0.2235
10256SOL     OW32208   2.831   7.248   7.868  0.1777 -0.1450  0.1931
10256SOL    HW132209   2.821   7.172   7.810 -1.1918  1.2072 -1.4405
10256SOL    HW232210   2.742   7.268   7.897  0.4288  1.2503  0.0501
10257SOL     OW32211   2.994   4.522   9.643 -0.6920 -0.3106  0.4001
10257SOL    HW132212   3.080   4.557   9.667 -0.9728  0.5460  0.1750
10257SOL    HW232213   2.954   4.497   9.726 -1.3430  1.9021  0.7942
10258SOL     OW32214   3.757   3.168   9.942  0.0236  0.0696 -0.2587
10258SOL    HW132215   3.812   3.121   9.879  1.0654 -1.4136  1.6178
10258SOL    HW232216   3.670   3.168   9.902  0.0179 -3.2755 -0.5794
10259SOL     OW32217   0.829   4.861   0.442  0.1609  0.7134  0.3200
10259SOL    HW132218   0.781   4.944   0.437  0.9186  1.2814  1.8070
10259SOL    HW232219   0.762   4.796   0.461 -0.6428  0.7097 -2.1525
10260SOL     OW32220   6.814   6.308   7.383  0.0945 -0.0723 -0.6022
10260SOL    HW132221   6.907   6.323   7.403  0.0249 -0.8164  0.3660
10260SOL    HW232222   6.809   6.216   7.359 -0.8496 -0.9938  2.6057
10261SOL     OW32223   3.446   0.776   4.071 -0.2206  0.0915 -0.2414
10261SOL    HW132224   3.437   0.812   4.159  1.2548 -0.9516  0.3730
10261SOL    HW232225   3.505   0.837   4.026 -0.2397  0.1282 -0.2168
10262SOL     OW32226   5.677   2.631  11.796  0.3371  0.2679 -0.2043
10262SOL    HW132227   5.645   2.684  11.869  1.5769 -1.4244  1.6741
10262SOL    HW232228   5.600   2.615  11.742 -0.9569  0.2739  1.5868
10263SOL     OW32229   6.505   3.017   9.441  0.7083 -0.1595  0.1974
10263SOL    HW132230   6.567   2.955   9.480 -0.2174 -1.5074 -0.3819
10263SOL    HW232231   6.452   3.046   9.515  1.7416  0.6912  0.6271
10264SOL     OW32232   5.844   0.895   5.620  0.6758 -0.3052 -0.5011
10264SOL    HW132233   5.825   0.819   5.674  1.5302 -0.0269  0.2105
10264SOL    HW232234   5.887   0.859   5.542  1.1929 -0.5395 -0.1095
10265SOL     OW32235   2.442   3.417   2.373  0.5281 -0.4512  0.1934
10265SOL    HW132236   2.449   3.340   2.316  1.5680  0.7969 -1.4413
10265SOL    HW232237   2.456   3.491   2.315 -0.7390  1.0202  1.6816
10266SOL     OW32238   7.240   2.772  10.121  0.1124 -0.4603  0.3910
10266SOL    HW132239   7.274   2.836  10.185  1.6843 -0.9111  0.0440
10266SOL    HW232240   7.167   2.730  10.166  2.2594 -2.0380  2.6732
10267SOL     OW32241   6.124   4.175   4.006 -0.4156 -0.5772 -0.8919
10267SOL    HW132242   6.117   4.144   3.915 -0.1173 -2.0935 -0.4223
10267SOL    HW232243   6.108   4.097   4.059 -0.1819  0.2088  0.3613
10268SOL     OW32244   0.283   1.188   2.509  0.1580  0.5809  0.4085
10268SOL    HW132245   0.235   1.124   2.562  1.3849  0.6311  1.6456
10268SOL    HW232246   0.248   1.177   2.421 -2.2810  0.7902  1.2580
10269SOL     OW32247   0.619   1.254   3.932 -0.4689  0.3130 -0.1485
10269SOL    HW132248   0.628   1.190   3.861 -0.7908  0.1814 -0.0749
10269SOL    HW232249   0.529   1.242   3.963  0.5726 -1.8892  2.4038
10270SOL     OW32250   6.159   6.206   8.316  0.5144  0.5395 -0.0139
10270SOL    HW132251   6.174   6.298   8.334 -1.2531  0.9306 -0.4031
10270SOL    HW232252   6.065   6.199   8.297  0.4384 -1.4535  0.7753
10271SOL     OW32253   2.468   3.997   4.173 -0.4877  0.6238  0.4507
10271SOL    HW132254   2.480   3.910   4.134 -0.6703  0.2141  1.2787
10271SOL    HW232255   2.443   4.053   4.099  0.5856  0.1955 -0.2620
10272SOL     OW32256   4.462   0.130   3.706  0.4672 -0.1511 -0.0346
10272SOL    HW132257   4.428   0.218   3.720  2.0644  0.2841  1.4226
10272SOL    HW232258   4.399   0.072   3.749  0.3643  0.4303  0.6156
10273SOL     OW32259   0.901   2.689   3.428  0.1683 -0.0744 -0.6703
10273SOL    HW132260   0.885   2.781   3.406  1.8098  0.4544  0.1900
10273SOL    HW232261   0.973   2.663   3.371  0.0101 -0.7109 -0.5870
10274SOL     OW32262   6.937   7.625   8.150 -0.6564 -0.0471 -0.0526
10274SOL    HW132263   6.942   7.694   8.217 -0.7799  2.5951 -2.5960
10274SOL    HW232264   6.863   7.650   8.095  1.0113 -0.6011 -2.7128
10275SOL     OW32265   6.252   7.201   0.103 -0.1220  0.3696  0.1205
10275SOL    HW132266   6.241   7.109   0.124  1.5467  0.4386  1.4949
10275SOL    HW232267   6.312   7.235   0.169  0.2884  2.1603 -1.0682
10276SOL     OW32268   4.810   3.935   5.707 -0.5333  0.1456  0.2910
10276SOL    HW132269   4.776   3.950   5.618 -0.4226  2.4422  0.5583
10276SOL    HW232270   4.732   3.923   5.761 -0.5785 -2.6535 -0.2347
10277SOL     OW32271   5.867   5.422   9.535 -0.8137  0.3647  0.5241
10277SOL    HW132272   5.784   5.388   9.568  0.4302 -1.1836  2.3299
10277SOL    HW232273   5.918   5.344   9.514  1.2761  1.0949  2.4644
10278SOL     OW32274   5.425   4.619   7.794  0.3325 -0.0751  0.2419
10278SOL    HW132275   5.495   4.573   7.748 -0.6457  0.2186 -1.6224
10278SOL    HW232276   5.413   4.568   7.875  3.7925  0.8366  1.5275
10279SOL     OW32277   4.961   6.185  11.762 -0.1110  0.2840 -0.1199
10279SOL    HW132278   5.046   6.158  11.795 -0.3379  1.0932  1.1602
10279SOL    HW232279   4.943   6.269  11.803 -1.6005  0.0661 -0.2404
10280SOL     OW32280   6.602   0.991  10.503 -0.4499 -0.1506 -0.2128
10280SOL    HW132281   6.645   0.983  10.588 -2.0937 -0.9736  0.5816
10280SOL    HW232282   6.674   0.988  10.440  0.6579 -2.0534  1.0211
10281SOL     OW32283   7.009   1.227  10.946  0.0643 -0.2085  0.0042
10281SOL    HW132284   7.091   1.255  10.905 -0.6244  1.0611 -0.5815
10281SOL    HW232285   6.942   1.249  10.881 -0.8549 -0.1377  0.9534
10282SOL     OW32286   3.092   2.722   7.698 -0.3302 -0.6589  0.2650
10282SOL    HW132287   3.164   2.674   7.658 -0.3620 -1.2181  0.8621
10282SOL    HW232288   3.134   2.781   7.761 -0.4162 -1.5523  1.1986
10283SOL     OW32289   7.840   3.018   5.884 -0.1967 -0.0354 -0.1449
10283SOL    HW132290   7.842   2.940   5.939 -0.8928  0.3634  0.4522
10283SOL    HW232291   7.768   3.003   5.823  0.1122 -0.1561 -0.4886
10284SOL     OW32292   4.305   4.132   2.437 -0.6220 -0.3798  0.2862
10284SOL    HW132293   4.343   4.220   2.434 -1.2876 -0.1119 -0.5186
10284SOL    HW232294   4.230   4.139   2.496 -1.2163 -0.1810 -0.4791
10285SOL     OW32295   4.673   4.244   0.528  0.3896 -0.1207  0.2530
10285SOL    HW132296   4.751   4.298   0.541  0.8829 -0.7946  0.1538
10285SOL    HW232297   4.694   4.161   0.571 -0.1759 -0.3959  0.0079
10286SOL     OW32298   7.359   4.706  11.025  0.5881 -0.0840 -0.5771
10286SOL    HW132299   7.272   4.747  11.028  0.2363 -0.8729  0.9663
10286SOL    HW232300   7.345   4.618  11.059  2.0854 -0.0180  0.2871
10287SOL     OW32301   0.743   4.803   2.408  0.1508  0.3595  0.4725
10287SOL    HW132302   0.802   4.842   2.343  0.5488  0.2109  0.7423
10287SOL    HW232303   0.673   4.867   2.418 -0.3770 -0.0007 -0.7515
10288SOL     OW32304   7.307   7.426   8.926 -0.3245  0.0828  0.2693
10288SOL    HW132305   7.388   7.387   8.895  0.0300  0.6127  0.5112
10288SOL    HW232306   7.257   7.353   8.962  0.1354 -0.2139  0.3165
10289SOL     OW32307   0.684   4.268   0.714  0.1290 -0.3445  0.0418
10289SOL    HW132308   0.614   4.279   0.779  0.1653  1.9915 -0.2449
10289SOL    HW232309   0.640   4.278   0.630  0.4249 -1.3522 -0.2449
10290SOL     OW32310   1.401   4.831  11.818 -0.2137  0.1680 -0.2828
10290SOL    HW132311   1.317   4.800  11.786  0.1072 -0.9416 -0.1039
10290SOL    HW232312   1.385   4.854  11.910 -0.4736  0.6103 -0.4377
10291SOL     OW32313   6.753   7.924   1.730  0.0443  0.5633 -0.2853
10291SOL    HW132314   6.660   7.921   1.705 -0.5015  1.6017  1.4422
10291SOL    HW232315   6.788   8.000   1.685  0.1895 -0.1148 -1.3302
10292SOL     OW32316   0.325   4.507   0.072  0.2394 -0.1494 -0.6901
10292SOL    HW132317   0.380   4.579   0.101  2.2363 -1.3031 -1.3932
10292SOL    HW232318   0.276   4.480   0.151  2.1557 -0.3178  0.5086
10293SOL     OW32319   2.180   6.906   3.222 -0.3420 -0.0720  0.2995
10293SOL    HW132320   2.181   6.880   3.130  1.6235  0.8862 -0.0147
10293SOL    HW232321   2.193   6.825   3.270  0.4454 -0.3573 -0.3780
10294SOL     OW32322   2.660   0.230  11.237  0.1192 -0.4640 -0.4355
10294SOL    HW132323   2.685   0.321  11.220 -0.1258 -0.5354 -1.2137
10294SOL    HW232324   2.570   0.223  11.206  0.5683 -1.3077 -1.6323
10295SOL     OW32325   6.429   0.616   1.551 -0.1930 -0.5815 -0.7038
10295SOL    HW132326   6.420   0.526   1.520  1.2899 -1.5066  1.2616
10295SOL    HW232327   6.360   0.626   1.617  0.3899 -0.7288 -0.0569
10296SOL     OW32328   6.298   1.296  11.654 -0.9336  0.1888  0.4370
10296SOL    HW132329   6.346   1.222  11.691 -0.8961 -1.2736 -2.2366
10296SOL    HW232330   6.213   1.293  11.696 -0.7379 -1.0710  0.7824
10297SOL     OW32331   0.269   6.930   4.940 -0.0586 -0.6706 -0.6731
10297SOL    HW132332   0.325   7.005   4.962 -0.6201 -1.0156  2.2199
10297SOL    HW232333   0.293   6.909   4.849  0.6630  2.4925 -1.3516
10298SOL     OW32334   6.353   1.221   3.290 -0.6603  0.0620 -0.7391
10298SOL    HW132335   6.271   1.232   3.338 -1.2564 -0.0412 -1.6891
10298SOL    HW232336   6.400   1.152   3.338 -1.4266 -0.3461 -0.5540
10299SOL     OW32337   6.726   0.499  10.215 -0.4597  0.4066  0.4459
10299SOL    HW132338   6.688   0.544  10.290  0.9745  1.9058  0.3164
10299SOL    HW232339   6.802   0.453  10.250 -1.6497 -1.6166  0.4860
10300SOL     OW32340   3.261   7.928   1.029  0.4445  0.1359 -0.0212
10300SOL    HW132341   3.308   7.922   0.945 -0.0573  0.3116 -0.3151
10300SOL    HW232342   3.220   7.842   1.040  0.7917 -0.0040  0.2171
10301SOL     OW32343   7.004   0.375  11.397  0.2715  0.3316  0.6656
10301SOL    HW132344   7.020   0.434  11.324  0.9159  0.1328  0.6407
10301SOL    HW232345   7.074   0.394  11.459  0.0041  0.1674  1.0245
10302SOL     OW32346   6.272   4.547   8.194  0.4085 -0.0459  0.0405
10302SOL    HW132347   6.274   4.538   8.099  1.4958  0.6043 -0.0187
10302SOL    HW232348   6.344   4.607   8.214  0.1176 -0.0722  1.2655
10303SOL     OW32349   1.602   3.556   5.834  0.1116 -0.6791  0.1128
10303SOL    HW132350   1.524   3.612   5.828  1.0388  0.5672 -0.9010
10303SOL    HW232351   1.670   3.614   5.867  0.9579 -1.3536 -0.4038
10304SOL     OW32352   0.827   3.268   7.954 -0.3568 -0.1206 -0.9586
10304SOL    HW132353   0.906   3.230   7.994 -2.1000  0.2234  3.3081
10304SOL    HW232354   0.849   3.360   7.941 -0.0386 -0.0028  0.2831
10305SOL     OW32355   7.878   3.350  11.842 -0.8618 -0.5744  0.0459
10305SOL    HW132356   7.973   3.363  11.847 -0.7042 -1.7232  0.3738
10305SOL    HW232357   7.864   3.262  11.878 -1.7490 -1.5219 -2.3867
10306SOL     OW32358   3.629   2.836   9.398 -0.0634 -0.3609  0.1821
10306SOL    HW132359   3.704   2.896   9.388  0.3701 -1.0114 -0.5381
10306SOL    HW232360   3.564   2.888   9.445  0.2681  0.7183 -0.5029
10307SOL     OW32361   7.931   7.926   0.337  0.4797  0.0258  0.7203
10307SOL    HW132362   7.975   8.010   0.348 -0.5153  0.4330  1.7696
10307SOL    HW232363   7.854   7.945   0.283  0.6846 -0.3730  0.2771
10308SOL     OW32364   0.431   0.165   3.278  0.0187 -0.5554 -0.6196
10308SOL    HW132365   0.464   0.235   3.334  0.0372  0.1739 -1.5183
10308SOL    HW232366   0.351   0.200   3.240  2.4677  1.0634 -4.9371
10309SOL     OW32367   7.400   0.521  10.449 -0.2737 -0.0227  0.2002
10309SOL    HW132368   7.332   0.534  10.515 -0.1339  0.6979  0.2127
10309SOL    HW232369   7.462   0.593  10.464  0.9388 -1.1367  0.7263
10310SOL     OW32370   1.089   6.217  11.862 -0.8417 -0.0674  0.5893
10310SOL    HW132371   1.174   6.176  11.876 -0.4828  0.7445  0.8485
10310SOL    HW232372   1.069   6.199  11.770 -0.7956 -0.9936  0.7530
10311SOL     OW32373   3.824   0.134   0.594  0.1767 -0.1265  0.4890
10311SOL    HW132374   3.762   0.088   0.652 -0.2642  2.5790  2.3699
10311SOL    HW232375   3.769   0.170   0.525  0.2635 -0.8730  0.0167
10312SOL     OW32376   7.567   1.760   5.992  0.3105  0.0398 -0.4348
10312SOL    HW132377   7.649   1.810   5.993 -0.4454  1.3978 -1.5591
10312SOL    HW232378   7.592   1.672   6.021  2.1023  0.5013 -0.4351
10313SOL     OW32379   4.437   5.238   3.488  0.0762 -0.1070 -0.3246
10313SOL    HW132380   4.516   5.277   3.450 -0.2995  1.4397  0.4080
10313SOL    HW232381   4.469   5.166   3.542  1.0618  0.9301  0.5079
10314SOL     OW32382   3.318   1.009   3.875 -0.3978 -0.2523  0.3174
10314SOL    HW132383   3.287   0.966   3.795 -0.5413 -2.9052  1.6472
10314SOL    HW232384   3.412   0.991   3.877  0.2367  2.4771 -0.6756
10315SOL     OW32385   6.143   3.913   0.608 -0.3231 -0.2813 -0.2494
10315SOL    HW132386   6.074   3.890   0.670 -0.3293  0.8518  0.1864
10315SOL    HW232387   6.200   3.973   0.657  1.0419 -1.2734 -0.5563
10316SOL     OW32388   5.149   5.039   4.411  0.0593 -0.1781 -0.4057
10316SOL    HW132389   5.216   4.971   4.404  1.2191  1.0073 -1.4915
10316SOL    HW232390   5.100   5.033   4.329 -2.9321 -2.6636  1.3300
10317SOL     OW32391   2.181   6.899   3.597  0.7221  0.1314  0.1668
10317SOL    HW132392   2.128   6.931   3.670 -2.3219 -0.6809 -1.5140
10317SOL    HW232393   2.191   6.975   3.540 -0.3648 -0.1443 -0.4223
10318SOL     OW32394   1.994   5.997  11.924  0.9644  0.4315  0.4108
10318SOL    HW132395   2.067   6.058  11.930 -0.1076  1.9499 -1.0949
10318SOL    HW232396   1.978   5.987  11.830 -0.0218 -0.8013  0.6774
10319SOL     OW32397   1.099   0.995   8.696  0.4245 -0.1514  0.5751
10319SOL    HW132398   1.072   0.982   8.605  0.5045  2.9416 -0.0035
10319SOL    HW232399   1.191   0.969   8.698  0.4572 -0.1166 -0.2780
10320SOL     OW32400   4.141   0.986   8.479 -0.1067 -0.1728  0.1570
10320SOL    HW132401   4.123   1.076   8.451 -0.5501  0.3462  1.9527
10320SOL    HW232402   4.156   0.993   8.574  0.0161 -1.9694  0.3080
10321SOL     OW32403   6.556   0.648   3.483 -0.3620 -0.8686 -0.1599
10321SOL    HW132404   6.577   0.577   3.544  1.6718 -0.1595  0.0548
10321SOL    HW232405   6.605   0.723   3.516 -1.1958  0.2113 -1.2910
10322SOL     OW32406   3.177   5.934   6.909  0.0846  0.2643  0.5068
10322SOL    HW132407   3.217   6.020   6.917 -0.5506  0.5365  0.8253
10322SOL    HW232408   3.251   5.873   6.908  0.5069  0.7455  1.1993
10323SOL     OW32409   7.074   3.257   5.702  0.3726 -0.2950  0.3190
10323SOL    HW132410   7.125   3.189   5.658  1.1668  0.4048  0.1455
10323SOL    HW232411   7.121   3.274   5.783 -0.4513 -0.7522  0.9093
10324SOL     OW32412   1.646   4.748   8.791 -0.0572  0.0811 -0.3625
10324SOL    HW132413   1.662   4.833   8.751 -1.4885  1.0098  0.9205
10324SOL    HW232414   1.585   4.766   8.863  1.0464 -1.7498  1.1324
10325SOL     OW32415   6.749   6.073   3.269 -0.8500 -0.0840  0.6285
10325SOL    HW132416   6.696   6.002   3.233  0.8773 -0.7067 -0.8456
10325SOL    HW232417   6.708   6.093   3.354 -0.2716 -4.2073  2.1029
10326SOL     OW32418   3.100   1.059   4.042 -0.0106  0.5830 -0.3634
10326SOL    HW132419   3.182   1.029   4.003 -0.0796  1.2690 -1.0570
10326SOL    HW232420   3.064   0.981   4.085 -0.3115 -0.4434 -2.3330
10327SOL     OW32421   4.148   3.731   2.666 -0.2423  0.1097 -0.1546
10327SOL    HW132422   4.121   3.669   2.598  1.2205 -2.2238  1.2401
10327SOL    HW232423   4.225   3.774   2.628 -0.6600  0.3501 -0.7523
10328SOL     OW32424   7.937   6.588   7.930  0.5858 -0.0441 -0.2635
10328SOL    HW132425   7.962   6.544   7.849  1.7851 -0.6154  0.4015
10328SOL    HW232426   7.930   6.681   7.906 -1.9965 -0.5123 -1.6792
10329SOL     OW32427   5.284   6.385   8.001  0.0637 -0.1849 -0.0965
10329SOL    HW132428   5.268   6.455   7.939  2.6783  1.9878  1.4620
10329SOL    HW232429   5.359   6.337   7.965  1.1615  0.6727  0.9637
10330SOL     OW32430   7.756   6.102   4.662  0.0744 -0.4235 -0.2239
10330SOL    HW132431   7.666   6.129   4.642 -0.4984 -2.2801 -0.3364
10330SOL    HW232432   7.752   6.006   4.667  1.7577 -0.4751  1.2230
10331SOL     OW32433   0.984   7.514  11.592 -0.0816  0.4308  0.1144
10331SOL    HW132434   0.998   7.606  11.614  0.5234  0.7942 -1.6667
10331SOL    HW232435   0.889   7.503  11.592 -0.1509  0.9591  0.6437
10332SOL     OW32436   6.781   2.319   7.601 -0.2307 -0.1122 -0.1806
10332SOL    HW132437   6.712   2.337   7.664  1.2702  2.0356  0.9871
10332SOL    HW232438   6.829   2.245   7.637 -1.7574 -1.5823 -0.9693
10333SOL     OW32439   6.726   7.805   3.559 -0.0425  0.2837 -0.4383
10333SOL    HW132440   6.808   7.755   3.552 -1.4107 -2.2427  0.0830
10333SOL    HW232441   6.698   7.816   3.468  1.0047  1.4875 -0.6431
10334SOL     OW32442   4.074   6.058   2.467 -0.2651  0.4481 -0.5637
10334SOL    HW132443   4.142   6.083   2.403 -0.4548  1.2348 -0.4652
10334SOL    HW232444   4.015   6.133   2.470 -1.0715 -0.1752 -0.5393
10335SOL     OW32445   5.171   6.134   2.281  0.4238 -0.3754 -0.5176
10335SOL    HW132446   5.106   6.191   2.240 -0.6055 -0.6566  0.6632
10335SOL    HW232447   5.244   6.192   2.302  0.0030  0.2177 -0.6574
10336SOL     OW32448   3.393   3.853   4.447 -0.8212 -0.0012  0.0095
10336SOL    HW132449   3.365   3.887   4.532 -0.1510 -0.2154  0.3281
10336SOL    HW232450   3.421   3.763   4.466  0.6191  0.3900 -0.1653
10337SOL     OW32451   0.798   5.534   1.718 -0.2208 -0.9153 -0.4150
10337SOL    HW132452   0.741   5.540   1.641 -0.8059 -0.2698  0.0611
10337SOL    HW232453   0.771   5.607   1.774  0.3400 -1.2531  0.3097
10338SOL     OW32454   3.814   2.664   3.928 -1.5692  0.0581 -0.0236
10338SOL    HW132455   3.819   2.725   4.001  0.4373 -0.2990  0.1828
10338SOL    HW232456   3.750   2.703   3.869 -1.5963  1.4762  0.8940
10339SOL     OW32457   5.884   0.680   2.551 -0.1626 -0.1516 -0.1197
10339SOL    HW132458   5.830   0.689   2.473  0.2071  0.5595 -0.2954
10339SOL    HW232459   5.953   0.619   2.525 -0.4199 -0.4400 -0.1368
10340SOL     OW32460   3.567   3.002   5.143 -0.1388 -0.1042  1.0935
10340SOL    HW132461   3.578   3.039   5.056  1.8936 -1.3754  0.7439
10340SOL    HW232462   3.509   2.927   5.130  0.4614 -0.5148  0.7532
10341SOL     OW32463   5.942   3.208   5.310  0.2568  0.4683  0.5052
10341SOL    HW132464   5.942   3.122   5.351 -0.2902  0.0529 -0.3277
10341SOL    HW232465   6.034   3.235   5.309  0.4580 -0.2050  0.5690
10342SOL     OW32466   4.653   1.036   6.989 -0.0435 -0.5269 -0.0087
10342SOL    HW132467   4.730   1.037   7.046  0.0688  0.8363 -0.1338
10342SOL    HW232468   4.609   0.954   7.008  0.9139 -0.8675  0.7963
10343SOL     OW32469   6.917   1.947   2.306 -0.5750 -0.3240 -0.3229
10343SOL    HW132470   6.998   1.905   2.278 -1.1487 -1.3862 -0.4703
10343SOL    HW232471   6.871   1.880   2.356 -0.6415  0.7881  1.1754
10344SOL     OW32472   0.294   3.047   2.355 -0.3333  0.4272 -0.5118
10344SOL    HW132473   0.316   3.118   2.295  1.1999  1.5406  1.2218
10344SOL    HW232474   0.369   2.988   2.350 -0.1054  0.6253  0.3919
10345SOL     OW32475   1.902   7.563   9.461  0.3582  0.0416  0.0153
10345SOL    HW132476   1.807   7.561   9.450  0.2615 -0.0450  0.8483
10345SOL    HW232477   1.927   7.652   9.435  0.1183 -0.0840 -0.6701
10346SOL     OW32478   2.598   1.390  10.893  0.4689 -0.0791 -0.3737
10346SOL    HW132479   2.644   1.375  10.975 -0.2444  0.9612  0.2307
10346SOL    HW232480   2.665   1.422  10.833  0.6708  0.7815  0.3001
10347SOL     OW32481   0.518   4.520   4.940 -0.1468 -0.0266  0.3963
10347SOL    HW132482   0.582   4.466   4.986 -0.9529 -1.0052  0.3975
10347SOL    HW232483   0.537   4.506   4.848  0.2038  0.3788  0.4062
10348SOL     OW32484   3.425   0.172   3.145  0.1370 -0.0561  0.0327
10348SOL    HW132485   3.406   0.257   3.185  0.7627 -0.5054  1.3362
10348SOL    HW232486   3.507   0.144   3.185  0.4368 -0.8628 -1.0749
10349SOL     OW32487   0.619   5.328  12.297  0.0259  0.1140 -0.3558
10349SOL    HW132488   0.601   5.421  12.292 -0.8925 -0.0702 -0.5782
10349SOL    HW232489   0.537   5.285  12.272 -0.5924 -0.7876  2.7267
10350SOL     OW32490   2.516   5.276   5.648 -0.3960  0.2282  0.2046
10350SOL    HW132491   2.458   5.262   5.722 -1.4769 -1.4519 -0.8787
10350SOL    HW232492   2.598   5.233   5.673 -0.6510 -0.0671  0.5395
10351SOL     OW32493   5.597   5.882   0.767  0.2677  0.4575  0.1253
10351SOL    HW132494   5.608   5.963   0.818  0.1204  0.6064 -0.0757
10351SOL    HW232495   5.599   5.812   0.832  0.0601  0.6490  0.3414
10352SOL     OW32496   7.250   4.125  10.667 -0.3582  0.5017  0.1191
10352SOL    HW132497   7.257   4.063  10.595  1.6792  0.2051  0.4953
10352SOL    HW232498   7.297   4.083  10.739  1.0609  2.4199  0.3880
10353SOL     OW32499   3.732   5.593   6.732 -0.2511 -0.7674 -0.5191
10353SOL    HW132500   3.744   5.517   6.789  0.8585  0.4465  0.9501
10353SOL    HW232501   3.675   5.561   6.662 -0.6891 -2.6583  0.6096
10354SOL     OW32502   0.319   3.319   9.932 -0.0212  0.4799 -0.2439
10354SOL    HW132503   0.349   3.377   9.862  0.0118  0.9883  0.1859
10354SOL    HW232504   0.387   3.325   9.999 -0.2093  0.2456 -0.0299
10355SOL     OW32505   0.097   0.831   7.397 -0.3834  0.2335 -0.1901
10355SOL    HW132506   0.107   0.874   7.482  1.6911  1.4558 -0.9799
10355SOL    HW232507   0.110   0.738   7.415  0.2704  0.5024  0.8121
10356SOL     OW32508   3.258   2.866   2.721  0.6122  0.3201  0.2427
10356SOL    HW132509   3.260   2.859   2.625  0.7405 -1.4966  0.3371
10356SOL    HW232510   3.349   2.883   2.746  0.5879  0.7433  0.0479
10357SOL     OW32511   0.644   4.672   1.163 -0.1213  0.6493 -0.6151
10357SOL    HW132512   0.674   4.609   1.228 -0.3147  0.0101 -1.1349
10357SOL    HW232513   0.704   4.661   1.090 -0.4308  0.7441 -0.8864
10358SOL     OW32514   4.181   1.335   6.851 -0.6628  0.2161  0.1016
10358SOL    HW132515   4.103   1.304   6.803 -1.2368  1.7476 -0.0367
10358SOL    HW232516   4.251   1.334   6.785 -1.1186  0.9544 -0.4242
10359SOL     OW32517   5.955   7.243   0.207 -0.2940 -0.0197  0.1582
10359SOL    HW132518   6.028   7.185   0.230  0.3315  0.9662  0.7395
10359SOL    HW232519   5.997   7.316   0.162 -1.0521  0.0797 -0.3935
10360SOL     OW32520   3.635   2.296   5.173 -0.1586 -0.1939  0.1365
10360SOL    HW132521   3.726   2.326   5.162 -0.8383  1.9937 -0.0333
10360SOL    HW232522   3.610   2.263   5.087  0.6386 -1.3134  0.3257
10361SOL     OW32523   6.503   4.781   4.021 -0.2092  0.0436  0.1490
10361SOL    HW132524   6.430   4.724   4.044 -0.7083  0.4830 -0.3158
10361SOL    HW232525   6.511   4.772   3.926  0.2134  0.1549  0.1721
10362SOL     OW32526   6.218   0.499   9.206  0.0568  0.4631 -0.0259
10362SOL    HW132527   6.189   0.430   9.266 -1.7223  1.5985  0.5073
10362SOL    HW232528   6.307   0.520   9.234 -0.1481 -0.1723  1.1579
10363SOL     OW32529   5.474   7.839  10.284  0.0218  0.0531  0.1165
10363SOL    HW132530   5.527   7.762  10.306  0.3205  0.4709  0.8639
10363SOL    HW232531   5.509   7.909  10.338 -0.5206  0.6244 -0.2618
10364SOL     OW32532   0.818   0.514  11.823  0.1834  0.5192  0.1231
10364SOL    HW132533   0.899   0.476  11.788  0.7882  1.7980  0.0635
10364SOL    HW232534   0.750   0.453  11.798  1.3492 -1.7097  1.9851
10365SOL     OW32535   6.585   4.859   2.965  0.2926 -0.6451 -0.2289
10365SOL    HW132536   6.575   4.764   2.950 -0.4110 -0.5559 -0.3770
10365SOL    HW232537   6.623   4.892   2.884 -0.2447 -0.6803 -0.4994
10366SOL     OW32538   0.882   7.487   9.852 -0.2189  0.0769  0.1834
10366SOL    HW132539   0.873   7.451   9.764  1.2798  0.2274 -0.0552
10366SOL    HW232540   0.867   7.581   9.841 -4.1229 -0.2885  0.8044
10367SOL     OW32541   4.610   3.632  12.073  0.3211  0.0403  0.8140
10367SOL    HW132542   4.518   3.660  12.076  0.6713  1.6069 -1.1421
10367SOL    HW232543   4.660   3.713  12.073  1.5589 -0.6303 -1.4523
10368SOL     OW32544   7.340   5.545  10.781 -0.2192  0.3015 -0.0127
10368SOL    HW132545   7.300   5.632  10.777 -2.1634 -0.3837  2.1775
10368SOL    HW232546   7.295   5.495  10.713 -2.1889 -0.0340  1.4223
10369SOL     OW32547   7.207   1.072  11.513  0.3611 -0.1775 -0.1405
10369SOL    HW132548   7.291   1.072  11.560 -0.1105  1.2860  0.7762
10369SOL    HW232549   7.203   1.158  11.471 -1.6038  0.6640  1.6022
10370SOL     OW32550   5.260   0.672   4.308 -0.2965  0.1179  0.7011
10370SOL    HW132551   5.312   0.704   4.381 -0.3369 -1.2595  1.3591
10370SOL    HW232552   5.211   0.749   4.278  1.3009  1.1946  0.7357
10371SOL     OW32553   2.780   5.594   3.344  0.0747  0.0163 -0.2681
10371SOL    HW132554   2.825   5.656   3.287  0.5323 -0.9526 -1.0005
10371SOL    HW232555   2.761   5.519   3.287 -0.3201 -0.5779  0.6230
10372SOL     OW32556   1.409   4.942   7.326 -0.1014 -0.4343  0.0833
10372SOL    HW132557   1.430   5.033   7.310 -0.2985 -0.5588 -0.9356
10372SOL    HW232558   1.486   4.907   7.372  0.7140 -0.1781 -1.0505
10373SOL     OW32559   6.137   0.929   3.719 -0.0669 -0.6373 -0.3106
10373SOL    HW132560   6.099   0.841   3.719 -0.3822 -0.5054  0.0848
10373SOL    HW232561   6.081   0.979   3.779  0.8181 -0.4777  0.4030
10374SOL     OW32562   2.716   2.016   1.254  0.0026  0.3668 -0.0453
10374SOL    HW132563   2.695   2.038   1.163 -0.5973  0.6163  0.1448
10374SOL    HW232564   2.805   2.047   1.266  1.4142 -2.6978 -1.5410
10375SOL     OW32565   1.840   1.786   7.628 -0.1430 -0.0735  0.2874
10375SOL    HW132566   1.840   1.813   7.536 -0.6257 -0.2306  0.2402
10375SOL    HW232567   1.898   1.710   7.630  0.2050  0.1828  0.1942
10376SOL     OW32568   6.669   5.559   2.043 -0.1076 -0.0782  0.4578
10376SOL    HW132569   6.736   5.501   2.079 -0.0353 -1.1096 -1.2160
10376SOL    HW232570   6.713   5.604   1.971 -0.7097  0.6091  0.5152
10377SOL     OW32571   2.536   0.681   8.297  0.7949 -0.1321 -0.1409
10377SOL    HW132572   2.472   0.742   8.260  1.1739  1.3140  1.4058
10377SOL    HW232573   2.620   0.728   8.290  0.8971  0.2416  2.3489
10378SOL     OW32574   2.941   2.214   3.711 -0.4568 -0.2047  0.3019
10378SOL    HW132575   3.001   2.252   3.775  0.8293 -1.0582 -0.3570
10378SOL    HW232576   2.994   2.204   3.631 -1.9024  0.4554 -0.7979
10379SOL     OW32577   2.600   2.001   8.558 -0.4421  0.2443 -0.1266
10379SOL    HW132578   2.666   2.070   8.564 -0.6045  0.6316 -2.0874
10379SOL    HW232579   2.541   2.017   8.632  0.3568  1.2915  0.3087
10380SOL     OW32580   0.088   4.898   4.078  0.1744 -0.7929  0.2329
10380SOL    HW132581   0.150   4.969   4.058  0.3063 -0.5071  1.5441
10380SOL    HW232582   0.042   4.929   4.156 -1.7360 -0.9479 -0.7796
10381SOL     OW32583   2.735   6.675   0.649 -0.2159 -0.6913  0.0899
10381SOL    HW132584   2.654   6.644   0.688 -0.1380 -0.5223  0.3803
10381SOL    HW232585   2.732   6.641   0.559 -1.2543  0.4922 -0.3383
10382SOL     OW32586   0.021   5.564   8.474  0.3808 -0.2410 -0.0546
10382SOL    HW132587   0.046   5.599   8.388 -0.7341  0.0234 -0.2899
10382SOL    HW232588  -0.001   5.473   8.457 -0.1785 -0.0950 -0.1179
10383SOL     OW32589   7.310   5.258   2.917 -0.3861  0.6463 -0.4446
10383SOL    HW132590   7.300   5.171   2.956 -2.0809  0.2722 -1.5867
10383SOL    HW232591   7.303   5.318   2.991 -1.8549 -0.1092  0.0850
10384SOL     OW32592   0.725   3.856   4.669  0.2773  0.4626 -0.3031
10384SOL    HW132593   0.676   3.867   4.587  0.2655 -0.9702 -0.5126
10384SOL    HW232594   0.782   3.932   4.673  1.2195 -0.0576 -2.3280
10385SOL     OW32595   7.794   0.065  11.749 -0.2151  0.2858 -0.5168
10385SOL    HW132596   7.785   0.151  11.708 -0.8810  0.4494 -0.0405
10385SOL    HW232597   7.709   0.024  11.737 -0.5295  0.4572  0.9574
10386SOL     OW32598   1.045   0.977   4.609  0.1441 -0.0338  0.2118
10386SOL    HW132599   1.138   0.999   4.621 -0.4390  3.1256 -0.2175
10386SOL    HW232600   1.009   0.976   4.697  0.3373 -0.0273  0.2920
10387SOL     OW32601   4.057   2.295   6.834 -0.4246 -0.1116  0.0213
10387SOL    HW132602   4.086   2.217   6.786  0.2293  0.8588 -1.2404
10387SOL    HW232603   3.995   2.338   6.774  1.1686  1.6582 -0.4556
10388SOL     OW32604   3.279   3.829   6.864  0.6987  0.2701  0.1637
10388SOL    HW132605   3.242   3.906   6.907 -0.9157 -0.6968  0.6036
10388SOL    HW232606   3.203   3.785   6.826  1.7169 -0.5616 -0.9779
10389SOL     OW32607   0.084   4.241   9.278 -0.9311  0.3939 -0.7650
10389SOL    HW132608   0.135   4.322   9.283  0.9583 -0.7319 -0.8901
10389SOL    HW232609   0.002   4.261   9.323 -0.7006  2.4935 -1.1936
10390SOL     OW32610   2.276   5.396  11.545  0.3997 -0.3620  0.3022
10390SOL    HW132611   2.247   5.446  11.469  0.5975 -0.8868 -0.1271
10390SOL    HW232612   2.371   5.411  11.548  0.3833 -0.2856  0.4957
10391SOL     OW32613   3.242   0.371   4.561 -0.0024 -0.8164  0.1585
10391SOL    HW132614   3.293   0.394   4.483 -0.8167  0.6355  0.0279
10391SOL    HW232615   3.280   0.423   4.631 -0.1611 -1.0876  0.4506
10392SOL     OW32616   2.564   7.694   6.301 -0.0966 -0.1234 -0.5888
10392SOL    HW132617   2.498   7.658   6.361  0.7728 -0.7028  0.0551
10392SOL    HW232618   2.621   7.620   6.281  0.0635  0.2483 -1.5482
10393SOL     OW32619   3.468   0.386   2.114 -0.0859 -0.0777  0.4075
10393SOL    HW132620   3.375   0.382   2.093  0.2400 -0.2542 -1.0989
10393SOL    HW232621   3.496   0.295   2.121  0.7163 -0.2284 -2.9141
10394SOL     OW32622   5.724   5.014   7.353  0.5257 -0.1221 -0.4621
10394SOL    HW132623   5.715   4.986   7.262 -0.2477 -0.6605 -0.2353
10394SOL    HW232624   5.778   5.093   7.349  0.3700 -0.0533 -1.4039
10395SOL     OW32625   4.111   6.335  10.400 -0.5836 -0.4785  0.3734
10395SOL    HW132626   4.059   6.288  10.334 -1.1210  0.0370  0.4271
10395SOL    HW232627   4.193   6.356  10.354 -0.9570 -0.1135 -0.1480
10396SOL     OW32628   3.132   0.450   1.188  0.1173  0.2703 -0.3965
10396SOL    HW132629   3.052   0.466   1.238  2.0471 -0.4443  3.1911
10396SOL    HW232630   3.133   0.356   1.173  0.6483  0.1760  0.2280
10397SOL     OW32631   4.160   2.507   6.545 -0.0035 -0.3951 -0.5061
10397SOL    HW132632   4.203   2.538   6.624 -0.5563  0.4715 -0.5271
10397SOL    HW232633   4.217   2.536   6.473  0.4063 -1.0254 -0.4388
10398SOL     OW32634   6.981   0.018   9.247 -0.2767  0.2436 -0.1191
10398SOL    HW132635   6.993   0.108   9.277 -0.8271  0.4528 -0.5170
10398SOL    HW232636   7.069  -0.012   9.226 -0.0518  0.5742  0.3392
10399SOL     OW32637   3.129   7.752   9.366  0.4898 -0.1031 -0.8377
10399SOL    HW132638   3.196   7.783   9.305  0.1996  0.4221 -0.8875
10399SOL    HW232639   3.176   7.687   9.420  1.5802  1.6309  0.3959
10400SOL     OW32640   1.860   1.890   2.411 -0.1540  0.3690 -0.0009
10400SOL    HW132641   1.782   1.876   2.466 -2.1328 -0.3090 -2.7583
10400SOL    HW232642   1.843   1.973   2.367  0.7677  0.2857 -0.5256
10401SOL     OW32643   5.288   2.158   4.234  0.2587 -0.4817 -0.2016
10401SOL    HW132644   5.287   2.090   4.302  1.6765 -0.2196  0.1135
10401SOL    HW232645   5.358   2.218   4.261 -0.7336  0.9314 -0.6509
10402SOL     OW32646   7.412   7.733  12.268  0.3024  0.0960  0.7926
10402SOL    HW132647   7.483   7.670  12.262  1.5000  1.4762 -0.3408
10402SOL    HW232648   7.339   7.691  12.222 -0.0272 -1.7540  2.8220
10403SOL     OW32649   3.562   7.488   0.230 -0.1663  0.1809 -0.0491
10403SOL    HW132650   3.639   7.432   0.240 -1.0924 -1.2835 -0.7923
10403SOL    HW232651   3.589   7.555   0.167  1.8477  2.3342  2.8162
10404SOL     OW32652   0.284   4.645   9.070  0.7223  0.5165 -0.4407
10404SOL    HW132653   0.344   4.705   9.114  1.3161  0.5444 -1.2755
10404SOL    HW232654   0.223   4.701   9.023 -0.1063  0.4924  0.5591
10405SOL     OW32655   6.540   7.744   1.474 -0.4648 -0.1725  0.4941
10405SOL    HW132656   6.566   7.811   1.538  0.7331 -0.7249  0.6171
10405SOL    HW232657   6.483   7.685   1.524  1.1370 -1.0779  1.3454
10406SOL     OW32658   7.112   7.782   7.860  0.5677 -0.3237 -0.6137
10406SOL    HW132659   7.022   7.792   7.892  0.4419  0.7130 -1.2397
10406SOL    HW232660   7.118   7.690   7.834 -0.1464 -0.5288 -0.0857
10407SOL     OW32661   2.282   0.306  10.312  0.1914  0.7640  0.6955
10407SOL    HW132662   2.196   0.285  10.350  0.5474 -0.7386  0.7041
10407SOL    HW232663   2.288   0.250  10.235  1.8440 -0.3477  1.5989
10408SOL     OW32664   0.046   0.631   4.587  0.5334  0.3218 -0.0002
10408SOL    HW132665  -0.040   0.671   4.602  0.5242  0.0218  0.7975
10408SOL    HW232666   0.065   0.650   4.495 -1.3074 -1.3953 -0.8090
10409SOL     OW32667   3.553   2.552   2.670 -0.5752 -0.7920  0.2133
10409SOL    HW132668   3.497   2.545   2.747  0.1233 -0.6970  0.7438
10409SOL    HW232669   3.637   2.515   2.699  0.5765  1.7652  0.4068
10410SOL     OW32670   6.439   7.088   2.232  0.2526  0.4547  0.0636
10410SOL    HW132671   6.397   7.106   2.148  0.4318 -0.2050 -0.1739
10410SOL    HW232672   6.442   6.992   2.237 -1.0226  0.4527  1.4634
10411SOL     OW32673   3.034   1.262   3.339  0.4358  0.5508 -0.3308
10411SOL    HW132674   3.118   1.216   3.332  0.4438  0.0470  2.3077
10411SOL    HW232675   2.969   1.193   3.344  0.2305  0.8292  1.3232
10412SOL     OW32676   4.813   7.768  12.299  0.6497 -0.1304 -0.2227
10412SOL    HW132677   4.833   7.774  12.393 -0.7475 -0.6868  0.1322
10412SOL    HW232678   4.828   7.856  12.266 -0.3272  0.4641  0.8418
10413SOL     OW32679   0.056   2.655   9.517  0.4335  0.2608  0.6345
10413SOL    HW132680   0.057   2.742   9.556  0.8880 -0.4000  2.1796
10413SOL    HW232681   0.148   2.632   9.505  0.3057  0.7954 -1.7295
10414SOL     OW32682   4.450   1.779   8.091  0.2633 -0.5813  0.1959
10414SOL    HW132683   4.426   1.798   8.000  0.7054  1.5280  0.4685
10414SOL    HW232684   4.388   1.831   8.143  0.5374 -1.1324  1.0974
10415SOL     OW32685   3.598   3.584   1.390 -0.0532 -0.5127  0.1869
10415SOL    HW132686   3.637   3.506   1.427  1.5394 -0.4671 -1.2610
10415SOL    HW232687   3.526   3.552   1.336 -0.6285 -0.7961  1.1078
10416SOL     OW32688   7.186   0.570   5.199 -0.0423 -0.3065 -0.3313
10416SOL    HW132689   7.154   0.543   5.113 -3.8182  1.5726  0.2505
10416SOL    HW232690   7.184   0.490   5.251 -0.3937 -0.9562 -1.3136
10417SOL     OW32691   7.170   6.049   1.367 -0.5964  0.0696 -0.0084
10417SOL    HW132692   7.108   5.990   1.325 -2.5775  1.8007  0.2840
10417SOL    HW232693   7.131   6.069   1.452  0.3098  1.2897  0.1580
10418SOL     OW32694   2.203   0.313   5.036  0.0304 -0.1188 -0.1119
10418SOL    HW132695   2.181   0.256   5.109 -0.8082  1.2406  0.7321
10418SOL    HW232696   2.125   0.367   5.022  0.0069 -0.6176 -2.3005
10419SOL     OW32697   5.405   6.790   7.957  0.5088  0.1100 -0.3467
10419SOL    HW132698   5.433   6.850   7.888 -0.4531  2.1473  0.9095
10419SOL    HW232699   5.472   6.798   8.024 -0.7950  1.8039  0.8779
10420SOL     OW32700   1.248   3.532   8.041 -0.0017 -0.6352 -0.1201
10420SOL    HW132701   1.210   3.488   8.117  1.4650 -0.6546  0.6428
10420SOL    HW232702   1.256   3.623   8.067  1.6194 -0.8554  0.2349
10421SOL     OW32703   5.263   5.251   3.361  0.5640  0.0403 -0.5725
10421SOL    HW132704   5.180   5.248   3.408  0.4174  4.6632 -0.0914
10421SOL    HW232705   5.320   5.191   3.410 -0.9499  1.0025  2.6220
10422SOL     OW32706   2.671   5.837   8.246  0.2854 -0.0616 -0.2741
10422SOL    HW132707   2.649   5.745   8.254 -0.8357  0.0118 -2.0879
10422SOL    HW232708   2.659   5.873   8.334 -0.7601 -1.3195  0.1115
10423SOL     OW32709   5.193   6.544  11.879 -1.1015  0.7371 -0.0713
10423SOL    HW132710   5.245   6.464  11.882 -1.2474  0.5884 -1.1358
10423SOL    HW232711   5.230   6.600  11.947  0.5551  0.6895 -0.8942
10424SOL     OW32712   3.172   1.976   3.714 -0.1532  0.3250 -0.2013
10424SOL    HW132713   3.106   1.925   3.761 -0.3964  0.4574 -0.3994
10424SOL    HW232714   3.143   1.975   3.623 -0.1461  0.7969 -0.2090
10425SOL     OW32715   3.364   6.725  10.338 -0.1238  0.0203 -0.2979
10425SOL    HW132716   3.442   6.762  10.378  0.2354 -1.4971  0.4948
10425SOL    HW232717   3.309   6.699  10.412 -1.3900  1.0427 -0.8404
10426SOL     OW32718   7.719   1.008  12.473 -0.3125 -1.0622 -0.5712
10426SOL    HW132719   7.795   0.961  12.508  1.5296  1.3560 -1.0429
10426SOL    HW232720   7.757   1.085  12.431 -3.0865  0.3171 -0.7077
10427SOL     OW32721   6.339   5.690   6.591  0.0093 -0.0511 -0.3456
10427SOL    HW132722   6.247   5.682   6.564 -0.6583  0.1985  1.6770
10427SOL    HW232723   6.373   5.763   6.539 -0.9256 -0.1490 -1.1232
10428SOL     OW32724   6.116   6.818   8.569  0.3519 -0.0826  0.5548
10428SOL    HW132725   6.063   6.741   8.547 -1.1818  0.5245  1.9269
10428SOL    HW232726   6.056   6.875   8.617  2.0127  1.0766  1.3274
10429SOL     OW32727   6.715   2.497   5.940 -0.5657  0.2808  0.0905
10429SOL    HW132728   6.681   2.429   5.998 -0.5417 -0.8435 -1.1449
10429SOL    HW232729   6.672   2.578   5.969 -1.5431 -0.4732  0.8223
10430SOL     OW32730   5.249   2.918   5.010 -0.0612  0.0659  0.2708
10430SOL    HW132731   5.338   2.947   4.992 -0.5347  0.1192 -2.3399
10430SOL    HW232732   5.226   2.962   5.092  0.6240  4.1240 -1.4607
10431SOL     OW32733   0.344   3.159   1.383  0.0495  0.3575  0.0113
10431SOL    HW132734   0.265   3.105   1.380  0.8914 -0.9139 -0.1923
10431SOL    HW232735   0.376   3.149   1.472 -0.3397  1.3981  0.2894
10432SOL     OW32736   6.205   2.742  10.480  0.3307 -0.2612  0.4833
10432SOL    HW132737   6.255   2.742  10.397 -0.8722 -0.4029 -0.2642
10432SOL    HW232738   6.152   2.821  10.476 -0.0251 -0.4720  0.9461
10433SOL     OW32739   4.347   0.703   8.676 -0.0104 -0.3902 -0.4713
10433SOL    HW132740   4.262   0.703   8.719  0.2718 -3.0314  0.2529
10433SOL    HW232741   4.387   0.786   8.702 -0.5065 -1.1179  3.1376
10434SOL     OW32742   7.754   7.810   5.658 -0.0440  0.2532  0.2698
10434SOL    HW132743   7.672   7.859   5.651  0.4079  1.2618  1.7812
10434SOL    HW232744   7.753   7.752   5.581 -1.5394  1.1755 -0.4549
10435SOL     OW32745   6.118   2.609  11.588  0.4103 -0.2123 -0.2823
10435SOL    HW132746   6.126   2.628  11.495  0.5347  0.2833 -0.1751
10435SOL    HW232747   6.067   2.528  11.592 -0.0217  0.0280 -0.7644
10436SOL     OW32748   7.555   0.757  11.751  0.1037  0.5416 -0.0633
10436SOL    HW132749   7.613   0.682  11.739 -0.1498  0.4355 -0.6668
10436SOL    HW232750   7.546   0.795  11.664 -1.3982  0.0559 -0.1453
10437SOL     OW32751   4.241   5.059   6.609 -0.1273  0.1239 -0.5277
10437SOL    HW132752   4.174   5.101   6.555 -0.4200 -1.2601 -1.2773
10437SOL    HW232753   4.192   5.007   6.673  0.2276 -0.5542 -0.8018
10438SOL     OW32754   1.286   1.875   9.607 -0.2203  0.4334 -0.0888
10438SOL    HW132755   1.339   1.799   9.581  1.4155  1.9530 -1.5073
10438SOL    HW232756   1.230   1.843   9.678 -0.2283 -2.2928 -1.2290
10439SOL     OW32757   1.765   6.818   7.959 -0.7350  0.1240 -0.0249
10439SOL    HW132758   1.843   6.840   7.909 -0.6754  0.4978  0.2228
10439SOL    HW232759   1.786   6.735   8.001 -0.0797  0.6843  0.8190
10440SOL     OW32760   2.933   2.479   7.092 -0.6563  0.3264  0.7846
10440SOL    HW132761   2.975   2.545   7.037  1.5719 -1.9533 -0.5133
10440SOL    HW232762   2.986   2.476   7.171 -0.5977 -0.0473  0.7337
10441SOL     OW32763   2.443   5.278   5.900 -0.7355 -0.4868 -0.0873
10441SOL    HW132764   2.505   5.350   5.890 -0.7667 -0.1493  1.7656
10441SOL    HW232765   2.359   5.320   5.920 -0.5716 -1.0158  1.8653
10442SOL     OW32766   6.307   3.566  11.057  0.1976  0.6210 -0.5601
10442SOL    HW132767   6.238   3.539  10.997  0.9616  1.3419 -1.8214
10442SOL    HW232768   6.346   3.643  11.016  1.6958  0.2813  0.1345
10443SOL     OW32769   3.658   5.794   8.379  0.3878 -0.4879 -0.0467
10443SOL    HW132770   3.739   5.746   8.365  0.7057  0.3158 -1.0839
10443SOL    HW232771   3.658   5.862   8.312 -0.0878  0.9060  1.3022
10444SOL     OW32772   0.603   5.040   9.614  0.2885  0.7444 -0.1003
10444SOL    HW132773   0.654   5.007   9.688 -0.2332  0.2834  0.0601
10444SOL    HW232774   0.607   4.970   9.549 -0.6163  0.4555  0.1429
10445SOL     OW32775   3.880   7.766  10.683  0.5933  0.6253  0.2360
10445SOL    HW132776   3.798   7.752  10.731 -0.4264  0.7724 -1.4096
10445SOL    HW232777   3.872   7.853  10.645  0.3827 -0.3138 -2.0274
10446SOL     OW32778   7.312   6.758   5.898 -0.1358 -0.3086  0.2733
10446SOL    HW132779   7.393   6.797   5.932 -0.1346  0.5535 -0.6728
10446SOL    HW232780   7.249   6.830   5.898  0.2342  0.1444 -2.7703
10447SOL     OW32781   4.029   5.697   0.945 -0.3827  0.2127 -0.4854
10447SOL    HW132782   4.076   5.675   1.026  0.1331  2.1682 -0.1817
10447SOL    HW232783   4.093   5.681   0.876 -0.1821  0.2713 -0.3186
10448SOL     OW32784   0.445   4.853   9.186 -0.1555 -0.1366  0.0419
10448SOL    HW132785   0.512   4.849   9.254 -0.5530  0.5368  0.4857
10448SOL    HW232786   0.494   4.867   9.104  0.2693 -0.0597  0.3080
10449SOL     OW32787   0.837   1.308   2.739 -0.3207  0.3349  0.0779
10449SOL    HW132788   0.798   1.224   2.712  0.5954 -0.1503  0.2215
10449SOL    HW232789   0.762   1.362   2.764 -0.8153 -1.2096  2.2141
10450SOL     OW32790   2.989   7.425   7.996 -0.0736 -0.0204 -0.5087
10450SOL    HW132791   2.943   7.347   7.966 -0.2046  0.3684 -1.3575
10450SOL    HW232792   3.079   7.395   8.013 -0.4091 -0.5949  0.3148
10451SOL     OW32793   1.119   1.578  11.936 -0.1898  0.4509  0.5758
10451SOL    HW132794   1.159   1.640  11.874 -0.0814 -0.4237 -0.2426
10451SOL    HW232795   1.061   1.524  11.882 -0.2348 -0.2094  1.2733
10452SOL     OW32796   5.204   0.549  12.002  0.4395 -0.1949 -0.3729
10452SOL    HW132797   5.289   0.576  11.968  0.2193 -0.2788 -1.0158
10452SOL    HW232798   5.175   0.622  12.057 -0.5194  1.3263 -2.7072
10453SOL     OW32799   3.238   7.638   3.470  0.1115 -0.0141  0.1153
10453SOL    HW132800   3.291   7.573   3.424  2.2184  1.6271  0.0579
10453SOL    HW232801   3.213   7.595   3.552 -0.4120 -1.6126 -0.8372
10454SOL     OW32802   0.621   5.773   1.786 -0.5212 -0.2953 -0.3104
10454SOL    HW132803   0.535   5.765   1.827 -1.1636 -1.3824 -1.7714
10454SOL    HW232804   0.658   5.852   1.824 -1.0215 -1.2216  2.3791
10455SOL     OW32805   5.252   3.162   4.864 -0.3701 -0.4526 -0.0548
10455SOL    HW132806   5.208   3.080   4.887  0.1265 -0.9786 -0.9310
10455SOL    HW232807   5.321   3.136   4.803  0.5926  0.4661  0.6037
10456SOL     OW32808   1.717   1.247   3.734  0.2281 -0.1242 -0.7114
10456SOL    HW132809   1.644   1.221   3.790  0.5776 -0.3583 -0.3532
10456SOL    HW232810   1.697   1.209   3.649  1.5342 -3.1996  0.1733
10457SOL     OW32811   1.766   5.983   3.481  0.0740  0.9834 -0.1319
10457SOL    HW132812   1.854   5.947   3.488 -0.7156 -1.2022 -0.6506
10457SOL    HW232813   1.714   5.932   3.545 -1.4187  0.0375 -1.9946
10458SOL     OW32814   0.864   2.405   8.982  0.0827  0.2697 -0.0353
10458SOL    HW132815   0.797   2.406   8.914  1.7037 -1.0295 -1.7261
10458SOL    HW232816   0.858   2.318   9.020  0.4940  0.3333  0.1749
10459SOL     OW32817   7.043   1.976  11.402 -0.5414 -0.0660 -0.0100
10459SOL    HW132818   6.982   1.910  11.436  0.6441 -1.3828 -0.3219
10459SOL    HW232819   7.079   1.936  11.322  1.3093  0.2947  0.5989
10460SOL     OW32820   3.850   1.951  12.051 -0.1907 -0.1698 -0.0125
10460SOL    HW132821   3.940   1.980  12.035  0.1884 -1.7965 -1.0931
10460SOL    HW232822   3.847   1.933  12.145  0.2705  0.9067  0.2284
10461SOL     OW32823   5.710   3.128  12.014 -0.5991  0.2078  0.7771
10461SOL    HW132824   5.786   3.180  12.038 -0.9677  0.1974  2.0159
10461SOL    HW232825   5.640   3.193  12.003 -0.1754  0.3673 -1.6275
10462SOL     OW32826   7.047   1.637   4.816 -0.5402 -0.1702 -0.2534
10462SOL    HW132827   7.096   1.719   4.807 -0.5805  0.0409  1.2643
10462SOL    HW232828   7.077   1.583   4.742  0.9751  0.4655 -0.1295
10463SOL     OW32829   1.476   7.530  12.351  0.2332  0.1522  0.4471
10463SOL    HW132830   1.466   7.619  12.317 -2.4826 -0.0131  0.5963
10463SOL    HW232831   1.462   7.539  12.446  1.6901 -0.2332  0.7269
10464SOL     OW32832   0.764   4.792   1.399 -0.4803 -0.1151  0.0304
10464SOL    HW132833   0.750   4.835   1.315  1.0560 -1.3693 -0.9461
10464SOL    HW232834   0.713   4.843   1.461 -1.1611  1.2387 -1.5501
10465SOL     OW32835   6.790   6.872   5.288 -0.0723 -0.0076 -0.4836
10465SOL    HW132836   6.876   6.830   5.286  0.0570  0.0041  2.1572
10465SOL    HW232837   6.788   6.919   5.371 -2.5822  0.1562 -0.5646
10466SOL     OW32838   6.350   7.584   0.336  0.2731  0.2022 -0.1940
10466SOL    HW132839   6.306   7.628   0.263  0.8762 -0.2597 -0.8565
10466SOL    HW232840   6.414   7.647   0.368  0.5372  0.1313 -0.5750
10467SOL     OW32841   3.686   4.515   4.378 -0.0050 -0.7820 -0.4663
10467SOL    HW132842   3.590   4.519   4.370 -0.4167 -2.6393  2.0540
10467SOL    HW232843   3.714   4.607   4.381 -1.8969 -0.1825  0.3061
10468SOL     OW32844   7.636   1.880   6.531  0.0803 -0.6105  0.2843
10468SOL    HW132845   7.597   1.792   6.530  1.2915 -1.2264 -2.7192
10468SOL    HW232846   7.579   1.931   6.474  0.2352  0.1853  0.8289
10469SOL     OW32847   4.206   3.849  10.231  0.0181 -0.1683  0.5961
10469SOL    HW132848   4.168   3.767  10.202 -0.9450  0.0591  1.1851
10469SOL    HW232849   4.234   3.833  10.321 -0.0783  0.1127  0.6784
10470SOL     OW32850   6.696   6.860   2.618 -0.3143 -0.1785 -0.1220
10470SOL    HW132851   6.737   6.937   2.581  0.8225  0.3325  2.0583
10470SOL    HW232852   6.695   6.796   2.546  0.5793  1.1630 -1.3724
10471SOL     OW32853   6.401   6.803   2.504 -0.5821  0.2128  0.3056
10471SOL    HW132854   6.463   6.798   2.431 -1.1258  1.6618 -0.3153
10471SOL    HW232855   6.451   6.839   2.576 -0.4250  0.3210  0.1434
10472SOL     OW32856   0.181   4.517   3.020 -0.3442 -0.6692 -0.0340
10472SOL    HW132857   0.188   4.596   3.074 -1.4475  0.1597 -1.0382
10472SOL    HW232858   0.234   4.537   2.943 -0.0894 -1.1815  0.0112
10473SOL     OW32859   3.075   5.998   8.535 -0.2117 -0.6575  0.4502
10473SOL    HW132860   3.019   6.061   8.580 -0.3175 -0.2475 -0.2398
10473SOL    HW232861   3.124   6.051   8.471 -0.0301 -1.2162  0.1160
10474SOL     OW32862   1.813   6.603   9.328  0.3830 -0.2110 -0.3773
10474SOL    HW132863   1.735   6.561   9.292  1.2550 -0.7661 -1.7042
10474SOL    HW232864   1.884   6.574   9.271  1.7465 -0.5763  1.4165
10475SOL     OW32865   4.735   2.088   5.401  0.2447 -0.3906  0.2428
10475SOL    HW132866   4.773   2.108   5.487  0.2725  0.7736 -0.0277
10475SOL    HW232867   4.792   2.020   5.364  0.0411 -1.1504  1.2678
10476SOL     OW32868   1.891   2.810  11.141  0.6313  0.0163  0.0986
10476SOL    HW132869   1.889   2.890  11.088  1.1989  1.0042  1.5266
10476SOL    HW232870   1.982   2.800  11.168  0.1751  0.1747  1.8103
10477SOL     OW32871   3.479   2.081  10.586  0.2808  0.1314  0.5571
10477SOL    HW132872   3.555   2.122  10.627  0.6558  0.1403 -0.1308
10477SOL    HW232873   3.405   2.133  10.616  0.3775 -0.5815  2.1953
10478SOL     OW32874   0.829   7.745   4.994 -0.4705 -0.0407 -0.0113
10478SOL    HW132875   0.838   7.649   4.990  0.8848  0.1123 -2.2905
10478SOL    HW232876   0.754   7.764   4.938 -0.9463  0.2471  0.7060
10479SOL     OW32877   6.437   4.054  11.991 -0.2267  0.0655 -0.5248
10479SOL    HW132878   6.460   3.962  11.980  0.7915  0.2211  0.1535
10479SOL    HW232879   6.436   4.067  12.086 -1.0152  0.6021 -0.5961
10480SOL     OW32880   6.069   5.784   4.148  0.5379  0.7015 -0.1600
10480SOL    HW132881   6.106   5.707   4.106  0.4455 -0.3607  1.5987
10480SOL    HW232882   6.022   5.750   4.224 -0.0304  2.4452  0.3279
10481SOL     OW32883   1.131   7.669   9.353 -0.5274  0.1990 -0.2223
10481SOL    HW132884   1.219   7.694   9.380 -0.2880  1.1690 -1.7842
10481SOL    HW232885   1.138   7.576   9.332  0.0507  0.2100 -0.0911
10482SOL     OW32886   1.641   3.347   3.099 -0.2064 -0.3287  0.0789
10482SOL    HW132887   1.682   3.433   3.107 -0.3102 -0.2212 -0.4909
10482SOL    HW232888   1.607   3.345   3.009  0.3816 -1.2267 -0.1362
10483SOL     OW32889   6.586   3.450   5.044 -0.0325  0.2381  0.0271
10483SOL    HW132890   6.599   3.355   5.045  0.4083  0.2919 -0.5347
10483SOL    HW232891   6.635   3.482   5.120 -0.0726  0.0325  0.1409
10484SOL     OW32892   2.397   0.059   2.749 -0.1627  0.0184 -0.5600
10484SOL    HW132893   2.475   0.005   2.764  0.6946  1.1937 -0.6062
10484SOL    HW232894   2.341   0.005   2.694 -0.4829 -1.8128  1.4060
10485SOL     OW32895   2.056   2.597   2.578 -0.3456  0.2553  0.3754
10485SOL    HW132896   2.122   2.530   2.600 -0.5129 -0.5122 -1.3431
10485SOL    HW232897   2.073   2.618   2.486 -0.1129  2.8334  0.9432
10486SOL     OW32898   2.530   3.945   3.253  0.6455  0.0871 -0.6455
10486SOL    HW132899   2.452   3.927   3.200 -0.1780 -0.5455  0.7302
10486SOL    HW232900   2.545   4.039   3.243 -1.5899  0.6549  0.7188
10487SOL     OW32901   1.986   0.311   8.681 -0.4578 -0.9813 -0.1394
10487SOL    HW132902   1.933   0.311   8.761 -1.4943  0.3301 -0.7814
10487SOL    HW232903   1.984   0.402   8.651  2.1755 -0.8660 -0.2214
10488SOL     OW32904   6.995   5.921   6.979 -0.4954  0.0646 -0.4085
10488SOL    HW132905   7.071   5.979   6.975  0.8332 -1.6435 -1.6901
10488SOL    HW232906   6.983   5.903   7.072  1.4843 -0.5655 -0.2303
10489SOL     OW32907   3.939   6.421  12.377 -0.1818 -0.6501 -0.1151
10489SOL    HW132908   3.994   6.356  12.333 -0.7522 -1.0455 -0.2567
10489SOL    HW232909   3.969   6.505  12.343  1.3409 -0.7420  0.9274
10490SOL     OW32910   1.386   2.692  11.360 -0.0693  0.4511  0.2616
10490SOL    HW132911   1.467   2.675  11.312  0.2764  0.8835  0.6746
10490SOL    HW232912   1.349   2.606  11.376 -0.1759  0.2997 -0.7496
10491SOL     OW32913   1.641   7.492   9.546  0.6334  0.2759  0.3372
10491SOL    HW132914   1.592   7.438   9.483  1.2430 -1.0514  0.9583
10491SOL    HW232915   1.577   7.517   9.612  0.9369 -2.4390  1.7898
10492SOL     OW32916   6.578   4.098   2.197  0.2571 -0.0745 -0.2625
10492SOL    HW132917   6.498   4.140   2.228  1.2769  0.1226  2.4275
10492SOL    HW232918   6.617   4.161   2.137 -0.0205  1.3063  0.9395
10493SOL     OW32919   3.401   5.295   1.093  0.1831 -0.4739 -0.0424
10493SOL    HW132920   3.312   5.294   1.058  0.5421 -2.8275 -1.0531
10493SOL    HW232921   3.451   5.343   1.026  0.1279 -1.4557 -0.8109
10494SOL     OW32922   4.862   6.906   0.306  0.7297 -0.8159 -0.1138
10494SOL    HW132923   4.773   6.924   0.275  1.1277 -0.5680 -1.1574
10494SOL    HW232924   4.875   6.813   0.289  0.2644 -1.1216  1.1271
10495SOL     OW32925   7.368   1.139   5.903 -0.1138  0.5615  0.5824
10495SOL    HW132926   7.436   1.072   5.894  0.2251  0.7473  1.5978
10495SOL    HW232927   7.348   1.141   5.996 -2.3366 -0.2676  0.1970
10496SOL     OW32928   7.439   5.679   1.944  0.0396  0.0710  0.2535
10496SOL    HW132929   7.435   5.634   2.029 -0.8022 -0.6926 -0.1752
10496SOL    HW232930   7.476   5.765   1.964  1.3429 -0.6720  1.1476
10497SOL     OW32931   3.771   6.297   5.024 -0.4511 -0.0421  0.7865
10497SOL    HW132932   3.724   6.363   4.973 -0.0893  0.0500  0.5770
10497SOL    HW232933   3.771   6.333   5.113  0.3494  0.5731  0.5476
10498SOL     OW32934   0.586   6.761   4.249  0.3145  0.0604  0.1377
10498SOL    HW132935   0.675   6.795   4.236 -0.2894  1.7691  0.1792
10498SOL    HW232936   0.542   6.829   4.300 -0.7161 -1.2593  1.0467
10499SOL     OW32937   4.689   6.146   3.642  0.1607 -0.1863 -0.1892
10499SOL    HW132938   4.713   6.193   3.562 -0.3249 -2.0857 -1.5137
10499SOL    HW232939   4.594   6.136   3.637  0.1664 -0.6608  0.4434
10500SOL     OW32940   4.930   1.139   4.153  0.2777 -0.2128 -0.1086
10500SOL    HW132941   4.868   1.137   4.081  1.0934  0.0322 -0.8372
10500SOL    HW232942   4.943   1.233   4.171  0.0748 -0.2718  0.3592
10501SOL     OW32943   0.301   5.999   9.376  0.1716 -0.3265 -0.2066
10501SOL    HW132944   0.237   6.068   9.396 -0.9230 -0.9690 -1.3530
10501SOL    HW232945   0.253   5.918   9.389  0.7152 -0.8247 -1.2291
10502SOL     OW32946   7.655   5.721   7.286  0.1715  0.6773 -0.3906
10502SOL    HW132947   7.606   5.753   7.362  1.1983 -0.9610  1.0447
10502SOL    HW232948   7.621   5.633   7.271  0.4533  0.7328 -1.4090
10503SOL     OW32949   6.542   4.939   8.480 -0.0923  0.4472 -0.3483
10503SOL    HW132950   6.492   4.892   8.546  0.5718  2.0000  1.3712
10503SOL    HW232951   6.629   4.899   8.482 -0.1663  0.2741 -0.5385
10504SOL     OW32952   1.028   7.442  10.083 -0.2051 -0.4398 -0.5983
10504SOL    HW132953   0.976   7.455  10.004  2.0682 -1.0342 -2.3217
10504SOL    HW232954   1.093   7.512  10.080  0.7743 -1.2906 -0.0448
10505SOL     OW32955   6.993   7.945   8.469 -0.0766 -0.2395  0.3474
10505SOL    HW132956   6.907   7.966   8.506  0.4996 -0.3710  1.8128
10505SOL    HW232957   7.018   7.864   8.513 -0.6529 -2.1507 -2.5302
10506SOL     OW32958   5.446   7.414  12.134 -0.3716 -0.7660 -0.1236
10506SOL    HW132959   5.535   7.441  12.110 -0.1911 -2.2168 -1.2411
10506SOL    HW232960   5.390   7.485  12.102  0.2969 -0.2906 -0.2688
10507SOL     OW32961   0.230   2.102  11.693 -0.1448  0.0810 -0.5234
10507SOL    HW132962   0.155   2.043  11.697  0.2483 -0.3961 -0.0343
10507SOL    HW232963   0.272   2.084  11.609 -0.5890  0.3698 -0.8111
10508SOL     OW32964   4.879   5.861   4.617  0.1926  0.0335  0.4153
10508SOL    HW132965   4.927   5.905   4.687  0.6478  0.0218  0.1188
10508SOL    HW232966   4.946   5.809   4.572 -0.0854  0.0865 -0.0638
10509SOL     OW32967   3.438   2.678   0.037 -0.5806 -0.4542  0.1601
10509SOL    HW132968   3.344   2.664   0.050 -0.7198  0.9791  0.9497
10509SOL    HW232969   3.455   2.645  -0.051 -1.9003 -0.4607 -0.1148
10510SOL     OW32970   3.568   2.227   7.940  0.6402 -0.6141 -0.4252
10510SOL    HW132971   3.489   2.174   7.941  0.4846 -0.3848 -0.5200
10510SOL    HW232972   3.537   2.317   7.948  0.7989 -0.4221 -1.8234
10511SOL     OW32973   2.052   4.723   5.932 -0.3542 -0.3164  0.0094
10511SOL    HW132974   2.134   4.742   5.887 -0.6184 -1.0900 -0.8181
10511SOL    HW232975   2.072   4.647   5.987  0.5327  1.7957  2.8505
10512SOL     OW32976   5.226   2.358   9.691  0.1528  0.4783  0.2499
10512SOL    HW132977   5.260   2.447   9.683 -1.7789  1.3497  1.1840
10512SOL    HW232978   5.134   2.366   9.669 -0.1124 -1.2600  0.6157
10513SOL     OW32979   6.911   3.723  11.456  0.4585  0.2229  0.1795
10513SOL    HW132980   6.948   3.677  11.531 -0.4562  1.2478  1.2875
10513SOL    HW232981   6.908   3.815  11.482  2.2665  0.9812 -1.9978
10514SOL     OW32982   4.457   1.360   2.551  0.3643 -0.1702 -0.5162
10514SOL    HW132983   4.490   1.285   2.500  1.3960 -0.7346  0.9371
10514SOL    HW232984   4.366   1.337   2.570  0.9824 -1.6573  0.9023
10515SOL     OW32985   7.232   6.094   6.953  0.2509  0.2199 -0.0301
10515SOL    HW132986   7.325   6.110   6.967  0.6170 -1.8576  0.2623
10515SOL    HW232987   7.230   6.032   6.880 -0.9744  0.9303 -0.6264
10516SOL     OW32988   7.183   7.211   8.332  0.0080 -0.1728 -0.3461
10516SOL    HW132989   7.256   7.207   8.393  0.4322 -1.3672 -0.8978
10516SOL    HW232990   7.106   7.224   8.388  0.3933 -1.1951  0.4628
10517SOL     OW32991   4.970   2.341   1.770 -0.0410  0.0461  0.6635
10517SOL    HW132992   5.048   2.390   1.792 -0.1682 -0.0099  1.2463
10517SOL    HW232993   5.001   2.272   1.710  0.2736  0.3012  0.5295
10518SOL     OW32994   3.262   0.417   7.423  0.3027 -0.0696  0.1739
10518SOL    HW132995   3.342   0.448   7.467 -0.1335 -1.4811  2.1008
10518SOL    HW232996   3.229   0.348   7.481 -0.7183 -1.5530 -2.0743
10519SOL     OW32997   3.092   7.111   9.792  0.5453  0.2581  0.5234
10519SOL    HW132998   3.081   7.066   9.876  1.5749  1.9287  1.6145
10519SOL    HW232999   3.163   7.173   9.807 -0.9657  2.4586 -0.7633
10520SOL     OW33000   4.071   5.429   9.179 -0.5636  0.2118 -0.7796
10520SOL    HW133001   4.106   5.509   9.217  0.6960 -0.0608 -1.3078
10520SOL    HW233002   3.985   5.453   9.147 -0.7262  1.0157  0.2010
10521SOL     OW33003   1.719   3.505   4.147  0.5566 -0.2235  0.6317
10521SOL    HW133004   1.740   3.539   4.060 -0.8851  0.9253  0.6987
10521SOL    HW233005   1.624   3.509   4.152  0.4864 -1.9671  1.6125
10522SOL     OW33006   3.221   7.690   3.781 -0.1069 -0.4782  0.1467
10522SOL    HW133007   3.307   7.653   3.804 -1.0291 -1.8196  1.6684
10522SOL    HW233008   3.174   7.692   3.864 -0.9879  1.8872 -0.3321
10523SOL     OW33009   0.924   1.021   2.401  0.2177  0.1947 -0.7842
10523SOL    HW133010   0.960   0.932   2.404 -0.5883 -0.1178  1.0833
10523SOL    HW233011   0.851   1.015   2.340 -0.7222 -0.8338  0.3750
10524SOL     OW33012   4.472   7.001   5.179  0.3245  0.1757  0.0750
10524SOL    HW133013   4.541   6.972   5.119 -0.7529  0.4320 -1.3510
10524SOL    HW233014   4.459   6.927   5.238  0.5081 -0.6220 -0.8495
10525SOL     OW33015   1.942   1.882   7.895 -0.0950  0.1037 -0.2876
10525SOL    HW133016   1.890   1.858   7.819  0.7300 -0.6872 -0.6184
10525SOL    HW233017   1.920   1.816   7.961  0.5534 -0.3107 -0.4698
10526SOL     OW33018   5.183   7.887  12.398 -0.3346  0.4988 -0.6355
10526SOL    HW133019   5.185   7.800  12.358  0.3079  0.1382  0.1709
10526SOL    HW233020   5.092   7.896  12.428  0.0783 -0.7670  1.1352
10527SOL     OW33021   3.118   7.857  10.588 -0.3346 -0.0956  0.2396
10527SOL    HW133022   3.141   7.776  10.633 -0.2509 -0.0299  0.3144
10527SOL    HW233023   3.107   7.831  10.496 -0.2877 -0.1870  0.2594
10528SOL     OW33024   2.433   1.450   7.222 -0.1900 -0.1387  0.0582
10528SOL    HW133025   2.474   1.469   7.138  1.2966  3.2282  1.3673
10528SOL    HW233026   2.494   1.392   7.266 -0.3530 -0.8858 -0.6857
10529SOL     OW33027   0.384   2.200   1.327 -0.2297  0.3121 -0.5628
10529SOL    HW133028   0.387   2.260   1.252  0.1092  0.9248 -0.0665
10529SOL    HW233029   0.450   2.234   1.387 -1.5667  0.7463  0.7080
10530SOL     OW33030   5.363   7.011   3.266 -0.1136 -0.2418  0.4436
10530SOL    HW133031   5.438   6.970   3.222 -0.6979  0.4777 -1.3282
10530SOL    HW233032   5.338   6.948   3.334 -0.4974 -2.5400 -1.6594
10531SOL     OW33033   4.204   5.745   5.653 -0.5373 -0.2709  0.7742
10531SOL    HW133034   4.160   5.801   5.589 -1.2737 -1.6021  0.0735
10531SOL    HW233035   4.203   5.796   5.734 -1.0382  0.7927  0.1201
10532SOL     OW33036   4.884   7.913  11.572 -0.1522  0.5153 -0.1002
10532SOL    HW133037   4.792   7.939  11.563 -0.4422  0.5774  2.3440
10532SOL    HW233038   4.910   7.887  11.483 -2.3037  1.1481 -0.9990
10533SOL     OW33039   0.994   2.110   4.129  0.6320  0.1987 -0.9421
10533SOL    HW133040   1.084   2.080   4.140  0.6048  0.5035  0.2482
10533SOL    HW233041   0.943   2.053   4.187  0.1071  0.2306 -1.3706
10534SOL     OW33042   4.310   4.107   8.919  0.7161 -0.1197 -1.0053
10534SOL    HW133043   4.234   4.082   8.972 -0.3752  3.0459 -0.8819
10534SOL    HW233044   4.385   4.072   8.967 -0.5119 -2.0940 -0.3688
10535SOL     OW33045   1.954   2.047   2.142  0.7232  0.3715  0.0603
10535SOL    HW133046   2.020   2.116   2.147  1.1651  0.0064 -0.5877
10535SOL    HW233047   1.875   2.091   2.111  0.9206  0.6497 -0.0505
10536SOL     OW33048   4.503   0.054   6.969  0.1945 -0.3684 -0.4121
10536SOL    HW133049   4.529   0.045   7.061 -0.7996  0.3277 -0.0430
10536SOL    HW233050   4.460   0.140   6.965  0.4202 -0.3022 -1.5747
10537SOL     OW33051   6.361   3.826   2.824 -0.0250  0.6601  0.1728
10537SOL    HW133052   6.409   3.766   2.767 -1.5395 -0.5360  0.0817
10537SOL    HW233053   6.306   3.877   2.764 -0.3490  0.6133  0.4303
10538SOL     OW33054   1.994   1.106  10.424  0.1883  0.3925  0.1901
10538SOL    HW133055   2.084   1.125  10.395 -0.0393 -1.0890 -1.7216
10538SOL    HW233056   1.960   1.190  10.453  2.0124  1.0949  0.4292
10539SOL     OW33057   5.082   1.283  11.301  0.4091 -0.7142  0.2445
10539SOL    HW133058   5.032   1.213  11.259  0.2447 -0.3755 -0.1322
10539SOL    HW233059   5.136   1.238  11.367 -1.2034 -0.9788  1.4579
10540SOL     OW33060   6.888   6.193  11.550  0.0905  0.3474  0.1093
10540SOL    HW133061   6.936   6.182  11.633 -0.5427  1.1379  0.5909
10540SOL    HW233062   6.866   6.286  11.547 -1.2311  0.0392 -0.1994
10541SOL     OW33063   0.096   0.468   4.193 -0.2759  0.1318  0.2838
10541SOL    HW133064   0.021   0.474   4.134 -1.1528 -1.8233  1.0979
10541SOL    HW233065   0.058   0.457   4.280  0.8216 -2.6138  0.5272
10542SOL     OW33066   3.837   4.961   3.468  0.0596  0.2834 -0.0363
10542SOL    HW133067   3.923   4.919   3.470 -0.2504 -0.3325  0.6976
10542SOL    HW233068   3.811   4.968   3.560 -2.2522 -2.8618 -0.2476
10543SOL     OW33069   0.606   4.860  11.505 -0.4655  0.6743  0.3048
10543SOL    HW133070   0.553   4.782  11.493  0.4485  0.1956 -0.7136
10543SOL    HW233071   0.557   4.912  11.569 -0.5290 -1.2209  1.8903
10544SOL     OW33072   5.279   0.986   5.626 -0.3629  0.5569 -0.9155
10544SOL    HW133073   5.344   0.932   5.671 -1.9240 -0.6454  0.0106
10544SOL    HW233074   5.330   1.041   5.567  1.3488 -1.7516 -1.7197
10545SOL     OW33075   1.071   2.040  12.001  0.2510 -0.1800 -0.0770
10545SOL    HW133076   0.990   2.084  12.027  1.3308  2.5974 -1.0891
10545SOL    HW233077   1.042   1.972  11.940 -1.3402  0.7712 -0.4614
10546SOL     OW33078   6.771   2.736   2.125 -0.5104 -0.2887  0.3288
10546SOL    HW133079   6.806   2.750   2.037 -0.9855  1.5870  0.3887
10546SOL    HW233080   6.778   2.642   2.139  2.1024 -0.3249 -0.6407
10547SOL     OW33081   1.280   6.444   3.041 -0.0244  0.3648  0.4047
10547SOL    HW133082   1.310   6.386   3.111  0.8868  1.2695  0.8007
10547SOL    HW233083   1.255   6.525   3.087 -0.0502  0.7332 -0.2493
10548SOL     OW33084   1.455   1.706   0.960  0.2459  0.1022 -0.3985
10548SOL    HW133085   1.497   1.765   0.897 -1.3438  1.1796 -0.4737
10548SOL    HW233086   1.362   1.708   0.938  0.0505 -1.9383  0.0189
10549SOL     OW33087   6.678   3.406  12.344  0.4750  1.0971 -0.2123
10549SOL    HW133088   6.651   3.463  12.272  0.5397  0.8507 -0.4355
10549SOL    HW233089   6.769   3.385  12.323  0.2929  0.4928 -0.4087
10550SOL     OW33090   7.878   3.737   6.183 -0.3268 -0.0356 -0.1010
10550SOL    HW133091   7.946   3.763   6.121 -0.3700  0.1451 -0.0737
10550SOL    HW233092   7.925   3.701   6.258 -0.1973  1.4005  0.5358
10551SOL     OW33093   4.675   1.315   7.427 -0.1694 -0.2078  1.0055
10551SOL    HW133094   4.679   1.407   7.400 -0.1167 -0.6410 -0.5348
10551SOL    HW233095   4.582   1.299   7.443 -0.2845 -0.1003  0.4702
10552SOL     OW33096   0.864   2.955   1.882 -0.3264  0.0294 -0.0848
10552SOL    HW133097   0.773   2.976   1.901 -0.0513  1.0165  0.1952
10552SOL    HW233098   0.907   3.040   1.872  0.3158 -0.4209 -1.4211
10553SOL     OW33099   2.332   7.940   4.959 -0.5439 -0.2076  0.0707
10553SOL    HW133100   2.402   8.005   4.950 -0.3988 -0.2609  0.7458
10553SOL    HW233101   2.262   7.972   4.902  0.2330 -0.4461 -1.0403
10554SOL     OW33102   0.780   6.010   9.275  0.1628  0.7208  0.2425
10554SOL    HW133103   0.796   5.971   9.361 -0.4696  0.1028  0.0882
10554SOL    HW233104   0.695   6.053   9.284  0.1514  0.7586 -0.0388
10555SOL     OW33105   3.108   7.774   1.639 -0.1511  0.2911  0.1158
10555SOL    HW133106   3.041   7.829   1.598 -1.2515 -0.6530  0.5613
10555SOL    HW233107   3.102   7.794   1.733 -0.5921 -0.5605  0.2900
10556SOL     OW33108   4.052   4.633   2.444 -0.6473 -0.9488  0.4401
10556SOL    HW133109   4.016   4.605   2.528 -0.4347 -1.8087  0.2517
10556SOL    HW233110   4.051   4.554   2.390 -1.5003 -0.2442 -0.6243
10557SOL     OW33111   1.995   5.904   2.658  0.2401 -0.3124 -0.4680
10557SOL    HW133112   1.936   5.979   2.661 -0.7453 -1.0706  3.2463
10557SOL    HW233113   2.019   5.887   2.749  1.3343 -3.8077 -1.2391
10558SOL     OW33114   2.064   7.697   2.407  0.2895  0.0535 -0.0599
10558SOL    HW133115   2.104   7.783   2.422  1.9162 -0.7795  0.5410
10558SOL    HW233116   2.134   7.645   2.368  0.1846 -1.7860  2.0453
10559SOL     OW33117   7.914   3.194   0.979 -0.2659  0.3426  0.1627
10559SOL    HW133118   7.857   3.176   1.055 -0.9132 -0.5371 -0.5053
10559SOL    HW233119   7.934   3.287   0.986  1.4659 -0.0895  2.6235
10560SOL     OW33120   5.773   5.238  11.623  0.6168 -0.2934  0.3342
10560SOL    HW133121   5.761   5.209  11.714 -0.2444 -0.3936  0.1956
10560SOL    HW233122   5.686   5.231  11.584  0.3955  2.3380  0.2344
10561SOL     OW33123   4.324   1.503   5.178 -0.3118 -0.0329 -0.2074
10561SOL    HW133124   4.259   1.459   5.233 -0.2085 -0.1375 -0.1676
10561SOL    HW233125   4.272   1.547   5.110 -0.3579 -1.5845 -1.2518
10562SOL     OW33126   0.025   5.801   4.462 -0.7506 -0.7423 -0.0232
10562SOL    HW133127  -0.029   5.822   4.386  0.5487 -1.8120 -1.2892
10562SOL    HW233128   0.011   5.708   4.478  0.9106 -1.1277 -0.5897
10563SOL     OW33129   6.124   0.673   9.491 -0.0988 -0.0707 -0.2779
10563SOL    HW133130   6.158   0.604   9.547 -0.3806  0.4937  0.5986
10563SOL    HW233131   6.069   0.627   9.427 -0.0128 -0.6891  0.0902
10564SOL     OW33132   1.666   1.709  11.953 -0.6326 -0.4419  0.0319
10564SOL    HW133133   1.603   1.716  11.881 -0.6883 -0.8789  0.0365
10564SOL    HW233134   1.654   1.621  11.987  0.1946 -0.6335 -0.1604
10565SOL     OW33135   4.587   1.031   2.012 -0.0125 -0.2842  0.1177
10565SOL    HW133136   4.613   0.974   1.940 -0.2458 -1.5269  0.9772
10565SOL    HW233137   4.510   1.078   1.979  0.0295 -0.6522 -0.5262
10566SOL     OW33138   2.473   7.173   4.642  0.6230  0.2008  0.6978
10566SOL    HW133139   2.563   7.205   4.634  0.9899 -0.7880  0.6491
10566SOL    HW233140   2.471   7.128   4.726  0.1105  0.4074  0.7962
10567SOL     OW33141   1.247   2.333  12.265  0.0476  0.0791  0.1292
10567SOL    HW133142   1.322   2.391  12.253 -0.6148  0.7936 -0.6436
10567SOL    HW233143   1.224   2.342  12.358  0.0843  0.8787  0.0640
10568SOL     OW33144   5.205   2.148   1.109 -0.0710  0.0920 -0.6460
10568SOL    HW133145   5.197   2.241   1.088  0.1432  0.5472  1.1087
10568SOL    HW233146   5.299   2.134   1.120  0.3791 -1.2710 -4.5210
10569SOL     OW33147   0.353   0.448   2.506  0.2624 -0.3379 -0.6943
10569SOL    HW133148   0.320   0.434   2.594  1.1578  1.2793 -0.0473
10569SOL    HW233149   0.444   0.417   2.509 -0.1476 -1.7104 -1.5167
10570SOL     OW33150   5.871   1.850  11.816 -0.5097 -0.4133  0.0319
10570SOL    HW133151   5.919   1.853  11.733  1.3292  1.4041  1.0480
10570SOL    HW233152   5.847   1.942  11.833 -2.0914 -0.9449  0.8542
10571SOL     OW33153   3.120   3.200   3.966  0.6218  0.1634  0.1070
10571SOL    HW133154   3.052   3.204   3.899 -0.0902  1.8903  0.8685
10571SOL    HW233155   3.202   3.193   3.917  0.0702  0.6543 -0.9080
10572SOL     OW33156   7.145   4.678  11.588  0.1615 -0.2704  0.1604
10572SOL    HW133157   7.071   4.647  11.641 -0.7775 -0.2096 -1.0678
10572SOL    HW233158   7.178   4.754  11.635 -0.3492 -0.4926  0.8970
10573SOL     OW33159   4.867   5.174  10.927 -0.4488 -0.0845 -0.2276
10573SOL    HW133160   4.821   5.105  10.976  0.1585 -1.2359 -1.2070
10573SOL    HW233161   4.960   5.155  10.941 -0.2572 -0.6883 -2.0933
10574SOL     OW33162   7.861   0.811  10.203 -0.5482 -0.3533 -0.5521
10574SOL    HW133163   7.946   0.852  10.184  0.1467 -1.2006  0.6064
10574SOL    HW233164   7.809   0.826  10.124  0.7273  0.0716 -1.3418
10575SOL     OW33165   2.996   1.485   4.296 -0.1321 -0.2924  0.3718
10575SOL    HW133166   3.057   1.415   4.272  0.9873  0.0638  2.0129
10575SOL    HW233167   2.974   1.467   4.387  0.2192  1.4985  0.8491
10576SOL     OW33168   5.146   3.522   6.342  0.3013  0.3337  0.3437
10576SOL    HW133169   5.102   3.447   6.301  0.1247  0.3924  0.4231
10576SOL    HW233170   5.074   3.579   6.369  0.3564 -0.2254  1.7339
10577SOL     OW33171   0.268   5.995   6.755  0.0279 -0.5357 -0.1293
10577SOL    HW133172   0.275   6.019   6.663  3.9903  0.9054  0.3483
10577SOL    HW233173   0.200   6.053   6.790 -1.3681 -0.9371 -2.0085
10578SOL     OW33174   6.979   5.810   1.872  0.5380 -0.4951  0.0854
10578SOL    HW133175   6.973   5.842   1.962  0.6327  1.2405 -0.4906
10578SOL    HW233176   6.899   5.759   1.858 -1.5362  2.5360 -0.0550
10579SOL     OW33177   4.631   3.348   2.221 -0.1020 -0.0235  0.4308
10579SOL    HW133178   4.651   3.349   2.127 -1.8014  1.9985  0.0287
10579SOL    HW233179   4.599   3.259   2.238  0.9969 -0.6660 -0.6829
10580SOL     OW33180   6.920   3.311   3.600 -0.1588  0.7648 -0.7664
10580SOL    HW133181   6.958   3.397   3.585 -1.6038  1.3350 -1.2887
10580SOL    HW233182   6.861   3.323   3.674 -0.6770  0.3201 -1.1017
10581SOL     OW33183   7.320   1.890   0.025 -0.4170 -0.1194 -0.5146
10581SOL    HW133184   7.236   1.934   0.021  0.8675  2.4450 -1.6269
10581SOL    HW233185   7.324   1.837  -0.055 -0.5394  0.6076 -1.0041
10582SOL     OW33186   7.397   0.820   5.728 -0.4026 -0.0366 -0.1206
10582SOL    HW133187   7.449   0.771   5.664  0.4826  1.2738 -0.4480
10582SOL    HW233188   7.462   0.869   5.779 -1.2454  0.7266  0.2364
10583SOL     OW33189   2.511   0.090  10.665 -0.0029  0.1801  0.2324
10583SOL    HW133190   2.493   0.013  10.611  1.1809  1.5546 -2.2967
10583SOL    HW233191   2.540   0.055  10.749 -1.7109 -2.0727 -0.0285
10584SOL     OW33192   7.787   7.153   5.673 -0.2801  0.3335  0.3179
10584SOL    HW133193   7.849   7.153   5.745  1.0705  0.9550 -0.7966
10584SOL    HW233194   7.702   7.136   5.714  0.4772  0.4448  1.9996
10585SOL     OW33195   1.859   0.612   6.127  0.3092 -0.0462  0.4340
10585SOL    HW133196   1.788   0.570   6.077  1.3588 -1.5407  0.1313
10585SOL    HW233197   1.849   0.578   6.216  0.0686  0.5004  0.6174
10586SOL     OW33198   3.856   5.986  11.763 -0.4034 -0.1303 -0.3202
10586SOL    HW133199   3.946   5.969  11.734 -0.4019  0.3228 -0.5820
10586SOL    HW233200   3.818   6.041  11.694 -0.6774  0.2139  0.1002
10587SOL     OW33201   7.359   1.989   6.522 -0.0073  0.0498  0.2660
10587SOL    HW133202   7.396   1.960   6.439  0.0029 -1.4900  0.7675
10587SOL    HW233203   7.292   1.925   6.542 -1.4910  1.5894  0.4445
10588SOL     OW33204   0.989   3.974  11.693  0.3611  0.4565  0.0970
10588SOL    HW133205   1.020   3.962  11.603  1.0402  1.7353  0.1286
10588SOL    HW233206   1.047   3.918  11.746  0.2623  0.0623 -0.2075
10589SOL     OW33207   2.119   1.720   4.484 -0.1628 -0.0580 -0.0444
10589SOL    HW133208   2.164   1.714   4.400  1.0216 -0.2360  0.5805
10589SOL    HW233209   2.140   1.808   4.516  0.6343 -0.5281  0.7410
10590SOL     OW33210   0.004   1.395   4.798  0.1396 -0.2018  0.0423
10590SOL    HW133211   0.062   1.393   4.723  0.6563 -1.1500  0.4485
10590SOL    HW233212   0.052   1.350   4.867 -0.0062  1.3048  1.1888
10591SOL     OW33213   7.614   3.414   9.848  0.3202  0.1458 -0.2102
10591SOL    HW133214   7.534   3.363   9.846  0.1783  0.3535  0.1001
10591SOL    HW233215   7.620   3.453   9.760  0.4430 -0.4176 -0.4530
10592SOL     OW33216   2.697   7.978   2.518 -0.3007 -0.0194  0.1751
10592SOL    HW133217   2.690   8.067   2.485 -0.4862 -0.5305 -1.2358
10592SOL    HW233218   2.787   7.971   2.549  0.4474 -0.0133 -1.8505
10593SOL     OW33219   0.804   3.675   8.283 -0.0585 -0.2274 -0.2009
10593SOL    HW133220   0.719   3.648   8.317  0.4247  0.1878  1.4463
10593SOL    HW233221   0.853   3.703   8.360  1.8385 -1.1170 -1.0188
10594SOL     OW33222   6.519   2.306   4.291 -0.1651  0.5429  0.0124
10594SOL    HW133223   6.514   2.275   4.382  0.9152  1.0194  0.2567
10594SOL    HW233224   6.522   2.401   4.299  1.6947  0.5621 -0.3794
10595SOL     OW33225   2.084   4.878   7.095 -0.7730 -0.5082 -0.1213
10595SOL    HW133226   2.036   4.823   7.033  1.8866 -1.0084 -1.9227
10595SOL    HW233227   2.096   4.961   7.049  1.1350 -0.8453 -0.3260
10596SOL     OW33228   1.636   2.389   3.765 -0.1002 -0.0939 -0.3361
10596SOL    HW133229   1.630   2.312   3.823  1.2291  0.3767  0.4577
10596SOL    HW233230   1.700   2.364   3.699  0.2503  0.2852 -0.1426
10597SOL     OW33231   0.725   5.180   7.390 -0.7116 -0.3323  0.0785
10597SOL    HW133232   0.785   5.187   7.464 -0.6112 -0.0534 -0.0264
10597SOL    HW233233   0.699   5.088   7.388  1.7828 -1.1023 -1.4845
10598SOL     OW33234   4.923   4.925  10.505 -0.1823 -0.2028  0.4284
10598SOL    HW133235   4.968   4.920  10.589 -0.6111 -0.6413  0.6379
10598SOL    HW233236   4.833   4.949  10.526 -0.6503 -1.6587  0.2366
10599SOL     OW33237   3.311   0.789  10.892 -0.0000 -0.6765  0.0113
10599SOL    HW133238   3.232   0.741  10.868 -0.6002  0.1766  0.2563
10599SOL    HW233239   3.325   0.850  10.819 -0.0388 -0.2608  0.3485
10600SOL     OW33240   3.130   1.551   3.121  0.4631  0.2579 -0.6969
10600SOL    HW133241   3.140   1.497   3.043  0.5922  0.2908 -0.7036
10600SOL    HW233242   3.077   1.498   3.181  0.9619 -0.0627 -0.5293
10601SOL     OW33243   6.479   0.209  11.071  0.4105  0.3625 -0.0178
10601SOL    HW133244   6.439   0.294  11.093 -1.6462 -0.5720  0.0984
10601SOL    HW233245   6.493   0.167  11.156  1.8652  0.7386 -0.0509
10602SOL     OW33246   7.208   3.247   6.998  0.4649 -0.0017  0.3383
10602SOL    HW133247   7.189   3.178   6.935 -0.3047  1.6052 -1.2753
10602SOL    HW233248   7.216   3.327   6.946  5.5929  0.6162  1.5252
10603SOL     OW33249   6.630   6.296  10.311 -0.1775 -0.3743 -0.0924
10603SOL    HW133250   6.536   6.278  10.305 -0.2324  0.0343 -0.4687
10603SOL    HW233251   6.657   6.311  10.221 -0.2496  2.0124  0.2200
10604SOL     OW33252   3.937   5.035   2.500 -0.4681 -0.2482 -0.2224
10604SOL    HW133253   3.962   5.103   2.562  0.6680 -1.0431  0.2383
10604SOL    HW233254   4.008   4.971   2.506 -1.1303 -1.0999 -1.1979
10605SOL     OW33255   3.172   3.118  11.588 -0.5153  0.5440 -0.5925
10605SOL    HW133256   3.161   3.081  11.501  0.2022  1.4553 -1.0952
10605SOL    HW233257   3.241   3.066  11.628 -0.4862  0.4478 -0.7683
10606SOL     OW33258   5.946   4.424   6.808 -0.7100 -0.2549  0.1818
10606SOL    HW133259   5.900   4.504   6.834  3.5479  2.3982  0.4295
10606SOL    HW233260   5.949   4.428   6.713 -0.5922 -0.2144  0.1881
10607SOL     OW33261   7.675   1.090   0.731 -0.5443 -0.4944  0.0422
10607SOL    HW133262   7.629   1.086   0.648  0.2838 -0.9714 -0.4023
10607SOL    HW233263   7.768   1.087   0.708 -0.1277  2.8179  0.7546
10608SOL     OW33264   2.156   6.544   0.379  0.3960  0.0699  0.3241
10608SOL    HW133265   2.218   6.600   0.332 -0.5849 -0.3594 -1.5962
10608SOL    HW233266   2.135   6.593   0.459  0.9630  1.5904 -0.4186
10609SOL     OW33267   7.870   3.522   2.494 -0.0378 -0.2547 -0.3151
10609SOL    HW133268   7.783   3.498   2.462  0.0727 -2.4082  0.8564
10609SOL    HW233269   7.924   3.445   2.478  1.7748  1.1271 -1.2645
10610SOL     OW33270   4.369   5.156   7.235 -0.2055 -0.3697  0.7831
10610SOL    HW133271   4.377   5.086   7.171 -0.4257 -1.0067  1.4315
10610SOL    HW233272   4.448   5.149   7.289  0.1281  0.3570  0.4000
10611SOL     OW33273   1.802   7.791   7.020  0.4199 -0.0243 -0.0752
10611SOL    HW133274   1.872   7.836   7.068  0.7335 -1.0809  0.4878
10611SOL    HW233275   1.832   7.791   6.929  1.3743 -0.8496  0.2205
10612SOL     OW33276   3.365   0.099  11.917  0.1167  1.0051  0.3393
10612SOL    HW133277   3.432   0.160  11.885  0.1972  0.5818 -0.3121
10612SOL    HW233278   3.289   0.115  11.861  0.9592 -1.2561 -1.5855
10613SOL     OW33279   5.865   2.684   9.585  0.0185 -0.5890 -0.0752
10613SOL    HW133280   5.797   2.644   9.529  0.0631  0.5509 -0.9818
10613SOL    HW233281   5.917   2.736   9.525 -0.3379  1.2374  1.1294
10614SOL     OW33282   5.032   0.363   5.754  0.1779 -0.0571  0.6241
10614SOL    HW133283   4.974   0.402   5.689  1.6897 -0.9193 -1.3709
10614SOL    HW233284   4.977   0.301   5.802 -0.7101 -0.3681 -0.7523
10615SOL     OW33285   2.953   7.671  11.465 -0.5727  0.4253 -0.1273
10615SOL    HW133286   2.965   7.642  11.556  0.3722  1.8642  0.2496
10615SOL    HW233287   3.042   7.673  11.429 -0.8067  1.0557 -0.6901
10616SOL     OW33288   3.734   6.635  10.284  0.0096  0.0408 -0.2848
10616SOL    HW133289   3.767   6.555  10.326 -1.7392 -0.4786  0.1604
10616SOL    HW233290   3.715   6.694  10.357 -2.7440 -0.7514 -0.2522
10617SOL     OW33291   0.041   1.270   3.259  0.0508 -0.6313 -0.2387
10617SOL    HW133292   0.093   1.345   3.228  2.7195 -2.9447 -1.8751
10617SOL    HW233293   0.007   1.298   3.344  2.0598  1.9549 -0.1410
10618SOL     OW33294   3.317   1.750   1.701 -0.2749  0.6012 -0.0907
10618SOL    HW133295   3.312   1.729   1.608  1.9794 -0.4620 -0.0282
10618SOL    HW233296   3.245   1.701   1.741  0.5698 -1.3913 -0.9126
10619SOL     OW33297   3.700   1.482  10.917  0.3470  0.2259  0.0301
10619SOL    HW133298   3.725   1.479  10.825  0.5179  0.3212  0.0727
10619SOL    HW233299   3.771   1.530  10.959 -0.5952  1.7812 -0.0847
10620SOL     OW33300   1.396   0.215   2.728 -0.1499  0.1400  0.3656
10620SOL    HW133301   1.333   0.281   2.757  1.1146  1.3479  0.4964
10620SOL    HW233302   1.442   0.188   2.807 -1.8257 -2.2843  0.6131
10621SOL     OW33303   2.441   5.895   8.727 -0.0227 -0.2125  0.0160
10621SOL    HW133304   2.521   5.862   8.768  0.5723  0.5514 -0.5070
10621SOL    HW233305   2.382   5.910   8.801  0.5064 -0.2769  0.4646
10622SOL     OW33306   7.482   3.529   4.088  0.7129 -0.2561 -0.2712
10622SOL    HW133307   7.520   3.450   4.049 -0.3826 -0.6161 -0.6530
10622SOL    HW233308   7.388   3.521   4.071  0.3807  0.2978  1.2034
10623SOL     OW33309   5.639   5.305   9.646  0.4867 -0.4674  0.1789
10623SOL    HW133310   5.570   5.327   9.584  0.5279 -3.5260 -1.0906
10623SOL    HW233311   5.645   5.210   9.644 -0.8422 -1.1371  6.3027
10624SOL     OW33312   1.560   1.956   9.176  0.2342  0.5426 -0.8621
10624SOL    HW133313   1.615   2.013   9.122 -0.6144  1.8545 -0.3692
10624SOL    HW233314   1.600   1.959   9.262  0.0829  0.5432 -0.7916
10625SOL     OW33315   3.415   6.510  10.929 -0.2166 -0.0460  0.0192
10625SOL    HW133316   3.389   6.429  10.886 -1.1274 -0.0941  0.6245
10625SOL    HW233317   3.443   6.483  11.017  0.2515  0.2031 -0.0522
10626SOL     OW33318   3.916   1.313   2.738 -0.1968  0.2965 -1.0860
10626SOL    HW133319   3.922   1.233   2.790 -2.6994  1.4643  1.2713
10626SOL    HW233320   3.835   1.304   2.688 -1.3820  1.8665  0.3992
10627SOL     OW33321   6.913   2.849   0.118 -0.4449 -0.5582  0.0322
10627SOL    HW133322   6.988   2.838   0.176  0.6268  2.1831 -0.6737
10627SOL    HW233323   6.840   2.870   0.176 -0.0582 -0.6835  0.5658
10628SOL     OW33324   2.929   2.941  11.112 -0.5298 -0.1635 -0.0919
10628SOL    HW133325   2.910   3.025  11.152  2.0611  0.2783  0.3584
10628SOL    HW233326   2.916   2.877  11.182  3.5990  0.5654  1.6032
10629SOL     OW33327   5.996   3.063   9.426 -0.8986  0.0027 -0.0514
10629SOL    HW133328   6.016   2.975   9.396 -0.4228  0.3851 -0.9246
10629SOL    HW233329   5.958   3.052   9.513  0.5673 -0.9571  0.5026
10630SOL     OW33330   3.729   6.892   2.721 -0.4400  0.5674 -0.1474
10630SOL    HW133331   3.774   6.955   2.664  1.7073  0.4327  1.2957
10630SOL    HW233332   3.755   6.806   2.688 -1.5424  0.4220 -0.7035
10631SOL     OW33333   2.053   3.913  10.720 -0.3289  0.2657 -0.2192
10631SOL    HW133334   2.141   3.941  10.698  0.0988 -0.9326 -0.1214
10631SOL    HW233335   2.065   3.844  10.785 -1.2946 -0.4029 -0.7128
10632SOL     OW33336   3.312   0.837   3.324 -0.8222 -0.0813 -0.2556
10632SOL    HW133337   3.241   0.825   3.261 -1.8034 -0.6242  0.9024
10632SOL    HW233338   3.277   0.802   3.406  0.0968  1.3548  0.7998
10633SOL     OW33339   6.513   6.565  10.221  0.3388  0.3357 -0.4598
10633SOL    HW133340   6.582   6.631  10.212  1.3096 -0.1890  2.2132
10633SOL    HW233341   6.558   6.488  10.255 -1.3196 -0.5853 -0.2472
10634SOL     OW33342   5.498   1.744   0.993  0.1112 -0.0525  0.2017
10634SOL    HW133343   5.505   1.840   1.000  0.4256  0.0281 -1.0156
10634SOL    HW233344   5.426   1.721   1.052 -0.9463  1.1006 -0.5831
10635SOL     OW33345   7.121   2.295   2.020 -0.2981  0.1356  0.1648
10635SOL    HW133346   7.104   2.330   2.107 -0.9209 -1.8476  0.8743
10635SOL    HW233347   7.121   2.200   2.031  1.2424 -0.1412 -1.7020
10636SOL     OW33348   5.500   7.448   4.740 -0.0027  0.3252 -0.5215
10636SOL    HW133349   5.483   7.516   4.806 -3.0759 -1.0512  0.2908
10636SOL    HW233350   5.467   7.368   4.779  2.3395 -1.4898 -1.9736
10637SOL     OW33351   7.519   7.717   1.817 -0.0177  0.0616 -0.2707
10637SOL    HW133352   7.564   7.708   1.733 -1.2747  0.4434 -1.0162
10637SOL    HW233353   7.551   7.800   1.852  0.4460 -0.0525 -0.4163
10638SOL     OW33354   1.187   6.663   6.098  0.1187 -0.0157 -0.0823
10638SOL    HW133355   1.091   6.670   6.104  0.0467 -1.3119  0.8870
10638SOL    HW233356   1.216   6.750   6.072 -1.4549 -0.0938 -2.3767
10639SOL     OW33357   4.457   6.790   0.377 -0.3743  0.2278  0.0091
10639SOL    HW133358   4.381   6.755   0.330 -1.3463  1.9109  0.2309
10639SOL    HW233359   4.430   6.789   0.469  0.8859 -1.5266  0.3910
10640SOL     OW33360   3.978   4.442   2.271  0.1268 -0.4175 -0.1668
10640SOL    HW133361   3.984   4.478   2.183 -2.4816  1.1410  0.1929
10640SOL    HW233362   3.902   4.384   2.269 -0.9954  0.8984  1.3901
10641SOL     OW33363   2.684   7.977   6.915 -0.1687  0.4846  0.1287
10641SOL    HW133364   2.648   8.017   6.994 -0.5520  2.5066 -1.0021
10641SOL    HW233365   2.765   8.024   6.899  0.0068 -0.0441 -0.5669
10642SOL     OW33366   0.354   5.840   1.866 -0.1249  0.4572 -0.3232
10642SOL    HW133367   0.354   5.889   1.948 -2.5828 -0.2790  0.2345
10642SOL    HW233368   0.297   5.890   1.808 -1.8278 -1.0506 -0.0870
10643SOL     OW33369   4.594   5.946   2.324  0.1637 -0.5244 -0.5800
10643SOL    HW133370   4.575   5.910   2.237 -2.2318  0.4606 -0.5345
10643SOL    HW233371   4.607   6.040   2.308 -0.3604 -0.3303  0.1175
10644SOL     OW33372   6.941   6.205  11.258  0.3571 -0.0174 -0.2336
10644SOL    HW133373   6.866   6.169  11.210 -1.4064 -0.6469  2.7694
10644SOL    HW233374   6.919   6.192  11.350  2.7960  2.6148  0.8513
10645SOL     OW33375   3.060   1.784   0.113  0.0336 -0.1018  0.6270
10645SOL    HW133376   3.102   1.870   0.112  2.6332 -1.2885 -0.9086
10645SOL    HW233377   2.991   1.791   0.047  0.8016  0.5593 -0.1305
10646SOL     OW33378   3.789   1.670   2.826  0.0353  0.1536 -0.1144
10646SOL    HW133379   3.822   1.622   2.902 -2.0769  0.9570  1.4187
10646SOL    HW233380   3.696   1.646   2.821 -0.4789  2.0928 -0.8419
10647SOL     OW33381   0.336   5.003   5.812  0.1595 -1.0158 -0.1300
10647SOL    HW133382   0.372   4.969   5.895  2.6881  2.2141  0.2831
10647SOL    HW233383   0.249   5.035   5.836  0.2369 -1.4869  0.8801
10648SOL     OW33384   7.447   6.961   7.902 -0.5784 -0.1619  0.0068
10648SOL    HW133385   7.437   6.867   7.915  1.0131 -0.3823 -0.1214
10648SOL    HW233386   7.378   7.000   7.955  1.3826 -1.2512  3.7319
10649SOL     OW33387   3.384   6.872   2.443 -0.5724 -0.1746  0.2724
10649SOL    HW133388   3.327   6.899   2.371 -0.5782 -0.5434  0.1393
10649SOL    HW233389   3.342   6.908   2.522 -1.0750 -0.5831  0.1944
10650SOL     OW33390   0.994   2.611   0.312  0.1849 -0.5297 -0.0452
10650SOL    HW133391   1.072   2.663   0.330  0.1732 -0.1910 -0.9187
10650SOL    HW233392   0.958   2.649   0.232 -0.0282 -1.6552 -0.5007
10651SOL     OW33393   0.797   2.795  10.102 -0.9248  0.2531  0.1031
10651SOL    HW133394   0.790   2.734  10.175 -0.3853  0.0207 -0.0394
10651SOL    HW233395   0.733   2.864  10.123 -0.8442  0.1424  0.7455
10652SOL     OW33396   2.755   1.201   8.215  0.0379  0.1425  0.0510
10652SOL    HW133397   2.754   1.293   8.241  0.4328 -0.2182  1.3956
10652SOL    HW233398   2.848   1.178   8.214 -0.0482 -0.2011 -0.4634
10653SOL     OW33399   3.585   1.729   4.303 -0.8259  0.1442 -0.4472
10653SOL    HW133400   3.649   1.693   4.241 -0.5060  0.8252 -0.5227
10653SOL    HW233401   3.565   1.816   4.268 -0.6769  0.5183  0.3782
10654SOL     OW33402   1.437   3.168   3.166  0.2637  0.2282 -0.0394
10654SOL    HW133403   1.455   3.089   3.113 -1.6865  0.1287 -0.6383
10654SOL    HW233404   1.506   3.229   3.141  1.9833 -1.3336  0.6212
10655SOL     OW33405   5.780   5.787   3.130 -0.1776 -0.2180  0.0232
10655SOL    HW133406   5.772   5.759   3.039 -0.3793  0.1625 -0.0755
10655SOL    HW233407   5.761   5.881   3.128  0.4408 -0.0845  0.3627
10656SOL     OW33408   7.512   7.529   2.209 -0.0057 -0.8319  0.4195
10656SOL    HW133409   7.459   7.508   2.132  0.5720  2.5982 -1.0872
10656SOL    HW233410   7.472   7.478   2.280 -1.7205 -2.7017 -1.7349
10657SOL     OW33411   7.224   7.288   2.252  0.2089 -0.5144  0.2131
10657SOL    HW133412   7.141   7.253   2.284 -0.5159  0.9994  0.0945
10657SOL    HW233413   7.225   7.265   2.159  1.0298 -2.5175  0.6658
10658SOL     OW33414   0.770   4.581   0.558  0.0417  0.1120  0.0283
10658SOL    HW133415   0.841   4.625   0.605 -0.2156  1.6934 -0.9727
10658SOL    HW233416   0.696   4.584   0.618  1.0165 -2.5798  1.5572
10659SOL     OW33417   1.534   6.464   8.208 -0.1472 -0.1488  0.2499
10659SOL    HW133418   1.583   6.413   8.144 -0.1331 -1.1428  1.0266
10659SOL    HW233419   1.599   6.490   8.273 -0.5381 -1.1497  1.0812
10660SOL     OW33420   3.074   1.011   5.490  0.1994  0.1101 -0.2463
10660SOL    HW133421   3.003   1.074   5.477  0.4028  0.4224  0.1380
10660SOL    HW233422   3.147   1.064   5.522 -0.0758 -0.5176  1.5375
10661SOL     OW33423   6.510   2.148   1.765 -0.0419  0.1082 -0.2639
10661SOL    HW133424   6.525   2.195   1.684 -1.2828  0.4148 -0.3310
10661SOL    HW233425   6.576   2.078   1.765  1.2808  1.3027 -0.5542
10662SOL     OW33426   3.548   3.725   0.468 -0.0105 -0.0904 -0.4259
10662SOL    HW133427   3.472   3.672   0.490 -0.5452  0.1541 -1.6441
10662SOL    HW233428   3.612   3.704   0.536 -1.7345  0.9478  1.6407
10663SOL     OW33429   7.787   1.226   2.952 -0.0382 -0.8470  0.3849
10663SOL    HW133430   7.882   1.239   2.960  0.1092 -0.9764 -0.8648
10663SOL    HW233431   7.776   1.131   2.956 -0.1041 -0.8366  0.4484
10664SOL     OW33432   1.239   4.550   1.186 -0.2541 -0.7356 -0.5137
10664SOL    HW133433   1.238   4.454   1.183 -1.6135 -0.7237 -1.0617
10664SOL    HW233434   1.193   4.577   1.107  0.8674  0.4093 -0.8130
10665SOL     OW33435   2.845   0.561   1.837 -0.2664 -0.1002 -0.4207
10665SOL    HW133436   2.848   0.469   1.811  0.9166 -0.2181  0.0678
10665SOL    HW233437   2.935   0.592   1.827 -0.7202  1.1051 -0.9168
10666SOL     OW33438   7.757   4.374  11.351 -0.8291  0.1606  0.1951
10666SOL    HW133439   7.798   4.295  11.316 -1.4362  0.5884 -1.5865
10666SOL    HW233440   7.831   4.432  11.369 -0.4933  0.0478 -0.7453
10667SOL     OW33441   7.006   5.642   4.871 -0.0833  0.3461  0.1080
10667SOL    HW133442   7.007   5.693   4.952  1.0570  0.2099  0.1991
10667SOL    HW233443   6.923   5.666   4.828 -0.7123  0.4008  1.3131
10668SOL     OW33444   3.138   1.968   6.606  0.4623 -0.2182 -0.3792
10668SOL    HW133445   3.171   2.052   6.639  2.4836 -0.5459 -1.4749
10668SOL    HW233446   3.056   1.990   6.563  0.1878  0.9382  0.6726
10669SOL     OW33447   3.359   1.037   7.983  0.0545  0.1484 -0.1195
10669SOL    HW133448   3.354   1.131   7.966 -0.8342  0.2566  0.6731
10669SOL    HW233449   3.453   1.019   7.992  0.2941  0.7788 -1.1749
10670SOL     OW33450   1.240   5.137   1.566 -0.4843  0.1356  0.9055
10670SOL    HW133451   1.269   5.102   1.651  2.6228  0.5973  0.1604
10670SOL    HW233452   1.247   5.232   1.575 -2.3354  0.3148  0.7872
10671SOL     OW33453   1.666   0.092   7.698  0.4974  0.2256 -0.4141
10671SOL    HW133454   1.571   0.105   7.699  0.6810  1.6659 -0.2224
10671SOL    HW233455   1.692   0.101   7.790  1.0276  1.6626 -0.6861
10672SOL     OW33456   6.786   0.387   0.751  0.1378  0.4424 -0.2793
10672SOL    HW133457   6.701   0.426   0.772 -0.0756  0.0400 -0.3767
10672SOL    HW233458   6.835   0.389   0.833 -0.3190 -0.1945  0.0192
10673SOL     OW33459   3.407   1.888  11.495 -0.2808 -0.2736  0.3905
10673SOL    HW133460   3.405   1.857  11.404  0.1033 -1.0666  0.6401
10673SOL    HW233461   3.380   1.979  11.490 -0.8218 -0.4708 -0.4531
10674SOL     OW33462   5.235   1.412   3.513  0.2250  0.1211  0.0374
10674SOL    HW133463   5.309   1.361   3.546  0.9312  0.6513 -0.6823
10674SOL    HW233464   5.228   1.487   3.571  1.2432  0.8704 -0.7717
10675SOL     OW33465   3.642   2.799   2.256 -0.0500  0.0666  0.0624
10675SOL    HW133466   3.723   2.749   2.241  1.6124  2.5844  0.1063
10675SOL    HW233467   3.624   2.787   2.349 -0.2026 -1.1239 -0.1025
10676SOL     OW33468   7.741   6.949   9.778 -0.2035  0.2552  0.1170
10676SOL    HW133469   7.721   6.873   9.723 -1.6410  0.6990 -0.0214
10676SOL    HW233470   7.806   6.917   9.841 -0.5522 -1.0064 -0.1389
10677SOL     OW33471   3.904   6.637   8.396  0.0898  0.2856 -0.0502
10677SOL    HW133472   3.822   6.626   8.348 -0.3942  0.5851  0.7074
10677SOL    HW233473   3.947   6.551   8.389  0.9506  0.8439 -2.6718
10678SOL     OW33474   6.548   5.838   3.463 -0.9204  0.4473  1.0445
10678SOL    HW133475   6.485   5.890   3.413 -0.9440 -0.5871 -0.0454
10678SOL    HW233476   6.528   5.857   3.555  0.1036  3.5740  0.7313
10679SOL     OW33477   6.851   7.535   3.237  0.8374 -0.0629 -0.1804
10679SOL    HW133478   6.878   7.444   3.242  0.5834 -0.1252  0.1144
10679SOL    HW233479   6.780   7.542   3.300  1.7608  0.6586  0.8183
10680SOL     OW33480   0.746   5.193   6.105 -0.5623 -0.4290  0.2183
10680SOL    HW133481   0.670   5.212   6.160 -1.1883 -0.5142 -0.6052
10680SOL    HW233482   0.721   5.115   6.056 -1.9013  2.0708 -3.5503
10681SOL     OW33483   3.025   7.876   8.883  0.4404 -0.4328 -0.4240
10681SOL    HW133484   2.959   7.826   8.835 -1.1799 -0.0312  1.2657
10681SOL    HW233485   3.080   7.809   8.924 -0.8399 -0.8738  0.6517
10682SOL     OW33486   6.172   7.347   1.568 -0.2079  0.4268  0.2067
10682SOL    HW133487   6.172   7.319   1.476 -0.9349  1.0080  0.0242
10682SOL    HW233488   6.246   7.407   1.574  1.1727 -1.2145  0.5264
10683SOL     OW33489   7.511   1.383   5.937  0.3806  0.2726  0.1327
10683SOL    HW133490   7.487   1.297   5.901  0.3557 -0.3640  1.6176
10683SOL    HW233491   7.564   1.423   5.868  1.5982 -1.5135 -0.0530
10684SOL     OW33492   4.283   2.657  10.148 -0.4713  0.4844  0.0115
10684SOL    HW133493   4.275   2.752  10.146 -2.9045  0.3370 -0.9023
10684SOL    HW233494   4.235   2.631  10.227  0.7887  0.0284  0.6472
10685SOL     OW33495   1.355   0.747   8.001 -0.0286 -0.1045 -0.0436
10685SOL    HW133496   1.350   0.771   7.908 -0.1396  0.2585  0.0561
10685SOL    HW233497   1.402   0.819   8.042  2.0624 -1.3074 -0.1837
10686SOL     OW33498   1.804   2.487  10.054 -0.3265 -0.5655 -0.2700
10686SOL    HW133499   1.799   2.583  10.063  0.4147 -0.5209 -0.2834
10686SOL    HW233500   1.897   2.468  10.058 -0.5447 -1.4477  1.3188
10687SOL     OW33501   3.418   0.819   5.155  0.1742  0.4003  0.5317
10687SOL    HW133502   3.482   0.838   5.223  0.1499  0.4224  0.5483
10687SOL    HW233503   3.359   0.755   5.195 -0.6645  1.4594  1.0138
10688SOL     OW33504   4.940   0.605   0.590  0.1208 -0.0393 -0.7126
10688SOL    HW133505   4.945   0.533   0.653 -2.3860 -0.4568 -0.8844
10688SOL    HW233506   4.850   0.635   0.595  0.3903  1.2894 -2.6431
10689SOL     OW33507   6.852   7.787   3.174  0.2352 -0.3778 -0.2944
10689SOL    HW133508   6.758   7.788   3.154 -0.0273  2.4638  0.5548
10689SOL    HW233509   6.870   7.698   3.202 -1.9985 -1.2453 -1.3746
10690SOL     OW33510   2.782   4.081  11.172 -0.2299 -0.0743  0.2994
10690SOL    HW133511   2.800   4.128  11.253 -1.0323  0.9005 -0.0626
10690SOL    HW233512   2.828   3.997  11.181 -0.4556 -0.0537  1.8252
10691SOL     OW33513   4.429   2.777  10.750 -0.6030 -0.4814  0.0469
10691SOL    HW133514   4.501   2.723  10.783  0.2075 -0.6725 -1.8846
10691SOL    HW233515   4.397   2.731  10.673  0.2563  1.7816 -1.8076
10692SOL     OW33516   6.962   3.049   2.516 -0.8004 -0.1692  0.1360
10692SOL    HW133517   6.895   2.987   2.488 -1.7081  0.0953  1.5949
10692SOL    HW233518   6.969   3.035   2.611  2.1461 -1.0947 -0.0975
10693SOL     OW33519   7.209   3.697   8.381 -0.3011  0.0470  0.0357
10693SOL    HW133520   7.240   3.713   8.292 -2.9518  1.6099 -0.7198
10693SOL    HW233521   7.170   3.609   8.377 -0.6218  0.2079 -0.4066
10694SOL     OW33522   7.530   1.280   2.986 -0.5297 -0.3109  0.5969
10694SOL    HW133523   7.503   1.192   3.011 -0.2397 -0.9404 -1.1552
10694SOL    HW233524   7.625   1.276   2.983 -0.5427 -0.1842 -0.2530
10695SOL     OW33525   3.804   1.072   0.455  0.6847  0.1873 -0.0892
10695SOL    HW133526   3.777   1.135   0.522  0.8271 -1.5809  1.7272
10695SOL    HW233527   3.736   1.077   0.388 -0.0439  1.2482  0.6964
10696SOL     OW33528   6.805   7.226   4.936 -0.4147  0.0974 -0.4372
10696SOL    HW133529   6.751   7.270   5.001  2.8450  1.5948  1.4745
10696SOL    HW233530   6.850   7.296   4.890 -0.1302 -1.0798 -2.0574
10697SOL     OW33531   1.491   3.945   2.312  0.2947 -0.1873 -0.1716
10697SOL    HW133532   1.580   3.925   2.282 -0.2649 -1.7849 -0.9459
10697SOL    HW233533   1.489   4.040   2.319  0.4931  0.5718 -5.6635
10698SOL     OW33534   5.916   5.334   6.136  0.3747  1.1221 -0.0589
10698SOL    HW133535   5.975   5.286   6.195 -0.5231  0.1012  0.0430
10698SOL    HW233536   5.905   5.276   6.061 -2.5995 -0.0026  1.0927
10699SOL     OW33537   6.622   4.340   2.100 -0.7568 -0.1111 -0.5332
10699SOL    HW133538   6.548   4.391   2.135  0.2314  1.9300 -1.2197
10699SOL    HW233539   6.699   4.386   2.134  0.2198 -1.9174 -0.2147
10700SOL     OW33540   5.795   5.497   7.853 -0.3403 -0.6238 -0.0547
10700SOL    HW133541   5.811   5.431   7.785  0.6805 -0.5848  0.1275
10700SOL    HW233542   5.798   5.580   7.807  0.5245 -0.5861  0.0408
10701SOL     OW33543   3.642   5.407   7.651  0.3101 -0.9247  0.8392
10701SOL    HW133544   3.620   5.465   7.725  1.2682  2.4029 -1.2765
10701SOL    HW233545   3.733   5.384   7.666  0.1951 -1.1368  1.2319
10702SOL     OW33546   3.496   7.785   2.600  0.1334  0.3321  0.3978
10702SOL    HW133547   3.482   7.690   2.595  1.3415  0.1323  0.5443
10702SOL    HW233548   3.533   7.799   2.687  1.5092  0.7061 -0.2224
10703SOL     OW33549   2.577   2.137   0.090  0.3138 -0.5809  0.1542
10703SOL    HW133550   2.545   2.227   0.090 -0.0501 -0.7100 -0.3366
10703SOL    HW233551   2.534   2.097   0.165  1.9607  0.1627  1.5774
10704SOL     OW33552   7.313   4.903  10.535  0.0534  0.4396  0.2696
10704SOL    HW133553   7.270   4.988  10.540  0.7837  1.2921 -3.8712
10704SOL    HW233554   7.243   4.839  10.546 -1.2314  1.6783 -0.4108
10705SOL     OW33555   1.934   6.674   2.441 -0.1292  0.4906  0.4760
10705SOL    HW133556   1.982   6.679   2.523  1.2700  0.1217 -0.2936
10705SOL    HW233557   1.994   6.630   2.380 -1.1036  0.8124 -0.7655
10706SOL     OW33558   2.538   1.441   2.927  1.1611 -0.1504  0.4949
10706SOL    HW133559   2.487   1.417   2.850  1.5217  1.3731 -0.2362
10706SOL    HW233560   2.629   1.440   2.897  1.1775  2.4604  0.2949
10707SOL     OW33561   0.136   0.797   2.417 -0.3448 -0.0435  0.2861
10707SOL    HW133562   0.096   0.878   2.451 -0.6101 -0.0430 -0.0207
10707SOL    HW233563   0.112   0.730   2.481  1.0816  0.3769  1.3152
10708SOL     OW33564   1.992   4.521   1.783  0.5643  0.0872 -0.2797
10708SOL    HW133565   1.906   4.507   1.822  0.8949 -1.5974 -0.0892
10708SOL    HW233566   2.016   4.610   1.809 -0.4508  0.0283  0.9680
10709SOL     OW33567   0.598   6.339   1.310 -0.0093  0.2787 -0.6014
10709SOL    HW133568   0.543   6.270   1.347  1.6052  0.0168  1.5003
10709SOL    HW233569   0.683   6.328   1.353  1.0286  2.0608 -2.0469
10710SOL     OW33570   7.914   3.857   6.817  0.1566 -0.5185 -0.3786
10710SOL    HW133571   7.885   3.943   6.847  0.9048 -0.3836 -0.0319
10710SOL    HW233572   7.885   3.853   6.726  0.5807  0.3223 -0.5591
10711SOL     OW33573   3.856   2.929   5.664 -0.0980 -0.2087 -0.2817
10711SOL    HW133574   3.866   3.001   5.602 -0.6341 -0.5119 -0.7215
10711SOL    HW233575   3.811   2.968   5.739  2.4945  0.7329  0.9489
10712SOL     OW33576   5.408   4.079  11.762 -0.3595  0.1779  0.8820
10712SOL    HW133577   5.456   4.002  11.731  0.4140  1.1558 -0.4365
10712SOL    HW233578   5.369   4.051  11.845  0.6608 -1.3403  0.8864
10713SOL     OW33579   5.686   4.966   4.871  0.0842 -0.0770  0.1290
10713SOL    HW133580   5.636   4.884   4.873  0.2292 -0.2664 -1.8640
10713SOL    HW233581   5.729   4.970   4.957  0.4518 -2.3298  0.1087
10714SOL     OW33582   3.458   5.821   4.143 -0.1565 -0.1930 -0.8428
10714SOL    HW133583   3.519   5.809   4.070 -1.2646  1.6829 -2.1679
10714SOL    HW233584   3.375   5.846   4.101 -0.5480  1.9973  1.0547
10715SOL     OW33585   5.761   2.699   1.980  0.3282 -0.2970  0.2749
10715SOL    HW133586   5.781   2.626   2.039 -0.0333  0.1118  0.9225
10715SOL    HW233587   5.750   2.774   2.039  0.7097  0.2826 -0.3785
10716SOL     OW33588   0.231   3.120   0.796  0.0938  0.1284 -0.4533
10716SOL    HW133589   0.153   3.120   0.741 -0.1648  0.1921 -0.0866
10716SOL    HW233590   0.303   3.134   0.734 -0.1468 -0.2941 -0.8399
10717SOL     OW33591   7.156   6.579   3.816 -0.1955  0.3537  0.0973
10717SOL    HW133592   7.215   6.506   3.795  0.1548 -0.0815  2.3615
10717SOL    HW233593   7.212   6.643   3.859 -1.1298  0.4072  1.2924
10718SOL     OW33594   3.391   4.705   8.796  0.3998  0.8959  0.3524
10718SOL    HW133595   3.301   4.696   8.827 -0.0325 -0.3237 -1.1032
10718SOL    HW233596   3.383   4.752   8.713  1.0483  0.3731 -0.0190
10719SOL     OW33597   0.133   7.709   6.185 -0.0368 -0.7240  0.1907
10719SOL    HW133598   0.126   7.688   6.092 -0.3085 -0.2663  0.1014
10719SOL    HW233599   0.213   7.666   6.214  0.2546 -0.5550 -0.3489
10720SOL     OW33600   0.893   3.569   7.650  0.1617 -0.0345 -0.1120
10720SOL    HW133601   0.906   3.570   7.555 -1.6678 -3.6729 -0.5752
10720SOL    HW233602   0.950   3.499   7.681  0.2408  0.6741  1.4222
10721SOL     OW33603   0.210   1.784   2.499 -0.5482 -0.7658 -0.0738
10721SOL    HW133604   0.194   1.828   2.416 -0.7462 -0.7723 -0.0415
10721SOL    HW233605   0.155   1.705   2.495  1.0180 -1.8523 -0.8020
10722SOL     OW33606   2.315   3.453   6.741 -0.1477 -0.1592  0.7339
10722SOL    HW133607   2.349   3.497   6.819 -0.1644 -0.1092  0.7138
10722SOL    HW233608   2.272   3.523   6.692  1.0617  0.0869 -0.0034
10723SOL     OW33609   3.253   4.531   1.097  0.0536  0.1271  0.3056
10723SOL    HW133610   3.284   4.503   1.011  1.3017 -0.1769  0.8238
10723SOL    HW233611   3.280   4.461   1.156  0.4552  0.9574  1.1439
10724SOL     OW33612   5.820   5.603   0.878 -0.3817 -0.4840  0.2236
10724SOL    HW133613   5.779   5.646   0.954 -0.3738  1.0335 -0.5921
10724SOL    HW233614   5.754   5.542   0.846 -1.7658  1.3650 -0.5996
10725SOL     OW33615   6.725   6.653   7.701  0.0055 -0.3965  0.1186
10725SOL    HW133616   6.773   6.721   7.654  0.4599 -2.0027 -1.8627
10725SOL    HW233617   6.684   6.600   7.633 -1.0581 -1.6117  1.6174
10726SOL     OW33618   4.405   6.410  11.930 -0.4931  0.3786 -0.3067
10726SOL    HW133619   4.464   6.438  11.860 -3.1218  2.0384 -2.0674
10726SOL    HW233620   4.399   6.486  11.988 -0.5317  0.0347  0.1495
10727SOL     OW33621   1.101   6.123   3.874  0.1801 -0.6777  0.3284
10727SOL    HW133622   1.009   6.101   3.860  0.8133 -2.4026 -1.7202
10727SOL    HW233623   1.119   6.194   3.812  0.2848 -0.5081  0.5503
10728SOL     OW33624   4.736   6.340   1.343 -0.5328  0.3830 -0.3102
10728SOL    HW133625   4.763   6.294   1.264 -1.0429  1.0159 -0.8735
10728SOL    HW233626   4.817   6.369   1.384 -0.2788  0.5291 -0.9061
10729SOL     OW33627   4.657   5.083   9.160 -0.3388  0.1756 -0.1870
10729SOL    HW133628   4.679   5.144   9.230 -1.1583  1.9910 -1.4389
10729SOL    HW233629   4.630   5.139   9.087 -0.7318 -1.6861 -1.5327
10730SOL     OW33630   7.832   2.365   5.739 -0.1229  0.6932 -0.0440
10730SOL    HW133631   7.916   2.384   5.781 -1.1096 -0.1262  2.4884
10730SOL    HW233632   7.769   2.419   5.787 -1.7577 -2.5774  1.7762
10731SOL     OW33633   3.080   3.950   9.398 -0.1881  0.0857  0.8670
10731SOL    HW133634   3.022   3.882   9.363  1.7903 -0.7307 -1.0474
10731SOL    HW233635   3.123   3.908   9.472 -0.6530  0.0556  1.1260
10732SOL     OW33636   5.342   1.073   8.756  0.0943  0.5318 -0.2145
10732SOL    HW133637   5.266   1.062   8.699 -0.6751 -0.5597  0.9635
10732SOL    HW233638   5.313   1.039   8.841  2.4574 -1.6977 -0.1759
10733SOL     OW33639   5.699   6.739   8.375 -0.0368 -0.1811 -0.2309
10733SOL    HW133640   5.650   6.719   8.294 -1.4354 -1.6415  0.8952
10733SOL    HW233641   5.710   6.834   8.373 -0.4505 -0.1248 -1.8999
10734SOL     OW33642   0.652   7.857   6.125 -0.0390  0.5340  0.1285
10734SOL    HW133643   0.706   7.854   6.203 -0.8854 -0.3033  0.7026
10734SOL    HW233644   0.637   7.951   6.110  0.3612  0.7120  0.8062
10735SOL     OW33645   4.762   3.307  11.252 -0.8806 -0.1556 -0.1626
10735SOL    HW133646   4.738   3.280  11.164  0.3420  0.4009 -0.6834
10735SOL    HW233647   4.852   3.278  11.263 -0.1638  1.9481 -0.0353
10736SOL     OW33648   2.651   7.339   0.543 -0.0281  0.5800 -0.2078
10736SOL    HW133649   2.578   7.291   0.581  0.0813  0.9168  0.4486
10736SOL    HW233650   2.639   7.331   0.448 -0.9222  0.6434 -0.1082
10737SOL     OW33651   6.573   6.609  10.791  0.0137  0.0174  0.3278
10737SOL    HW133652   6.569   6.514  10.778  0.8177 -0.1488  1.2055
10737SOL    HW233653   6.660   6.625  10.828  0.4901  1.2796 -1.1960
10738SOL     OW33654   1.155   4.015  11.014 -0.4006  0.7925  0.4000
10738SOL    HW133655   1.228   4.019  10.953 -1.7916 -2.3606 -1.6670
10738SOL    HW233656   1.192   3.977  11.094  0.4249  0.3179 -0.2047
10739SOL     OW33657   3.489   6.806   6.008  0.0855 -0.5424 -0.6306
10739SOL    HW133658   3.539   6.872   6.055 -0.2544 -1.1404  0.5987
10739SOL    HW233659   3.551   6.770   5.944  1.2122 -1.1755  0.7714
10740SOL     OW33660   7.624   0.673   7.461  0.1181 -0.1670  0.2598
10740SOL    HW133661   7.616   0.708   7.372  3.3581  0.5848  0.1118
10740SOL    HW233662   7.643   0.580   7.448  1.5108  0.1201  0.0456
10741SOL     OW33663   7.908   4.985   2.299  0.3568  0.5584 -0.0488
10741SOL    HW133664   7.844   5.029   2.244  0.4462 -1.1091 -1.5769
10741SOL    HW233665   7.856   4.933   2.360  0.2649  0.8600  0.1334
10742SOL     OW33666   2.663   6.125   6.248  0.1610 -0.0680 -0.0541
10742SOL    HW133667   2.670   6.161   6.336 -1.2278 -1.7510  0.7924
10742SOL    HW233668   2.737   6.065   6.240  0.2623  0.0532 -0.0250
10743SOL     OW33669   0.935   5.549   2.168  0.0620 -0.0322 -0.0491
10743SOL    HW133670   0.948   5.500   2.087 -0.8385  0.6740 -0.6515
10743SOL    HW233671   0.854   5.598   2.153  1.1262  1.9719  0.3352
10744SOL     OW33672   6.928   6.765  10.486  0.2428 -0.2324  0.1317
10744SOL    HW133673   6.946   6.679  10.524  2.3486  0.4683  0.8928
10744SOL    HW233674   7.007   6.786  10.436  0.2358  1.6721  0.8322
10745SOL     OW33675   4.659   3.511   4.230  0.7287  0.2416  0.9086
10745SOL    HW133676   4.631   3.587   4.281 -0.0741  1.7419 -1.6077
10745SOL    HW233677   4.579   3.461   4.216  0.2612  1.5292 -1.4684
10746SOL     OW33678   3.972   0.653   0.517 -0.2284  0.0055 -0.0740
10746SOL    HW133679   3.997   0.731   0.468 -1.7716  1.2500  1.0058
10746SOL    HW233680   3.933   0.595   0.452  2.2730 -0.5551 -1.1594
10747SOL     OW33681   5.353   5.832   4.291 -0.3930  0.5218  0.1072
10747SOL    HW133682   5.313   5.908   4.335  1.9993  2.8344 -1.4139
10747SOL    HW233683   5.310   5.829   4.205  0.3524  0.9314 -0.2853
10748SOL     OW33684   1.044   3.909   4.864 -0.2553 -0.2594  0.2085
10748SOL    HW133685   0.968   3.853   4.882  0.0869 -0.8334 -0.1098
10748SOL    HW233686   1.084   3.871   4.787  1.6196 -1.2931  1.6175
10749SOL     OW33687   5.805   5.287   7.668 -0.0249  1.0417  0.0016
10749SOL    HW133688   5.880   5.329   7.627 -0.7236  1.8671 -0.4723
10749SOL    HW233689   5.819   5.193   7.653  0.5317  1.2330 -0.7353
10750SOL     OW33690   0.114   5.512  12.196  0.5734  0.7381  0.6901
10750SOL    HW133691   0.092   5.422  12.221  1.0957  0.0268 -1.2732
10750SOL    HW233692   0.030   5.558  12.196 -0.0373 -0.3378 -0.5278
10751SOL     OW33693   2.377   4.613   7.992  0.1105  0.1432 -0.0494
10751SOL    HW133694   2.434   4.543   7.961 -0.6779 -0.2219 -0.7030
10751SOL    HW233695   2.387   4.611   8.088  0.4499 -0.5470 -0.0906
10752SOL     OW33696   4.257   0.911  10.090 -0.1109  0.0130 -0.0533
10752SOL    HW133697   4.203   0.979  10.131  0.5863  0.8315 -0.4586
10752SOL    HW233698   4.253   0.837  10.151  0.5218  1.0425  1.2910
10753SOL     OW33699   5.443   1.769   4.195  0.2469 -0.3055  0.3335
10753SOL    HW133700   5.372   1.824   4.230  1.9815 -0.2032  4.2150
10753SOL    HW233701   5.516   1.830   4.183  0.1339 -0.6135 -2.4762
10754SOL     OW33702   6.048   6.029   7.826 -0.4296  0.5843 -0.2775
10754SOL    HW133703   5.967   6.022   7.776 -0.4712 -0.0328 -0.1300
10754SOL    HW233704   6.044   6.115   7.867  1.0531  2.5729 -3.8383
10755SOL     OW33705   1.966   0.161   3.563  0.4142  0.5620 -0.2488
10755SOL    HW133706   1.883   0.113   3.565  0.8024 -0.0874  1.1749
10755SOL    HW233707   1.942   0.251   3.584 -0.0487  0.5832 -0.8309
10756SOL     OW33708   1.134   3.313   3.733 -0.2761  0.2598 -0.2665
10756SOL    HW133709   1.068   3.253   3.700 -0.4806  1.6373 -2.6000
10756SOL    HW233710   1.090   3.398   3.734  1.1082  1.0090 -0.7581
10757SOL     OW33711   0.934   7.189   8.390  0.3305  0.3180 -0.0851
10757SOL    HW133712   0.888   7.134   8.327  0.5708  0.8191 -0.7210
10757SOL    HW233713   0.912   7.279   8.363  0.7326  0.5425  0.3235
10758SOL     OW33714   1.334   7.859   1.743 -0.5085 -0.4427 -0.0140
10758SOL    HW133715   1.329   7.902   1.828 -0.1039 -1.2205  0.4121
10758SOL    HW233716   1.245   7.829   1.726 -0.6783  0.0856 -0.0664
10759SOL     OW33717   6.168   2.340   3.286  0.2829  0.0582 -0.2147
10759SOL    HW133718   6.247   2.335   3.232  0.6409  0.2896  0.2875
10759SOL    HW233719   6.199   2.356   3.374 -0.3457  0.8056 -0.1091
10760SOL     OW33720   3.773   1.164  10.554 -0.0412  0.1149  0.3515
10760SOL    HW133721   3.678   1.173  10.554  0.0069  0.8843 -0.9973
10760SOL    HW233722   3.798   1.165  10.462  1.3277  0.4344  0.6934
10761SOL     OW33723   3.597   0.138   6.505 -0.0459 -0.8776 -0.1753
10761SOL    HW133724   3.645   0.075   6.452 -1.9986 -2.1610 -0.5338
10761SOL    HW233725   3.511   0.098   6.518 -1.4748  1.7965 -0.6229
10762SOL     OW33726   1.026   6.784   8.682  0.2351  0.5205 -0.4275
10762SOL    HW133727   0.973   6.775   8.761  0.0828 -0.2805 -0.6103
10762SOL    HW233728   0.990   6.860   8.637 -0.9876 -0.2054 -0.7121
10763SOL     OW33729   2.615   1.521   7.546 -0.2374 -0.4275 -0.1390
10763SOL    HW133730   2.626   1.574   7.467  0.7668 -0.2284  0.1196
10763SOL    HW233731   2.538   1.558   7.589  0.7062  1.1427  0.2638
10764SOL     OW33732   1.677   6.091  11.760  0.8621  0.2123  0.3070
10764SOL    HW133733   1.670   6.110  11.853  0.1170  2.6152 -0.1557
10764SOL    HW233734   1.635   6.006  11.749 -1.6052  1.1390  1.7970
10765SOL     OW33735   6.537   2.550  10.526 -0.3158  0.3430  0.2388
10765SOL    HW133736   6.535   2.488  10.598  1.7178  0.2078  0.2216
10765SOL    HW233737   6.630   2.567  10.511 -0.7534  1.6675 -1.2379
10766SOL     OW33738   1.051   7.183   8.805  0.1930  0.3984  0.3145
10766SOL    HW133739   0.996   7.235   8.862  0.9155  0.3147  1.0984
10766SOL    HW233740   1.069   7.240   8.730 -0.6797  0.5374  0.2017
10767SOL     OW33741   0.447   0.014   4.731 -0.2857  0.1047  0.4940
10767SOL    HW133742   0.432   0.044   4.821  2.7638  1.0287  0.8204
10767SOL    HW233743   0.364  -0.023   4.704 -1.8955  1.5767  3.0077
10768SOL     OW33744   2.728   3.630   2.980 -0.0425  0.2463  0.0327
10768SOL    HW133745   2.679   3.702   2.940 -0.9559  0.3102  1.2120
10768SOL    HW233746   2.785   3.673   3.043  0.3625  0.0332 -0.1870
10769SOL     OW33747   4.636   7.453  10.499  0.9454  0.0899  0.3435
10769SOL    HW133748   4.701   7.401  10.546 -0.6275 -1.3179  1.0662
10769SOL    HW233749   4.560   7.454  10.557  0.4648  2.1532 -0.2230
10770SOL     OW33750   2.002   4.492   3.580 -0.0631  0.0227  0.2356
10770SOL    HW133751   2.061   4.502   3.655  1.7637 -0.9954 -0.9841
10770SOL    HW233752   2.042   4.544   3.511 -2.9648  2.9034  0.5019
10771SOL     OW33753   7.754   6.624   0.297  0.8145  0.0378  0.0830
10771SOL    HW133754   7.759   6.581   0.382  0.7319  1.3786  0.7981
10771SOL    HW233755   7.844   6.645   0.275  0.9575 -1.3450 -0.7391
10772SOL     OW33756   6.836   3.129   7.213  0.0070 -0.3114 -0.2471
10772SOL    HW133757   6.869   3.169   7.293  0.9735  0.8418 -1.1836
10772SOL    HW233758   6.849   3.035   7.225 -1.6159 -0.3446  1.6919
10773SOL     OW33759   4.631   1.434   0.734 -0.2089  1.0455 -0.0116
10773SOL    HW133760   4.573   1.490   0.786 -1.3368  0.7259 -0.9088
10773SOL    HW233761   4.719   1.454   0.767 -0.7886  1.7399  1.1736
10774SOL     OW33762   1.265   2.279   4.696  0.3198 -0.0742  0.1785
10774SOL    HW133763   1.230   2.193   4.719 -0.8213  0.1534 -0.6328
10774SOL    HW233764   1.357   2.275   4.722  0.1839 -1.3888  0.5362
10775SOL     OW33765   2.105   6.277   1.302 -0.0358 -0.0663 -0.1287
10775SOL    HW133766   2.096   6.370   1.284  1.0363  0.0743 -0.0329
10775SOL    HW233767   2.120   6.238   1.216  1.8631  0.1799  0.0506
10776SOL     OW33768   1.457   7.210   0.132 -0.4317 -0.1520  0.0825
10776SOL    HW133769   1.552   7.217   0.124 -0.3931 -0.0854  0.5696
10776SOL    HW233770   1.443   7.132   0.185 -0.7293 -1.4035 -1.7442
10777SOL     OW33771   2.259   6.164  11.599  0.6980 -0.4220  0.3219
10777SOL    HW133772   2.250   6.069  11.599  0.1473 -0.3791  0.9909
10777SOL    HW233773   2.314   6.183  11.675 -0.2630 -0.1298  0.9644
10778SOL     OW33774   4.484   3.024  10.869 -0.0963 -0.2825  0.3981
10778SOL    HW133775   4.449   2.941  10.836  0.3339  1.2444 -4.7331
10778SOL    HW233776   4.407   3.081  10.876  0.1247  0.2045 -0.9114
10779SOL     OW33777   6.951   6.220   3.638 -0.5076 -0.1092  0.8495
10779SOL    HW133778   6.878   6.270   3.673 -0.0646  0.2725  1.2508
10779SOL    HW233779   6.973   6.264   3.556 -1.1007 -0.5812  0.4338
10780SOL     OW33780   0.166   1.509   7.765 -0.2259 -0.2365 -0.0330
10780SOL    HW133781   0.148   1.463   7.847 -0.2291 -0.1488  0.0151
10780SOL    HW233782   0.142   1.445   7.697  0.0702 -0.4209  0.0346
10781SOL     OW33783   3.285   4.537   8.096  0.4742  0.1619 -0.1739
10781SOL    HW133784   3.203   4.561   8.139 -0.2300 -0.5387 -1.0823
10781SOL    HW233785   3.306   4.451   8.131  0.4121  0.0096 -0.5090
10782SOL     OW33786   3.420   1.073   8.586  0.2660  0.2649  0.1495
10782SOL    HW133787   3.355   1.098   8.652  0.7023 -0.4077  0.8508
10782SOL    HW233788   3.379   1.003   8.537 -1.4398  2.9301 -2.5961
10783SOL     OW33789   0.193   5.951   3.528 -0.1627  0.2259  0.0538
10783SOL    HW133790   0.101   5.977   3.537 -0.7338 -1.4550 -0.6078
10783SOL    HW233791   0.191   5.874   3.471  1.7116  0.4463 -0.3709
10784SOL     OW33792   3.463   7.644   8.870 -0.1716 -0.2025 -0.2391
10784SOL    HW133793   3.444   7.569   8.814  0.2028 -0.4035 -0.1046
10784SOL    HW233794   3.549   7.674   8.841 -0.0822 -0.1579  0.0686
10785SOL     OW33795   5.800   2.100  11.815 -0.2063 -0.3466  1.0674
10785SOL    HW133796   5.877   2.151  11.838 -0.0463 -0.8862  1.7441
10785SOL    HW233797   5.748   2.159  11.760  0.3020  0.3009  1.2698
10786SOL     OW33798   6.967   6.889  10.010  0.1790 -0.3053  0.3513
10786SOL    HW133799   6.954   6.957  10.076 -2.0815  0.4864 -0.8213
10786SOL    HW233800   7.051   6.911   9.970 -0.2381  1.4787  0.3811
10787SOL     OW33801   5.061   2.909   1.753 -0.5701 -0.0519  0.1743
10787SOL    HW133802   5.090   2.839   1.694  1.5906 -0.4094  1.5115
10787SOL    HW233803   4.968   2.920   1.734 -0.8348 -2.8039 -0.5981
10788SOL     OW33804   0.308   5.187   0.744 -0.3763  0.2597 -0.1458
10788SOL    HW133805   0.303   5.091   0.746 -0.2890  0.2350 -0.8974
10788SOL    HW233806   0.372   5.206   0.676 -2.0834  0.8752 -1.6853
10789SOL     OW33807   4.720   1.335   6.783  0.6558 -0.2445 -0.1386
10789SOL    HW133808   4.808   1.324   6.819  0.8662  0.6558 -0.3468
10789SOL    HW233809   4.662   1.303   6.852  1.1278 -0.3026  0.2393
10790SOL     OW33810   4.927   6.302   8.932 -0.7368 -0.1248 -0.1401
10790SOL    HW133811   4.852   6.360   8.918 -0.1338  0.2035 -2.4709
10790SOL    HW233812   5.003   6.359   8.921 -0.0584 -0.4550  2.1419
10791SOL     OW33813   3.132   2.922   2.946 -0.1348 -0.1853 -0.1939
10791SOL    HW133814   3.038   2.928   2.932 -0.1712 -1.2036 -0.4617
10791SOL    HW233815   3.169   2.914   2.858  0.1017 -0.8907 -0.0376
10792SOL     OW33816   6.367   0.618   7.606  0.1364 -0.2343 -0.3831
10792SOL    HW133817   6.362   0.611   7.510  0.0378 -0.4313 -0.3640
10792SOL    HW233818   6.371   0.527   7.636 -1.5590 -0.2505 -0.1085
10793SOL     OW33819   2.905   3.218   8.295  0.5686 -0.0139  0.3018
10793SOL    HW133820   2.939   3.137   8.333  1.0509 -0.5400 -1.2114
10793SOL    HW233821   2.982   3.263   8.260  0.4335  1.5301  1.8361
10794SOL     OW33822   3.710   5.670   3.080  0.2033 -0.2739  0.8311
10794SOL    HW133823   3.675   5.581   3.089  0.0748 -0.2532  0.5623
10794SOL    HW233824   3.790   5.658   3.028  1.3264 -0.4824  2.5511
10795SOL     OW33825   2.461   2.653   2.683  0.0802 -0.6537  0.1844
10795SOL    HW133826   2.530   2.596   2.717 -0.9383 -1.9223  0.1922
10795SOL    HW233827   2.488   2.671   2.593  0.8264 -0.4604  0.4374
10796SOL     OW33828   3.368   1.526   3.651  0.0178 -0.0915 -0.0473
10796SOL    HW133829   3.389   1.465   3.722  0.6148 -0.0109 -0.1520
10796SOL    HW233830   3.431   1.597   3.660  0.1627 -0.1251 -0.7198
10797SOL     OW33831   4.550   4.081   8.334  0.3417 -0.3533 -0.0761
10797SOL    HW133832   4.594   4.047   8.412  0.8556  2.7712  1.1141
10797SOL    HW233833   4.621   4.110   8.277 -0.0626  1.5982  0.3635
10798SOL     OW33834   1.429   4.722   7.539  0.1957  0.1253  0.5209
10798SOL    HW133835   1.453   4.664   7.611  0.1050  0.4659  0.8339
10798SOL    HW233836   1.512   4.755   7.506  0.2758 -0.6190 -0.0329
10799SOL     OW33837   3.043   2.376   2.535 -0.1076 -0.4332  0.8112
10799SOL    HW133838   3.055   2.316   2.609 -0.4534  1.2859  2.3262
10799SOL    HW233839   2.949   2.385   2.527 -0.1351 -1.6777 -0.8112
10800SOL     OW33840   1.632   7.763   0.150  0.0343  0.0860  0.5169
10800SOL    HW133841   1.537   7.762   0.140  0.0840 -0.0313  0.0389
10800SOL    HW233842   1.656   7.855   0.145  0.0064  0.0687  0.0184
10801SOL     OW33843   1.517   7.309   5.127  0.3588  0.2420 -0.0595
10801SOL    HW133844   1.544   7.401   5.126  2.8693 -0.4391 -0.8214
10801SOL    HW233845   1.469   7.297   5.046  0.5291  0.7385 -0.2378
10802SOL     OW33846   6.627   4.856  10.839  0.4264  0.5507  0.3713
10802SOL    HW133847   6.586   4.912  10.905  1.9044  0.7522  1.1593
10802SOL    HW233848   6.658   4.780  10.888 -1.1573 -0.8066 -0.6144
10803SOL     OW33849   2.474   2.256   3.263 -0.0933 -0.1529 -0.2637
10803SOL    HW133850   2.524   2.284   3.186 -3.1254  0.6635 -2.1186
10803SOL    HW233851   2.501   2.166   3.278  2.1935  0.3753 -0.8407
10804SOL     OW33852   5.094   3.283  11.803  0.2099 -0.1268  0.5998
10804SOL    HW133853   5.181   3.312  11.829  0.2073  0.0213  0.4444
10804SOL    HW233854   5.052   3.256  11.885  0.5850 -0.6862  0.6098
10805SOL     OW33855   1.456   5.990   3.416 -0.2600  0.2386 -0.2125
10805SOL    HW133856   1.401   5.922   3.455  1.3967 -1.1827 -0.2148
10805SOL    HW233857   1.540   5.982   3.462  1.7326 -1.3605 -3.6960
10806SOL     OW33858   5.797   2.878  10.243 -0.1305 -0.3187 -0.4601
10806SOL    HW133859   5.740   2.951  10.218  1.2420  0.8174 -0.4096
10806SOL    HW233860   5.811   2.890  10.337  0.7523 -0.1573 -0.6071
10807SOL     OW33861   7.741   5.522  11.548 -0.1112  0.6433 -0.3056
10807SOL    HW133862   7.676   5.576  11.593  0.4824  1.6895 -0.6814
10807SOL    HW233863   7.693   5.482  11.476 -0.7274  0.0770  0.3913
10808SOL     OW33864   2.366   0.332   4.814 -0.1108 -0.0017  0.2012
10808SOL    HW133865   2.445   0.279   4.828 -1.6908 -2.4430  0.4984
10808SOL    HW233866   2.316   0.322   4.895 -0.2351  2.5453  0.5170
10809SOL     OW33867   4.368   1.379   6.646  0.0044 -0.3239 -0.1487
10809SOL    HW133868   4.318   1.427   6.581 -0.0276 -1.2816 -0.8479
10809SOL    HW233869   4.459   1.403   6.629 -0.1343  0.8755  0.6770
10810SOL     OW33870   0.459   2.942  10.431 -0.2099  0.3999  0.0534
10810SOL    HW133871   0.428   2.858  10.464  0.4010  0.1353 -0.0413
10810SOL    HW233872   0.392   3.005  10.459 -0.2706  0.0060  0.8109
10811SOL     OW33873   1.813   7.585   4.163  0.2445 -0.7975 -0.6722
10811SOL    HW133874   1.761   7.640   4.105 -0.2799  1.6807  1.9140
10811SOL    HW233875   1.823   7.503   4.116 -1.4563  0.4820 -3.5242
10812SOL     OW33876   3.035   4.378   0.952 -0.2484 -0.3924  0.2104
10812SOL    HW133877   3.070   4.464   0.976  0.0826  0.1934 -2.1507
10812SOL    HW233878   2.950   4.374   0.995 -0.0490  0.9020  0.7715
10813SOL     OW33879   0.709   3.855  11.601 -0.1666  0.3212 -0.0744
10813SOL    HW133880   0.790   3.903  11.588  0.8574 -1.6788 -1.7938
10813SOL    HW233881   0.640   3.916  11.576  0.9357  1.4483 -0.4540
10814SOL     OW33882   1.846   2.831   4.209  0.0255 -0.3537  0.0993
10814SOL    HW133883   1.869   2.894   4.141 -0.3537 -1.9384 -1.5861
10814SOL    HW233884   1.821   2.885   4.285  2.5032  1.4524 -0.2657
10815SOL     OW33885   4.701   7.607   0.392 -0.6955  0.3203  0.5100
10815SOL    HW133886   4.643   7.680   0.412  0.1301  0.6665  1.7296
10815SOL    HW233887   4.740   7.583   0.476  1.8666  0.9298 -0.3914
10816SOL     OW33888   0.293   5.363   6.837 -0.1593  0.3565  0.6766
10816SOL    HW133889   0.354   5.430   6.867  0.6593 -0.2803  0.4789
10816SOL    HW233890   0.268   5.390   6.749 -1.0707  1.2192  1.1797
10817SOL     OW33891   2.769   1.348  11.120  0.7598 -0.4190 -0.2598
10817SOL    HW133892   2.834   1.278  11.126  1.0745 -0.1497 -0.4872
10817SOL    HW233893   2.724   1.346  11.204  0.7425 -0.9149 -0.2727
10818SOL     OW33894   6.889   7.440   8.801 -0.3456  0.7619 -0.0518
10818SOL    HW133895   6.840   7.514   8.838  0.2393  0.8185  0.6330
10818SOL    HW233896   6.856   7.433   8.711 -0.1332  2.1136 -0.2637
10819SOL     OW33897   2.410   0.069  12.284  0.1099  0.5216 -1.2250
10819SOL    HW133898   2.448  -0.013  12.252 -1.4689 -0.1801 -1.3761
10819SOL    HW233899   2.455   0.086  12.367 -0.0720 -0.9193 -0.8067
10820SOL     OW33900   1.604   1.166  10.897  0.3089  0.1964 -0.0559
10820SOL    HW133901   1.644   1.252  10.889  1.2438 -0.2071  0.0230
10820SOL    HW233902   1.675   1.110  10.930 -0.1896 -0.6623 -0.3986
10821SOL     OW33903   2.877   6.648  11.698 -0.3454 -0.2948  0.1322
10821SOL    HW133904   2.941   6.629  11.629 -0.3422  2.9608 -0.9476
10821SOL    HW233905   2.925   6.632  11.780  0.9945 -0.3781 -0.6269
10822SOL     OW33906   0.529   2.078  10.607 -0.3121 -0.2509 -0.2780
10822SOL    HW133907   0.573   2.006  10.654 -1.7077 -0.9994 -0.0578
10822SOL    HW233908   0.487   2.129  10.676 -1.4687 -0.7244 -0.6168
10823SOL     OW33909   3.057   3.313   5.793  0.2296  0.1770  0.3870
10823SOL    HW133910   3.148   3.317   5.823  0.2436 -1.7221  0.7263
10823SOL    HW233911   3.009   3.277   5.868 -0.4336 -0.8247 -0.4985
10824SOL     OW33912   4.723   5.159   7.925  0.5363 -0.3387  0.6188
10824SOL    HW133913   4.790   5.147   7.992  0.8216 -0.3300  0.3349
10824SOL    HW233914   4.656   5.094   7.947  1.5764 -1.7952 -0.2789
10825SOL     OW33915   0.884   3.990   8.259 -0.1023  0.2496  0.3271
10825SOL    HW133916   0.863   3.937   8.183 -0.3068  0.5438  0.1768
10825SOL    HW233917   0.952   4.050   8.229 -0.6315  0.7924  0.1967
10826SOL     OW33918   4.857   1.457   1.909  0.2195 -0.0480 -0.9233
10826SOL    HW133919   4.803   1.498   1.977 -0.0042 -2.3876  0.4275
10826SOL    HW233920   4.794   1.424   1.845  0.0217 -1.8082  0.0985
10827SOL     OW33921   4.605   6.588   5.697 -0.2670  0.3582  0.0827
10827SOL    HW133922   4.653   6.652   5.750  0.1632  1.4162 -1.5326
10827SOL    HW233923   4.652   6.506   5.711 -0.9633  0.2510  2.3650
10828SOL     OW33924   5.808   1.704   2.815  0.1516 -0.1244  0.6766
10828SOL    HW133925   5.790   1.765   2.887  0.9167  0.3836  0.4488
10828SOL    HW233926   5.781   1.752   2.736  0.4161 -0.2258  0.5264
10829SOL     OW33927   3.817   5.086  10.042  0.1456  0.2475 -0.5864
10829SOL    HW133928   3.861   5.100   9.959  1.1134  0.3326 -0.0640
10829SOL    HW233929   3.815   4.990  10.052  2.1042  0.2613  0.3601
10830SOL     OW33930   1.226   0.509  11.541  0.3816  0.0129  0.1254
10830SOL    HW133931   1.293   0.471  11.598  2.0757  0.7607 -1.2596
10830SOL    HW233932   1.235   0.462  11.458 -0.5961  0.3577 -0.1907
10831SOL     OW33933   4.946   4.028   7.788 -0.3544  0.6193 -0.5933
10831SOL    HW133934   4.879   4.025   7.721  1.4643 -0.3272 -2.4993
10831SOL    HW233935   4.983   3.940   7.789  1.1140  1.2039  0.0711
10832SOL     OW33936   5.384   1.699   3.643 -0.1986 -0.0857  0.2024
10832SOL    HW133937   5.324   1.742   3.705  1.1656 -1.2953  2.5087
10832SOL    HW233938   5.352   1.726   3.557 -2.1733  1.7622  1.3914
10833SOL     OW33939   6.206   4.247  11.198  0.1770 -0.1596 -0.4009
10833SOL    HW133940   6.281   4.290  11.240  0.3183  1.2106 -1.9735
10833SOL    HW233941   6.130   4.279  11.246  0.5133 -1.1229  0.8421
10834SOL     OW33942   0.412   3.150   8.665  0.4168  0.0407 -0.1652
10834SOL    HW133943   0.325   3.168   8.702  0.9000 -0.6166  1.3848
10834SOL    HW233944   0.441   3.234   8.631  0.3351  0.9718  1.8909
10835SOL     OW33945   0.118   3.913   9.523 -0.0301  0.5700 -0.2499
10835SOL    HW133946   0.023   3.900   9.522  0.1237 -0.7032 -0.1390
10835SOL    HW233947   0.131   3.984   9.586 -0.7291 -1.2780  2.1510
10836SOL     OW33948   0.167   1.686  10.043 -0.1646  0.0812  0.1473
10836SOL    HW133949   0.202   1.597  10.040  2.7032  1.1555 -0.7963
10836SOL    HW233950   0.101   1.688   9.974 -0.3955 -1.3346  0.3023
10837SOL     OW33951   0.157   6.371   1.845 -0.0576  0.4472 -0.2447
10837SOL    HW133952   0.172   6.463   1.825 -2.1826  0.6148 -1.3746
10837SOL    HW233953   0.188   6.324   1.768  1.0560  0.1876  0.3439
10838SOL     OW33954   6.585   5.091  11.973  0.7622  0.1239  0.3720
10838SOL    HW133955   6.659   5.134  11.929  0.1084  0.5582 -0.3221
10838SOL    HW233956   6.589   5.000  11.943 -0.9313  0.8431 -2.3895
10839SOL     OW33957   2.596   4.847   2.311  0.1015  0.0303 -0.4768
10839SOL    HW133958   2.559   4.918   2.364 -0.0882  0.5037 -1.2220
10839SOL    HW233959   2.529   4.831   2.243  1.5811  1.5195 -2.4150
10840SOL     OW33960   0.889   0.524   9.204 -0.4036 -0.1182 -0.0933
10840SOL    HW133961   0.893   0.601   9.260  1.5010 -0.9346  0.9525
10840SOL    HW233962   0.796   0.499   9.205 -1.1915  2.4570 -0.9600
10841SOL     OW33963   7.140   4.311  10.506  0.1288  0.5110  0.2032
10841SOL    HW133964   7.161   4.399  10.537  0.9526 -0.1064  1.4602
10841SOL    HW233965   7.173   4.253  10.574 -2.3720 -0.7075  0.5006
10842SOL     OW33966   4.345   6.556   6.216 -0.2433 -0.4616  0.1451
10842SOL    HW133967   4.319   6.558   6.309 -1.9742 -1.0990 -0.2777
10842SOL    HW233968   4.338   6.647   6.188 -1.8953 -0.5572  0.1298
10843SOL     OW33969   3.388   6.923   1.047  0.5101  0.1995  0.1550
10843SOL    HW133970   3.388   7.014   1.016  0.4712  0.2777  0.3797
10843SOL    HW233971   3.298   6.893   1.036 -0.1549  1.0462  2.5312
10844SOL     OW33972   0.238   5.438   4.552  0.6184  0.0232  0.0768
10844SOL    HW133973   0.221   5.409   4.642 -0.3508  0.1582 -0.0490
10844SOL    HW233974   0.333   5.441   4.546  0.7177 -0.9264  0.8024
10845SOL     OW33975   4.281   3.635   5.010 -0.2436 -0.4110  0.5840
10845SOL    HW133976   4.341   3.649   4.937 -1.0547  1.0094  0.1389
10845SOL    HW233977   4.327   3.576   5.069  0.4257 -1.6111 -1.0878
10846SOL     OW33978   0.290   5.244   0.053 -0.4682 -0.5484 -0.6089
10846SOL    HW133979   0.310   5.157   0.021  0.7601 -1.2216  1.7673
10846SOL    HW233980   0.370   5.294   0.038 -0.6866 -0.2210 -0.6947
10847SOL     OW33981   6.320   0.940   6.798  0.2332  0.5413  0.0640
10847SOL    HW133982   6.278   0.899   6.722  0.3253  1.5947 -0.5799
10847SOL    HW233983   6.406   0.899   6.802  0.0079  0.0545 -0.0466
10848SOL     OW33984   3.191   6.833   8.721  0.4977  0.4597  0.2398
10848SOL    HW133985   3.113   6.785   8.750 -0.5880  1.3599 -1.0852
10848SOL    HW233986   3.170   6.925   8.735  0.6184  0.8226 -1.6497
10849SOL     OW33987   7.470   2.103  10.888  0.5819  0.0105 -0.2044
10849SOL    HW133988   7.399   2.167  10.886  1.1507  0.7339  1.3145
10849SOL    HW233989   7.469   2.067  10.977  0.5871 -1.7679 -0.8795
10850SOL     OW33990   2.715   7.705   7.814  0.1230 -0.0078  0.7770
10850SOL    HW133991   2.743   7.614   7.807  1.1326  0.4028 -1.8974
10850SOL    HW233992   2.782   7.747   7.867  0.5330 -0.5233  0.6734
10851SOL     OW33993   6.528   3.133   1.708 -0.2263 -0.4863 -0.1420
10851SOL    HW133994   6.435   3.128   1.733 -0.2504  0.0524 -0.1053
10851SOL    HW233995   6.553   3.043   1.689 -0.4941 -0.7711  0.8087
10852SOL     OW33996   5.291   3.003   0.533 -0.5332  0.0862 -0.3921
10852SOL    HW133997   5.269   3.008   0.440 -0.1770  0.0797 -0.4815
10852SOL    HW233998   5.209   2.979   0.576 -0.9531  1.1592 -0.5731
10853SOL     OW33999   1.949   7.224  11.736  0.0276 -0.0227  0.3165
10853SOL    HW134000   1.948   7.320  11.746 -0.8509  0.0005  0.0841
10853SOL    HW234001   1.963   7.210  11.643 -1.5122 -0.0700  0.0536
10854SOL     OW34002   0.157   4.241   5.384  0.0603 -0.1236 -0.4849
10854SOL    HW134003   0.221   4.312   5.388 -0.7043  0.7404 -2.3430
10854SOL    HW234004   0.073   4.285   5.371 -0.9051 -1.2481  1.4589
10855SOL     OW34005   7.617   3.826  11.534  0.4825 -0.2450  0.7859
10855SOL    HW134006   7.616   3.732  11.517 -1.3793  0.1059 -1.6019
10855SOL    HW234007   7.654   3.864  11.454 -1.6046  1.1659  0.3987
10856SOL     OW34008   7.179   1.143   2.777  0.1683 -0.1905 -0.0568
10856SOL    HW134009   7.089   1.127   2.748 -0.2298 -0.0506  1.0605
10856SOL    HW234010   7.233   1.124   2.700 -0.8724  0.4865 -0.9705
10857SOL     OW34011   2.468   0.256   7.560  0.3523  0.2282 -0.1585
10857SOL    HW134012   2.540   0.201   7.592  1.2360  0.7224 -1.2237
10857SOL    HW234013   2.471   0.334   7.615  0.9489  0.4556 -0.5070
10858SOL     OW34014   0.760   2.501  10.192 -0.5772 -0.2486 -0.0347
10858SOL    HW134015   0.843   2.470  10.230 -0.6027  1.8326  1.9133
10858SOL    HW234016   0.694   2.446  10.233 -0.3736  0.0702  0.7384
10859SOL     OW34017   4.543   5.952   6.257 -0.2097  0.2210 -0.2311
10859SOL    HW134018   4.564   5.882   6.195 -3.0469  0.4593 -1.5980
10859SOL    HW234019   4.545   5.910   6.342 -0.0723 -1.0756 -0.8529
10860SOL     OW34020   2.646   2.805   6.469  0.8157  0.2929 -0.4912
10860SOL    HW134021   2.710   2.875   6.483 -0.5227  1.4264  0.2946
10860SOL    HW234022   2.576   2.847   6.420 -0.8845  0.0509  1.6030
10861SOL     OW34023   1.207   1.076   1.965  0.0787  0.3271  0.1111
10861SOL    HW134024   1.163   0.991   1.967 -0.8574  0.7344 -1.2894
10861SOL    HW234025   1.170   1.124   2.038 -1.0225  0.2768 -0.3936
10862SOL     OW34026   6.668   6.476   8.811  0.4161 -0.1681 -0.6607
10862SOL    HW134027   6.692   6.549   8.868  0.4872  0.4544 -1.4714
10862SOL    HW234028   6.614   6.420   8.866  2.5235 -0.8906  0.7972
10863SOL     OW34029   5.239   3.716   8.083 -0.2881  0.1795 -0.0472
10863SOL    HW134030   5.217   3.754   8.168 -0.2427 -0.4798  0.2670
10863SOL    HW234031   5.302   3.647   8.104 -0.1764  0.1017 -0.6314
10864SOL     OW34032   0.333   3.650  11.704 -0.2972  0.5446  0.1011
10864SOL    HW134033   0.249   3.658  11.749 -0.7927  0.3154 -0.7513
10864SOL    HW234034   0.374   3.736  11.713 -0.4504  0.5449  0.8479
10865SOL     OW34035   7.137   0.456   6.250 -0.2873  0.2017  0.6079
10865SOL    HW134036   7.225   0.493   6.249 -0.5295  0.7758  0.2406
10865SOL    HW234037   7.080   0.527   6.219 -0.7539 -0.4812 -0.1509
10866SOL     OW34038   5.567   0.680   4.696 -0.3669  0.3210 -0.1634
10866SOL    HW134039   5.538   0.699   4.607 -2.5824 -1.3287  0.1070
10866SOL    HW234040   5.486   0.680   4.748  0.6590 -0.3489  1.5334
10867SOL     OW34041   3.067   7.902  12.159 -0.6703  0.0380  0.7524
10867SOL    HW134042   3.034   7.871  12.075  0.4937  0.4519  0.1196
10867SOL    HW234043   3.162   7.906  12.148 -0.5081  0.2274  2.0460
10868SOL     OW34044   2.898   3.837   1.355  0.1263  0.1408  0.5682
10868SOL    HW134045   2.959   3.880   1.295  1.3540  0.1604  1.7757
10868SOL    HW234046   2.852   3.910   1.397 -0.2953  0.1475  0.0993
10869SOL     OW34047   1.947   0.238   9.326 -0.5137  0.5896  0.2540
10869SOL    HW134048   1.928   0.236   9.232  0.3725  1.1908  0.0513
10869SOL    HW234049   2.018   0.174   9.337 -0.9644  0.1405  0.6053
10870SOL     OW34050   0.915   1.417   9.875 -0.3141  0.2198 -0.0344
10870SOL    HW134051   0.874   1.368   9.946 -0.2400  0.2871  0.0549
10870SOL    HW234052   0.842   1.460   9.831 -0.1329  2.7672  1.9319
10871SOL     OW34053   5.224   6.392   0.896 -0.0369  0.2602 -0.2590
10871SOL    HW134054   5.129   6.377   0.890 -0.0118 -0.5718  1.0255
10871SOL    HW234055   5.238   6.420   0.986  1.1104 -1.1385  0.0454
10872SOL     OW34056   0.213   5.673   9.065 -0.7811 -0.1089  0.4693
10872SOL    HW134057   0.162   5.628   8.998 -0.9427 -0.2907  0.7143
10872SOL    HW234058   0.276   5.725   9.016 -1.1641  0.0717  0.1672
10873SOL     OW34059   2.261   7.835   9.447  0.4377 -0.2830  0.7603
10873SOL    HW134060   2.330   7.857   9.385 -0.2304  1.7856  0.6590
10873SOL    HW234061   2.182   7.830   9.394  0.1966 -0.6238  1.1484
10874SOL     OW34062   2.559   7.354   1.387 -0.5144 -0.2262  0.2276
10874SOL    HW134063   2.489   7.403   1.344 -0.3699 -0.5314 -0.3583
10874SOL    HW234064   2.539   7.262   1.370  0.7317 -0.2980 -1.1134
10875SOL     OW34065   4.870   0.345  11.673 -0.0937 -0.0792  0.2983
10875SOL    HW134066   4.912   0.375  11.753 -1.1306  0.9228  0.4912
10875SOL    HW234067   4.828   0.262  11.698  0.2423 -0.1640  0.5806
10876SOL     OW34068   5.444   5.114   6.628  0.1073  0.0035  0.1247
10876SOL    HW134069   5.526   5.071   6.654 -0.3502 -0.9341  0.0553
10876SOL    HW234070   5.389   5.108   6.706 -0.6245 -1.2239 -0.4518
10877SOL     OW34071   4.211   3.798   3.828 -0.1274 -0.3365 -0.0450
10877SOL    HW134072   4.181   3.844   3.907 -1.0518 -0.3662 -0.3644
10877SOL    HW234073   4.297   3.835   3.810 -0.9458  1.5067 -0.4588
10878SOL     OW34074   7.393   1.703   4.578  0.1921 -0.0431  0.0028
10878SOL    HW134075   7.349   1.763   4.518 -0.1692 -0.0777  0.2245
10878SOL    HW234076   7.333   1.629   4.586  1.7889 -1.7211 -2.3409
10879SOL     OW34077   0.153   0.730  10.715 -0.5781 -0.1613  0.3271
10879SOL    HW134078   0.143   0.825  10.716  0.0861  0.0387 -2.8270
10879SOL    HW234079   0.064   0.697  10.701 -0.5481  0.1361 -0.6291
10880SOL     OW34080   0.194   0.770   3.116 -0.3288 -0.4039 -0.3109
10880SOL    HW134081   0.257   0.812   3.174  0.3839  0.1350 -1.4340
10880SOL    HW234082   0.210   0.676   3.126 -0.5746 -0.3421  0.7401
10881SOL     OW34083   4.967   5.911   5.031  0.3073  0.3515  0.4285
10881SOL    HW134084   4.923   5.830   5.003  0.2744  0.6591 -0.4650
10881SOL    HW234085   4.918   5.940   5.108  0.9093 -0.9777  1.3523
10882SOL     OW34086   1.687   7.769   9.767  0.2298  0.4595  0.0025
10882SOL    HW134087   1.717   7.679   9.754 -1.5271 -0.3285  1.0430
10882SOL    HW234088   1.727   7.796   9.850 -0.6415 -0.0429  0.6081
10883SOL     OW34089   0.504   4.271   9.250 -0.1536  0.1176  0.6060
10883SOL    HW134090   0.476   4.315   9.330  0.7198  1.0335  0.4200
10883SOL    HW234091   0.544   4.340   9.197 -0.6474 -0.4862 -0.5939
10884SOL     OW34092   1.619   5.540  11.119 -0.4317 -0.3851 -0.7215
10884SOL    HW134093   1.538   5.548  11.069 -0.6099 -0.0033 -0.3742
10884SOL    HW234094   1.599   5.577  11.205 -0.1070 -0.9668 -0.3841
10885SOL     OW34095   1.282   2.684   1.668 -0.4632 -0.3517 -0.3064
10885SOL    HW134096   1.371   2.715   1.685 -0.7217  0.6098 -0.6482
10885SOL    HW234097   1.227   2.737   1.727 -0.8696 -0.4685 -0.5791
10886SOL     OW34098   1.435   5.415  11.727 -0.4561 -0.3826  0.2239
10886SOL    HW134099   1.453   5.454  11.813 -1.0811  0.6167 -0.0771
10886SOL    HW234100   1.487   5.335  11.726  1.0211  0.5146  0.8187
10887SOL     OW34101   6.139   5.458   1.115  0.1276  0.1315  0.2821
10887SOL    HW134102   6.231   5.435   1.124  0.2326  0.2261 -0.5011
10887SOL    HW234103   6.099   5.380   1.076  0.5675  1.3418 -2.8195
10888SOL     OW34104   3.337   3.819   4.726  0.4936  0.4488  1.0745
10888SOL    HW134105   3.420   3.777   4.747  0.6876 -0.1997 -0.7875
10888SOL    HW234106   3.278   3.746   4.707  0.1835  0.9367  0.0640
10889SOL     OW34107   6.436   6.734   4.464 -0.0705 -0.5338 -0.1940
10889SOL    HW134108   6.493   6.677   4.517 -1.3999 -0.0083  1.9410
10889SOL    HW234109   6.431   6.815   4.514  0.2872  0.8237 -2.2540
10890SOL     OW34110   3.479   1.976   3.864 -0.0676 -1.0066  0.5812
10890SOL    HW134111   3.541   2.047   3.849  0.1610 -1.2341  0.4512
10890SOL    HW234112   3.430   1.970   3.782 -0.1110 -0.9763  0.6047
10891SOL     OW34113   1.822   5.510   9.644 -0.1498 -0.2084 -0.0701
10891SOL    HW134114   1.888   5.468   9.591  0.7394 -0.7682  1.4293
10891SOL    HW234115   1.750   5.446   9.649 -0.4035 -0.0012 -0.8682
10892SOL     OW34116   7.315   0.457   5.591  0.8413 -0.2574 -0.2840
10892SOL    HW134117   7.401   0.500   5.591  1.0511 -0.5760  1.4950
10892SOL    HW234118   7.252   0.528   5.590  1.0665 -0.0258 -2.7460
10893SOL     OW34119   3.072   0.689  11.533 -0.0321 -0.4616  0.6979
10893SOL    HW134120   3.126   0.721  11.461 -0.0916  1.1257  1.3119
10893SOL    HW234121   3.009   0.759  11.548 -0.9316 -1.3890  1.3664
10894SOL     OW34122   1.864   1.412   7.748  0.8281  0.0835 -0.0078
10894SOL    HW134123   1.906   1.469   7.684  1.0877  0.8073  0.7892
10894SOL    HW234124   1.789   1.462   7.779  0.3694 -0.5012 -0.1604
10895SOL     OW34125   1.948   7.943   6.121 -0.2740 -0.3594 -0.3514
10895SOL    HW134126   1.984   7.858   6.096 -3.0011 -1.0442 -2.3919
10895SOL    HW234127   1.878   7.959   6.058 -0.1888  3.2283  0.2552
10896SOL     OW34128   3.901   5.996   9.622  0.0322  0.6173  0.0859
10896SOL    HW134129   3.888   6.091   9.623 -0.2628  0.5779  0.8630
10896SOL    HW234130   3.960   5.980   9.549  0.4523  1.4504  0.2349
10897SOL     OW34131   3.558   3.897   6.003  0.2764  0.6465  0.1658
10897SOL    HW134132   3.617   3.969   5.979  2.3592 -0.7876  0.6448
10897SOL    HW234133   3.540   3.911   6.096  2.2065 -0.3645  0.7561
10898SOL     OW34134   2.941   5.729   2.578 -0.0318  0.3736  0.1787
10898SOL    HW134135   3.000   5.782   2.524 -0.0516  1.4443  1.1699
10898SOL    HW234136   2.993   5.706   2.655 -0.4499  0.0789  0.3751
10899SOL     OW34137   1.820   4.423   7.073 -0.1598 -0.2551 -0.0029
10899SOL    HW134138   1.869   4.504   7.060  1.2828 -1.0734  0.2292
10899SOL    HW234139   1.745   4.432   7.013 -0.4746  1.5741  0.5798
10900SOL     OW34140   0.544   0.611   2.758 -0.7111 -0.6414 -0.2678
10900SOL    HW134141   0.460   0.567   2.770 -1.1363  0.3172  0.4713
10900SOL    HW234142   0.530   0.699   2.795  0.1468  0.0515 -1.5291
10901SOL     OW34143   2.558   1.354   1.927  0.0749  0.0288 -0.4255
10901SOL    HW134144   2.561   1.434   1.979 -0.6384  0.0086 -0.3375
10901SOL    HW234145   2.631   1.361   1.866  0.5753  0.3164  0.2025
10902SOL     OW34146   6.202   7.577   9.999  0.1045 -0.3484 -0.2759
10902SOL    HW134147   6.231   7.565  10.090 -1.2548 -0.8904  0.1154
10902SOL    HW234148   6.147   7.500   9.981  1.0828 -0.7229 -1.8835
10903SOL     OW34149   4.674   3.511   2.863 -0.1163 -0.8862  0.0766
10903SOL    HW134150   4.708   3.585   2.814 -2.9983 -0.2385 -1.1518
10903SOL    HW234151   4.722   3.435   2.829  0.7728  0.0444 -0.7961
10904SOL     OW34152   2.457   0.846   8.642  0.2448 -0.4795  0.2915
10904SOL    HW134153   2.425   0.866   8.730 -0.5113  1.1451 -0.3096
10904SOL    HW234154   2.378   0.828   8.591  0.4452  0.9780 -0.5932
10905SOL     OW34155   4.332   2.453   3.297  0.1486 -0.0779  0.3785
10905SOL    HW134156   4.368   2.367   3.277  0.7074  0.6582 -2.1161
10905SOL    HW234157   4.246   2.453   3.256 -0.2696  0.2365  1.2246
10906SOL     OW34158   4.237   4.425   1.732  0.1686  0.3876  0.0149
10906SOL    HW134159   4.259   4.350   1.677  1.0013  0.0276  0.8166
10906SOL    HW234160   4.286   4.498   1.695 -0.1043  0.3823 -0.3549
10907SOL     OW34161   7.029   7.364   6.751 -0.3648 -0.0276  0.3440
10907SOL    HW134162   6.978   7.440   6.723 -0.1073  0.5414  1.3905
10907SOL    HW234163   6.974   7.289   6.727 -1.0612  0.5190  0.1855
10908SOL     OW34164   2.140   4.637  11.967  0.4243 -0.3737  0.0588
10908SOL    HW134165   2.057   4.592  11.984  0.1315 -0.9685 -2.4516
10908SOL    HW234166   2.166   4.606  11.880  2.0602  1.6064 -0.2347
10909SOL     OW34167   6.596   6.648   6.929 -0.6927 -0.3601  0.3787
10909SOL    HW134168   6.614   6.566   6.975  0.1992  0.3307  1.3162
10909SOL    HW234169   6.634   6.716   6.985 -0.3449  0.5943 -0.9633
10910SOL     OW34170   5.828   0.762   4.676  0.5297 -0.5808  0.1263
10910SOL    HW134171   5.874   0.687   4.715 -1.2181 -0.6001  2.3727
10910SOL    HW234172   5.735   0.737   4.679  0.0950  0.7046 -1.3730
10911SOL     OW34173   6.233   0.110   3.255 -1.0235  0.1013 -0.3468
10911SOL    HW134174   6.163   0.163   3.292  0.3801  2.5074 -0.8869
10911SOL    HW234175   6.229   0.126   3.160  1.6435  2.3377 -0.2176
10912SOL     OW34176   7.662   4.539   1.088  0.0516  0.1937 -0.2552
10912SOL    HW134177   7.664   4.465   1.149  0.6418 -0.9385 -1.5894
10912SOL    HW234178   7.589   4.593   1.118 -0.0185 -0.6116  1.1133
10913SOL     OW34179   3.343   4.518  11.138  0.0108  0.1519  0.1816
10913SOL    HW134180   3.428   4.515  11.094  0.3904  0.0173  0.9056
10913SOL    HW234181   3.318   4.426  11.148 -0.1046  0.1834  0.1811
10914SOL     OW34182   2.082   5.398  12.188 -0.2378 -0.5200 -0.3055
10914SOL    HW134183   2.123   5.376  12.272 -0.3285  2.2227  0.5608
10914SOL    HW234184   2.050   5.315  12.154 -0.5137 -1.6891  2.5657
10915SOL     OW34185   5.291   2.015   3.370 -0.1323  0.4545  0.5064
10915SOL    HW134186   5.379   2.054   3.370 -0.4983  1.2947  0.7672
10915SOL    HW234187   5.250   2.048   3.450 -0.8564  0.4596  0.1393
10916SOL     OW34188   0.740   6.415   8.223  0.0730 -0.1605 -0.2512
10916SOL    HW134189   0.821   6.427   8.174  1.3185 -0.2979  1.6483
10916SOL    HW234190   0.726   6.320   8.222  0.2644 -0.1924 -0.1241
10917SOL     OW34191   6.489   3.272   4.337  0.3795 -0.2177 -0.1327
10917SOL    HW134192   6.439   3.285   4.418 -0.2828 -2.5813 -0.0800
10917SOL    HW234193   6.567   3.224   4.366  0.8910  0.2474 -0.7218
10918SOL     OW34194   4.649   0.808  11.019  0.9320 -0.6750 -0.0219
10918SOL    HW134195   4.739   0.775  11.007  1.1565 -0.7437  1.6898
10918SOL    HW234196   4.657   0.903  11.011  1.3773 -0.5891  1.2580
10919SOL     OW34197   0.216   1.544   5.071  0.4340  0.3135 -0.1706
10919SOL    HW134198   0.310   1.538   5.050  0.4853 -2.1837  0.5249
10919SOL    HW234199   0.186   1.454   5.075 -1.8264  1.0281  0.5684
10920SOL     OW34200   0.578   3.284  10.793 -0.6419 -0.0329  0.2272
10920SOL    HW134201   0.608   3.352  10.732  0.9773 -1.1786 -0.3330
10920SOL    HW234202   0.598   3.202  10.748 -2.5512 -0.9159  0.8846
10921SOL     OW34203   3.377   3.699  11.106  0.1113  0.6778 -0.4078
10921SOL    HW134204   3.431   3.720  11.029  0.6679 -0.4193 -0.3423
10921SOL    HW234205   3.313   3.770  11.111 -1.0688 -0.1097 -2.9099
10922SOL     OW34206   5.750   5.800  11.910  0.5132  0.2252 -0.1416
10922SOL    HW134207   5.673   5.852  11.931  0.0170 -0.4038 -0.3739
10922SOL    HW234208   5.732   5.765  11.823  0.7580 -0.4799  0.0874
10923SOL     OW34209   7.190   5.856   2.121 -0.4484 -0.7268 -0.4206
10923SOL    HW134210   7.227   5.901   2.198 -1.4439 -0.5349 -0.0477
10923SOL    HW234211   7.252   5.785   2.104  0.2470 -0.2413  0.0224
10924SOL     OW34212   0.782   2.092  12.043  0.4025  0.2978 -0.2116
10924SOL    HW134213   0.793   2.027  12.112 -0.0063 -0.1733 -0.5866
10924SOL    HW234214   0.702   2.067  11.999  0.4321  0.8504 -0.5909
10925SOL     OW34215   4.026   3.757  11.401  0.5887  0.4311 -0.2449
10925SOL    HW134216   4.094   3.824  11.396  2.0436 -1.0607 -1.9564
10925SOL    HW234217   3.954   3.792  11.349 -0.0250  2.0355  1.5916
10926SOL     OW34218   2.327   2.792   8.570 -0.3525  0.7100  0.1240
10926SOL    HW134219   2.399   2.828   8.518 -2.0063  1.0374 -2.0805
10926SOL    HW234220   2.320   2.701   8.541 -0.1538  0.3667  1.1239
10927SOL     OW34221   7.759   5.896   8.726 -0.2047 -0.3540  0.7514
10927SOL    HW134222   7.762   5.807   8.760 -3.4053 -0.6843  0.4741
10927SOL    HW234223   7.709   5.888   8.644  0.7317  1.5049 -0.0535
10928SOL     OW34224   6.273   0.837   8.976  0.4920  0.5583 -0.3204
10928SOL    HW134225   6.216   0.785   9.033 -0.9537  1.2641 -1.0590
10928SOL    HW234226   6.301   0.776   8.908 -0.4651  0.5097 -0.6799
10929SOL     OW34227   7.983   2.652   8.793 -0.2344  0.2001 -0.2189
10929SOL    HW134228   8.058   2.649   8.852 -0.6065  1.2256  0.3513
10929SOL    HW234229   7.941   2.567   8.803  0.0082  0.1636  0.6190
10930SOL     OW34230   1.297   5.204   4.067 -0.2256  0.2773 -0.8613
10930SOL    HW134231   1.288   5.110   4.050  0.4271  0.0095  0.2010
10930SOL    HW234232   1.242   5.246   4.000 -0.3860 -0.8470 -1.4528
10931SOL     OW34233   1.469   5.857   8.244 -0.5993  0.0130 -0.3288
10931SOL    HW134234   1.420   5.924   8.197  0.7940  0.5056 -1.1570
10931SOL    HW234235   1.479   5.786   8.181 -2.0963 -1.0243  0.5543
10932SOL     OW34236   7.644   5.860   9.755 -0.5361 -0.4826 -0.4910
10932SOL    HW134237   7.710   5.929   9.741  0.0482 -1.2601 -1.7480
10932SOL    HW234238   7.618   5.871   9.846  2.1978 -0.8600  0.4454
10933SOL     OW34239   4.671   4.925   3.375  0.2882  0.0681 -0.7484
10933SOL    HW134240   4.646   4.835   3.395  0.6943  0.2798  0.8789
10933SOL    HW234241   4.618   4.949   3.299 -1.6879 -0.7298  0.3079
10934SOL     OW34242   4.177   5.700   8.519  0.3250  0.0797 -0.1657
10934SOL    HW134243   4.117   5.760   8.474  1.2585  0.5661 -0.7990
10934SOL    HW234244   4.167   5.617   8.474 -0.2140  0.0270  0.0419
10935SOL     OW34245   6.808   7.010   5.549  0.3378 -0.1824  0.2094
10935SOL    HW134246   6.882   7.049   5.503  0.6187  1.0150  1.5957
10935SOL    HW234247   6.747   7.082   5.563 -0.9238 -1.0587 -0.5078
10936SOL     OW34248   4.616   3.938   6.892 -0.6542 -0.5159  0.1458
10936SOL    HW134249   4.524   3.966   6.898 -0.4626  0.3156 -0.5126
10936SOL    HW234250   4.612   3.846   6.867 -1.3164 -0.4229 -0.1066
10937SOL     OW34251   6.400   5.288   1.816 -0.4985  0.5469 -0.4745
10937SOL    HW134252   6.375   5.196   1.819 -1.3525  0.7498 -1.1423
10937SOL    HW234253   6.374   5.323   1.901  0.8507 -0.0588  0.2299
10938SOL     OW34254   5.035   5.386   8.657  0.3120  0.0695  0.4408
10938SOL    HW134255   4.994   5.316   8.709  2.2586  0.8657  3.2756
10938SOL    HW234256   5.080   5.339   8.587 -0.0574 -1.3647  1.1132
10939SOL     OW34257   2.054   0.888   4.102  0.2125 -0.1651  0.0422
10939SOL    HW134258   2.022   0.844   4.180  1.2054 -0.8930  0.0569
10939SOL    HW234259   1.977   0.930   4.064 -0.2343  0.4864  1.5862
10940SOL     OW34260   1.909   3.307   4.803 -0.2839  0.1494 -0.0539
10940SOL    HW134261   1.899   3.333   4.894 -0.1157  0.4357 -0.1159
10940SOL    HW234262   1.843   3.238   4.790  0.2545 -0.4934  0.5139
10941SOL     OW34263   0.129   4.289   7.332 -0.4832 -0.2954  0.5238
10941SOL    HW134264   0.074   4.214   7.353  1.9770 -2.2616  0.4673
10941SOL    HW234265   0.204   4.282   7.391  0.1460  1.7588  0.0636
10942SOL     OW34266   1.178   1.574   6.241 -0.3574  0.3538  0.2084
10942SOL    HW134267   1.234   1.496   6.239 -1.9403 -0.9478  2.4854
10942SOL    HW234268   1.239   1.646   6.259  1.0397 -0.4097 -1.2088
10943SOL     OW34269   6.654   4.202   1.321 -0.2532 -0.0104 -0.7088
10943SOL    HW134270   6.575   4.180   1.368  0.5914 -0.8306  0.3755
10943SOL    HW234271   6.679   4.289   1.353 -0.0023 -0.3177 -0.0516
10944SOL     OW34272   2.373   6.079   3.526  0.2048  0.0915  0.2022
10944SOL    HW134273   2.443   6.087   3.590 -0.0325 -1.3432  0.6992
10944SOL    HW234274   2.354   5.985   3.524  0.3545  0.0532 -2.1529
10945SOL     OW34275   7.306   2.907   6.644  0.2748  0.6319 -0.3077
10945SOL    HW134276   7.276   2.943   6.560 -1.5327  1.5227  0.6630
10945SOL    HW234277   7.225   2.880   6.688  1.2157 -0.0262  1.0678
10946SOL     OW34278   5.642   2.390   4.023  0.2535  0.0590 -0.1406
10946SOL    HW134279   5.712   2.326   4.025  0.4620  0.2460 -0.9570
10946SOL    HW234280   5.686   2.473   4.004  0.0227  0.5109  1.1803
10947SOL     OW34281   6.885   2.359  10.649  0.5183 -0.7252  0.2632
10947SOL    HW134282   6.946   2.315  10.588  0.4781 -0.8323  0.2989
10947SOL    HW234283   6.839   2.423  10.595  2.1996  0.9136  0.6595
10948SOL     OW34284   2.898   0.711   2.850 -0.3017 -0.0015  0.0324
10948SOL    HW134285   2.817   0.755   2.876 -0.5533 -0.0154 -0.7033
10948SOL    HW234286   2.898   0.715   2.755  0.1285 -0.7833 -0.0114
10949SOL     OW34287   1.324   4.587   3.243  0.1404 -0.4976 -0.1451
10949SOL    HW134288   1.406   4.547   3.216  0.0436 -0.9185  0.1887
10949SOL    HW234289   1.317   4.666   3.188 -0.4578 -1.7622 -1.9776
10950SOL     OW34290   4.014   4.160   3.736 -0.4328  0.4444  0.5001
10950SOL    HW134291   4.079   4.180   3.670  0.0128 -2.1902  0.0287
10950SOL    HW234292   4.062   4.162   3.819  0.1567 -0.8957  0.2148
10951SOL     OW34293   1.360   3.121   7.497  0.1912 -0.3450 -0.2894
10951SOL    HW134294   1.384   3.199   7.546 -0.1191  0.5273 -1.4501
10951SOL    HW234295   1.286   3.084   7.545 -1.7581  1.8969 -1.3609
10952SOL     OW34296   3.912   3.239   5.825 -0.1097  0.4606  0.0593
10952SOL    HW134297   3.909   3.319   5.878  0.9613  0.2515  0.4684
10952SOL    HW234298   3.843   3.184   5.861  0.1669  0.5925  0.8255
10953SOL     OW34299   6.160   2.074   5.586  0.4179  0.2257 -0.5276
10953SOL    HW134300   6.164   2.146   5.649  0.7702  0.1015 -0.4101
10953SOL    HW234301   6.238   2.085   5.531  1.5708 -1.2198  0.7421
10954SOL     OW34302   3.351   6.296  11.582 -0.1941  0.4931  0.1512
10954SOL    HW134303   3.388   6.375  11.622  0.1053  0.4871 -0.1144
10954SOL    HW234304   3.257   6.306  11.592 -0.1276  0.5717  0.7144
10955SOL     OW34305   7.671   3.280   3.688 -1.6472 -0.3897  0.3144
10955SOL    HW134306   7.705   3.349   3.630 -1.2401  0.2363  1.2687
10955SOL    HW234307   7.616   3.226   3.631 -0.2542 -0.5480 -0.9350
10956SOL     OW34308   0.968   7.360   1.820 -0.3323  0.4085 -0.1085
10956SOL    HW134309   0.989   7.270   1.796  0.1025  0.8839 -1.6597
10956SOL    HW234310   1.042   7.389   1.873  0.1290  0.2213 -0.6334
10957SOL     OW34311   7.346   4.922   6.184 -0.0234  0.1908  0.4359
10957SOL    HW134312   7.388   4.926   6.269 -1.7218  2.9194  1.2712
10957SOL    HW234313   7.252   4.920   6.203 -0.4367 -0.2444 -1.3841
10958SOL     OW34314   5.132   4.480  12.331 -0.5912 -0.0857 -0.7453
10958SOL    HW134315   5.084   4.521  12.404  0.8312  0.0093  0.1715
10958SOL    HW234316   5.184   4.551  12.293 -0.1726 -0.4590 -0.8832
10959SOL     OW34317   0.339   1.228  10.591 -0.3570 -0.1465 -0.5216
10959SOL    HW134318   0.352   1.317  10.623  1.6253 -0.8056  0.6029
10959SOL    HW234319   0.361   1.171  10.664 -0.4720 -1.6139 -1.5693
10960SOL     OW34320   3.704   4.258   3.871 -0.0651  0.2028 -0.2442
10960SOL    HW134321   3.660   4.307   3.802  1.0097 -0.3176 -1.3479
10960SOL    HW234322   3.787   4.304   3.883  0.3876 -0.5626 -0.3702
10961SOL     OW34323   5.406   3.711  12.257 -0.3789 -0.2394 -0.5759
10961SOL    HW134324   5.416   3.616  12.250 -1.1962 -0.5650  1.8499
10961SOL    HW234325   5.316   3.724  12.285 -0.6864  1.3757 -2.1495
10962SOL     OW34326   2.238   1.994   3.940 -0.4239 -0.2841  0.4057
10962SOL    HW134327   2.228   1.983   4.035 -1.4817  0.2990  0.3802
10962SOL    HW234328   2.223   1.907   3.904 -0.2521 -0.4602  0.7558
10963SOL     OW34329   7.579   1.249  12.271 -0.0937 -0.3945 -0.3570
10963SOL    HW134330   7.488   1.226  12.291 -0.5849  0.2457 -1.7348
10963SOL    HW234331   7.575   1.338  12.238  0.9059 -0.6885 -1.3433
10964SOL     OW34332   1.380   4.398   2.372  0.1352  0.6308 -0.2469
10964SOL    HW134333   1.367   4.478   2.424 -3.2071  0.8714 -1.2267
10964SOL    HW234334   1.473   4.377   2.383  0.8071  3.8057  1.2251
10965SOL     OW34335   7.886   0.544   4.004 -0.2649 -0.1147 -0.2363
10965SOL    HW134336   7.955   0.577   3.947  0.2418  2.3060  1.6283
10965SOL    HW234337   7.849   0.622   4.045 -1.7488 -1.6170  1.4479
10966SOL     OW34338   0.974   5.776  10.085  0.4174  0.0901  0.4356
10966SOL    HW134339   0.919   5.732  10.150 -0.3283 -1.0816 -0.9119
10966SOL    HW234340   0.929   5.760  10.002  1.9119  0.5833 -0.5064
10967SOL     OW34341   0.202   7.575   0.550  0.1262 -0.0068  0.3071
10967SOL    HW134342   0.122   7.600   0.596 -0.8756 -2.3256 -0.0221
10967SOL    HW234343   0.173   7.511   0.485  2.2547 -1.0043  0.2619
10968SOL     OW34344   7.956   3.771   1.909 -0.7739  0.5722 -0.4071
10968SOL    HW134345   7.963   3.866   1.906  0.1277  0.6366  1.6429
10968SOL    HW234346   7.870   3.755   1.949 -1.0514  0.5117 -1.0246
10969SOL     OW34347   6.667   4.277   2.891 -0.2198  0.2091 -0.0256
10969SOL    HW134348   6.717   4.197   2.880 -2.0195 -0.9942  0.2135
10969SOL    HW234349   6.691   4.308   2.979  0.9594  0.3305 -0.3623
10970SOL     OW34350   4.607   0.463   0.115  0.6048  0.5432  0.0817
10970SOL    HW134351   4.609   0.459   0.211  1.7923  0.6039  0.0795
10970SOL    HW234352   4.683   0.517   0.092 -0.1442  1.2244 -0.8664
10971SOL     OW34353   3.402   7.188   5.925 -0.5244  0.5370 -0.1440
10971SOL    HW134354   3.442   7.186   5.838 -2.0999  0.2593 -0.9094
10971SOL    HW234355   3.363   7.102   5.935  2.5657 -0.7633  2.3763
10972SOL     OW34356   4.601   2.021   9.438 -0.0059  0.3436  0.1541
10972SOL    HW134357   4.533   2.088   9.448  1.0530  1.6180 -0.8760
10972SOL    HW234358   4.552   1.941   9.418 -1.2144  1.1763 -0.3580
10973SOL     OW34359   6.961   5.221   6.172 -0.0771 -0.3188  0.0488
10973SOL    HW134360   6.915   5.289   6.221 -1.4967 -0.7598 -0.6286
10973SOL    HW234361   6.893   5.178   6.121  1.2665 -0.2596 -1.8808
10974SOL     OW34362   7.354   0.221  12.373  0.4122 -0.0701  0.2469
10974SOL    HW134363   7.269   0.257  12.398  0.1302 -0.6170  0.0796
10974SOL    HW234364   7.414   0.295  12.382  0.0498  0.1431  1.0522
10975SOL     OW34365   0.465   6.040   0.246  0.3741 -0.2545 -0.0555
10975SOL    HW134366   0.439   6.067   0.334 -1.8103 -1.9861 -0.0864
10975SOL    HW234367   0.387   6.054   0.193  1.5542  0.4296 -1.6846
10976SOL     OW34368   5.721   2.956   8.816  0.1977  0.0619  0.0478
10976SOL    HW134369   5.724   2.940   8.910 -0.3471 -1.0013 -0.1045
10976SOL    HW234370   5.636   2.922   8.788 -0.8586  2.8088 -0.4131
10977SOL     OW34371   0.505   3.080  11.211  0.1303 -0.5285  0.2688
10977SOL    HW134372   0.596   3.058  11.190  0.0589  0.3538 -1.1537
10977SOL    HW234373   0.473   3.125  11.132 -2.0400 -2.2407  0.0842
10978SOL     OW34374   2.223   0.774   8.529 -0.4918  0.3361  1.0136
10978SOL    HW134375   2.239   0.680   8.516 -1.5051  0.4294 -1.4170
10978SOL    HW234376   2.137   0.778   8.570 -1.0785  0.2304 -0.1956
10979SOL     OW34377   5.097   7.616   6.022  0.4395 -0.7379 -0.2640
10979SOL    HW134378   5.011   7.579   6.042 -0.7263  0.7924 -2.0724
10979SOL    HW234379   5.089   7.648   5.932  2.1323  1.6256  0.3320
10980SOL     OW34380   0.894   2.005   7.537  0.0166 -0.2298 -0.0442
10980SOL    HW134381   0.804   1.976   7.524  0.3644 -0.1657 -3.1846
10980SOL    HW234382   0.886   2.098   7.561 -0.7350  0.0038 -1.1478
10981SOL     OW34383   7.311   0.988   0.355  0.4986 -0.0288  0.2464
10981SOL    HW134384   7.246   0.964   0.421  0.8016  0.7102  0.8179
10981SOL    HW234385   7.301   0.921   0.287  0.2498 -0.8587  1.0747
10982SOL     OW34386   4.692   7.979   3.731 -0.1112  0.0835  0.2224
10982SOL    HW134387   4.622   8.043   3.720 -0.0752  0.0082 -0.5162
10982SOL    HW234388   4.750   8.018   3.797  0.6597  1.4917 -1.2198
10983SOL     OW34389   0.563   4.586   5.511  0.0226  0.3609  0.0416
10983SOL    HW134390   0.488   4.636   5.479 -1.8862 -2.5586 -0.4396
10983SOL    HW234391   0.635   4.614   5.456 -1.7359  0.1335 -2.5694
10984SOL     OW34392   7.733   1.329   8.702  0.0672 -0.8216  0.2227
10984SOL    HW134393   7.663   1.310   8.764 -0.5241  0.5680  0.0223
10984SOL    HW234394   7.719   1.421   8.677  0.9689 -1.0121 -1.0954
10985SOL     OW34395   1.274   6.716   0.104 -0.3279  0.1310 -0.3809
10985SOL    HW134396   1.192   6.675   0.078 -1.1278  1.0347  0.6656
10985SOL    HW234397   1.334   6.697   0.032 -0.6025 -2.9584  0.0939
10986SOL     OW34398   6.672   2.689   1.749  0.1980  0.0492  0.1409
10986SOL    HW134399   6.638   2.762   1.696 -1.2952 -1.1012 -0.5463
10986SOL    HW234400   6.599   2.627   1.755  1.0119 -0.8080  1.8278
10987SOL     OW34401   5.299   1.917   0.057  0.6401  0.2331  0.1744
10987SOL    HW134402   5.321   1.940  -0.033  0.3482 -0.8899 -0.1954
10987SOL    HW234403   5.378   1.935   0.108  0.9883  0.3242 -0.4021
10988SOL     OW34404   4.424   3.452   7.747  0.1547 -0.1820  0.0620
10988SOL    HW134405   4.508   3.487   7.719 -0.2690  0.3972 -0.5141
10988SOL    HW234406   4.382   3.423   7.666 -0.4815  0.1631  0.2596
10989SOL     OW34407   1.912   5.564   6.163  0.4284  0.0208  0.7202
10989SOL    HW134408   1.931   5.581   6.071 -0.0950 -0.0438  0.5974
10989SOL    HW234409   1.997   5.570   6.207  0.5446  0.9551  0.3774
10990SOL     OW34410   7.181   7.613   1.627 -0.3668  0.2813  0.4679
10990SOL    HW134411   7.219   7.525   1.624  0.0516  0.4735 -0.8018
10990SOL    HW234412   7.218   7.653   1.705  0.1975 -0.3516  0.5304
10991SOL     OW34413   4.474   4.297  12.249 -0.0819  0.3164 -0.0547
10991SOL    HW134414   4.407   4.349  12.205  0.6680  1.9740  0.6793
10991SOL    HW234415   4.444   4.291  12.340 -1.0856 -2.1802 -0.4679
10992SOL     OW34416   6.904   4.565   9.647 -0.5686 -0.2298  0.4903
10992SOL    HW134417   6.833   4.539   9.705 -0.2573 -2.1966  0.0557
10992SOL    HW234418   6.865   4.564   9.560 -0.3407 -0.0115  0.3844
10993SOL     OW34419   3.055   6.197   5.051  0.7544  0.0965  0.4994
10993SOL    HW134420   3.096   6.203   4.965 -0.1788 -1.6320 -0.1012
10993SOL    HW234421   3.019   6.285   5.066 -1.6446 -0.2475 -2.2341
10994SOL     OW34422   4.469   3.431  11.626 -0.0844 -0.3055 -0.1100
10994SOL    HW134423   4.543   3.449  11.683 -1.9107  0.5184  2.1639
10994SOL    HW234424   4.506   3.382  11.553  2.6856  0.2085  0.8328
10995SOL     OW34425   3.231   7.944   3.497  0.3568  0.0707  0.5922
10995SOL    HW134426   3.295   8.010   3.524  0.0888  1.2289 -1.4410
10995SOL    HW234427   3.284   7.868   3.474  0.9204  0.6095  0.0695
10996SOL     OW34428   1.208   4.958   8.312 -0.2270  0.2902  0.2117
10996SOL    HW134429   1.198   4.900   8.236  1.3804  1.1343 -0.7132
10996SOL    HW234430   1.274   5.022   8.284  1.4725 -0.1971  2.8261
10997SOL     OW34431   3.941   7.018  10.730  0.1024 -0.0990 -0.3322
10997SOL    HW134432   3.988   7.062  10.800  0.1293 -0.0173 -0.4015
10997SOL    HW234433   3.984   6.933  10.721 -0.8638 -0.7415  0.7857
10998SOL     OW34434   6.412   7.487   0.609 -0.5629 -0.1061  0.3381
10998SOL    HW134435   6.378   7.569   0.644  1.5419  0.9990 -0.0274
10998SOL    HW234436   6.404   7.496   0.514  0.9714  0.3549  0.2162
10999SOL     OW34437   2.127   3.396   8.384  0.0919  0.3823  0.2014
10999SOL    HW134438   2.094   3.396   8.473  1.3708 -1.1876  0.7256
10999SOL    HW234439   2.169   3.311   8.374  0.7361  0.8629 -1.6222
11000SOL     OW34440   2.141   3.442   3.759  0.5758 -0.1957 -0.3116
11000SOL    HW134441   2.191   3.512   3.800 -0.5834  1.7152 -1.9751
11000SOL    HW234442   2.180   3.432   3.672 -0.1598 -0.6289 -0.6067
11001SOL     OW34443   6.206   2.652   9.920  0.4038  0.5314 -0.2517
11001SOL    HW134444   6.188   2.708   9.844 -1.7461 -1.1746 -1.0916
11001SOL    HW234445   6.145   2.579   9.911  1.6047 -0.8512  1.9758
11002SOL     OW34446   3.228   4.236  12.335  0.3254  0.1869 -0.0416
11002SOL    HW134447   3.217   4.168  12.402  0.0692  0.7952  0.5410
11002SOL    HW234448   3.259   4.312  12.383 -0.5295  0.8444 -0.5168
11003SOL     OW34449   3.783   3.959   7.756  0.1283 -0.0695  0.4679
11003SOL    HW134450   3.688   3.948   7.744  0.4510 -1.0226 -1.6405
11003SOL    HW234451   3.814   3.997   7.674  1.7716 -1.2442  0.4887
11004SOL     OW34452   5.452   2.091   8.308 -0.1499  0.2515  0.0657
11004SOL    HW134453   5.500   2.162   8.266  1.2966 -1.1597 -0.8026
11004SOL    HW234454   5.377   2.076   8.251  0.0491  0.4723 -0.2590
11005SOL     OW34455   1.333   5.948  12.206  0.8266 -0.4586  0.1339
11005SOL    HW134456   1.350   5.854  12.203 -0.0588 -0.6629  1.0518
11005SOL    HW234457   1.394   5.982  12.271  2.8636  0.0320 -1.9137
11006SOL     OW34458   0.504   1.980   0.418 -0.1516  0.7415 -0.5632
11006SOL    HW134459   0.438   1.993   0.487 -0.1488 -0.0966 -0.3909
11006SOL    HW234460   0.526   1.887   0.423  0.3500  0.8140 -1.2526
11007SOL     OW34461   5.530   0.685   0.774 -0.4658 -0.2068  0.0616
11007SOL    HW134462   5.465   0.705   0.706 -0.2790  0.8701  0.1785
11007SOL    HW234463   5.592   0.626   0.731  0.1359  1.1352 -1.0092
11008SOL     OW34464   7.099   4.568   6.823 -0.0849  0.2386 -0.2626
11008SOL    HW134465   7.186   4.547   6.857  0.1690  2.1270  0.3727
11008SOL    HW234466   7.044   4.575   6.901 -0.1799  1.6489 -0.4257
11009SOL     OW34467   5.717   0.894  10.303  0.6686  0.3074  0.5120
11009SOL    HW134468   5.646   0.893  10.367 -1.4216  0.1293 -1.6771
11009SOL    HW234469   5.774   0.822  10.330 -1.3407 -1.2166  0.9340
11010SOL     OW34470   3.521   6.806   6.887  0.4465 -0.1558  0.7068
11010SOL    HW134471   3.435   6.796   6.927  0.7169 -1.1547  1.0508
11010SOL    HW234472   3.546   6.718   6.859  0.0609  0.5389 -2.1352
11011SOL     OW34473   5.425   0.860   1.633 -0.5697 -0.0804  0.3506
11011SOL    HW134474   5.494   0.812   1.588 -0.5498 -0.2865  0.5988
11011SOL    HW234475   5.463   0.883   1.717 -0.8929 -0.4347  0.6005
11012SOL     OW34476   5.499   3.806   6.946  0.0534 -0.3289 -0.1630
11012SOL    HW134477   5.480   3.845   7.031  0.1196 -2.3320  0.8076
11012SOL    HW234478   5.594   3.795   6.944  0.0861 -0.0454 -0.6410
11013SOL     OW34479   0.099   5.053   3.520  0.1192  0.6134 -0.2570
11013SOL    HW134480   0.163   5.122   3.535  1.0818 -0.2732 -0.2039
11013SOL    HW234481   0.077   5.022   3.607  0.2770  0.3279 -0.3187
11014SOL     OW34482   2.464   2.722   2.328 -0.1257 -0.4280  0.0164
11014SOL    HW134483   2.547   2.732   2.281 -0.7091 -0.3005 -0.9889
11014SOL    HW234484   2.473   2.638   2.373  0.4240 -0.5666 -0.3387
11015SOL     OW34485   5.372   1.375   4.418  0.1221  0.2456 -0.1634
11015SOL    HW134486   5.391   1.331   4.336  0.6078  0.5732 -0.2290
11015SOL    HW234487   5.310   1.444   4.395 -0.4530 -0.2402 -0.0996
11016SOL     OW34488   3.435   2.858   8.891  0.4469 -0.4812 -0.2529
11016SOL    HW134489   3.359   2.802   8.908  0.1425  0.2948  1.0548
11016SOL    HW234490   3.433   2.873   8.796 -1.8137  0.6014 -0.0977
11017SOL     OW34491   4.692   1.099   3.815 -0.0118 -0.1995 -0.1145
11017SOL    HW134492   4.602   1.120   3.842 -0.5223 -1.3407 -0.8758
11017SOL    HW234493   4.744   1.172   3.849 -0.9175 -0.4609  2.0439
11018SOL     OW34494   4.515   5.310   8.253  0.5048  0.3861  0.4094
11018SOL    HW134495   4.607   5.333   8.242 -0.0199  1.5948 -2.0530
11018SOL    HW234496   4.501   5.235   8.196  0.0637 -0.0913  1.1319
11019SOL     OW34497   4.377   2.936   0.641  0.5933 -0.1192 -0.3072
11019SOL    HW134498   4.398   3.000   0.709  2.8168  0.8312 -1.7531
11019SOL    HW234499   4.443   2.951   0.573 -1.3174 -1.2176 -2.5550
11020SOL     OW34500   6.714   0.627   7.449  0.4583 -0.1826  0.6202
11020SOL    HW134501   6.713   0.596   7.359 -0.3212 -0.9965  0.9007
11020SOL    HW234502   6.726   0.548   7.502  2.1113  0.4080  1.1991
11021SOL     OW34503   2.632   4.209   0.622 -0.4567 -0.0500  0.0077
11021SOL    HW134504   2.564   4.142   0.618 -0.3190 -0.1438 -1.1629
11021SOL    HW234505   2.681   4.190   0.702  0.1043 -1.8713 -0.7249
11022SOL     OW34506   1.121   0.225   1.678 -0.2425 -0.4763 -0.2707
11022SOL    HW134507   1.198   0.211   1.623  0.5274  1.0804  0.3364
11022SOL    HW234508   1.056   0.261   1.618 -0.4496 -1.5989 -0.7432
11023SOL     OW34509   2.485   6.971   8.005  0.2247 -0.0157  0.2618
11023SOL    HW134510   2.578   6.990   7.997  0.4492 -0.7283  1.1244
11023SOL    HW234511   2.451   7.041   8.061  0.3454 -0.0858  0.4219
11024SOL     OW34512   5.674   2.808   0.584 -0.3278 -0.0264  0.2515
11024SOL    HW134513   5.618   2.886   0.587 -0.7879 -0.3442  0.0314
11024SOL    HW234514   5.624   2.745   0.533  0.3721 -0.2122 -0.2091
11025SOL     OW34515   4.789   7.858   2.908  0.0874 -0.7987  0.9191
11025SOL    HW134516   4.718   7.849   2.845  2.0130 -1.2755 -1.3612
11025SOL    HW234517   4.841   7.932   2.875  0.0630  0.3485  3.2107
11026SOL     OW34518   2.708   1.647   7.794 -0.4410 -0.3426  0.4512
11026SOL    HW134519   2.665   1.626   7.710  1.3747  2.2080 -1.2534
11026SOL    HW234520   2.777   1.709   7.771  1.5217 -1.1288  3.6119
11027SOL     OW34521   5.891   1.475   7.209 -0.1166  0.2394 -0.6650
11027SOL    HW134522   5.862   1.512   7.293 -0.2325 -0.0510 -0.5767
11027SOL    HW234523   5.917   1.551   7.157  3.9704  0.2901  1.0824
11028SOL     OW34524   6.292   5.433   2.326  0.2626  0.0913  0.2845
11028SOL    HW134525   6.375   5.420   2.371 -0.6314  0.8900  2.2567
11028SOL    HW234526   6.293   5.525   2.299  0.6600 -0.3003 -1.1417
11029SOL     OW34527   2.177   6.748   8.021 -0.3508  0.3938 -0.2302
11029SOL    HW134528   2.219   6.780   7.941 -1.4658  1.9087 -0.2615
11029SOL    HW234529   2.109   6.688   7.991  0.2206 -0.2113 -0.3205
11030SOL     OW34530   1.898   5.509   2.349  0.0997 -0.3607 -0.5877
11030SOL    HW134531   1.987   5.476   2.360 -0.0498 -1.0168 -1.2344
11030SOL    HW234532   1.875   5.546   2.434  0.8014 -0.6418 -0.2661
11031SOL     OW34533   7.149   1.492   5.020  0.1428  0.2170 -0.3945
11031SOL    HW134534   7.207   1.423   4.989 -1.4249 -1.4497  0.2407
11031SOL    HW234535   7.116   1.534   4.940  0.4156 -0.3491 -0.8084
11032SOL     OW34536   5.949   7.132   7.277  0.2836 -0.1435  0.1910
11032SOL    HW134537   5.952   7.060   7.339  0.9975  0.2377  0.6202
11032SOL    HW234538   6.016   7.193   7.308 -0.9112  1.1304  0.3620
11033SOL     OW34539   6.690   7.244   1.994 -0.0507  0.2793 -0.0259
11033SOL    HW134540   6.694   7.287   2.080  2.6426  0.9299 -0.4000
11033SOL    HW234541   6.779   7.248   1.961 -0.2900 -2.9164 -1.4433
11034SOL     OW34542   7.767   7.395  12.206 -0.2757 -0.0734  0.4699
11034SOL    HW134543   7.816   7.437  12.276 -0.6972 -0.2375  0.8712
11034SOL    HW234544   7.700   7.343  12.252  0.0434 -0.9397 -0.0109
11035SOL     OW34545   7.985   1.989  10.735 -0.0452  0.3449  0.6206
11035SOL    HW134546   8.076   2.002  10.760  0.3369 -1.1861  0.1181
11035SOL    HW234547   7.984   2.006  10.641 -0.6895  2.2213  0.9266
11036SOL     OW34548   7.398   3.351   8.725 -0.7741 -0.1616 -0.4609
11036SOL    HW134549   7.368   3.409   8.795 -1.2437 -1.1665  0.2010
11036SOL    HW234550   7.321   3.300   8.701 -0.4853 -0.1960 -1.3569
11037SOL     OW34551   1.212   7.951   9.983  0.7734  0.2232  0.3104
11037SOL    HW134552   1.241   7.892   9.914  0.4370  1.0368 -0.5429
11037SOL    HW234553   1.196   7.894  10.058 -1.6373 -1.1464 -1.1149
11038SOL     OW34554   6.377   5.436  10.804 -0.0611 -0.1864  0.0739
11038SOL    HW134555   6.452   5.425  10.863  0.2185  0.2833 -0.1848
11038SOL    HW234556   6.392   5.371  10.735 -0.7438 -1.1998  0.8643
11039SOL     OW34557   7.369   4.973   1.082 -0.2932  0.8719 -0.1931
11039SOL    HW134558   7.445   5.001   1.030 -1.9949  1.8089 -2.3468
11039SOL    HW234559   7.324   5.054   1.104 -0.3244  0.3773  1.6891
11040SOL     OW34560   5.121   7.833   2.259 -0.0305 -0.1413  0.5239
11040SOL    HW134561   5.145   7.789   2.178  0.6566 -0.7604  1.0470
11040SOL    HW234562   5.027   7.818   2.268 -0.1881  0.2746 -0.3485
11041SOL     OW34563   1.246   0.566   0.257 -0.9090 -0.1955  0.0465
11041SOL    HW134564   1.327   0.611   0.235 -0.3525 -1.4922 -0.6722
11041SOL    HW234565   1.212   0.614   0.332  1.5369 -0.7264  1.6337
11042SOL     OW34566   0.801   5.573  10.172  0.9522  0.5200  0.1599
11042SOL    HW134567   0.716   5.617  10.167  0.7048  0.3022  1.9047
11042SOL    HW234568   0.780   5.480  10.177  1.2506  0.4865  1.0161
11043SOL     OW34569   6.586   2.818   9.962 -0.5247 -0.2417 -0.0008
11043SOL    HW134570   6.587   2.722   9.960  3.0956 -0.3172 -0.8730
11043SOL    HW234571   6.677   2.843   9.978 -1.6803  3.1189  2.6060
11044SOL     OW34572   5.470   7.086  11.709  0.6181  0.3512  0.3126
11044SOL    HW134573   5.379   7.112  11.699 -0.4140 -2.9154 -0.1574
11044SOL    HW234574   5.490   7.100  11.801 -1.7599 -2.3906  1.4112
11045SOL     OW34575   3.996   2.979   6.874  0.4933  0.7133  0.1883
11045SOL    HW134576   3.958   3.043   6.814  1.6763  0.2343 -1.1251
11045SOL    HW234577   3.948   2.991   6.956 -1.4681  1.1067 -0.9536
11046SOL     OW34578   7.901   3.170   3.842 -0.4434  0.4885 -0.1849
11046SOL    HW134579   7.949   3.100   3.797  0.8367  0.6308  0.8895
11046SOL    HW234580   7.843   3.206   3.775  2.9287  2.1799 -2.5044
11047SOL     OW34581   6.405   7.153   5.476 -0.2133 -0.0291 -0.2865
11047SOL    HW134582   6.483   7.192   5.514 -1.1607  0.5052  1.1855
11047SOL    HW234583   6.340   7.224   5.476 -1.1791 -0.8914  0.0126
11048SOL     OW34584   0.898   7.521  11.164 -0.0858  0.3122  0.7807
11048SOL    HW134585   0.989   7.495  11.179 -0.0258 -0.7258 -1.0938
11048SOL    HW234586   0.873   7.567  11.244  1.1891 -1.8530  2.5431
11049SOL     OW34587   7.851   6.406  11.646 -0.1043 -0.2851  0.1655
11049SOL    HW134588   7.846   6.460  11.567  0.8844 -0.5292 -0.0812
11049SOL    HW234589   7.787   6.336  11.631 -0.3228 -0.0129 -0.1746
11050SOL     OW34590   5.769   6.660   3.224  0.7221  0.0403  0.1191
11050SOL    HW134591   5.719   6.589   3.264 -1.3404  1.7489  0.7846
11050SOL    HW234592   5.858   6.649   3.259  0.7591 -2.7255 -0.6068
11051SOL     OW34593   6.015   3.345  12.356  0.3853 -0.3281 -0.1380
11051SOL    HW134594   6.018   3.346  12.452  1.0221  1.3730 -0.1479
11051SOL    HW234595   6.096   3.302  12.330  0.3025 -0.6220  0.0785
11052SOL     OW34596   2.851   4.445   9.417 -0.0724 -0.0944 -0.0175
11052SOL    HW134597   2.891   4.362   9.390  2.2913  1.1109 -0.4086
11052SOL    HW234598   2.895   4.467   9.499 -1.6048  0.1965  0.7802
11053SOL     OW34599   1.641   2.029   8.851  0.1820  1.0691  0.7809
11053SOL    HW134600   1.696   2.093   8.895  0.1747  1.4338  0.2641
11053SOL    HW234601   1.554   2.068   8.850  0.4274  1.6110 -0.6425
11054SOL     OW34602   2.289   4.165   9.517 -0.3297  0.1940 -0.1206
11054SOL    HW134603   2.354   4.204   9.574 -0.1794  0.9751 -0.8089
11054SOL    HW234604   2.286   4.073   9.543  0.7113  0.2464  0.2219
11055SOL     OW34605   2.777   4.610   0.470 -0.3416  0.2088 -0.3849
11055SOL    HW134606   2.856   4.584   0.423 -1.3108  0.7265 -2.4158
11055SOL    HW234607   2.772   4.550   0.544  2.6041  0.9799  0.5407
11056SOL     OW34608   6.706   1.083  11.441  0.0325  0.7207 -0.2718
11056SOL    HW134609   6.785   1.133  11.460  0.5017 -0.5824  1.4298
11056SOL    HW234610   6.653   1.090  11.520 -0.5490 -0.2308 -0.5570
11057SOL     OW34611   4.225   2.272  10.742  0.4158 -0.1359  0.4865
11057SOL    HW134612   4.238   2.283  10.836  0.0166 -2.2085  0.8258
11057SOL    HW234613   4.130   2.275  10.731  0.3467 -1.7379  0.4487
11058SOL     OW34614   7.645   6.285   0.067  0.1145 -0.5207 -0.6504
11058SOL    HW134615   7.612   6.223   0.002 -3.1985 -0.7090  0.9866
11058SOL    HW234616   7.670   6.231   0.142  0.7596 -0.1093 -0.5627
11059SOL     OW34617   3.026   2.036   2.553 -0.3858  0.2925  0.2585
11059SOL    HW134618   3.003   2.024   2.460 -1.5488  1.8676  0.2960
11059SOL    HW234619   3.118   2.059   2.552 -0.2132 -0.3748 -0.4406
11060SOL     OW34620   6.865   7.567   6.631 -0.4172  0.3456 -0.3359
11060SOL    HW134621   6.887   7.549   6.540  0.0419  1.0254 -0.3637
11060SOL    HW234622   6.779   7.525   6.643  0.7636 -2.2144 -0.2529
11061SOL     OW34623   1.641   1.939   5.502  0.4070  0.0913 -0.2636
11061SOL    HW134624   1.612   1.850   5.520  0.1144  0.2198 -0.1088
11061SOL    HW234625   1.620   1.988   5.581 -1.6276  0.8352 -1.2140
11062SOL     OW34626   2.990   6.769  10.396  0.5588  0.6574  0.0235
11062SOL    HW134627   3.033   6.840  10.347  2.2167 -1.7093 -2.1943
11062SOL    HW234628   3.045   6.756  10.473 -0.1213  2.1334  0.8008
11063SOL     OW34629   3.606   6.478  11.648 -0.2342  0.1109 -0.1893
11063SOL    HW134630   3.683   6.486  11.591  0.6312  0.0208  0.9164
11063SOL    HW234631   3.584   6.568  11.671  1.0063  0.0752  1.3261
11064SOL     OW34632   2.197   3.505   0.845 -0.1693 -0.3716 -0.0315
11064SOL    HW134633   2.229   3.595   0.834  1.6809 -1.1785 -1.7839
11064SOL    HW234634   2.108   3.508   0.812 -0.0245  0.7498 -0.3765
11065SOL     OW34635   1.673   6.673   1.634 -0.0325 -0.8117  0.1383
11065SOL    HW134636   1.709   6.612   1.699  0.0653 -0.5217  0.3547
11065SOL    HW234637   1.713   6.646   1.551 -0.2461 -1.2566  0.1769
11066SOL     OW34638   4.901   0.533   7.791  0.4008  0.1726 -0.5116
11066SOL    HW134639   4.932   0.591   7.861  0.2108 -0.1015 -0.1956
11066SOL    HW234640   4.851   0.466   7.837  3.7562 -2.5056 -0.3363
11067SOL     OW34641   7.409   0.576   3.696  0.2187  0.5787 -0.2544
11067SOL    HW134642   7.479   0.533   3.745 -0.5998  2.4369  2.7756
11067SOL    HW234643   7.451   0.650   3.653  0.3707  0.8201  0.3144
11068SOL     OW34644   2.753   6.315   2.150 -0.4555  0.2036 -0.2010
11068SOL    HW134645   2.813   6.249   2.184 -0.3077  0.0528 -0.7374
11068SOL    HW234646   2.798   6.398   2.163 -0.4961  0.1700  0.1656
11069SOL     OW34647   1.243   3.853   4.393  0.3585 -0.0004 -0.4028
11069SOL    HW134648   1.288   3.870   4.310 -0.9280  1.5924 -0.8398
11069SOL    HW234649   1.220   3.941   4.425 -2.4057 -0.6972 -0.2340
11070SOL     OW34650   1.090   4.783   6.825  0.4397  0.0924 -0.5465
11070SOL    HW134651   1.028   4.711   6.810  1.1407 -0.8769  0.9198
11070SOL    HW234652   1.170   4.740   6.855  1.3709  1.4135 -1.0351
11071SOL     OW34653   7.830   1.603   0.280 -0.3939 -0.4159  0.0693
11071SOL    HW134654   7.753   1.547   0.268 -0.9409  0.1980  0.6087
11071SOL    HW234655   7.794   1.689   0.303  0.4483 -0.0269 -0.0165
11072SOL     OW34656   3.582   4.210   5.151  0.4204 -0.8956 -1.2110
11072SOL    HW134657   3.516   4.141   5.157  0.1166 -0.5579 -0.5947
11072SOL    HW234658   3.533   4.288   5.127  0.2894 -0.2513  0.9029
11073SOL     OW34659   6.764   0.598  10.587  0.0398  0.0694 -0.2128
11073SOL    HW134660   6.806   0.567  10.667  1.0348  1.3830 -0.1910
11073SOL    HW234661   6.671   0.591  10.605  0.2111 -2.1716  0.0401
11074SOL     OW34662   4.826   1.125   9.119 -0.5063  0.1514 -0.1515
11074SOL    HW134663   4.844   1.072   9.197 -1.2337 -0.2029 -0.2174
11074SOL    HW234664   4.889   1.197   9.124 -0.1050 -0.2315  0.4119
11075SOL     OW34665   2.127   1.694   1.923  0.2698  0.1860  0.4190
11075SOL    HW134666   2.220   1.672   1.932  0.1268 -0.9744 -0.6870
11075SOL    HW234667   2.124   1.789   1.934  1.4969  0.1706  1.1097
11076SOL     OW34668   4.690   6.228   0.149 -0.1243 -0.3612 -0.4771
11076SOL    HW134669   4.700   6.260   0.239 -0.8202 -0.6035 -0.3106
11076SOL    HW234670   4.600   6.197   0.144  0.4732 -2.1690 -0.6713
11077SOL     OW34671   7.944   0.988   9.005 -0.7397  0.2603 -0.1701
11077SOL    HW134672   8.038   0.992   8.989 -0.7512 -2.1746 -1.3735
11077SOL    HW234673   7.918   0.903   8.969 -3.6528  1.4827 -1.2239
11078SOL     OW34674   1.138   0.678  12.185 -0.0293 -0.1616  0.0512
11078SOL    HW134675   1.142   0.659  12.092 -0.5425 -0.1955  0.0287
11078SOL    HW234676   1.210   0.628  12.223  0.0599 -0.3037 -0.3016
11079SOL     OW34677   3.162   5.815   2.454  0.1535 -0.5096  0.2060
11079SOL    HW134678   3.209   5.893   2.426  0.1820 -0.8776 -0.8287
11079SOL    HW234679   3.226   5.744   2.441  0.1736 -0.6971  1.2556
11080SOL     OW34680   2.972   0.794   5.291 -0.0718  0.1248 -0.0089
11080SOL    HW134681   2.985   0.863   5.356 -0.4152  0.8974 -0.7370
11080SOL    HW234682   2.879   0.799   5.269  0.1997  0.4315 -1.1596
11081SOL     OW34683   2.152   6.882   2.601 -0.1537  0.0061 -0.4709
11081SOL    HW134684   2.125   6.904   2.512  1.5739  2.2546 -0.5334
11081SOL    HW234685   2.115   6.952   2.655 -0.3587 -0.7890  0.4554
11082SOL     OW34686   7.459   1.171   7.882 -0.3987  0.0364  0.4541
11082SOL    HW134687   7.406   1.190   7.805  0.2850  1.4580  0.2957
11082SOL    HW234688   7.403   1.193   7.957 -0.3981  0.5055  0.3163
11083SOL     OW34689   1.587   2.141  11.519 -0.3117 -0.0259 -0.1653
11083SOL    HW134690   1.562   2.049  11.512 -0.8840  0.1271 -0.1929
11083SOL    HW234691   1.527   2.178  11.584 -0.4165  0.4379 -0.5141
11084SOL     OW34692   7.667   0.919   6.140 -0.8748 -1.0565  0.0183
11084SOL    HW134693   7.690   0.857   6.072 -0.4147  0.0819 -0.9071
11084SOL    HW234694   7.737   0.984   6.138 -1.2782 -0.5556  1.0242
11085SOL     OW34695   0.982   1.205   5.333 -0.2934  0.4332 -0.4380
11085SOL    HW134696   0.945   1.293   5.344  0.7503  0.7075  1.5194
11085SOL    HW234697   1.026   1.208   5.248  0.5495  2.1780  0.0033
11086SOL     OW34698   2.662   6.022   4.681  0.1686 -0.5968  0.0803
11086SOL    HW134699   2.692   6.079   4.610  0.6663  0.3269  0.9961
11086SOL    HW234700   2.729   5.954   4.687  1.4073  0.6443  1.1616
11087SOL     OW34701   7.637   4.802   4.022 -0.2010  0.0107  0.3936
11087SOL    HW134702   7.732   4.793   4.019 -0.3424 -1.4067 -0.2428
11087SOL    HW234703   7.621   4.894   3.998  0.9295 -0.1373 -1.0242
11088SOL     OW34704   0.788   2.414  10.490 -0.7704 -0.2379  0.0886
11088SOL    HW134705   0.741   2.356  10.430  0.2688 -1.5356  0.4637
11088SOL    HW234706   0.719   2.468  10.529 -1.7741 -1.0926 -0.4162
11089SOL     OW34707   3.334   7.519  11.898  0.3179 -0.2046  0.3927
11089SOL    HW134708   3.420   7.505  11.858  0.0421  0.2161 -0.3672
11089SOL    HW234709   3.334   7.612  11.923  0.4588 -0.4414  1.3287
11090SOL     OW34710   0.669   0.809   5.582  0.3972 -0.6618  0.0941
11090SOL    HW134711   0.704   0.725   5.553  0.7128  0.1923 -2.2039
11090SOL    HW234712   0.647   0.855   5.501 -1.6403  0.7061  1.3548
11091SOL     OW34713   1.726   5.991   0.299  0.4152 -0.3533  0.3740
11091SOL    HW134714   1.759   5.946   0.222 -0.9636 -2.2022  0.7635
11091SOL    HW234715   1.713   6.081   0.271  0.9894 -0.7245 -1.2049
11092SOL     OW34716   2.784   6.139  12.035  0.2803  0.2795  0.1627
11092SOL    HW134717   2.844   6.068  12.060  1.6874  1.4589  0.2351
11092SOL    HW234718   2.720   6.097  11.977 -0.0158 -1.4200  1.6273
11093SOL     OW34719   0.156   1.257   7.332  1.0278  0.5152  0.6432
11093SOL    HW134720   0.246   1.289   7.332  1.5765 -0.9162  0.2167
11093SOL    HW234721   0.102   1.334   7.317  2.3764  0.9766 -2.7505
11094SOL     OW34722   1.381   2.866   8.832  0.1686  0.0185  0.2308
11094SOL    HW134723   1.295   2.855   8.791  0.6608  0.3348 -0.9328
11094SOL    HW234724   1.422   2.780   8.827  0.7989  0.3632 -1.3495
11095SOL     OW34725   6.911   5.975   6.011 -0.0180  0.1469 -0.2765
11095SOL    HW134726   6.970   6.028   5.957  0.5055  0.7902  0.8911
11095SOL    HW234727   6.969   5.918   6.061 -0.4511  0.0711  0.1454
11096SOL     OW34728   1.341   2.115   3.022  0.2355 -0.0010  0.3587
11096SOL    HW134729   1.272   2.152   3.078 -0.4016 -2.5572  1.4316
11096SOL    HW234730   1.422   2.142   3.064 -0.1397  1.3813  0.2366
11097SOL     OW34731   3.112   7.730  10.332  0.5437  0.0302 -0.4889
11097SOL    HW134732   3.082   7.754  10.244  0.3588 -0.8730 -0.6779
11097SOL    HW234733   3.185   7.669  10.317 -0.3175 -1.1534 -0.0334
11098SOL     OW34734   2.635   3.660   6.594  0.0360  0.0880  0.0481
11098SOL    HW134735   2.650   3.692   6.504 -0.0155  0.6510  0.2364
11098SOL    HW234736   2.603   3.571   6.582  0.4349  0.0033 -0.4831
11099SOL     OW34737   3.970   1.339   0.780 -0.1584  0.1655 -0.2447
11099SOL    HW134738   3.926   1.255   0.767  1.7408 -0.8778 -0.2531
11099SOL    HW234739   4.021   1.328   0.860 -0.6276  1.6583  0.2994
11100SOL     OW34740   2.831   5.307   8.396  0.1036 -0.4084 -0.1748
11100SOL    HW134741   2.824   5.277   8.306 -0.9124 -0.6746 -0.0191
11100SOL    HW234742   2.888   5.243   8.438  0.8731 -0.0865 -0.6987
11101SOL     OW34743   5.274   2.429   1.525 -0.0359  0.3984  0.1155
11101SOL    HW134744   5.312   2.509   1.489  1.7988 -0.1178  0.8260
11101SOL    HW234745   5.266   2.445   1.619  0.8742 -0.4274  0.3524
11102SOL     OW34746   1.928   6.157   8.636 -0.2529 -0.0797 -0.8953
11102SOL    HW134747   1.838   6.160   8.604  0.0619 -1.1186 -1.9658
11102SOL    HW234748   1.953   6.065   8.628  0.9695  0.2271 -0.7915
11103SOL     OW34749   6.237   4.494   2.722  0.6425  0.6150  0.1311
11103SOL    HW134750   6.322   4.450   2.720  0.7337  0.0731  5.1526
11103SOL    HW234751   6.257   4.586   2.736  0.3890  0.6782  0.0922
11104SOL     OW34752   1.153   4.381   3.303  0.0206 -0.4726 -0.0769
11104SOL    HW134753   1.212   4.306   3.302  0.0646 -0.4636  0.8038
11104SOL    HW234754   1.207   4.456   3.279  0.5633 -0.3489  1.3928
11105SOL     OW34755   7.508   7.444   4.646  0.3461  0.3985 -0.6147
11105SOL    HW134756   7.540   7.504   4.713  1.0475 -0.7979  0.1528
11105SOL    HW234757   7.586   7.421   4.595  0.2280 -0.4259 -0.4392
11106SOL     OW34758   0.969   5.327   6.185 -0.2506 -0.3427 -0.0101
11106SOL    HW134759   0.892   5.289   6.142 -1.4467  0.6113  1.2063
11106SOL    HW234760   1.019   5.251   6.216 -1.3513 -0.9822  0.2653
11107SOL     OW34761   3.285   6.713   8.470  0.1944  0.0163  0.1605
11107SOL    HW134762   3.277   6.745   8.560  3.0336 -0.1840  0.6018
11107SOL    HW234763   3.283   6.618   8.478 -0.3864  0.0015 -0.1178
11108SOL     OW34764   3.296   0.114   4.549 -0.1386  0.0068 -0.3261
11108SOL    HW134765   3.305   0.072   4.464  1.3858 -0.8237  0.2108
11108SOL    HW234766   3.301   0.208   4.531  0.7014 -0.1809 -1.0968
11109SOL     OW34767   5.500   7.709   8.956  0.1181  0.0287  0.0555
11109SOL    HW134768   5.430   7.671   9.009  1.0196  0.0011  1.2916
11109SOL    HW234769   5.470   7.798   8.938 -0.1419  0.1044  0.8005
11110SOL     OW34770   6.560   0.857   7.549 -0.6168 -0.3120  0.1376
11110SOL    HW134771   6.608   0.777   7.533  0.5031  0.6552 -1.6106
11110SOL    HW234772   6.482   0.829   7.598 -1.0071 -2.6675 -1.6486
11111SOL     OW34773   2.089   5.382   3.487 -0.0244  0.1038  0.1656
11111SOL    HW134774   2.086   5.350   3.397  0.7979  1.8860 -0.5405
11111SOL    HW234775   2.013   5.342   3.529  0.3418 -1.8672 -0.9050
11112SOL     OW34776   4.402   0.526   9.585 -0.0374 -0.3005 -0.4203
11112SOL    HW134777   4.367   0.481   9.662  0.3282 -2.4167 -1.4195
11112SOL    HW234778   4.353   0.489   9.511  1.1773 -0.0031 -1.4110
11113SOL     OW34779   6.073   7.783   5.443  0.1952  0.7967  0.1491
11113SOL    HW134780   6.085   7.835   5.522  0.8642  2.7240 -1.1594
11113SOL    HW234781   6.141   7.814   5.383 -0.3018 -0.5950 -1.1988
11114SOL     OW34782   7.775   1.650   1.946  0.0380 -0.4580 -0.0891
11114SOL    HW134783   7.757   1.563   1.982  0.3183 -0.3362  0.3511
11114SOL    HW234784   7.692   1.697   1.956  0.0223 -0.5261  0.1030
11115SOL     OW34785   2.638   7.912   5.838 -0.2920  0.5120 -0.0957
11115SOL    HW134786   2.582   7.931   5.913 -0.7386  2.0375 -0.7876
11115SOL    HW234787   2.726   7.939   5.866 -0.3350  0.4516  0.1004
11116SOL     OW34788   1.590   6.386  10.454 -0.0278 -0.3874  0.1349
11116SOL    HW134789   1.594   6.474  10.417 -0.9807 -0.1722  0.4981
11116SOL    HW234790   1.654   6.387  10.524 -1.7005  0.8503  1.7609
11117SOL     OW34791   2.668   1.081   3.006 -0.5464  0.0759 -1.0028
11117SOL    HW134792   2.756   1.107   2.982 -0.7978  0.2281 -1.7782
11117SOL    HW234793   2.673   1.062   3.100  0.1327  0.8305 -0.8806
11118SOL     OW34794   6.043   4.208   3.514 -0.2973 -0.0072 -0.2493
11118SOL    HW134795   6.057   4.137   3.576  0.4830  0.0479 -0.3562
11118SOL    HW234796   6.077   4.174   3.431  1.5124  1.0171  0.0104
11119SOL     OW34797   3.994   6.745   8.019  0.2374 -0.0174 -0.3554
11119SOL    HW134798   3.983   6.821   7.961 -1.4069 -1.3383 -1.8825
11119SOL    HW234799   3.919   6.689   7.999 -0.2399 -0.7107  2.8882
11120SOL     OW34800   5.699   1.268  12.422 -0.0915 -0.4034  0.0960
11120SOL    HW134801   5.734   1.221  12.497  0.0431  0.3422  0.5170
11120SOL    HW234802   5.774   1.283  12.365  0.1607  0.5329  0.6415
11121SOL     OW34803   3.499   7.248  12.044 -0.5038  1.0418  0.6480
11121SOL    HW134804   3.536   7.266  12.130 -0.6567  0.9157  0.7415
11121SOL    HW234805   3.567   7.275  11.982  0.4782 -0.8529  0.8444
11122SOL     OW34806   7.577   6.573   8.741 -0.2192  0.1956 -0.0247
11122SOL    HW134807   7.586   6.663   8.713  1.4049  0.4789  1.2488
11122SOL    HW234808   7.659   6.531   8.717 -0.7886 -0.8579 -0.2299
11123SOL     OW34809   2.047   2.841  12.414  0.3706 -0.1466  0.0544
11123SOL    HW134810   2.108   2.896  12.365 -0.8631 -0.2313 -1.6991
11123SOL    HW234811   2.092   2.822  12.496  0.8895  3.3819  0.7421
11124SOL     OW34812   2.520   3.451   3.032 -0.0676  0.3554 -0.5283
11124SOL    HW134813   2.536   3.357   3.028 -1.4587  0.1046 -0.7540
11124SOL    HW234814   2.605   3.491   3.017  0.4602 -0.8607 -0.8658
11125SOL     OW34815   4.609   7.327  10.264 -0.1631 -0.2062 -0.2488
11125SOL    HW134816   4.609   7.352  10.356  2.7133 -0.8310  0.0177
11125SOL    HW234817   4.661   7.394  10.220  1.7313 -1.8517 -0.6943
11126SOL     OW34818   2.013   1.709   9.789 -0.7049  0.2040 -0.7155
11126SOL    HW134819   1.945   1.678   9.849 -1.6606  0.1086 -1.8122
11126SOL    HW234820   2.095   1.685   9.832 -1.3427  0.3299  0.6531
11127SOL     OW34821   4.969   0.535   1.208  0.1232  0.0989  0.0692
11127SOL    HW134822   4.881   0.540   1.244  0.0057 -2.6784  0.4059
11127SOL    HW234823   5.005   0.623   1.220 -1.6589  0.6132  2.3943
11128SOL     OW34824   3.621   5.322   8.250 -0.2214  0.5042  0.0761
11128SOL    HW134825   3.648   5.305   8.160  1.4574  0.7731  0.5005
11128SOL    HW234826   3.681   5.270   8.304 -1.2953  0.2239  1.0461
11129SOL     OW34827   5.331   6.570   7.575 -0.7932  0.2579  0.1605
11129SOL    HW134828   5.395   6.637   7.597 -0.4377  0.7301 -2.0906
11129SOL    HW234829   5.301   6.536   7.660  1.1593  1.2114  1.2895
11130SOL     OW34830   1.339   0.014   3.462  0.2864 -0.5821 -0.0291
11130SOL    HW134831   1.382   0.099   3.454 -0.6709  0.0561  1.1220
11130SOL    HW234832   1.276   0.027   3.533 -1.9221 -1.3789 -1.7300
11131SOL     OW34833   3.037   0.357  10.443  0.2340  0.2371 -0.6360
11131SOL    HW134834   2.953   0.334  10.482  0.1339  2.8048  0.8820
11131SOL    HW234835   3.096   0.285  10.467 -0.4422  0.5346  2.2667
11132SOL     OW34836   2.192   5.502  11.272 -0.0017 -0.3134  0.1172
11132SOL    HW134837   2.101   5.520  11.248  0.6217  1.1462 -1.3810
11132SOL    HW234838   2.229   5.458  11.196  0.7094 -0.3403  0.4728
11133SOL     OW34839   2.438   2.095  10.467 -0.0422 -0.7747 -0.1455
11133SOL    HW134840   2.379   2.020  10.453  0.4743 -0.9782 -1.3515
11133SOL    HW234841   2.379   2.171  10.471 -0.4547 -1.0625 -0.5663
11134SOL     OW34842   5.375   1.531   8.977  0.0361  0.0536  0.0004
11134SOL    HW134843   5.440   1.469   9.010 -0.4536 -0.6354 -0.2989
11134SOL    HW234844   5.301   1.476   8.949 -0.3834  0.7673 -0.3294
11135SOL     OW34845   1.806   6.752   6.913 -0.1873  0.6354  0.4600
11135SOL    HW134846   1.715   6.730   6.897 -0.5501  0.7303  2.1950
11135SOL    HW234847   1.802   6.833   6.964  0.8775  0.7170  0.4372
11136SOL     OW34848   0.242   2.822  11.867  0.3094  0.6569 -0.0826
11136SOL    HW134849   0.252   2.833  11.962  0.9236 -1.2162  0.1246
11136SOL    HW234850   0.151   2.846  11.850 -0.2924 -0.4802  1.2800
11137SOL     OW34851   5.681   7.497   1.795 -0.1531 -0.0146  0.1205
11137SOL    HW134852   5.670   7.583   1.835  1.8644  0.9577 -1.2104
11137SOL    HW234853   5.742   7.513   1.722 -1.2272 -2.2291 -1.3653
11138SOL     OW34854   6.030   4.361   1.098 -0.6392  0.2657 -0.0320
11138SOL    HW134855   5.980   4.418   1.157  0.3385  2.8665 -1.5221
11138SOL    HW234856   6.055   4.419   1.026  2.4043 -1.5265 -0.5532
11139SOL     OW34857   0.324   5.759   2.962  0.1013  0.2026  0.0921
11139SOL    HW134858   0.244   5.726   2.923  0.0604  0.1153  0.2498
11139SOL    HW234859   0.343   5.699   3.035  1.4712 -1.0576 -1.2297
11140SOL     OW34860   3.438   7.935   4.030 -0.0841  0.1234  0.1660
11140SOL    HW134861   3.472   7.937   3.941  0.7319  0.4206  0.4777
11140SOL    HW234862   3.509   7.900   4.083 -0.4678  0.1995  0.7429
11141SOL     OW34863   1.628   2.667   7.425 -0.7025  0.1550 -0.1078
11141SOL    HW134864   1.717   2.676   7.458 -0.6070  1.7878 -0.7092
11141SOL    HW234865   1.630   2.587   7.372  0.0588 -0.5126  0.9015
11142SOL     OW34866   3.108   6.589   0.441 -0.1391  0.5064 -0.1316
11142SOL    HW134867   3.043   6.638   0.389 -1.2172 -0.3693  0.3450
11142SOL    HW234868   3.081   6.603   0.532  0.0604 -0.2601  0.0509
11143SOL     OW34869   6.990   1.107   5.852  0.6163  0.2098 -0.0427
11143SOL    HW134870   6.914   1.139   5.802  1.7977  0.7740 -1.5738
11143SOL    HW234871   7.058   1.094   5.786  1.0696 -2.9617  0.8791
11144SOL     OW34872   6.500   1.279   4.199 -0.4179 -0.2348  0.3007
11144SOL    HW134873   6.454   1.361   4.180 -0.8255 -0.6063 -0.3304
11144SOL    HW234874   6.541   1.255   4.116  0.3585 -0.2616  0.6844
11145SOL     OW34875   2.280   1.293   1.152  0.2507  0.1169  0.4521
11145SOL    HW134876   2.355   1.247   1.114  0.4460  1.4777 -0.9185
11145SOL    HW234877   2.210   1.282   1.088 -0.0803  0.6524  0.7150
11146SOL     OW34878   2.858   1.003  11.227  0.6712 -0.6610 -0.0658
11146SOL    HW134879   2.871   0.909  11.232  1.2359 -0.6433 -0.9149
11146SOL    HW234880   2.765   1.016  11.243  0.8339 -1.2270  1.4483
11147SOL     OW34881   1.407   6.106   9.963  0.0733 -0.5345 -0.1829
11147SOL    HW134882   1.385   6.150   9.881 -1.5310  0.2886  0.6450
11147SOL    HW234883   1.368   6.019   9.955  0.5359 -0.7124 -0.5607
11148SOL     OW34884   0.315   0.059   1.495  0.0971  0.0367 -0.6150
11148SOL    HW134885   0.265   0.109   1.559  0.9899  1.3464 -0.9074
11148SOL    HW234886   0.323  -0.028   1.534  0.4144  0.7370  0.9559
11149SOL     OW34887   5.225   2.813   5.914 -0.2381  0.1997 -0.0366
11149SOL    HW134888   5.209   2.778   5.826  2.6708 -0.9083 -0.2241
11149SOL    HW234889   5.266   2.741   5.961  2.0219  2.0209  0.9329
11150SOL     OW34890   7.410   6.377  11.031 -0.1507  0.4913  0.3570
11150SOL    HW134891   7.431   6.451  10.975 -0.0355  0.7428  0.7286
11150SOL    HW234892   7.495   6.341  11.057 -0.1995 -0.8940 -1.2754
11151SOL     OW34893   3.899   6.182  11.479  0.0165  0.0911 -0.2227
11151SOL    HW134894   3.987   6.213  11.503 -1.3574  2.2733  2.5584
11151SOL    HW234895   3.910   6.088  11.467  2.4353  0.0091  1.7907
11152SOL     OW34896   7.301   0.866  10.094  0.2138 -0.1117 -0.2281
11152SOL    HW134897   7.352   0.786  10.105  1.1766  0.4660 -0.4100
11152SOL    HW234898   7.223   0.852  10.148  0.1308 -1.3600 -0.6342
11153SOL     OW34899   2.886   7.284   1.090  0.5652  0.3854  0.4213
11153SOL    HW134900   2.970   7.253   1.126  0.3101  0.5339  1.1788
11153SOL    HW234901   2.898   7.283   0.995  0.7855 -1.3870  0.4384
11154SOL     OW34902   7.777   5.897   7.927 -0.7426  0.3111 -0.2768
11154SOL    HW134903   7.836   5.971   7.927 -1.7535  1.1478  0.4723
11154SOL    HW234904   7.690   5.935   7.915 -1.4692 -0.5543  1.7236
11155SOL     OW34905   6.654   1.246  12.236  0.1956 -0.4478  0.1889
11155SOL    HW134906   6.562   1.222  12.230  0.7929 -2.7577 -0.8677
11155SOL    HW234907   6.676   1.232  12.328 -0.4190 -0.1763  0.3846
11156SOL     OW34908   7.327   2.092   3.185  0.7039 -0.1158 -0.1843
11156SOL    HW134909   7.363   2.053   3.105  0.7795 -1.0805  0.3022
11156SOL    HW234910   7.268   2.025   3.220  0.5453  0.3587  0.4837
11157SOL     OW34911   3.217   7.655   0.074 -0.2404 -0.2408 -0.4848
11157SOL    HW134912   3.281   7.645   0.004  0.7636  1.4381  0.1247
11157SOL    HW234913   3.148   7.710   0.036 -0.8083 -1.1577 -0.8092
11158SOL     OW34914   7.789   1.055   1.133  0.3052  0.1077  0.2179
11158SOL    HW134915   7.882   1.038   1.116  0.2551  0.1147 -0.0681
11158SOL    HW234916   7.771   1.136   1.086 -0.1414 -0.5305 -0.7551
11159SOL     OW34917   1.076   0.547   9.850  0.7086 -0.3373 -0.5989
11159SOL    HW134918   1.136   0.564   9.778  1.9279 -1.3412  0.1468
11159SOL    HW234919   1.132   0.517   9.921 -0.4868  0.4240  0.7124
11160SOL     OW34920   3.345   7.542   2.419  0.6363  0.0811  0.0536
11160SOL    HW134921   3.426   7.496   2.402  0.7717  0.1992  0.3640
11160SOL    HW234922   3.338   7.543   2.515  1.0895  1.4746  0.0892
11161SOL     OW34923   4.671   2.579   9.856 -0.8026 -0.1236 -0.0478
11161SOL    HW134924   4.662   2.664   9.900  1.5460  0.1320  0.0548
11161SOL    HW234925   4.701   2.601   9.768 -1.7735 -0.8025 -0.5630
11162SOL     OW34926   6.937   1.134   0.171 -0.3377 -0.1819 -0.0353
11162SOL    HW134927   6.959   1.041   0.166  0.5980  0.0623 -0.6735
11162SOL    HW234928   6.965   1.161   0.259  2.0938  0.1341 -0.8363
11163SOL     OW34929   4.282   5.052  11.376  0.3802  0.2370 -0.7856
11163SOL    HW134930   4.232   5.010  11.306  0.8838  0.6073 -1.3856
11163SOL    HW234931   4.222   5.057  11.450  0.3338 -1.6114 -0.6568
11164SOL     OW34932   3.560   3.448   9.450  0.2774 -0.7719  0.5626
11164SOL    HW134933   3.628   3.429   9.385 -1.4597 -1.3866 -1.1751
11164SOL    HW234934   3.608   3.466   9.531  2.6598  1.6197 -1.2148
11165SOL     OW34935   7.372   1.363   0.792  0.1206  0.4772  0.2069
11165SOL    HW134936   7.445   1.348   0.851  1.1382  0.0024 -1.1351
11165SOL    HW234937   7.412   1.376   0.706 -1.2697  1.8424 -0.2930
11166SOL     OW34938   4.646   6.195   5.178  0.3991  0.1506 -0.1410
11166SOL    HW134939   4.625   6.133   5.249 -0.9640  1.5376  0.7311
11166SOL    HW234940   4.726   6.239   5.208  1.3674 -1.1288 -0.7586
11167SOL     OW34941   5.952   7.318   2.304 -0.4234 -0.2864  0.2848
11167SOL    HW134942   5.960   7.413   2.296  2.0027 -0.5230 -1.2273
11167SOL    HW234943   5.906   7.291   2.225 -0.9201 -0.4040  0.6106
11168SOL     OW34944   4.440   6.642   2.317  0.1545 -0.0832  0.8383
11168SOL    HW134945   4.529   6.618   2.293 -0.7112 -2.1617 -0.5322
11168SOL    HW234946   4.442   6.738   2.321  2.6523 -0.0989  1.8395
11169SOL     OW34947   4.901   0.762   6.737  0.0015  0.1790 -0.2599
11169SOL    HW134948   4.951   0.808   6.670  0.5825  1.3728  0.9581
11169SOL    HW234949   4.831   0.823   6.761 -0.8420 -0.6624 -0.5104
11170SOL     OW34950   4.944   4.695   2.116 -0.1603  0.2316  0.4633
11170SOL    HW134951   4.850   4.688   2.130 -0.2967  0.0494 -0.4618
11170SOL    HW234952   4.983   4.675   2.201 -0.9210 -1.1074  0.5224
11171SOL     OW34953   1.959   0.349  10.760  0.1572  0.0862  0.1433
11171SOL    HW134954   2.015   0.400  10.702  1.1755  0.0092  1.0405
11171SOL    HW234955   2.019   0.297  10.813 -0.8477 -2.1955 -0.8450
11172SOL     OW34956   3.471   7.374  12.324  0.3022  0.3421  0.4188
11172SOL    HW134957   3.558   7.382  12.364  2.1284 -1.6131 -2.7500
11172SOL    HW234958   3.469   7.443  12.258 -0.1231 -0.2379 -0.1809
11173SOL     OW34959   2.198   6.540   1.231  0.2306 -0.3936  0.5391
11173SOL    HW134960   2.271   6.489   1.197 -0.8946 -0.6517 -1.6960
11173SOL    HW234961   2.178   6.603   1.162 -0.5784  0.8372  1.8251
11174SOL     OW34962   7.296   6.622   6.317  0.0261 -0.1921  0.3749
11174SOL    HW134963   7.247   6.670   6.250  0.9341 -0.5265 -0.5465
11174SOL    HW234964   7.240   6.627   6.395 -1.0262  0.2525 -0.3800
11175SOL     OW34965   0.796   5.216   2.769  0.5468  0.7458 -0.5276
11175SOL    HW134966   0.713   5.169   2.777  0.1722  1.6320  1.2630
11175SOL    HW234967   0.857   5.150   2.736 -0.5845 -0.2276 -0.7774
11176SOL     OW34968   0.135   3.564   2.847  0.0023 -0.6705  0.1830
11176SOL    HW134969   0.070   3.617   2.801 -1.3095 -0.5956  2.0083
11176SOL    HW234970   0.211   3.622   2.855  0.2097 -0.6214 -1.6256
11177SOL     OW34971   2.959   1.066   9.127 -0.8396 -0.3884 -0.5289
11177SOL    HW134972   2.897   1.019   9.071 -0.1614  0.0703 -1.7085
11177SOL    HW234973   2.904   1.116   9.187 -1.5833 -1.0577 -0.6400
11178SOL     OW34974   3.360   2.366   4.970  0.3150  0.3786 -0.3658
11178SOL    HW134975   3.395   2.278   4.977  2.1407  1.0947  0.0131
11178SOL    HW234976   3.349   2.395   5.061  0.3580  0.7814 -0.4858
11179SOL     OW34977   7.889   2.745   2.953 -0.4295 -0.1892 -0.3557
11179SOL    HW134978   7.935   2.706   2.878  0.9597  0.3377  0.2106
11179SOL    HW234979   7.860   2.669   3.004 -0.1398 -0.5277 -0.6828
11180SOL     OW34980   2.605   0.462   7.007  0.6069 -0.2862  0.0908
11180SOL    HW134981   2.660   0.385   7.012  0.1510 -0.5590  1.6744
11180SOL    HW234982   2.638   0.511   6.932  0.9942 -1.9330 -0.8574
11181SOL     OW34983   7.579   3.155   2.515  0.2896 -0.4389 -0.6324
11181SOL    HW134984   7.601   3.245   2.493 -0.1886  0.7010  2.8870
11181SOL    HW234985   7.647   3.127   2.576  0.8232 -2.8007 -2.1553
11182SOL     OW34986   3.854   6.333   3.799  0.6801  0.3611 -0.0398
11182SOL    HW134987   3.779   6.281   3.769  0.2951 -0.8002  2.6611
11182SOL    HW234988   3.815   6.404   3.850  1.3930  0.6448  0.1220
11183SOL     OW34989   2.383   4.013  12.342  0.1524  0.5322  0.2976
11183SOL    HW134990   2.457   4.060  12.381  0.2231  0.6257  0.0529
11183SOL    HW234991   2.388   4.034  12.249  0.4547 -0.3259  0.1142
11184SOL     OW34992   4.315   1.073   3.310 -0.5780 -0.1477  0.3453
11184SOL    HW134993   4.284   0.988   3.341  1.7265 -0.6247  1.5063
11184SOL    HW234994   4.379   1.052   3.242  1.0948  0.5579  1.6527
11185SOL     OW34995   6.835   7.176  11.365 -0.0510 -0.0195  0.7140
11185SOL    HW134996   6.811   7.198  11.455 -1.2563 -1.3578  0.7623
11185SOL    HW234997   6.920   7.218  11.352 -1.5962  3.6205  1.0884
11186SOL     OW34998   2.659   6.929   4.385  0.0828  0.0603  0.3203
11186SOL    HW134999   2.659   6.921   4.290 -1.2844  1.1020  0.2040
11186SOL    HW235000   2.715   7.006   4.402 -1.6635  1.4413  0.1395
11187SOL     OW35001   0.731   7.866   8.370  0.7673 -0.5827  0.4049
11187SOL    HW135002   0.718   7.831   8.459  1.2324 -0.5094  0.5009
11187SOL    HW235003   0.803   7.928   8.379  0.4376 -0.1451  0.0840
11188SOL     OW35004   1.429   2.192   1.217 -0.3372 -0.0999 -0.1429
11188SOL    HW135005   1.516   2.233   1.217 -0.1394 -0.5088  0.7526
11188SOL    HW235006   1.419   2.156   1.305 -1.7693  0.6717  0.0427
11189SOL     OW35007   7.689   4.904   5.468 -0.0777 -0.1723 -0.7280
11189SOL    HW135008   7.600   4.873   5.449 -0.2803  0.6052 -1.0969
11189SOL    HW235009   7.678   4.961   5.545  0.1735 -0.4283 -0.5016
11190SOL     OW35010   1.479   5.684   1.916  0.3989  0.2741  0.3814
11190SOL    HW135011   1.560   5.701   1.964  0.2244  0.6306  0.5549
11190SOL    HW235012   1.503   5.696   1.824  0.6269  0.0230  0.4049
11191SOL     OW35013   1.790   4.741   5.577  0.3302 -0.2867  0.6057
11191SOL    HW135014   1.883   4.725   5.560  0.3800 -0.0643  0.6643
11191SOL    HW235015   1.784   4.748   5.672  0.3088  0.0201  0.5835
11192SOL     OW35016   3.982   3.782   4.401 -0.0791 -0.3179 -0.2290
11192SOL    HW135017   3.928   3.860   4.415 -0.9093 -0.6828 -1.3005
11192SOL    HW235018   3.928   3.709   4.432  0.6702 -0.5049  0.7097
11193SOL     OW35019   6.515   6.929  11.948 -0.5860  0.3787  0.0780
11193SOL    HW135020   6.450   6.948  11.880 -0.6482  1.4439  0.4258
11193SOL    HW235021   6.529   7.012  11.993  2.1895  0.5761 -0.9561
11194SOL     OW35022   1.687   3.510   7.040 -0.0591  0.0530  0.0077
11194SOL    HW135023   1.678   3.605   7.037  2.1874  0.3199 -3.3016
11194SOL    HW235024   1.742   3.493   7.117 -2.1719  1.1332  1.8468
11195SOL     OW35025   6.653   1.883   4.044  0.9155  0.2432  0.0898
11195SOL    HW135026   6.623   1.792   4.042  0.1922  0.4882 -0.2154
11195SOL    HW235027   6.729   1.881   4.103  0.6403 -0.4766  0.4335
11196SOL     OW35028   5.947   7.566  10.615  0.0714  0.3113 -0.3497
11196SOL    HW135029   5.982   7.631  10.675  1.5081 -0.2449 -0.5503
11196SOL    HW235030   5.852   7.573  10.625  0.2521  0.4801  1.7075
11197SOL     OW35031   0.270   1.243   5.894  0.6494 -0.1851  0.3822
11197SOL    HW135032   0.344   1.294   5.862  0.7012  0.4430  1.4411
11197SOL    HW235033   0.232   1.298   5.963 -1.0645 -0.3130 -0.4318
11198SOL     OW35034   0.977   6.914   1.652 -0.4565 -0.3831  0.7818
11198SOL    HW135035   0.991   6.857   1.577 -0.0834  0.1684  0.4194
11198SOL    HW235036   0.896   6.961   1.631  0.0060  0.2643  0.3926
11199SOL     OW35037   2.757   1.852   2.345  0.5560 -0.5442  0.0991
11199SOL    HW135038   2.762   1.786   2.276 -1.5531 -0.9317  0.2529
11199SOL    HW235039   2.775   1.805   2.426 -0.6292 -0.8928  0.1742
11200SOL     OW35040   5.076   4.567   5.107 -0.2591  0.0627 -0.5524
11200SOL    HW135041   5.132   4.563   5.185  0.2468  1.2198 -0.8365
11200SOL    HW235042   5.023   4.645   5.120 -1.5375 -0.8001 -0.4867
11201SOL     OW35043   1.417   2.711   7.786 -0.4656 -0.3920 -0.5102
11201SOL    HW135044   1.417   2.756   7.702  1.3783 -1.0484 -0.9166
11201SOL    HW235045   1.494   2.746   7.831 -0.2487 -1.5372  0.0449
11202SOL     OW35046   5.293   1.610   0.468 -0.1127  0.3450 -0.7245
11202SOL    HW135047   5.301   1.693   0.515  1.0345  0.0288 -0.3248
11202SOL    HW235048   5.357   1.617   0.397  1.3464 -0.8825  0.3971
11203SOL     OW35049   3.427   3.678  10.338 -0.0232  0.3568 -0.7362
11203SOL    HW135050   3.460   3.656  10.425  0.0057  1.8420 -0.3486
11203SOL    HW235051   3.492   3.642  10.278  1.4207  1.6908 -0.0366
11204SOL     OW35052   6.467   1.433   2.368 -0.2619  0.3491  0.1302
11204SOL    HW135053   6.426   1.493   2.306 -1.9975 -0.7094  0.2161
11204SOL    HW235054   6.514   1.491   2.429 -1.9625  1.6596  0.2751
11205SOL     OW35055   5.944   3.525   8.436 -0.7297 -0.6603  0.6271
11205SOL    HW135056   5.933   3.542   8.342 -0.6894 -0.4544  0.6596
11205SOL    HW235057   6.039   3.516   8.448 -0.7150 -0.4349  0.6902
11206SOL     OW35058   2.198   0.766   3.885 -0.3115 -0.0611  0.6538
11206SOL    HW135059   2.113   0.777   3.842 -0.2099  0.8406  0.6579
11206SOL    HW235060   2.178   0.774   3.979 -0.5353 -2.0337  0.8088
11207SOL     OW35061   4.824   5.847   7.010 -0.8722  0.1596 -0.1935
11207SOL    HW135062   4.800   5.831   6.919 -1.0545  0.5104 -0.2107
11207SOL    HW235063   4.919   5.837   7.013 -0.8958 -0.1115 -0.3666
11208SOL     OW35064   6.762   1.286   0.432 -0.5700  0.0986  0.1996
11208SOL    HW135065   6.795   1.359   0.484  0.2966 -0.7699  0.9112
11208SOL    HW235066   6.833   1.221   0.434 -1.7651 -1.2454  0.5918
11209SOL     OW35067   5.220   5.704   9.795 -0.2025 -0.1442  0.2966
11209SOL    HW135068   5.258   5.791   9.780 -5.2922  2.1237 -1.7691
11209SOL    HW235069   5.211   5.666   9.708 -1.7290 -0.9473  0.7743
11210SOL     OW35070   7.683   2.393   9.894 -0.2190 -0.1377  0.0988
11210SOL    HW135071   7.610   2.410   9.835 -0.0723  1.2846  0.2782
11210SOL    HW235072   7.749   2.459   9.870  0.4859 -0.5783  0.7744
11211SOL     OW35073   5.147   6.250   9.925  0.2378  0.2763 -0.1951
11211SOL    HW135074   5.131   6.345   9.926 -0.3325  0.1983  1.3498
11211SOL    HW235075   5.119   6.222   9.838 -1.5794  1.2479  0.0166
11212SOL     OW35076   2.884   1.042   9.604 -0.0220 -0.2320  0.3451
11212SOL    HW135077   2.945   1.071   9.536 -0.1707  0.8071  0.6276
11212SOL    HW235078   2.853   1.124   9.644 -2.1131 -0.6694 -0.2422
11213SOL     OW35079   2.129   4.703   4.602 -0.0004 -0.3426  0.2166
11213SOL    HW135080   2.132   4.736   4.512 -1.3539 -0.9348 -0.0729
11213SOL    HW235081   2.171   4.772   4.654  1.0148 -0.0966 -0.8766
11214SOL     OW35082   1.005   5.152  12.362  0.1008  0.6113 -0.4010
11214SOL    HW135083   0.952   5.129  12.438  0.4834 -0.2457 -0.3794
11214SOL    HW235084   1.054   5.072  12.342  1.0741  1.2591 -0.6670
11215SOL     OW35085   2.303   6.982   4.463 -0.3317 -0.1051 -0.1160
11215SOL    HW135086   2.346   7.047   4.519 -0.8185  0.5109 -0.4480
11215SOL    HW235087   2.352   6.901   4.479  0.5316  0.4240  0.0127
11216SOL     OW35088   0.708   4.588  10.895  0.2035 -0.3892  0.1048
11216SOL    HW135089   0.769   4.633  10.954 -1.0015  1.0089  0.3505
11216SOL    HW235090   0.622   4.609  10.930 -0.6568  1.6850 -2.8968
11217SOL     OW35091   6.081   6.524   8.071 -0.6443  0.1672 -0.7174
11217SOL    HW135092   6.137   6.513   8.148 -0.2072 -2.7188 -1.3550
11217SOL    HW235093   5.999   6.558   8.107  0.0805  0.4239  0.7968
11218SOL     OW35094   1.709   2.756   8.767 -0.4133 -0.4784  0.2778
11218SOL    HW135095   1.707   2.837   8.817 -1.3663 -1.0583  1.2209
11218SOL    HW235096   1.660   2.776   8.687 -1.0343 -0.2468  0.7092
11219SOL     OW35097   0.487   2.454  10.365  0.0597 -0.0657  0.0496
11219SOL    HW135098   0.437   2.430  10.443  1.1771  0.8252  1.0851
11219SOL    HW235099   0.514   2.371  10.328 -2.0044 -0.5576 -0.4386
11220SOL     OW35100   7.028   5.931  10.024  0.4714  0.3722 -0.0903
11220SOL    HW135101   7.037   5.869  10.096  0.1818 -0.6346 -0.9069
11220SOL    HW235102   7.102   5.991  10.034  1.4801 -0.8636 -0.0370
11221SOL     OW35103   6.558   5.857   8.942  0.1901 -0.0138  0.8888
11221SOL    HW135104   6.616   5.868   8.867  0.9766  1.4323  1.6741
11221SOL    HW235105   6.571   5.766   8.969  1.2059 -0.0431  0.3424
11222SOL     OW35106   7.877   0.321   3.748 -0.5433 -0.0134  0.0053
11222SOL    HW135107   7.894   0.403   3.703 -0.1001 -1.2886 -2.2822
11222SOL    HW235108   7.962   0.276   3.749 -1.1627 -1.2434 -0.5273
11223SOL     OW35109   1.124   3.065   6.100  0.2024 -0.3058  0.5711
11223SOL    HW135110   1.031   3.057   6.119  0.2694  0.1968  1.1576
11223SOL    HW235111   1.166   3.071   6.186  0.9008 -1.6938  0.3508
11224SOL     OW35112   0.803   6.962   2.645  0.0741 -0.0634 -0.4284
11224SOL    HW135113   0.817   7.007   2.728 -1.0660 -0.9934  0.3065
11224SOL    HW235114   0.871   6.894   2.643  0.3039  0.1660 -0.4087
11225SOL     OW35115   4.235   6.591   6.477  0.5332  0.1838  0.3190
11225SOL    HW135116   4.300   6.558   6.540 -0.0986  0.2917  1.0461
11225SOL    HW235117   4.246   6.686   6.481 -0.7652  0.3199  1.7011
11226SOL     OW35118   7.244   3.113  11.401 -0.0207 -0.7519 -0.3890
11226SOL    HW135119   7.256   3.031  11.449  0.0403 -0.5732 -0.0985
11226SOL    HW235120   7.248   3.087  11.309  0.9412 -0.9391 -0.3063
11227SOL     OW35121   6.420   0.428   4.483  0.3503  0.0944 -0.4631
11227SOL    HW135122   6.450   0.454   4.396 -1.2545  0.9402 -0.7878
11227SOL    HW235123   6.335   0.387   4.468  0.1682  0.0307  0.6805
11228SOL     OW35124   4.835   7.613   0.908 -0.1497 -0.2272  0.6227
11228SOL    HW135125   4.828   7.559   0.829  2.6663  0.3617 -0.1393
11228SOL    HW235126   4.922   7.592   0.943 -0.4653  1.1556  2.3670
11229SOL     OW35127   1.663   7.269   4.141  0.4150 -0.0183  0.2997
11229SOL    HW135128   1.756   7.248   4.138  0.8361  1.6549  0.6740
11229SOL    HW235129   1.645   7.314   4.059 -0.1538 -0.6001  0.0897
11230SOL     OW35130   6.823   5.708  10.279 -0.4322  0.3144 -0.8658
11230SOL    HW135131   6.760   5.693  10.350  1.1373  1.7880  0.9727
11230SOL    HW235132   6.791   5.786  10.235 -0.7704  0.0934 -1.0157
11231SOL     OW35133   4.121   7.190   1.828 -0.4842 -0.3614 -0.5094
11231SOL    HW135134   4.052   7.256   1.823  1.1279  1.3272 -1.6136
11231SOL    HW235135   4.099   7.128   1.758 -0.0936  1.0253 -1.9294
11232SOL     OW35136   0.478   6.952   4.431  0.0780 -0.0070 -0.7698
11232SOL    HW135137   0.436   6.955   4.517 -0.6487 -1.5303 -1.0326
11232SOL    HW235138   0.409   6.977   4.370  0.5567  0.9421 -0.9465
11233SOL     OW35139   3.942   7.769   3.962 -0.4908  0.0142  0.2653
11233SOL    HW135140   3.981   7.717   3.892  0.2039 -0.5119  1.0251
11233SOL    HW235141   3.905   7.705   4.022 -1.3016  0.4722  0.2741
11234SOL     OW35142   7.870   5.193   6.765 -0.1569 -0.0521 -0.0562
11234SOL    HW135143   7.836   5.105   6.780 -1.0584  0.1372 -0.8979
11234SOL    HW235144   7.921   5.185   6.684  2.3360 -0.4455  1.4185
11235SOL     OW35145   4.016   2.437   4.139  0.3229 -0.1675  0.0161
11235SOL    HW135146   4.093   2.420   4.193  1.8550  1.0245 -1.6973
11235SOL    HW235147   3.965   2.501   4.189  0.7976 -0.4241  0.8420
11236SOL     OW35148   4.032   3.373   5.355 -0.7298  1.1892 -0.7965
11236SOL    HW135149   4.004   3.296   5.405  0.4255  0.1038 -1.7541
11236SOL    HW235150   4.060   3.436   5.421  2.2817 -0.7961 -0.0100
11237SOL     OW35151   5.874   0.417   8.931 -0.6349 -0.0622 -0.0487
11237SOL    HW135152   5.960   0.395   8.966 -1.7849 -1.4899  2.0714
11237SOL    HW235153   5.835   0.332   8.908 -1.5689  0.5386 -0.7451
11238SOL     OW35154   7.362   0.098   4.408  0.0640  0.2540 -0.1815
11238SOL    HW135155   7.281   0.091   4.459 -0.2673  1.4628 -0.4952
11238SOL    HW235156   7.334   0.141   4.326  0.6930 -1.0383 -1.1003
11239SOL     OW35157   1.442   3.864   5.499 -0.4077 -0.3229 -0.5832
11239SOL    HW135158   1.415   3.954   5.481  1.7768  0.6449  0.5586
11239SOL    HW235159   1.513   3.847   5.437  1.4366  0.0168  1.3063
11240SOL     OW35160   6.124   1.343  12.327  0.0846  0.1727 -0.0350
11240SOL    HW135161   6.091   1.365  12.414 -1.1154  0.1487 -0.4764
11240SOL    HW235162   6.046   1.331  12.273  0.8108  0.1239 -1.1098
11241SOL     OW35163   6.244   4.557   5.325  0.4808  0.4040  0.1323
11241SOL    HW135164   6.150   4.551   5.341  0.8448 -0.8123  2.2959
11241SOL    HW235165   6.268   4.472   5.290  0.7635  0.7563 -0.5390
11242SOL     OW35166   2.349   4.318   1.233 -0.5137  0.1481  0.2401
11242SOL    HW135167   2.295   4.390   1.200 -1.5392 -0.6562  0.1285
11242SOL    HW235168   2.286   4.250   1.259  0.4363 -0.7531  0.2496
11243SOL     OW35169   1.041   3.100   2.596 -0.1462 -0.0668  0.1837
11243SOL    HW135170   1.023   3.194   2.594  0.3006  0.1985  3.3230
11243SOL    HW235171   1.133   3.093   2.621 -0.4526 -1.2920  1.1024
11244SOL     OW35172   5.629   5.930  11.137  0.1067 -0.3338  0.5258
11244SOL    HW135173   5.630   5.857  11.076 -0.3127  2.7268 -3.6161
11244SOL    HW235174   5.717   5.929  11.176  0.0906 -2.9595  0.6622
11245SOL     OW35175   4.456   1.610   6.493  0.4103 -0.4644  0.1635
11245SOL    HW135176   4.393   1.604   6.421  0.3361 -0.4870  0.2300
11245SOL    HW235177   4.541   1.596   6.451  0.4342  0.2841 -0.0402
11246SOL     OW35178   0.078   3.803  10.337 -0.2732 -0.4869 -0.1200
11246SOL    HW135179   0.164   3.843  10.331 -1.2137  1.4486 -1.5139
11246SOL    HW235180   0.058   3.804  10.431  0.4185  0.8321  0.0339
11247SOL     OW35181   6.132   1.772  11.081 -0.2301  0.4654  0.4821
11247SOL    HW135182   6.205   1.712  11.065 -2.0698 -1.2426 -2.2340
11247SOL    HW235183   6.142   1.840  11.015 -1.2684  0.0256 -0.1407
11248SOL     OW35184   3.721   3.856  11.747  0.4195  0.0776  0.5378
11248SOL    HW135185   3.688   3.773  11.713 -0.4022  0.1075  1.2408
11248SOL    HW235186   3.699   3.855  11.840 -0.0382  1.2831  0.4635
11249SOL     OW35187   6.180   2.365   2.327 -0.8406  0.6129 -0.1877
11249SOL    HW135188   6.247   2.324   2.273 -1.7264  0.0520 -0.8829
11249SOL    HW235189   6.146   2.436   2.273 -2.0232 -0.2154 -0.5659
11250SOL     OW35190   4.774   7.215   9.890  0.1637  0.6410  0.1447
11250SOL    HW135191   4.801   7.288   9.836 -0.5483 -0.2161 -1.4319
11250SOL    HW235192   4.687   7.238   9.921  0.9511  1.5784  1.8526
11251SOL     OW35193   3.575   5.196   7.514  0.1205  0.4628  0.0013
11251SOL    HW135194   3.656   5.144   7.520  0.5527  0.9518 -1.3050
11251SOL    HW235195   3.598   5.280   7.555 -0.8436 -0.5885  2.9388
11252SOL     OW35196   0.066   6.470   1.525  0.4173 -0.2185  0.1183
11252SOL    HW135197   0.073   6.398   1.463  0.8949 -1.6526  1.7680
11252SOL    HW235198   0.155   6.483   1.557  0.0938  0.1501  0.8949
11253SOL     OW35199   1.921   7.311   3.213 -0.0719 -0.7135 -0.4903
11253SOL    HW135200   1.910   7.264   3.295  1.0025 -1.3986 -0.7163
11253SOL    HW235201   1.870   7.261   3.149 -3.6396  1.5721  0.2708
11254SOL     OW35202   3.492   4.666  10.193 -0.2506 -0.5896 -0.0373
11254SOL    HW135203   3.438   4.703  10.264 -2.8126 -0.0492 -2.1164
11254SOL    HW235204   3.495   4.572  10.211 -3.3092 -0.8978 -0.6109
11255SOL     OW35205   7.202   7.668   0.874  0.9223  0.1015 -0.0532
11255SOL    HW135206   7.167   7.580   0.863  1.5511 -0.1181 -0.3411
11255SOL    HW235207   7.128   7.719   0.907  0.1512 -0.2070 -1.2353
11256SOL     OW35208   4.497   1.579  11.207 -0.3269  0.1166 -0.1905
11256SOL    HW135209   4.429   1.626  11.256 -1.2969 -0.0212 -1.3731
11256SOL    HW235210   4.538   1.522  11.273 -2.7969 -1.4163  0.1601
11257SOL     OW35211   4.900   7.816   7.276  0.5031 -0.4952  0.0235
11257SOL    HW135212   4.852   7.888   7.317  0.7200  0.1506 -0.8034
11257SOL    HW235213   4.928   7.761   7.349  2.9901  1.8848  1.0620
11258SOL     OW35214   0.680   7.864   7.793 -0.5281 -0.0384  0.3997
11258SOL    HW135215   0.721   7.809   7.727 -0.0084  0.4172  0.3303
11258SOL    HW235216   0.597   7.891   7.754  0.8477  2.3128 -1.2127
11259SOL     OW35217   4.381   2.264   2.017 -0.1663 -0.3643  0.2487
11259SOL    HW135218   4.318   2.334   2.033  2.4451  1.7758  2.3019
11259SOL    HW235219   4.341   2.186   2.055 -1.6993  0.8535  1.2453
11260SOL     OW35220   6.298   1.604   9.040 -0.3034 -0.3839 -0.6516
11260SOL    HW135221   6.245   1.683   9.051  0.2471 -0.0105 -0.6018
11260SOL    HW235222   6.248   1.535   9.082 -0.4861  0.0705 -0.1159
11261SOL     OW35223   7.052   5.583   8.343 -0.0847  0.2274  0.6977
11261SOL    HW135224   7.135   5.604   8.300  0.3167 -2.3661  0.0337
11261SOL    HW235225   7.025   5.499   8.304 -2.7660  0.7281  1.2661
11262SOL     OW35226   5.441   2.329   0.356 -0.1609  0.3768 -0.0600
11262SOL    HW135227   5.509   2.360   0.416  0.7043  2.0849 -1.8339
11262SOL    HW235228   5.406   2.251   0.399  0.9216  1.0885  2.2878
11263SOL     OW35229   1.706   4.826  10.640  0.0775 -0.0449  0.4396
11263SOL    HW135230   1.759   4.873  10.576 -2.4058  1.8062 -0.3939
11263SOL    HW235231   1.743   4.851  10.725  1.5901 -0.2517 -0.1144
11264SOL     OW35232   7.426   0.446   2.491  0.5762  0.1931 -0.1365
11264SOL    HW135233   7.422   0.353   2.471  3.0293 -0.0405  0.1181
11264SOL    HW235234   7.335   0.472   2.507  0.0055 -2.5425  1.6373
11265SOL     OW35235   2.168   7.667  10.889  0.0071 -0.6849  0.2206
11265SOL    HW135236   2.158   7.762  10.894  0.8286 -0.5625 -0.2978
11265SOL    HW235237   2.258   7.651  10.916 -0.3035 -1.3844  0.9069
11266SOL     OW35238   7.836   3.930   4.774  0.2827 -0.4964 -0.1602
11266SOL    HW135239   7.750   3.905   4.739  0.6073 -0.3867 -1.0530
11266SOL    HW235240   7.899   3.887   4.716  0.8377 -0.4663  0.4111
11267SOL     OW35241   6.123   1.251   6.867 -0.2363 -0.6649 -0.1176
11267SOL    HW135242   6.035   1.263   6.904 -0.8376 -0.7984 -1.4442
11267SOL    HW235243   6.114   1.178   6.806  0.5146  0.0476 -1.1163
11268SOL     OW35244   4.077   7.791  10.418  0.2052 -0.2742  0.0895
11268SOL    HW135245   3.983   7.776  10.421  0.4289 -1.7616  0.1252
11268SOL    HW235246   4.090   7.848  10.342 -0.4149 -2.6579 -1.9117
11269SOL     OW35247   3.211   3.860   3.999 -0.1750 -0.0679  0.3175
11269SOL    HW135248   3.268   3.905   4.061 -1.4260 -0.0792  1.5247
11269SOL    HW235249   3.242   3.769   4.000  1.9809  0.5741 -1.6913
11270SOL     OW35250   6.750   2.641   6.471 -0.0833  0.3122 -0.2566
11270SOL    HW135251   6.671   2.600   6.436 -2.9526  3.1818  2.2191
11270SOL    HW235252   6.786   2.576   6.532 -0.0154 -1.3207 -1.9714
11271SOL     OW35253   1.833   1.529   5.633  0.5480  0.0282  0.3647
11271SOL    HW135254   1.834   1.488   5.546  0.8425 -1.2100  0.9295
11271SOL    HW235255   1.772   1.475   5.684 -0.1062  1.1148  0.7630
11272SOL     OW35256   6.993   1.634   2.879  0.2698  0.0227 -0.2800
11272SOL    HW135257   6.984   1.547   2.841 -0.2786  0.6385 -1.6373
11272SOL    HW235258   6.945   1.629   2.962  0.9158 -1.1637  0.0469
11273SOL     OW35259   6.517   4.095   8.436  0.0238 -0.0407  0.1273
11273SOL    HW135260   6.543   4.081   8.527  0.2100 -1.6865 -0.1481
11273SOL    HW235261   6.424   4.118   8.441  0.3332  1.1313  0.7994
11274SOL     OW35262   5.889   6.474   6.546  0.0712  0.0977  0.5686
11274SOL    HW135263   5.877   6.476   6.641  0.6664  0.5536  0.6398
11274SOL    HW235264   5.970   6.524   6.531 -1.6319  2.8057 -0.4305
11275SOL     OW35265   7.775   0.745   4.609  0.4102 -0.5294  0.1404
11275SOL    HW135266   7.750   0.747   4.702  0.7806  0.2029  0.2361
11275SOL    HW235267   7.692   0.751   4.562  0.2612 -0.2048  0.4377
11276SOL     OW35268   4.023   0.221   1.024 -0.2204  0.2550 -0.3548
11276SOL    HW135269   3.968   0.236   1.101  1.3763  0.8899  0.7166
11276SOL    HW235270   4.098   0.280   1.036  0.6844 -0.5342 -1.7883
11277SOL     OW35271   0.721   4.792   3.460  0.4961  0.4929 -0.3979
11277SOL    HW135272   0.672   4.729   3.407  1.3448  0.0597 -0.6828
11277SOL    HW235273   0.751   4.858   3.398  0.1126  0.8707 -0.1908
11278SOL     OW35274   1.114   4.349   9.346 -0.0550  0.0015 -0.5969
11278SOL    HW135275   1.146   4.392   9.267  1.6341 -0.9989 -0.4979
11278SOL    HW235276   1.169   4.271   9.356 -0.4239 -0.0744  1.3849
11279SOL     OW35277   2.868   1.503   2.428  0.4764  0.2178  0.1786
11279SOL    HW135278   2.941   1.491   2.367 -0.2138 -0.4877 -0.5336
11279SOL    HW235279   2.900   1.567   2.492  2.2666 -1.2082  0.7877
11280SOL     OW35280   4.795   0.875  10.522 -0.0102 -0.1336  0.2900
11280SOL    HW135281   4.833   0.948  10.473 -1.8234  0.5479 -0.1821
11280SOL    HW235282   4.807   0.799  10.466  1.0288 -0.0300  0.3573
11281SOL     OW35283   4.480   7.122   3.262  0.0816 -0.4281  0.1252
11281SOL    HW135284   4.562   7.109   3.309  0.1220  1.1483  0.5534
11281SOL    HW235285   4.494   7.202   3.210 -1.7471  1.0156  1.6669
11282SOL     OW35286   4.349   5.783  10.398 -0.5105  0.3145 -0.4499
11282SOL    HW135287   4.293   5.716  10.358 -0.7715  0.7032 -0.7340
11282SOL    HW235288   4.319   5.788  10.489 -1.8839  1.5052 -0.9354
11283SOL     OW35289   2.069   1.149   0.060  0.2785 -0.1763 -0.2027
11283SOL    HW135290   2.087   1.170  -0.032  1.4632 -3.1231 -0.7468
11283SOL    HW235291   2.039   1.232   0.098 -0.5436  1.0887 -3.2839
11284SOL     OW35292   6.404   3.917   3.295 -0.5547  0.2323 -0.5265
11284SOL    HW135293   6.441   3.983   3.237  0.6036 -0.5177 -0.6918
11284SOL    HW235294   6.480   3.866   3.324 -1.0723  0.6173  1.7103
11285SOL     OW35295   0.423   7.455  10.241 -0.4503 -0.7538 -0.2767
11285SOL    HW135296   0.386   7.391  10.301  2.3367 -0.3756  2.0693
11285SOL    HW235297   0.518   7.441  10.245  0.2155  2.6232 -0.6350
11286SOL     OW35298   2.668   2.644   1.328  0.7343  0.0795  0.5799
11286SOL    HW135299   2.633   2.657   1.240  1.0192 -0.1440  0.4331
11286SOL    HW235300   2.747   2.697   1.330  0.7941 -0.0127  0.6613
11287SOL     OW35301   2.125   0.457   7.355  0.4964 -0.5250  0.0270
11287SOL    HW135302   2.216   0.449   7.326  0.3261 -2.9578 -0.0463
11287SOL    HW235303   2.128   0.516   7.430  2.4258 -1.9134  1.1294
11288SOL     OW35304   6.464   0.349  12.432  0.3242 -0.2513 -0.1583
11288SOL    HW135305   6.452   0.387  12.345  1.4415  0.0912 -0.1774
11288SOL    HW235306   6.378   0.316  12.456 -0.3951  1.1992 -0.6638
11289SOL     OW35307   4.783   4.542  10.076  0.5721  0.4809 -0.8240
11289SOL    HW135308   4.781   4.638  10.071 -0.5158  0.7137  1.9100
11289SOL    HW235309   4.708   4.513  10.025 -1.0382  1.3687  0.9275
11290SOL     OW35310   0.708   2.814   2.927 -0.1759 -0.4784  0.4021
11290SOL    HW135311   0.682   2.841   2.839 -2.3772  0.0521  1.1321
11290SOL    HW235312   0.800   2.792   2.919 -0.0691  0.4487 -1.8178
11291SOL     OW35313   7.327   1.228   1.765 -0.1156 -0.0718 -0.4130
11291SOL    HW135314   7.388   1.221   1.692  0.3435 -0.0964 -0.0260
11291SOL    HW235315   7.377   1.269   1.835 -1.0825  1.8094 -0.7252
11292SOL     OW35316   4.174   0.263   4.472  0.6522 -0.6453 -0.1557
11292SOL    HW135317   4.233   0.286   4.544  0.4595  0.3461 -0.2977
11292SOL    HW235318   4.087   0.269   4.511  0.5917 -0.9709 -0.2449
11293SOL     OW35319   7.886   0.703  12.244 -0.3106  1.0268  0.0362
11293SOL    HW135320   7.800   0.663  12.234  0.4574 -0.4746 -0.9343
11293SOL    HW235321   7.914   0.679  12.332  0.4508 -1.3411 -0.7771
11294SOL     OW35322   4.769   2.623   4.160  0.2760  0.1591 -0.7060
11294SOL    HW135323   4.773   2.585   4.247  0.3392 -0.6676 -1.0564
11294SOL    HW235324   4.755   2.548   4.102  2.1163  0.4369 -1.5911
11295SOL     OW35325   6.163   2.534  11.294 -0.3921 -0.2112  0.3532
11295SOL    HW135326   6.127   2.447  11.309  0.9156 -0.7532  0.5160
11295SOL    HW235327   6.119   2.565  11.215  0.0628 -1.5862 -0.4809
11296SOL     OW35328   3.306   3.384   7.364  0.0167 -0.0770 -0.4464
11296SOL    HW135329   3.336   3.344   7.282 -1.1285 -0.8385 -0.5252
11296SOL    HW235330   3.386   3.414   7.407  0.5289  2.2318 -2.7523
11297SOL     OW35331   0.720   3.556   2.784 -0.1799  0.2155  0.2449
11297SOL    HW135332   0.629   3.534   2.761 -0.8978 -0.1200  3.0396
11297SOL    HW235333   0.769   3.476   2.767 -0.8893 -0.3875  0.9830
11298SOL     OW35334   1.882   4.605   3.269  0.4651 -0.5833  0.1806
11298SOL    HW135335   1.791   4.623   3.291 -0.0190 -0.2283 -1.9328
11298SOL    HW235336   1.892   4.510   3.283 -0.4433 -0.7565 -0.3159
11299SOL     OW35337   1.916   2.774  11.833 -0.1159 -0.0390 -0.2887
11299SOL    HW135338   1.831   2.760  11.792  0.2919 -0.6064 -0.9651
11299SOL    HW235339   1.943   2.687  11.862 -0.1519  0.2767  0.7018
11300SOL     OW35340   0.530   3.625   1.738 -0.2603 -0.6046 -0.2925
11300SOL    HW135341   0.453   3.656   1.690  0.4788  3.6505  0.8955
11300SOL    HW235342   0.605   3.653   1.685  0.4934 -0.1883  0.9470
11301SOL     OW35343   0.764   6.910   3.504  0.0379  0.2714 -0.0463
11301SOL    HW135344   0.831   6.901   3.436  0.8100  0.2897  0.7024
11301SOL    HW235345   0.752   7.005   3.514 -1.2912  0.2853 -1.3014
11302SOL     OW35346   4.497   5.012   4.101  0.2260  0.8847 -0.0755
11302SOL    HW135347   4.512   5.103   4.078  2.8361  0.9035  1.3139
11302SOL    HW235348   4.451   5.016   4.185  3.3667  1.1300  1.8085
11303SOL     OW35349   7.879   4.299   6.129  0.5269  0.6306 -0.3228
11303SOL    HW135350   7.836   4.372   6.084  0.3502 -0.0974 -1.3579
11303SOL    HW235351   7.951   4.341   6.177  0.6026  1.4600 -1.1216
11304SOL     OW35352   6.917   6.356   0.339 -0.0022 -0.7536 -0.4688
11304SOL    HW135353   6.868   6.305   0.275  0.3206 -0.4615 -0.9578
11304SOL    HW235354   6.982   6.404   0.287  0.1416 -0.3659  0.0543
11305SOL     OW35355   4.729   7.594   4.726 -0.1056 -0.1728 -0.0236
11305SOL    HW135356   4.638   7.600   4.698  0.1243  2.1853 -0.4997
11305SOL    HW235357   4.773   7.548   4.655 -0.9002 -1.2983  0.1952
11306SOL     OW35358   3.831   3.019   9.379  0.2543  0.8496  0.1073
11306SOL    HW135359   3.902   3.034   9.318  2.1886 -1.7630  1.4946
11306SOL    HW235360   3.835   3.092   9.440  1.9075  0.6871  0.2409
11307SOL     OW35361   0.053   3.386   4.621 -0.1150 -0.6760 -0.4206
11307SOL    HW135362   0.097   3.468   4.596 -1.3954  0.2021  0.0870
11307SOL    HW235363  -0.029   3.415   4.663  0.6639 -2.1339  2.3218
11308SOL     OW35364   4.087   4.774   1.784 -0.3998  0.4120 -0.3422
11308SOL    HW135365   4.069   4.824   1.704 -0.0924  0.1418 -0.5837
11308SOL    HW235366   4.001   4.746   1.814 -0.8825  3.1588  1.1895
11309SOL     OW35367   5.245   0.784  12.461  0.3649 -0.0514 -0.6519
11309SOL    HW135368   5.242   0.805  12.368 -1.1343 -0.3352 -0.6976
11309SOL    HW235369   5.154   0.765  12.484  1.0430 -2.6872  0.2374
11310SOL     OW35370   2.701   2.390   7.905  0.2235  0.1255  0.7689
11310SOL    HW135371   2.783   2.430   7.877  0.9240 -1.1310  0.9888
11310SOL    HW235372   2.669   2.449   7.974  1.2473  0.3010  1.1161
11311SOL     OW35373   7.761   7.380   0.689 -0.1723  0.0936 -0.2334
11311SOL    HW135374   7.741   7.458   0.637 -1.8089  0.7919  1.3292
11311SOL    HW235375   7.676   7.352   0.723  0.9140  0.3890  3.0264
11312SOL     OW35376   7.776   7.583   5.459  0.1086 -0.2296 -0.3225
11312SOL    HW135377   7.812   7.534   5.533 -0.8114 -0.7434 -0.2019
11312SOL    HW235378   7.820   7.547   5.382 -1.4846 -2.2389 -0.3891
11313SOL     OW35379   0.383   7.794   1.643  0.2950  0.3492  0.0536
11313SOL    HW135380   0.330   7.738   1.587  1.2237  0.8318 -1.3375
11313SOL    HW235381   0.414   7.735   1.712 -1.7284 -0.0165  0.7207
11314SOL     OW35382   6.447   6.875   5.651  0.2219 -0.4610 -0.2630
11314SOL    HW135383   6.524   6.831   5.689  0.3698  0.5445  0.6852
11314SOL    HW235384   6.469   6.887   5.559  0.7074 -1.2155 -0.2555
11315SOL     OW35385   1.766   2.654   0.114  0.2689  0.3306  0.0505
11315SOL    HW135386   1.769   2.730   0.171 -2.9924  1.0943 -0.5706
11315SOL    HW235387   1.753   2.690   0.026  0.3136 -0.8978 -0.4897
11316SOL     OW35388   1.120   3.676   1.856 -0.7550 -0.3290  0.2102
11316SOL    HW135389   1.197   3.711   1.812 -1.4547  0.9420 -0.0402
11316SOL    HW235390   1.145   3.672   1.948 -0.2396 -0.3451  0.0736
11317SOL     OW35391   7.312   6.207   4.317  0.5620  0.1479  0.5245
11317SOL    HW135392   7.286   6.203   4.225  1.7850  0.9409  0.1187
11317SOL    HW235393   7.272   6.288   4.350  1.5340  0.7741  0.2052
11318SOL     OW35394   5.609   2.624   4.133 -0.4535 -0.4091 -0.2086
11318SOL    HW135395   5.522   2.624   4.094  0.4725 -0.7528 -2.4059
11318SOL    HW235396   5.660   2.683   4.078  0.6409  0.1027  1.2845
11319SOL     OW35397   1.280   5.407   4.935  0.0355  0.3299 -0.5342
11319SOL    HW135398   1.375   5.410   4.946  0.0135  0.6120 -0.4025
11319SOL    HW235399   1.264   5.325   4.888  0.3003  0.0458 -0.1362
11320SOL     OW35400   3.772   2.102  11.781  0.0305  0.0997  0.0516
11320SOL    HW135401   3.817   2.022  11.808  1.8221  0.9481 -0.3052
11320SOL    HW235402   3.828   2.173  11.813 -1.0123  1.2018 -0.4978
11321SOL     OW35403   5.722   1.567  10.677  0.5191  0.0627  0.0137
11321SOL    HW135404   5.691   1.636  10.735 -2.0496  0.1846 -1.3874
11321SOL    HW235405   5.653   1.501  10.679 -0.2583  0.5518 -3.6128
11322SOL     OW35406   4.732   2.009   5.966 -0.0019 -0.0886 -0.1354
11322SOL    HW135407   4.687   1.930   5.997 -0.8502 -0.4630 -2.1512
11322SOL    HW235408   4.808   1.975   5.918  1.4691  0.4791  1.7243
11323SOL     OW35409   7.238   2.034  10.688 -0.5668  0.2106  0.2871
11323SOL    HW135410   7.272   1.966  10.746 -0.6353  0.8171  1.0701
11323SOL    HW235411   7.314   2.063  10.637 -0.5261 -0.4013  0.0019
11324SOL     OW35412   6.528   3.463  11.193  0.5400  0.1778  0.3841
11324SOL    HW135413   6.607   3.443  11.143  0.6850 -1.8194  1.2992
11324SOL    HW235414   6.463   3.488  11.127  1.3451 -0.1757 -0.5721
11325SOL     OW35415   1.591   5.477   3.681 -0.5040 -0.0307  0.1434
11325SOL    HW135416   1.644   5.556   3.683  0.2012 -0.5235  1.7567
11325SOL    HW235417   1.623   5.429   3.604  1.2871 -0.2285  0.9644
11326SOL     OW35418   6.821   7.584   5.560 -0.2712  0.5307 -0.5625
11326SOL    HW135419   6.795   7.673   5.537  0.4179  0.3963 -1.9793
11326SOL    HW235420   6.887   7.596   5.629  0.4345  1.1765 -1.3241
11327SOL     OW35421   1.207   3.685   2.665 -0.2739  0.1006 -0.2712
11327SOL    HW135422   1.276   3.746   2.641 -2.2185  1.7800 -1.9366
11327SOL    HW235423   1.158   3.729   2.735 -0.0743 -0.7737  0.4333
11328SOL     OW35424   4.559   2.877   3.134 -0.3200  0.4293 -0.3743
11328SOL    HW135425   4.496   2.825   3.184 -0.7007  0.2907 -0.9893
11328SOL    HW235426   4.520   2.885   3.047  0.8124 -0.2100 -0.9686
11329SOL     OW35427   5.982   0.577   3.266  0.1688 -0.2482 -0.0331
11329SOL    HW135428   6.054   0.515   3.274  1.8714  1.7676  1.6456
11329SOL    HW235429   5.988   0.609   3.176  1.7465  0.2165  0.2001
11330SOL     OW35430   0.402   7.439   6.065 -0.9637  0.2321  0.5472
11330SOL    HW135431   0.353   7.410   5.987 -1.2714 -0.0680  0.8496
11330SOL    HW235432   0.448   7.518   6.036  0.3147 -0.8249 -0.4503
11331SOL     OW35433   4.601   6.968   0.231  0.3880  0.2437  0.5903
11331SOL    HW135434   4.554   7.005   0.156  0.2377 -0.1803  0.4748
11331SOL    HW235435   4.540   6.904   0.268  0.6611  0.0855  0.7693
11332SOL     OW35436   3.457   0.066   8.738  0.7636  0.2578  0.4672
11332SOL    HW135437   3.448   0.117   8.818 -0.4849  2.2861 -0.8788
11332SOL    HW235438   3.375   0.018   8.731 -0.5705  2.5752 -1.1375
11333SOL     OW35439   2.718   6.572   0.055 -0.3840  0.2280  0.2880
11333SOL    HW135440   2.739   6.483   0.083 -3.8089 -0.4992  1.0407
11333SOL    HW235441   2.745   6.575  -0.037 -0.1925 -1.6222  0.2390
11334SOL     OW35442   6.455   1.145   3.889  0.5221  0.1740  0.3129
11334SOL    HW135443   6.477   1.053   3.877  1.0552 -0.0535  2.5017
11334SOL    HW235444   6.525   1.193   3.845 -0.6375 -0.3812 -2.2904
11335SOL     OW35445   5.996   5.331   5.850 -1.2053  0.2854 -0.3521
11335SOL    HW135446   5.975   5.391   5.779 -2.0826  1.7450  1.0558
11335SOL    HW235447   6.047   5.384   5.912  2.6526 -1.8671 -1.3726
11336SOL     OW35448   1.352   0.070   6.079 -0.1833  0.0247 -0.2516
11336SOL    HW135449   1.416   0.094   6.012 -0.1875 -0.3375 -0.3851
11336SOL    HW235450   1.366  -0.024   6.093 -0.5872 -0.0249 -0.1741
11337SOL     OW35451   2.738   2.193   7.239  0.3178 -0.1456 -0.2363
11337SOL    HW135452   2.665   2.173   7.297  0.2108 -0.7465 -0.5662
11337SOL    HW235453   2.702   2.253   7.175 -0.3823 -1.7619 -1.4259
11338SOL     OW35454   0.861   5.118   7.888  0.4084  0.1096 -0.1568
11338SOL    HW135455   0.894   5.032   7.861  1.8618  0.4027  0.5446
11338SOL    HW235456   0.939   5.165   7.919  0.0176  2.3653 -2.2521
11339SOL     OW35457   2.275   1.623   4.971 -0.2590 -0.2112  0.3646
11339SOL    HW135458   2.233   1.626   5.056  0.5123  0.1446  0.7475
11339SOL    HW235459   2.272   1.713   4.939 -1.0603 -0.4448 -0.2555
11340SOL     OW35460   0.417   6.019  11.588 -0.1120  0.1167 -0.0775
11340SOL    HW135461   0.470   6.066  11.653 -0.1784  0.8677 -0.5490
11340SOL    HW235462   0.349   5.976  11.639 -0.5587  1.2386  0.3057
11341SOL     OW35463   3.784   0.170   7.445 -0.0946  0.2152  0.0571
11341SOL    HW135464   3.867   0.166   7.396  0.5509  1.3867  1.0049
11341SOL    HW235465   3.717   0.176   7.378  0.7566  1.5926 -0.7235
11342SOL     OW35466   0.722   3.620  12.421  0.2952  0.2220 -0.3075
11342SOL    HW135467   0.649   3.677  12.443 -0.5958 -0.4610 -1.4098
11342SOL    HW235468   0.785   3.678  12.376 -1.2236  0.1179 -2.7127
11343SOL     OW35469   1.911   5.212   6.779 -0.3207 -0.2282  0.3836
11343SOL    HW135470   1.821   5.236   6.800 -0.2813 -0.0339  0.3304
11343SOL    HW235471   1.953   5.294   6.753 -0.8228 -0.7024 -2.1991
11344SOL     OW35472   3.647   5.846   8.795  0.0579  0.1528  0.0564
11344SOL    HW135473   3.636   5.811   8.883  0.8863  0.3812  0.2596
11344SOL    HW235474   3.575   5.909   8.785  0.0546  0.2425  0.6316
11345SOL     OW35475   3.655   0.677   9.499 -0.0689 -0.0354  0.6805
11345SOL    HW135476   3.722   0.692   9.566 -0.2609 -1.2442  1.1550
11345SOL    HW235477   3.587   0.627   9.543 -0.3451 -0.5921 -0.3372
11346SOL     OW35478   6.213   1.765   7.042  0.5041 -0.2129  0.0535
11346SOL    HW135479   6.262   1.699   7.091  0.0707 -0.0170  0.7525
11346SOL    HW235480   6.121   1.745   7.060  0.3726  1.4969  1.5115
11347SOL     OW35481   5.819   3.322   3.309 -0.0255  0.0168  0.1201
11347SOL    HW135482   5.826   3.359   3.221  2.8919 -0.7402 -0.0410
11347SOL    HW235483   5.817   3.399   3.367  0.4519  0.4899 -0.4791
11348SOL     OW35484   4.479   4.346   2.136  0.2008  0.3701  0.4836
11348SOL    HW135485   4.438   4.423   2.175 -0.8784 -0.4160  0.9276
11348SOL    HW235486   4.406   4.293   2.103  0.9039 -0.5931  0.4243
11349SOL     OW35487   2.324   4.166   2.373 -0.0907 -0.0022 -0.5256
11349SOL    HW135488   2.327   4.153   2.279  1.4018 -0.0341 -0.5011
11349SOL    HW235489   2.334   4.261   2.385  0.7879 -0.1071 -0.3801
11350SOL     OW35490   7.398   7.362  10.508  0.4044 -0.1700 -0.2061
11350SOL    HW135491   7.323   7.394  10.458 -1.3719 -1.6861  1.3581
11350SOL    HW235492   7.472   7.371  10.448 -1.0134  1.2589 -1.8540
11351SOL     OW35493   1.750   7.789   9.263 -0.3935  0.5432 -0.4873
11351SOL    HW135494   1.749   7.730   9.188 -1.2340 -0.3660  0.2181
11351SOL    HW235495   1.711   7.870   9.231  0.7616  0.7449 -1.4649
11352SOL     OW35496   4.212   5.144   1.827  0.5747 -0.3128  0.2470
11352SOL    HW135497   4.167   5.113   1.748  1.7883 -0.5582 -0.3664
11352SOL    HW235498   4.205   5.240   1.823 -0.6923 -0.3628  0.6633
11353SOL     OW35499   6.705   0.022  12.212 -0.6515 -0.1441  0.0457
11353SOL    HW135500   6.797   0.038  12.234 -0.1328 -2.5972 -0.1235
11353SOL    HW235501   6.656   0.051  12.289  0.6447 -2.7500  1.9771
11354SOL     OW35502   5.456   1.710   2.723  0.2860 -0.3491  0.1639
11354SOL    HW135503   5.543   1.718   2.683 -1.1653  0.1255 -3.1603
11354SOL    HW235504   5.422   1.799   2.725 -1.5819 -0.9332 -2.2678
11355SOL     OW35505   1.319   6.961   4.887 -0.0569 -0.4805  0.1029
11355SOL    HW135506   1.243   6.993   4.839 -0.1894 -1.5434 -0.4262
11355SOL    HW235507   1.390   6.964   4.822 -0.2372 -1.9238 -0.1816
11356SOL     OW35508   5.355   4.538   5.139 -0.1649 -0.0962  0.2666
11356SOL    HW135509   5.306   4.581   5.209 -0.6099 -1.6451  0.9416
11356SOL    HW235510   5.407   4.471   5.184 -2.1172 -2.6327 -1.0538
11357SOL     OW35511   2.148   0.790  11.704 -0.5471  0.0313  0.1602
11357SOL    HW135512   2.053   0.797  11.706 -0.4495  1.5004  0.3776
11357SOL    HW235513   2.169   0.723  11.770 -1.3037  1.2536  1.6932
11358SOL     OW35514   1.124   5.765   8.313 -0.2117 -0.1217  0.4567
11358SOL    HW135515   1.115   5.787   8.221  0.5436  1.0119  0.6376
11358SOL    HW235516   1.091   5.842   8.360  2.2939  0.6348  1.1117
11359SOL     OW35517   5.749   3.315   0.051 -0.5263  0.3873  0.1245
11359SOL    HW135518   5.760   3.359  -0.034  0.5653  0.0988  0.1028
11359SOL    HW235519   5.838   3.307   0.085 -0.9742  0.7323  1.4286
11360SOL     OW35520   3.775   3.883   6.656 -0.7961 -0.0903 -0.1198
11360SOL    HW135521   3.824   3.900   6.736  1.2683 -2.2733 -0.8108
11360SOL    HW235522   3.685   3.866   6.685 -0.0581 -0.9986  1.7651
11361SOL     OW35523   5.532   3.318   1.876  0.1118  0.2097  0.1542
11361SOL    HW135524   5.578   3.254   1.822  0.3344  0.5925 -0.1102
11361SOL    HW235525   5.443   3.321   1.839  0.4943  1.0919 -0.7462
11362SOL     OW35526   1.251   6.950  12.045  0.5119 -0.2068 -0.0696
11362SOL    HW135527   1.161   6.961  12.013  0.6646  0.4513 -0.2876
11362SOL    HW235528   1.243   6.950  12.140  0.4064  1.0989 -0.0630
11363SOL     OW35529   3.180   4.297   8.299 -0.0305  0.5510  0.2626
11363SOL    HW135530   3.157   4.205   8.309 -0.2027  0.1749 -2.6841
11363SOL    HW235531   3.266   4.305   8.339  0.1266 -0.9824  0.2862
11364SOL     OW35532   7.891   7.647   3.752  0.1040 -0.4652  0.2624
11364SOL    HW135533   7.985   7.666   3.749 -0.2763  1.6228  0.0489
11364SOL    HW235534   7.864   7.645   3.660 -0.3197  0.4202  0.3645
11365SOL     OW35535   4.063   2.135   9.851  0.3779 -0.1479  0.1170
11365SOL    HW135536   4.091   2.167   9.765 -2.3930  0.0612 -0.8136
11365SOL    HW235537   4.076   2.040   9.847  1.1728 -0.0382 -0.1259
11366SOL     OW35538   6.952   5.596   5.284  0.3245 -0.3021 -0.4217
11366SOL    HW135539   6.962   5.537   5.359  0.8118 -1.3129 -1.2479
11366SOL    HW235540   6.930   5.537   5.212 -3.8521  0.9393 -0.3989
11367SOL     OW35541   0.261   4.971   9.338 -0.3875 -0.0753 -0.3001
11367SOL    HW135542   0.190   4.909   9.322 -0.4172 -0.1900  0.2522
11367SOL    HW235543   0.331   4.943   9.280 -0.8024  0.0664 -0.8891
11368SOL     OW35544   2.830   4.615  10.528 -0.0810 -0.2003  0.9238
11368SOL    HW135545   2.919   4.651  10.523  0.0428 -0.4620  1.2217
11368SOL    HW235546   2.806   4.599  10.437 -0.3020  1.0309  0.7418
11369SOL     OW35547   1.642   2.791   7.880 -0.1166 -0.5484  0.4998
11369SOL    HW135548   1.696   2.809   7.958 -0.1366 -1.5191  0.7484
11369SOL    HW235549   1.704   2.795   7.807 -0.1512  0.6710  0.5153
11370SOL     OW35550   6.177   6.501   3.421 -0.8459 -0.2631  0.1130
11370SOL    HW135551   6.194   6.499   3.515  0.4234  0.7002 -0.0776
11370SOL    HW235552   6.119   6.577   3.409  0.3012  0.6120 -0.0556
11371SOL     OW35553   6.233   6.568   5.901 -0.6387  0.3102 -0.3803
11371SOL    HW135554   6.258   6.556   5.810  1.5928  0.7665  0.1213
11371SOL    HW235555   6.231   6.663   5.914  1.2720  0.2660  0.5542
11372SOL     OW35556   1.591   6.963   1.293 -0.3488 -0.6229 -0.0822
11372SOL    HW135557   1.684   6.940   1.285  0.1894  1.4044 -0.1112
11372SOL    HW235558   1.572   6.954   1.386 -0.4996 -2.2794 -0.2470
11373SOL     OW35559   2.770   2.137   4.379  0.1030  0.4150  0.6406
11373SOL    HW135560   2.676   2.128   4.396  0.0003  1.3295  0.5879
11373SOL    HW235561   2.788   2.070   4.312 -0.7227  0.9033 -0.0981
11374SOL     OW35562   4.446   5.179   2.680 -0.4438 -0.5002 -0.3296
11374SOL    HW135563   4.440   5.118   2.607  0.7338 -1.8474  0.6372
11374SOL    HW235564   4.404   5.133   2.753  1.7597 -0.8413  0.8033
11375SOL     OW35565   5.683   1.255  10.577 -0.1105 -0.7982 -0.1724
11375SOL    HW135566   5.608   1.287  10.527  0.1639  2.6939  1.3500
11375SOL    HW235567   5.756   1.255  10.514 -0.9552 -2.5058 -1.2108
11376SOL     OW35568   1.952   1.111   8.484 -0.1850  0.1657 -0.1438
11376SOL    HW135569   2.046   1.096   8.473  0.0051 -0.1314  1.5768
11376SOL    HW235570   1.911   1.039   8.436  0.4236  0.5933 -1.3654
11377SOL     OW35571   7.664   5.345   7.802  0.4387 -0.5036  0.3110
11377SOL    HW135572   7.758   5.325   7.805  0.5174  0.0022  1.3284
11377SOL    HW235573   7.625   5.268   7.761  1.4318 -0.1995 -1.2933
11378SOL     OW35574   6.304   2.991   8.467  0.1893 -0.3094  0.0844
11378SOL    HW135575   6.224   2.986   8.414 -1.0126 -3.3189  1.9805
11378SOL    HW235576   6.370   2.945   8.415  0.8917  2.2670 -1.5305
11379SOL     OW35577   3.424   5.811   5.040  0.5753 -0.4134  0.2106
11379SOL    HW135578   3.460   5.753   5.107 -1.3958 -1.1747  0.6922
11379SOL    HW235579   3.344   5.846   5.079 -0.6989 -0.9691 -1.7516
11380SOL     OW35580   2.537   5.419   4.007  0.3981 -0.7401  0.0417
11380SOL    HW135581   2.519   5.402   3.915  1.4480 -0.6179 -0.1915
11380SOL    HW235582   2.631   5.406   4.016  0.0757 -2.6115  1.4874
11381SOL     OW35583   0.251   2.855   3.127 -0.2210  0.1144  0.3461
11381SOL    HW135584   0.252   2.762   3.107 -2.9969  0.4386 -2.1106
11381SOL    HW235585   0.300   2.896   3.055  0.0640  0.6294  0.8202
11382SOL     OW35586   1.932   5.525   8.377  0.7275  0.0985 -0.0472
11382SOL    HW135587   1.880   5.594   8.418  0.1147 -0.8501  0.8365
11382SOL    HW235588   1.871   5.451   8.368  1.9509 -1.1221  1.2203
11383SOL     OW35589   2.678   6.281   6.486  0.2212  0.3647 -0.6828
11383SOL    HW135590   2.599   6.242   6.524  0.5179  0.0135 -0.4273
11383SOL    HW235591   2.708   6.344   6.551  0.7432 -0.2547 -0.3170
11384SOL     OW35592   3.062   5.488   3.165  1.0423 -0.3332 -0.0520
11384SOL    HW135593   2.991   5.551   3.160  1.4153  0.0595 -0.5757
11384SOL    HW235594   3.080   5.465   3.074  1.6033 -0.3934  0.0686
11385SOL     OW35595   2.907   4.138   8.666  0.3167 -0.7008 -0.3531
11385SOL    HW135596   2.815   4.141   8.694  0.1673  0.6131 -0.9197
11385SOL    HW235597   2.957   4.170   8.741  0.0680  1.0805 -0.8993
11386SOL     OW35598   1.649   2.657  11.219 -0.5513  0.1100 -0.6115
11386SOL    HW135599   1.729   2.633  11.172 -0.2677  0.7523 -0.4744
11386SOL    HW235600   1.680   2.714  11.290 -1.1542  0.5081 -0.6677
11387SOL     OW35601   5.641   4.817  11.275  0.8229 -0.3819 -0.0386
11387SOL    HW135602   5.717   4.862  11.310  1.0723 -0.3690 -0.5758
11387SOL    HW235603   5.649   4.727  11.307  0.5864 -0.1708  0.6308
11388SOL     OW35604   3.074   6.895   4.379  0.2134 -0.4344  0.4091
11388SOL    HW135605   3.045   6.886   4.469 -1.4327  0.6979  0.0400
11388SOL    HW235606   3.079   6.989   4.364 -0.0087 -0.5907 -0.8197
11389SOL     OW35607   1.980   0.421   0.173 -0.1031  0.4248 -0.8270
11389SOL    HW135608   1.898   0.381   0.143  0.3257 -0.8692 -0.3410
11389SOL    HW235609   2.019   0.459   0.094 -0.3417 -0.4647 -1.3771
11390SOL     OW35610   6.064   7.623  11.783  0.0895 -0.0791  0.2469
11390SOL    HW135611   6.026   7.563  11.847  0.7006  1.3016  1.9638
11390SOL    HW235612   6.025   7.708  11.802  0.6215  0.4603 -0.9377
11391SOL     OW35613   0.718   3.185  12.057  0.2445 -0.0458  0.7342
11391SOL    HW135614   0.636   3.226  12.029  1.3714  0.9504 -1.2802
11391SOL    HW235615   0.769   3.175  11.977  2.5893  0.4667  2.0671
11392SOL     OW35616   4.148   4.467   1.032  0.2083  1.0423  0.2899
11392SOL    HW135617   4.131   4.373   1.028 -0.4404  1.1979 -0.9725
11392SOL    HW235618   4.062   4.507   1.032  0.4847  1.6507  0.6108
11393SOL     OW35619   5.225   7.307   1.112 -0.2805  0.0389  0.2009
11393SOL    HW135620   5.262   7.273   1.194 -0.8846 -0.0250  0.4534
11393SOL    HW235621   5.134   7.327   1.134 -0.4156  0.1229 -0.4313
11394SOL     OW35622   6.636   7.641   7.570  0.0097 -0.0546  0.2111
11394SOL    HW135623   6.545   7.625   7.596 -0.9148  0.2499 -2.5754
11394SOL    HW235624   6.629   7.685   7.485  2.7622  1.1569  0.5285
11395SOL     OW35625   0.570   2.873   2.670  0.2177 -0.7929 -0.3828
11395SOL    HW135626   0.508   2.911   2.607 -0.4917 -1.0330  0.1599
11395SOL    HW235627   0.622   2.812   2.618  0.0518 -0.5339 -0.8628
11396SOL     OW35628   0.383   5.247  12.209  0.3282 -0.6556  0.3733
11396SOL    HW135629   0.387   5.274  12.117  0.7965 -2.8233 -0.3083
11396SOL    HW235630   0.297   5.277  12.239  0.2219  0.2169 -0.7151
11397SOL     OW35631   5.861   2.304   5.467  0.2793  0.2585 -0.8549
11397SOL    HW135632   5.855   2.338   5.556 -0.2406  1.3161 -1.2791
11397SOL    HW235633   5.885   2.212   5.478 -1.8621 -0.2068  0.4525
11398SOL     OW35634   7.456   1.852   6.276  0.4920 -0.6097 -0.0121
11398SOL    HW135635   7.389   1.860   6.208 -1.4307 -1.0222  1.7438
11398SOL    HW235636   7.501   1.770   6.256 -0.1513 -0.8087 -0.6893
11399SOL     OW35637   5.031   5.714  11.233  0.3104 -0.3799 -0.3075
11399SOL    HW135638   4.949   5.676  11.202  0.7011 -0.7389 -0.9071
11399SOL    HW235639   5.012   5.742  11.323 -0.2217 -1.2381 -0.1434
11400SOL     OW35640   6.744   3.859   4.524 -0.5804 -0.0853  0.5414
11400SOL    HW135641   6.781   3.853   4.612 -1.9387  1.6432  1.2981
11400SOL    HW235642   6.655   3.825   4.533 -1.2158  1.4202  0.1929
11401SOL     OW35643   3.495   4.059  10.998  0.5298  0.1119 -0.4817
11401SOL    HW135644   3.544   4.101  11.069 -0.9263  0.3797  0.4012
11401SOL    HW235645   3.559   4.051  10.927  1.5105  1.5573  0.1846
11402SOL     OW35646   1.866   7.922   8.704 -0.1124 -0.1875  0.2584
11402SOL    HW135647   1.932   7.989   8.719  0.1638 -0.7168  1.5966
11402SOL    HW235648   1.909   7.858   8.647 -0.4354  0.8185 -1.1581
11403SOL     OW35649   3.414   2.741   9.241  0.6315 -0.2320  0.1413
11403SOL    HW135650   3.474   2.678   9.202  0.6822 -0.2209  0.2017
11403SOL    HW235651   3.468   2.791   9.302  0.0271 -1.9181  2.1756
11404SOL     OW35652   6.838   5.581   7.456  0.0076  0.0697  0.0300
11404SOL    HW135653   6.829   5.643   7.384 -2.8049  0.5557  0.6677
11404SOL    HW235654   6.898   5.514   7.424  1.7636  2.1462 -1.3311
11405SOL     OW35655   5.190   7.176   9.759 -0.3517 -0.4616 -0.4212
11405SOL    HW135656   5.272   7.129   9.745 -0.5134 -0.7726 -0.3135
11405SOL    HW235657   5.173   7.220   9.675 -0.3178 -0.7744 -0.5924
11406SOL     OW35658   4.601   7.887   7.754 -0.3012 -0.3011  0.1862
11406SOL    HW135659   4.599   7.938   7.835 -0.7655 -1.9667  1.2902
11406SOL    HW235660   4.690   7.850   7.751 -0.5712 -0.9893  0.4498
11407SOL     OW35661   2.912   2.409  10.464 -0.8520  0.2473  0.4515
11407SOL    HW135662   2.830   2.438  10.425 -0.4580  0.6136 -0.1108
11407SOL    HW235663   2.976   2.473  10.435 -0.2739 -0.3074  0.4935
11408SOL     OW35664   4.750   4.585   1.158  0.4822  0.3841 -0.4801
11408SOL    HW135665   4.729   4.673   1.189  2.2717  0.7056 -0.0455
11408SOL    HW235666   4.770   4.535   1.237 -0.1391 -0.3058 -0.7532
11409SOL     OW35667   6.074   2.961   9.845  0.1680  0.6755 -0.1184
11409SOL    HW135668   6.115   2.920   9.769  0.1472  0.8827 -0.2429
11409SOL    HW235669   6.000   3.009   9.808  0.5661  1.3508 -0.0587
11410SOL     OW35670   2.206   5.830   4.463 -0.3367 -0.0403 -0.3078
11410SOL    HW135671   2.198   5.907   4.407  1.0806  0.7326  0.4763
11410SOL    HW235672   2.142   5.844   4.533 -0.3772  0.2192 -0.3974
11411SOL     OW35673   6.080   0.624   0.904  0.3115 -0.4764  0.1824
11411SOL    HW135674   6.094   0.647   0.812  0.0714  0.1994  0.3118
11411SOL    HW235675   5.990   0.591   0.907 -0.0137  0.3932  0.3343
11412SOL     OW35676   0.680   7.718   3.065  0.2978 -0.2317  0.0528
11412SOL    HW135677   0.612   7.770   3.107 -1.0372 -1.1910 -0.8610
11412SOL    HW235678   0.713   7.775   2.995  0.3321  0.1720  0.3927
11413SOL     OW35679   2.967   0.159  12.024 -0.3271  0.0529 -0.4910
11413SOL    HW135680   3.051   0.112  12.025  0.2655  0.9011  3.0231
11413SOL    HW235681   2.974   0.220  11.950  3.4946  2.1666  1.3214
11414SOL     OW35682   6.599   0.615   8.996  0.5825  0.3057  0.0194
11414SOL    HW135683   6.569   0.587   9.083  0.4816  1.4120  0.3533
11414SOL    HW235684   6.611   0.709   9.004  1.2519  0.3201 -0.9774
11415SOL     OW35685   1.706   2.032   6.371 -0.1297 -0.4691 -0.4972
11415SOL    HW135686   1.614   2.030   6.399  0.1944  0.7439  0.7415
11415SOL    HW235687   1.730   2.124   6.371  1.2775 -0.8026 -0.1668
11416SOL     OW35688   7.182   0.578   7.794 -0.3793 -0.6854  0.2074
11416SOL    HW135689   7.241   0.640   7.752 -1.1203 -0.2243 -0.1872
11416SOL    HW235690   7.239   0.514   7.836  0.3901  0.0196  0.2459
11417SOL     OW35691   0.022   2.371   4.190  0.5356 -0.5078 -1.0463
11417SOL    HW135692   0.065   2.340   4.269 -0.7308 -1.1177 -0.5688
11417SOL    HW235693   0.037   2.466   4.189  0.6009 -0.5079 -0.1046
11418SOL     OW35694   0.727   2.267   4.017  0.4059 -0.8358  0.2634
11418SOL    HW135695   0.682   2.302   3.940  2.3890  1.5884  0.0690
11418SOL    HW235696   0.773   2.189   3.984 -0.0022 -0.7086 -0.6312
11419SOL     OW35697   7.054   6.541  12.401  0.8802 -0.2719 -0.0540
11419SOL    HW135698   7.003   6.621  12.399 -0.8583 -1.2066  2.0159
11419SOL    HW235699   6.994   6.473  12.371  1.1941 -1.2383  1.3504
11420SOL     OW35700   1.507   1.215  10.510  0.0619 -0.9281 -0.1840
11420SOL    HW135701   1.498   1.123  10.536 -0.1281 -1.2475 -1.2921
11420SOL    HW235702   1.539   1.210  10.419  0.0647  0.1042 -0.2433
11421SOL     OW35703   5.397   6.068  10.872  0.0335 -0.4658  0.1948
11421SOL    HW135704   5.468   6.128  10.894 -0.4259 -0.3876  1.5324
11421SOL    HW235705   5.369   6.031  10.956 -1.3778 -0.6502 -0.3229
11422SOL     OW35706   1.357   4.712   0.179  0.0585  0.0307 -0.8927
11422SOL    HW135707   1.401   4.627   0.186  0.6435  0.2818 -1.3713
11422SOL    HW235708   1.409   4.770   0.234 -1.7333 -0.4274  1.3913
11423SOL     OW35709   6.071   6.177   9.841  0.1514 -0.5657 -0.0120
11423SOL    HW135710   5.990   6.150   9.885 -0.0187  0.1886  0.1517
11423SOL    HW235711   6.077   6.270   9.858  1.0709 -0.6202 -0.0160
11424SOL     OW35712   5.463   6.827   6.359  0.3924 -0.0379 -0.3909
11424SOL    HW135713   5.368   6.829   6.363  0.3649 -1.4664  0.6074
11424SOL    HW235714   5.483   6.832   6.266 -0.6943 -0.5061 -0.6659
11425SOL     OW35715   1.668   5.851   1.474 -0.7535 -0.3000 -0.0044
11425SOL    HW135716   1.724   5.892   1.541 -1.0687  0.1452 -0.0152
11425SOL    HW235717   1.619   5.784   1.522  0.3821 -1.2706 -0.1445
11426SOL     OW35718   3.182   7.092   5.469 -0.1528  0.5564 -0.2800
11426SOL    HW135719   3.124   7.070   5.396  0.0081 -1.8563  0.2458
11426SOL    HW235720   3.133   7.158   5.518 -1.1520  0.7338 -1.4359
11427SOL     OW35721   1.909   5.264   5.076  0.4052  0.3001  0.0933
11427SOL    HW135722   1.957   5.343   5.101 -0.9789  1.3488 -0.4253
11427SOL    HW235723   1.868   5.286   4.992 -0.9702 -0.5293  0.5058
11428SOL     OW35724   1.189   3.407   9.264 -0.0701 -0.6774  0.1864
11428SOL    HW135725   1.152   3.356   9.336 -0.8140 -0.2252  0.1394
11428SOL    HW235726   1.126   3.396   9.192  0.1951 -0.3950 -0.0921
11429SOL     OW35727   5.674   0.979   6.322 -0.1575 -0.7500  0.7496
11429SOL    HW135728   5.626   0.996   6.403  1.5634 -0.2541  1.7146
11429SOL    HW235729   5.727   1.058   6.308 -0.2183 -0.9315 -0.7369
11430SOL     OW35730   6.304   6.827   1.849 -0.0785  0.2890 -0.1285
11430SOL    HW135731   6.253   6.903   1.821 -1.1567 -0.0894  0.7361
11430SOL    HW235732   6.246   6.753   1.831  0.1652 -0.1509  0.8838
11431SOL     OW35733   1.513   6.104  11.136  0.3406  0.5573 -0.1453
11431SOL    HW135734   1.425   6.131  11.110  0.6859  0.0242 -2.0476
11431SOL    HW235735   1.509   6.008  11.140  0.9586  0.4830 -0.8847
11432SOL     OW35736   1.053   7.044   9.474 -0.3825 -0.2205 -0.4084
11432SOL    HW135737   1.062   6.991   9.553  2.1454 -1.4332 -1.3992
11432SOL    HW235738   0.970   7.015   9.434 -0.6507 -1.0558  0.7238
11433SOL     OW35739   0.408   2.424   6.556  0.1035 -0.3801  0.0996
11433SOL    HW135740   0.433   2.507   6.515 -0.7467 -0.5004 -0.6977
11433SOL    HW235741   0.406   2.443   6.649  2.2341 -0.1312  0.1456
11434SOL     OW35742   5.363   6.711  10.945  0.5067  0.1637  0.0679
11434SOL    HW135743   5.371   6.667  10.860  1.1150 -1.1076  0.7621
11434SOL    HW235744   5.312   6.789  10.926  0.2955 -0.2968 -1.4033
11435SOL     OW35745   3.945   2.335   2.474 -0.5483 -0.0794  0.2882
11435SOL    HW135746   3.895   2.376   2.403  0.4884 -0.4387 -0.6680
11435SOL    HW235747   3.957   2.405   2.539 -0.3003  0.6443 -0.5278
11436SOL     OW35748   2.184   3.929   1.785  0.1530  0.2010  0.0929
11436SOL    HW135749   2.208   3.949   1.875  1.2196  1.4069 -0.4223
11436SOL    HW235750   2.250   3.867   1.756  0.4939  0.6882 -0.1925
11437SOL     OW35751   6.298   1.695   2.415 -0.3010  0.3015  0.7376
11437SOL    HW135752   6.226   1.755   2.430 -0.3804  0.3352  0.2536
11437SOL    HW235753   6.285   1.663   2.326  0.0131 -0.0591  0.8149
11438SOL     OW35754   4.478   3.797   7.806 -0.0828 -0.0238 -0.2173
11438SOL    HW135755   4.405   3.858   7.800  0.6982  0.7746 -2.2195
11438SOL    HW235756   4.449   3.731   7.869 -1.6980  1.3611  0.5505
11439SOL     OW35757   7.237   4.269   2.272 -0.1450  0.0048 -0.2276
11439SOL    HW135758   7.276   4.355   2.258  0.0959 -0.4471 -2.7416
11439SOL    HW235759   7.150   4.276   2.233 -0.6979 -0.5040  0.8598
11440SOL     OW35760   0.908   2.644  11.691  0.1715 -0.2734 -0.1852
11440SOL    HW135761   0.885   2.714  11.629  0.6098 -1.7799 -2.1443
11440SOL    HW235762   0.901   2.686  11.777 -1.8734  1.5436 -1.1151
11441SOL     OW35763   1.607   6.063   1.266  0.1550 -0.0310 -0.1005
11441SOL    HW135764   1.556   6.061   1.347  0.9331 -1.4785  0.4064
11441SOL    HW235765   1.576   5.987   1.217  1.5734 -0.7916  0.1047
11442SOL     OW35766   1.753   7.519   3.182  0.1131 -0.4737  0.0213
11442SOL    HW135767   1.795   7.579   3.243  0.1898 -2.0122  1.5356
11442SOL    HW235768   1.804   7.438   3.188 -0.8205 -1.1696 -0.9306
11443SOL     OW35769   6.594   2.789   5.198  0.8265  0.1296  0.5442
11443SOL    HW135770   6.687   2.788   5.218  0.6706  0.5097  1.3327
11443SOL    HW235771   6.552   2.820   5.278  0.0881  0.8133 -0.0827
11444SOL     OW35772   6.629   2.420   8.385  0.6507 -0.0950 -0.5554
11444SOL    HW135773   6.595   2.340   8.425  2.5845 -0.3027  0.8313
11444SOL    HW235774   6.678   2.391   8.309  0.3289 -0.1060 -0.7589
11445SOL     OW35775   5.322   0.820  10.229 -0.4824  0.0568  0.0679
11445SOL    HW135776   5.337   0.733  10.192 -0.1673  0.1047  0.0808
11445SOL    HW235777   5.385   0.826  10.301 -0.9421  0.0500  0.4751
11446SOL     OW35778   2.522   4.006   4.460 -0.1101  0.3765  0.1705
11446SOL    HW135779   2.522   4.002   4.364 -1.8203 -2.7726  0.1445
11446SOL    HW235780   2.480   3.924   4.486  0.3474  1.1249  3.6456
11447SOL     OW35781   3.827   2.338   6.685  0.3758  0.4190 -0.0199
11447SOL    HW135782   3.866   2.253   6.664  0.5313  0.7778 -1.2498
11447SOL    HW235783   3.745   2.340   6.636  0.7814  1.3142 -0.6804
11448SOL     OW35784   3.902   2.134   8.036 -0.1090 -0.1510  0.1562
11448SOL    HW135785   3.837   2.073   8.001 -1.0812  0.2330  1.2569
11448SOL    HW235786   3.897   2.209   7.977 -0.8539 -0.0144  0.3848
11449SOL     OW35787   1.199   7.731   5.441 -0.3343 -0.9913  0.2976
11449SOL    HW135788   1.197   7.739   5.345 -0.8659 -1.0309  0.3031
11449SOL    HW235789   1.237   7.814   5.471 -2.8660  0.3119  0.1847
11450SOL     OW35790   7.491   3.178   8.068  0.4104 -0.6840  0.0790
11450SOL    HW135791   7.441   3.188   8.149 -1.7922 -1.0410 -1.1648
11450SOL    HW235792   7.507   3.084   8.061  0.9961 -0.6095  0.2818
11451SOL     OW35793   5.440   7.892   5.562 -0.4936 -0.3950  0.6537
11451SOL    HW135794   5.397   7.962   5.512 -0.7091  0.1106  1.5297
11451SOL    HW235795   5.422   7.913   5.654  0.7428 -0.7611  1.0018
11452SOL     OW35796   3.983   0.162   7.991 -0.6904  0.4977 -0.5059
11452SOL    HW135797   3.943   0.178   8.076 -1.3589 -0.3904 -0.6405
11452SOL    HW235798   3.962   0.070   7.971  0.1062  0.4659 -1.2799
11453SOL     OW35799   7.146   4.192   6.488  0.2732 -0.5603 -0.0499
11453SOL    HW135800   7.105   4.161   6.569 -0.3907 -2.4600 -1.0524
11453SOL    HW235801   7.075   4.235   6.440  0.5242  0.0414  0.1120
11454SOL     OW35802   4.417   6.556   2.008  0.2049  0.2650  0.0362
11454SOL    HW135803   4.481   6.515   2.066  0.2870  1.0614  0.5201
11454SOL    HW235804   4.366   6.483   1.974  0.6799 -0.2842  0.4811
11455SOL     OW35805   4.175   1.086   6.398 -0.1257  0.0131 -0.4244
11455SOL    HW135806   4.214   1.162   6.354 -0.6716  0.5202 -0.0318
11455SOL    HW235807   4.086   1.082   6.364 -0.7773  0.8208  1.1447
11456SOL     OW35808   2.142   1.715   3.530 -0.3203  0.1336 -0.2612
11456SOL    HW135809   2.056   1.748   3.505 -1.2866 -2.1358 -0.2202
11456SOL    HW235810   2.196   1.793   3.540 -2.1799  1.5913 -0.9607
11457SOL     OW35811   0.080   3.347   3.984 -0.4507  0.5362 -0.1128
11457SOL    HW135812   0.042   3.330   4.070 -1.4258 -0.6805 -0.7499
11457SOL    HW235813   0.024   3.299   3.923  1.5493 -0.5767 -1.2019
11458SOL     OW35814   0.964   1.599  11.157 -0.3878  0.3280 -0.1921
11458SOL    HW135815   0.904   1.547  11.104 -0.9964  2.4627 -1.7392
11458SOL    HW235816   1.050   1.560  11.142 -0.4455  1.1878 -3.3436
11459SOL     OW35817   2.446   5.842  11.775 -0.1569 -0.5028 -0.2282
11459SOL    HW135818   2.361   5.850  11.731  0.8199 -1.4902 -2.4978
11459SOL    HW235819   2.447   5.751  11.806 -0.0459 -0.3965  0.0795
11460SOL     OW35820   3.437   2.080   0.347 -0.4522 -0.2197  0.3701
11460SOL    HW135821   3.455   2.138   0.420 -0.0184  1.5805 -1.0830
11460SOL    HW235822   3.442   1.992   0.384  0.5653  0.5962  2.3064
11461SOL     OW35823   1.548   1.132   9.056  0.3422 -0.2093 -0.4609
11461SOL    HW135824   1.611   1.063   9.033  1.8701  0.7002  0.7892
11461SOL    HW235825   1.578   1.208   9.008  0.3185  0.2770  0.2750
11462SOL     OW35826   5.112   1.781   0.620 -1.0208 -0.0958 -0.0557
11462SOL    HW135827   5.123   1.745   0.708 -1.2992  0.4838  0.2159
11462SOL    HW235828   5.144   1.871   0.625 -0.9999 -0.0682 -0.5593
11463SOL     OW35829   3.450   0.276   6.172  0.1967 -0.7227 -0.4622
11463SOL    HW135830   3.439   0.279   6.077  0.5612  0.5036 -0.4828
11463SOL    HW235831   3.537   0.313   6.187 -0.1316 -0.2784  0.3862
11464SOL     OW35832   5.558   1.112   1.853 -0.2147  0.5577  0.1684
11464SOL    HW135833   5.563   1.138   1.761 -0.8269 -0.0916 -0.0487
11464SOL    HW235834   5.466   1.093   1.868  0.0471 -0.3649  0.6381
11465SOL     OW35835   0.790   7.310   6.104 -0.7959 -0.3783  0.0919
11465SOL    HW135836   0.735   7.276   6.174  0.6412 -1.5050  0.7178
11465SOL    HW235837   0.841   7.379   6.145  0.7490 -1.6879  0.4548
11466SOL     OW35838   6.705   5.340   8.581 -0.1578 -0.2579  0.0863
11466SOL    HW135839   6.650   5.267   8.608  1.4009 -1.8209 -0.7495
11466SOL    HW235840   6.767   5.352   8.652 -1.2534  1.2385  0.8503
11467SOL     OW35841   5.554   6.575  11.328  0.1502  0.1533  0.3849
11467SOL    HW135842   5.634   6.591  11.378  0.0063  0.5367  0.4936
11467SOL    HW235843   5.486   6.562  11.394  0.4182 -1.8680  0.3410
11468SOL     OW35844   7.648   1.826  11.326 -0.7084 -0.7100 -0.2443
11468SOL    HW135845   7.737   1.842  11.356  0.0263  0.1864 -2.6330
11468SOL    HW235846   7.658   1.775  11.246 -2.2825  0.0590 -0.9851
11469SOL     OW35847   0.253   0.241   9.424 -0.4605 -0.2862 -0.2025
11469SOL    HW135848   0.245   0.334   9.448  1.7551  0.0160 -0.4397
11469SOL    HW235849   0.308   0.203   9.493 -0.2559 -1.1211 -0.8073
11470SOL     OW35850   7.531   5.614   3.346 -0.0102 -0.5847 -0.1845
11470SOL    HW135851   7.495   5.703   3.342 -0.2476 -0.5244  2.0251
11470SOL    HW235852   7.460   5.562   3.382 -0.0436 -1.8270 -1.9264
11471SOL     OW35853   6.136   6.408   7.082 -0.3579 -0.6194  0.5297
11471SOL    HW135854   6.183   6.484   7.115  0.5519 -0.4240 -1.1261
11471SOL    HW235855   6.043   6.430   7.094 -0.0963  0.5695  0.4541
11472SOL     OW35856   5.267   6.116   0.278 -0.1357  0.6064  0.0869
11472SOL    HW135857   5.327   6.142   0.348  0.9045 -1.0642 -0.1271
11472SOL    HW235858   5.188   6.166   0.295 -0.7401 -1.2441  3.7590
11473SOL     OW35859   7.802   6.697   8.553 -0.2824  0.8875 -0.1319
11473SOL    HW135860   7.879   6.728   8.505  0.6021 -1.6243 -0.4864
11473SOL    HW235861   7.813   6.733   8.641  1.0092  1.0219 -0.3267
11474SOL     OW35862   2.940   3.650   1.558 -0.1421  0.0315 -0.0054
11474SOL    HW135863   3.015   3.661   1.616  0.9055 -0.4376 -1.2469
11474SOL    HW235864   2.949   3.718   1.492  0.0680 -0.9770 -1.0590
11475SOL     OW35865   2.116   2.893  11.615 -0.0941 -0.2353 -0.2750
11475SOL    HW135866   2.041   2.889  11.675 -0.2137  0.2893 -0.3782
11475SOL    HW235867   2.085   2.949  11.543  0.5595  0.3970 -0.0799
11476SOL     OW35868   3.154   1.642   9.995  0.3074  0.2745 -0.1042
11476SOL    HW135869   3.092   1.712   9.972  0.9466 -0.3391 -4.8216
11476SOL    HW235870   3.240   1.681   9.978  0.8852 -0.5404  0.9063
11477SOL     OW35871   7.794   1.608   9.167  0.0437  0.1303  0.2015
11477SOL    HW135872   7.755   1.693   9.147 -0.6354 -0.2421 -0.0960
11477SOL    HW235873   7.888   1.621   9.157 -0.0182  0.9563  0.5765
11478SOL     OW35874   0.524   2.036   7.206  0.7399  0.3272  0.7031
11478SOL    HW135875   0.564   2.123   7.198  1.1535  0.2264  1.4903
11478SOL    HW235876   0.592   1.983   7.249  0.4796 -0.3740  0.2603
11479SOL     OW35877   0.383   0.370   1.329 -0.1039 -0.5678 -0.1395
11479SOL    HW135878   0.323   0.340   1.260  0.1340  0.5232 -0.8525
11479SOL    HW235879   0.452   0.304   1.331  0.5836  0.0322 -1.8978
11480SOL     OW35880   0.506   5.955   0.947  0.3883  0.0193 -0.0426
11480SOL    HW135881   0.484   5.960   1.040  1.3941  0.4117  0.1823
11480SOL    HW235882   0.441   5.894   0.911  0.1568 -0.3533  0.9616
11481SOL     OW35883   1.960   6.686   5.662  0.2714 -0.2136  1.0289
11481SOL    HW135884   1.992   6.727   5.742 -0.8339  0.3564  1.1927
11481SOL    HW235885   1.940   6.596   5.689 -2.3904  0.5862  2.0756
11482SOL     OW35886   7.669   7.895   0.177  0.4154  0.3152 -0.1046
11482SOL    HW135887   7.713   7.919   0.096  1.2559 -1.4015 -0.2102
11482SOL    HW235888   7.581   7.870   0.151 -0.5808  3.3042  0.0444
11483SOL     OW35889   5.274   0.130   7.206 -0.3456 -0.3944 -0.6338
11483SOL    HW135890   5.218   0.153   7.280 -0.3166 -0.2727 -0.6493
11483SOL    HW235891   5.264   0.204   7.145 -0.0763 -0.3183 -0.5846
11484SOL     OW35892   7.673   1.429   3.725  0.4508  0.0206  0.1121
11484SOL    HW135893   7.735   1.496   3.696 -0.8593  1.2197 -0.0523
11484SOL    HW235894   7.709   1.397   3.807  0.3354  2.1051  1.0367
11485SOL     OW35895   0.292   1.699   8.621  0.4241 -0.6401  0.4777
11485SOL    HW135896   0.252   1.785   8.607  0.6273 -0.4631  0.9510
11485SOL    HW235897   0.244   1.640   8.563  1.7648  0.1994 -1.5815
11486SOL     OW35898   1.543   6.315   1.173 -0.0954 -0.1093  0.6705
11486SOL    HW135899   1.583   6.303   1.087 -1.1081  0.8485  0.0316
11486SOL    HW235900   1.545   6.229   1.213 -0.6798 -0.8476 -0.8050
11487SOL     OW35901   1.396   2.356   6.172  0.6042  0.3569 -0.1043
11487SOL    HW135902   1.487   2.386   6.174  0.5739  0.4230  0.4249
11487SOL    HW235903   1.367   2.359   6.264  0.8869 -2.1659  0.1302
11488SOL     OW35904   7.588   2.101   0.744 -0.0680  0.3213  0.2246
11488SOL    HW135905   7.501   2.095   0.705 -0.2378 -1.5392  0.7653
11488SOL    HW235906   7.590   2.031   0.809  1.6604  0.6521  0.5911
11489SOL     OW35907   1.249   4.755   2.561  0.1707  0.6647 -0.6182
11489SOL    HW135908   1.221   4.845   2.548 -1.3943  0.3276  0.2075
11489SOL    HW235909   1.249   4.717   2.473 -0.1691  1.1773 -0.8404
11490SOL     OW35910   5.899   2.514   6.630  0.3669 -0.9292  0.3852
11490SOL    HW135911   5.966   2.483   6.691  1.4659  1.0875  0.3032
11490SOL    HW235912   5.860   2.590   6.673  0.3784 -0.1505 -0.9305
11491SOL     OW35913   7.152   2.946   6.389 -0.5310 -0.3294  0.7265
11491SOL    HW135914   7.083   2.925   6.452 -1.2693 -1.1072 -0.3074
11491SOL    HW235915   7.119   2.914   6.305  1.4472 -1.5211  0.3395
11492SOL     OW35916   2.412   0.364   7.319 -0.2243  0.2362  0.3702
11492SOL    HW135917   2.393   0.327   7.406  0.4215 -1.4607 -0.1650
11492SOL    HW235918   2.504   0.343   7.304 -0.6829 -0.7667 -1.2905
11493SOL     OW35919   3.568   2.563   5.777 -0.0592 -0.1006  0.8070
11493SOL    HW135920   3.554   2.658   5.782  1.9331  0.3402 -0.5837
11493SOL    HW235921   3.633   2.553   5.708 -0.4194 -2.5322  0.7474
11494SOL     OW35922   5.640   0.346   6.406  0.1409  0.1929  0.1814
11494SOL    HW135923   5.681   0.271   6.362  0.7659 -0.3800  1.6851
11494SOL    HW235924   5.597   0.308   6.483 -0.5730  1.2277  0.3057
11495SOL     OW35925   7.813   6.981   7.259 -0.2814  0.1888  0.5947
11495SOL    HW135926   7.857   6.938   7.186  0.9056  2.0238  0.1520
11495SOL    HW235927   7.720   6.980   7.236 -0.5607 -3.2709  1.2800
11496SOL     OW35928   1.839   2.773   6.099  0.4214 -0.2604  0.1768
11496SOL    HW135929   1.928   2.737   6.094  0.4454 -0.0777 -0.8571
11496SOL    HW235930   1.849   2.851   6.154  1.2455  0.6930 -1.2548
11497SOL     OW35931   5.551   2.611   0.352 -0.1029  0.1119  0.7809
11497SOL    HW135932   5.471   2.663   0.343  0.2539  0.5155 -0.3053
11497SOL    HW235933   5.520   2.522   0.366 -0.7470  0.3502  0.9248
11498SOL     OW35934   5.417   2.153  10.485 -0.6704  0.0586  0.0571
11498SOL    HW135935   5.455   2.187  10.566 -0.2883 -1.6250  0.6293
11498SOL    HW235936   5.323   2.171  10.493 -0.5710  0.3315  0.6641
11499SOL     OW35937   7.139   4.138   3.303 -0.0825 -0.3128 -0.5650
11499SOL    HW135938   7.193   4.060   3.297 -1.3916 -1.3436  0.3291
11499SOL    HW235939   7.200   4.211   3.295  1.4851 -1.4110  0.8432
11500SOL     OW35940   3.672   3.312   9.238  0.2366 -0.2310 -0.1086
11500SOL    HW135941   3.595   3.261   9.265  1.8402 -2.3038  0.7629
11500SOL    HW235942   3.637   3.376   9.176 -2.0437 -1.7892 -0.5498
11501SOL     OW35943   6.154   1.445   4.132 -0.0373 -0.2238 -0.2825
11501SOL    HW135944   6.169   1.383   4.060 -0.6892 -0.2563 -0.3954
11501SOL    HW235945   6.156   1.391   4.211  0.1173 -0.2768 -0.3231
11502SOL     OW35946   5.336   2.541   2.459 -0.1051 -0.2538  0.1713
11502SOL    HW135947   5.284   2.461   2.449 -0.1438 -0.1999 -0.0557
11502SOL    HW235948   5.310   2.596   2.385  2.3768 -1.3559 -1.6775
11503SOL     OW35949   5.075   1.056   6.782 -0.0363 -0.4957  0.2779
11503SOL    HW135950   5.075   1.149   6.757  0.3629 -0.6211 -0.1925
11503SOL    HW235951   4.996   1.020   6.742 -0.0921 -0.3983  0.3017
11504SOL     OW35952   7.256   2.149  11.197 -0.0093  0.4583 -0.4550
11504SOL    HW135953   7.202   2.073  11.175  0.8967 -0.3483  0.0303
11504SOL    HW235954   7.209   2.192  11.268 -0.5127  0.3467 -0.7142
11505SOL     OW35955   5.740   6.566   4.170  0.2021 -0.6070 -0.2790
11505SOL    HW135956   5.675   6.511   4.126  1.0797 -1.1438 -0.9493
11505SOL    HW235957   5.790   6.505   4.225  0.5228 -0.3167 -0.2442
11506SOL     OW35958   3.986   2.463   8.382 -0.2615  0.0507 -0.2891
11506SOL    HW135959   4.028   2.509   8.455 -0.5522 -0.8182  0.4493
11506SOL    HW235960   3.911   2.518   8.360 -0.0800  0.4047 -0.0403
11507SOL     OW35961   4.080   2.681   9.157  0.3150 -0.1797 -0.4745
11507SOL    HW135962   4.080   2.603   9.212 -1.0001  0.0892 -0.0573
11507SOL    HW235963   4.001   2.673   9.104  1.8347 -0.7114 -2.7933
11508SOL     OW35964   2.675   1.323   5.890 -0.3177 -0.7449 -0.4226
11508SOL    HW135965   2.626   1.243   5.905 -0.5338 -0.1580  2.5721
11508SOL    HW235966   2.610   1.393   5.895  0.2980 -0.1959  0.2824
11509SOL     OW35967   1.167   2.563  11.869 -0.1980  0.1328  0.0828
11509SOL    HW135968   1.124   2.598  11.791  0.2499  0.0737 -0.1938
11509SOL    HW235969   1.167   2.636  11.931 -1.2376 -0.0481  0.3074
11510SOL     OW35970   3.569   7.805   3.174  0.0275  0.2823 -0.2420
11510SOL    HW135971   3.653   7.768   3.145  0.9452  1.4620  0.8115
11510SOL    HW235972   3.517   7.810   3.094  1.2843  0.3472 -1.0940
11511SOL     OW35973   7.034   7.082   3.632 -0.3651  0.1469  0.6261
11511SOL    HW135974   7.037   7.001   3.582 -0.9537 -0.7737  2.0150
11511SOL    HW235975   7.067   7.149   3.572  2.8868 -1.5397  0.2696
11512SOL     OW35976   7.953   2.890  12.268  0.0310 -0.2399 -0.2992
11512SOL    HW135977   7.956   2.931  12.355  1.4783 -0.4062 -0.2493
11512SOL    HW235978   8.037   2.911  12.229 -0.8061  0.2765 -1.8981
11513SOL     OW35979   0.251   2.487   4.850  0.5873  0.0906 -0.0734
11513SOL    HW135980   0.304   2.494   4.930  0.0135 -2.7786  0.6811
11513SOL    HW235981   0.289   2.412   4.803  0.6223  1.4291 -2.3235
11514SOL     OW35982   5.943   4.181   5.983 -0.0954 -0.3565 -0.0609
11514SOL    HW135983   5.936   4.180   6.078 -4.0176  1.1825 -0.1803
11514SOL    HW235984   5.924   4.091   5.957  2.1493 -1.0698  0.5493
11515SOL     OW35985   3.174   2.768  11.597  1.1748  0.0281  0.2128
11515SOL    HW135986   3.215   2.682  11.604  0.7249 -0.1340  0.8663
11515SOL    HW235987   3.192   2.811  11.681 -1.6979 -0.8028  1.3754
11516SOL     OW35988   0.207   7.898   8.341 -0.2077  0.4918 -0.2007
11516SOL    HW135989   0.155   7.847   8.403  1.6094 -1.3668 -0.1146
11516SOL    HW235990   0.187   7.859   8.255  1.3555 -0.6040 -0.1084
11517SOL     OW35991   1.642   1.041  11.829  0.2940  0.2778 -0.4309
11517SOL    HW135992   1.722   1.086  11.802  1.4128  0.0321  2.1833
11517SOL    HW235993   1.582   1.111  11.855  1.3117  0.4130  1.7393
11518SOL     OW35994   7.847   1.052   4.345 -0.3310  0.2000 -0.0356
11518SOL    HW135995   7.918   1.115   4.346 -0.8596  0.8052  0.6899
11518SOL    HW235996   7.794   1.074   4.421  1.1906 -3.1506  2.2387
11519SOL     OW35997   5.618   7.352   0.108 -0.6778  0.2792  0.4625
11519SOL    HW135998   5.664   7.274   0.140  2.0568  1.2737 -0.6999
11519SOL    HW235999   5.557   7.319   0.043 -0.4487 -1.0010  0.8674
11520SOL     OW36000   6.063   5.098   2.356 -0.3340  0.5308 -0.3539
11520SOL    HW136001   6.058   5.057   2.443  2.0238  1.0907  0.1128
11520SOL    HW236002   6.020   5.183   2.368 -0.4517  0.4052  0.1361
11521SOL     OW36003   5.843   3.955   5.613 -0.2445 -0.2094 -0.0770
11521SOL    HW136004   5.813   3.871   5.577 -1.3599  0.0239  0.2607
11521SOL    HW236005   5.837   4.016   5.540  1.4790 -0.5996 -0.5830
11522SOL     OW36006   5.049   5.555   3.324 -0.2257 -0.2752  0.2546
11522SOL    HW136007   5.141   5.530   3.312 -0.2136  0.3764 -1.2454
11522SOL    HW236008   5.038   5.634   3.271 -1.4419  0.1761  1.1284
11523SOL     OW36009   4.615   7.335   1.820  0.0393 -0.1870 -0.3007
11523SOL    HW136010   4.579   7.374   1.740  1.2963 -1.5716 -1.5873
11523SOL    HW236011   4.537   7.306   1.869 -0.7211 -0.2748 -1.5194
11524SOL     OW36012   2.426   5.591  11.026 -0.3349 -0.0802  0.1695
11524SOL    HW136013   2.338   5.553  11.032 -0.5137 -0.0445 -1.6791
11524SOL    HW236014   2.480   5.535  11.081 -1.4436 -0.2929  1.0824
11525SOL     OW36015   6.066   4.312   0.737 -0.3695 -0.0330 -0.7318
11525SOL    HW136016   6.077   4.353   0.652  0.9689 -0.5234 -0.8170
11525SOL    HW236017   6.139   4.344   0.790  0.0636 -1.4014 -0.4524
11526SOL     OW36018   3.313   4.389   6.596 -0.0871 -0.4790 -0.0501
11526SOL    HW136019   3.331   4.375   6.689  0.9063 -0.5453 -0.2393
11526SOL    HW236020   3.315   4.301   6.558  2.3379 -0.2592 -0.5925
11527SOL     OW36021   6.259   2.388   0.953 -0.4439  0.7931 -0.1523
11527SOL    HW136022   6.215   2.422   0.875  0.7705  1.8036 -0.4330
11527SOL    HW236023   6.325   2.327   0.918 -2.5276 -1.9383  0.3321
11528SOL     OW36024   2.417   7.203   3.719  0.1121  0.7669 -0.1356
11528SOL    HW136025   2.331   7.204   3.761 -0.0852  2.4549 -0.5338
11528SOL    HW236026   2.431   7.293   3.690  1.0431  0.0643 -2.0392
11529SOL     OW36027   3.520   4.017   3.690 -0.0435  0.1570  0.0537
11529SOL    HW136028   3.594   4.010   3.750  0.8348  0.2463 -0.9966
11529SOL    HW236029   3.557   4.002   3.603 -1.2891  0.0157 -0.4871
11530SOL     OW36030   2.248   4.822   8.571 -0.1677  0.6129  0.4365
11530SOL    HW136031   2.191   4.751   8.540 -1.1455  1.9635 -1.0437
11530SOL    HW236032   2.336   4.788   8.559 -0.6058 -0.2573 -0.5870
11531SOL     OW36033   2.708   4.802   4.081  0.0647 -0.3831  0.2529
11531SOL    HW136034   2.681   4.711   4.089 -0.2573 -0.3643 -0.5403
11531SOL    HW236035   2.803   4.798   4.072  0.2375 -0.5223  1.9142
11532SOL     OW36036   5.579   7.816   9.831 -0.2608 -0.4599 -0.2605
11532SOL    HW136037   5.516   7.815   9.904  0.2249 -1.2400  0.1486
11532SOL    HW236038   5.597   7.724   9.814  1.2264 -0.2361  0.0194
11533SOL     OW36039   4.957   7.493  11.767 -0.0880  0.2970  0.1953
11533SOL    HW136040   5.018   7.514  11.838  0.7627 -0.4130 -0.3019
11533SOL    HW236041   4.994   7.538  11.690 -1.8412  2.3749  0.4686
11534SOL     OW36042   1.359   5.602  11.020  0.3006 -0.2318  0.3079
11534SOL    HW136043   1.281   5.627  10.970  0.1704 -0.1346  0.5622
11534SOL    HW236044   1.325   5.559  11.098  0.4781  0.8469  0.9866
11535SOL     OW36045   4.159   7.262   3.886  0.2294  0.0919  0.1339
11535SOL    HW136046   4.078   7.298   3.923  0.6790  2.2555 -0.8057
11535SOL    HW236047   4.130   7.207   3.813 -0.4121  0.4581  0.1092
11536SOL     OW36048   4.377   0.173   1.591 -0.2185  0.4017 -0.1457
11536SOL    HW136049   4.282   0.167   1.583 -0.1622  1.0667 -1.5617
11536SOL    HW236050   4.409   0.185   1.502  1.2772 -0.6058  0.2013
11537SOL     OW36051   1.436   7.898  10.537  0.2260  0.2868 -0.2011
11537SOL    HW136052   1.376   7.914  10.609  0.4634 -0.4491  0.1778
11537SOL    HW236053   1.455   7.984  10.500  2.3131  1.0569  2.4001
11538SOL     OW36054   4.335   1.433  11.475 -0.1513  0.5756 -0.0330
11538SOL    HW136055   4.245   1.400  11.477  0.3223 -0.8291 -0.7664
11538SOL    HW236056   4.328   1.518  11.432 -0.9069 -0.3566 -1.8872
11539SOL     OW36057   0.381   2.662   2.055  0.2607 -0.4825 -0.2661
11539SOL    HW136058   0.312   2.598   2.039 -2.6203  2.4713 -0.6524
11539SOL    HW236059   0.412   2.643   2.143 -1.2425 -1.7105  0.0273
11540SOL     OW36060   3.586   0.513  11.146  0.3463  0.6163  0.2967
11540SOL    HW136061   3.543   0.547  11.225  0.9977 -0.9333  1.3735
11540SOL    HW236062   3.584   0.418  11.156  0.6992  0.3838 -1.4387
11541SOL     OW36063   6.615   7.382   9.024  0.3495 -0.5683  0.2832
11541SOL    HW136064   6.674   7.449   9.059 -0.2508 -0.4475  1.0955
11541SOL    HW236065   6.593   7.328   9.100 -1.3235 -0.0564  0.1864
11542SOL     OW36066   7.040   5.159  11.254  0.4539  0.0874  0.1861
11542SOL    HW136067   7.078   5.085  11.301 -1.2252 -0.6865  0.4114
11542SOL    HW236068   7.006   5.216  11.323 -0.6593 -0.2960 -0.0246
11543SOL     OW36069   5.015   2.310   1.489  0.3619  0.5129 -0.3264
11543SOL    HW136070   5.016   2.216   1.509 -1.1401  0.5953  0.2153
11543SOL    HW236071   5.104   2.339   1.510  0.6063 -0.6216  0.3295
11544SOL     OW36072   6.879   5.612  12.300 -0.6079  0.3914 -1.2057
11544SOL    HW136073   6.843   5.602  12.212 -0.4088  1.5263 -1.4277
11544SOL    HW236074   6.974   5.620  12.287 -0.5429  0.2393 -0.8558
11545SOL     OW36075   1.985   4.745   3.030  0.7096  0.0550  0.0905
11545SOL    HW136076   1.959   4.708   3.114  2.7559 -0.9979  0.3334
11545SOL    HW236077   2.080   4.753   3.036  0.7501  1.3814 -1.5794
11546SOL     OW36078   1.750   0.574   7.952 -0.0717  0.1369 -0.2141
11546SOL    HW136079   1.720   0.585   7.862  1.9486 -0.0660 -0.9510
11546SOL    HW236080   1.702   0.498   7.984 -0.1391 -0.3482 -1.4209
11547SOL     OW36081   0.914   2.340   5.582 -0.3303  0.4845  0.2843
11547SOL    HW136082   0.843   2.286   5.617  0.0837  0.3875  0.9892
11547SOL    HW236083   0.972   2.278   5.539 -1.9091  0.8150 -2.5193
11548SOL     OW36084   2.827   4.351   1.115  0.4194 -0.6979  0.0806
11548SOL    HW136085   2.809   4.405   1.192 -1.5298 -0.0689 -0.7782
11548SOL    HW236086   2.815   4.261   1.146 -0.4656 -0.4482  0.4996
11549SOL     OW36087   4.316   7.823   7.302 -0.3548 -0.5211 -0.3884
11549SOL    HW136088   4.303   7.833   7.207  0.0856  1.8758 -0.2526
11549SOL    HW236089   4.408   7.843   7.316 -0.4546 -0.6979  0.5926
11550SOL     OW36090   0.485   4.692   0.944  0.3054 -0.0377  0.4419
11550SOL    HW136091   0.511   4.703   1.035  0.4931  1.7514  0.1971
11550SOL    HW236092   0.535   4.759   0.897 -0.5955 -0.2342 -0.8280
11551SOL     OW36093   5.154   1.965   9.192  0.1892  0.1980  0.1019
11551SOL    HW136094   5.124   1.875   9.197 -0.6098  0.3218 -1.6972
11551SOL    HW236095   5.109   2.010   9.263 -0.3475 -0.5663  0.2497
11552SOL     OW36096   3.559   5.045  12.361 -0.3610 -0.2623  0.0222
11552SOL    HW136097   3.604   5.062  12.444  0.6697 -2.8285  0.0724
11552SOL    HW236098   3.470   5.020  12.387 -0.0590 -0.9963  0.3497
11553SOL     OW36099   0.122   3.316   1.674 -0.0212  0.0090 -0.2669
11553SOL    HW136100   0.043   3.284   1.718  0.5873 -0.8561  0.2231
11553SOL    HW236101   0.191   3.309   1.740  0.3219  1.5527 -0.4153
11554SOL     OW36102   2.563   4.503   9.692 -0.1260 -0.0042  0.3884
11554SOL    HW136103   2.637   4.563   9.700  1.3225 -1.6508 -0.0564
11554SOL    HW236104   2.528   4.519   9.604  0.4450 -0.0341  0.1541
11555SOL     OW36105   5.276   4.366   0.897  0.3616 -0.2358  0.5441
11555SOL    HW136106   5.306   4.452   0.925  0.1646 -0.7888  2.6015
11555SOL    HW236107   5.337   4.340   0.829 -1.0502  2.5676 -2.0614
11556SOL     OW36108   0.335   0.655   4.444  0.1333 -0.1643 -0.0865
11556SOL    HW136109   0.341   0.720   4.514  0.4351  0.8097 -0.9983
11556SOL    HW236110   0.285   0.698   4.375  0.7971 -0.6913 -0.9218
11557SOL     OW36111   5.721   0.133  11.796 -0.3161  0.0390 -0.7458
11557SOL    HW136112   5.742   0.143  11.889  0.3989  0.8334 -0.9702
11557SOL    HW236113   5.736   0.041  11.778  0.1605  0.0029 -0.2097
11558SOL     OW36114   2.748   3.643   0.264 -0.4194  0.1553  0.4481
11558SOL    HW136115   2.822   3.703   0.258 -0.1239 -0.2876 -0.7008
11558SOL    HW236116   2.786   3.556   0.249 -1.2865  0.0171 -1.2078
11559SOL     OW36117   0.744   4.011   3.150  0.2918 -0.0465  0.6550
11559SOL    HW136118   0.823   4.041   3.107 -1.0833  0.8732 -1.3918
11559SOL    HW236119   0.737   4.065   3.229  0.0815  2.1561 -0.7860
11560SOL     OW36120   2.907   0.508  10.236  0.6299 -0.0675 -0.6072
11560SOL    HW136121   2.951   0.458  10.305 -0.5523 -0.8570 -0.3884
11560SOL    HW236122   2.885   0.592  10.278 -0.9574 -0.9008  0.3495
11561SOL     OW36123   0.637   4.912   0.850  0.0539  0.2135  0.0371
11561SOL    HW136124   0.585   4.993   0.848  1.3670  1.1081  0.8082
11561SOL    HW236125   0.728   4.941   0.844  0.5079 -1.3231 -1.2292
11562SOL     OW36126   0.915   4.640   2.860  0.1354 -0.5125 -0.2615
11562SOL    HW136127   0.861   4.570   2.895 -0.5164  0.9776  1.9209
11562SOL    HW236128   1.002   4.623   2.895 -0.4817  0.8862  2.1942
11563SOL     OW36129   5.694   5.458   2.137 -0.0493 -0.1964 -0.1712
11563SOL    HW136130   5.681   5.439   2.044  0.7669  2.1032 -0.8299
11563SOL    HW236131   5.607   5.483   2.168 -0.3204 -0.9406 -0.3011
11564SOL     OW36132   7.758   2.418   2.797  0.1351  0.3636 -0.4727
11564SOL    HW136133   7.701   2.453   2.729  1.9322  2.4942 -1.0294
11564SOL    HW236134   7.829   2.375   2.749  0.8992  1.0071  0.0426
11565SOL     OW36135   3.910   1.649  10.990 -0.1843 -0.5778 -0.0234
11565SOL    HW136136   3.989   1.608  11.025 -0.0658 -0.4317 -0.1213
11565SOL    HW236137   3.880   1.706  11.061  0.2866  0.0353 -0.3040
11566SOL     OW36138   4.321   5.827   2.893 -0.1202 -0.4006 -1.3098
11566SOL    HW136139   4.354   5.812   2.804  0.6401  0.4232 -1.1879
11566SOL    HW236140   4.400   5.840   2.946 -0.5463 -1.3598 -0.4100
11567SOL     OW36141   4.461   0.546   6.141  0.0901 -0.2604  0.0273
11567SOL    HW136142   4.448   0.552   6.235  1.8859  1.2940  0.2332
11567SOL    HW236143   4.455   0.636   6.110 -0.2035 -0.7178 -1.3227
11568SOL     OW36144   1.916   4.871   0.744  0.6706 -0.3382 -0.4788
11568SOL    HW136145   1.958   4.818   0.677 -0.3060 -1.6763 -0.0638
11568SOL    HW236146   1.823   4.854   0.734  0.5537 -1.6261  2.0166
11569SOL     OW36147   4.592   1.815   4.254  0.2411 -0.7176 -0.0245
11569SOL    HW136148   4.598   1.797   4.348 -0.9305  0.5784  0.3310
11569SOL    HW236149   4.586   1.729   4.214  3.1281 -1.4593  0.8355
11570SOL     OW36150   2.476   6.074   1.866  0.7262 -0.3783  0.2336
11570SOL    HW136151   2.508   5.984   1.872  0.7955 -0.3423  0.4087
11570SOL    HW236152   2.413   6.072   1.794  0.3525 -0.6812  0.5602
11571SOL     OW36153   6.813   4.141   0.826 -0.4663 -0.0422  0.2812
11571SOL    HW136154   6.735   4.108   0.871 -0.9021  1.2257  0.5125
11571SOL    HW236155   6.824   4.084   0.750  0.5011 -2.5027  2.1138
11572SOL     OW36156   4.842   0.422   2.707 -0.5748  0.4228 -0.5019
11572SOL    HW136157   4.932   0.410   2.738 -0.3562 -1.2805 -1.6887
11572SOL    HW236158   4.847   0.496   2.646 -0.0766  0.5941 -0.2586
11573SOL     OW36159   4.748   3.540   3.945 -0.0752  0.1084 -0.3995
11573SOL    HW136160   4.753   3.536   4.040 -0.0309 -0.7985 -0.4306
11573SOL    HW236161   4.839   3.551   3.916 -0.1311  0.7812 -0.3251
11574SOL     OW36162   0.858   4.408   9.124 -0.4089 -0.1733 -0.1635
11574SOL    HW136163   0.806   4.369   9.054  0.0210  0.4609 -0.8521
11574SOL    HW236164   0.920   4.339   9.149 -1.3947 -0.8468  0.4974
11575SOL     OW36165   7.697   2.663   4.235 -1.0303  0.8300  0.5197
11575SOL    HW136166   7.617   2.681   4.285 -0.6974  1.0521  0.9906
11575SOL    HW236167   7.755   2.737   4.256 -0.5498  0.4601  0.5128
11576SOL     OW36168   1.136   4.252  11.788 -0.4685 -0.0406 -0.1630
11576SOL    HW136169   1.087   4.177  11.753 -0.1278 -1.2360  1.7896
11576SOL    HW236170   1.070   4.305  11.832 -0.4805 -0.0344 -0.1891
11577SOL     OW36171   6.517   2.467   5.157 -0.3737 -0.0828 -0.1448
11577SOL    HW136172   6.579   2.502   5.220  0.2384 -0.7784 -0.3522
11577SOL    HW236173   6.569   2.449   5.079 -0.1105 -3.7385  0.7185
11578SOL     OW36174   4.499   5.491   7.607 -0.1401 -0.5408 -0.5842
11578SOL    HW136175   4.521   5.581   7.633 -1.0161 -0.5100  0.1328
11578SOL    HW236176   4.577   5.440   7.628  0.5155  0.1134 -1.3759
11579SOL     OW36177   5.317   3.251   3.818 -1.0068  0.2451 -0.4594
11579SOL    HW136178   5.293   3.319   3.880 -0.5001  0.3784 -0.4053
11579SOL    HW236179   5.342   3.177   3.873 -1.0643  0.1846 -0.5136
11580SOL     OW36180   5.691   0.372   4.604  0.7084 -0.0208  0.5296
11580SOL    HW136181   5.720   0.384   4.694  0.0682  0.0510  0.7281
11580SOL    HW236182   5.617   0.311   4.610  1.5780 -1.1910 -0.0894
11581SOL     OW36183   1.218   6.362   7.579  0.8905  0.0698  0.2997
11581SOL    HW136184   1.186   6.299   7.644  2.9638 -1.0513  0.3296
11581SOL    HW236185   1.205   6.447   7.620 -2.6901 -0.1948 -0.0488
11582SOL     OW36186   1.441   1.525   2.214  0.1193  0.1285  0.2220
11582SOL    HW136187   1.364   1.551   2.162 -0.7105 -2.2015  0.2000
11582SOL    HW236188   1.514   1.536   2.153 -0.2559  1.5541 -0.0269
11583SOL     OW36189   6.610   1.171  11.038 -0.4099 -0.4453  0.2749
11583SOL    HW136190   6.700   1.195  11.060 -1.0383  2.0368  0.3530
11583SOL    HW236191   6.562   1.177  11.121 -1.3997  2.1790 -0.4042
11584SOL     OW36192   1.154   4.219  10.705 -0.4028  0.6780  0.6896
11584SOL    HW136193   1.085   4.275  10.741 -0.4442 -0.2634  2.1122
11584SOL    HW236194   1.206   4.279  10.651 -1.6797  1.6327  0.4650
11585SOL     OW36195   2.818   6.096   3.666 -0.1087 -0.1472  0.3173
11585SOL    HW136196   2.726   6.104   3.693  0.2913  1.9571  1.3019
11585SOL    HW236197   2.868   6.116   3.746  1.1695  1.3488 -0.7902
11586SOL     OW36198   2.956   1.988   0.775 -0.4292 -0.6212 -0.5475
11586SOL    HW136199   3.050   1.999   0.762 -0.3205  1.5789  1.3130
11586SOL    HW236200   2.949   1.921   0.843 -0.0925  0.1344  0.2550
11587SOL     OW36201   5.502   1.395   7.323 -0.3043  0.1266 -0.0907
11587SOL    HW136202   5.563   1.438   7.384  0.4781  1.3097 -1.6156
11587SOL    HW236203   5.415   1.411   7.360  0.1691  0.3279  0.9837
11588SOL     OW36204   4.327   0.823   5.513  0.7324  0.6398 -0.2847
11588SOL    HW136205   4.273   0.892   5.475 -1.0572 -0.4576  0.1351
11588SOL    HW236206   4.384   0.795   5.441  0.3570  1.4736 -0.9213
11589SOL     OW36207   0.181   6.672   6.523  0.1228 -0.0602  0.8860
11589SOL    HW136208   0.161   6.758   6.486 -0.9058 -0.8905 -0.5917
11589SOL    HW236209   0.170   6.683   6.618  0.2698  1.4910  0.7400
11590SOL     OW36210   7.632   4.584   5.766 -0.5966  0.2986 -0.1753
11590SOL    HW136211   7.676   4.662   5.798 -0.6106  0.5214 -0.6786
11590SOL    HW236212   7.665   4.573   5.677  1.7375 -2.0348  0.8598
11591SOL     OW36213   7.824   4.433   1.709 -0.1597  0.3910 -0.4810
11591SOL    HW136214   7.896   4.496   1.708 -0.8253  1.2806  1.5542
11591SOL    HW236215   7.840   4.380   1.786 -1.1589 -0.0330 -0.5535
11592SOL     OW36216   2.830   2.772   7.521 -0.5944 -0.5143 -0.1527
11592SOL    HW136217   2.785   2.856   7.516  1.8388  0.9233  0.3631
11592SOL    HW236218   2.897   2.785   7.589  1.5559 -1.9676 -1.8730
11593SOL     OW36219   0.506   3.284  11.924 -0.2626 -0.0277  0.2408
11593SOL    HW136220   0.508   3.201  11.877 -1.4276 -1.1381  2.0503
11593SOL    HW236221   0.495   3.350  11.855  0.4936 -1.3587 -1.2149
11594SOL     OW36222   0.499   0.985   7.784  0.2953  0.3780  0.0388
11594SOL    HW136223   0.432   1.051   7.767  0.2873  0.3520 -0.0313
11594SOL    HW236224   0.561   0.995   7.712 -0.7590 -1.0525 -1.1145
11595SOL     OW36225   4.326   7.025   3.946 -0.1770  0.3316  0.7505
11595SOL    HW136226   4.276   7.098   3.911  0.9623  1.1225  0.7145
11595SOL    HW236227   4.398   7.066   3.994 -0.4119 -0.7548  2.0853
11596SOL     OW36228   1.347   6.555  11.750  0.5511 -0.0579 -0.6377
11596SOL    HW136229   1.431   6.520  11.779  0.4074  0.1345  0.0296
11596SOL    HW236230   1.292   6.555  11.829 -0.5594 -1.5412 -1.3645
11597SOL     OW36231   7.313   6.781  11.967  0.5020 -0.1444 -0.2210
11597SOL    HW136232   7.244   6.846  11.978 -0.8367 -1.8834  3.4308
11597SOL    HW236233   7.275   6.715  11.910 -0.1442 -0.1580  0.2154
11598SOL     OW36234   1.283   4.769  12.290  0.3777 -0.4060 -0.1014
11598SOL    HW136235   1.284   4.857  12.329  0.7768 -0.1243 -0.7407
11598SOL    HW236236   1.252   4.713  12.361  0.4765  0.1937  0.4324
11599SOL     OW36237   3.300   0.435  12.080  0.0209  0.4252 -0.2751
11599SOL    HW136238   3.211   0.469  12.081  0.1874  0.9631 -1.5665
11599SOL    HW236239   3.354   0.511  12.103  0.0954 -0.1415  1.5057
11600SOL     OW36240   1.814   6.373   5.208 -0.3955  0.4406  0.0370
11600SOL    HW136241   1.907   6.394   5.202 -0.0321 -0.9327  0.6116
11600SOL    HW236242   1.778   6.442   5.265  0.1172  1.3551 -0.7183
11601SOL     OW36243   2.820   5.843   5.628 -0.6344 -0.2133  0.2733
11601SOL    HW136244   2.779   5.894   5.558  3.3422 -0.4115 -2.5346
11601SOL    HW236245   2.800   5.752   5.607 -1.4579 -0.1946  0.9053
11602SOL     OW36246   2.824   3.646   3.487  0.3271  0.2990  0.6172
11602SOL    HW136247   2.768   3.600   3.424  0.4513  0.1649  0.6035
11602SOL    HW236248   2.843   3.730   3.445  1.6618 -0.3841 -0.2180
11603SOL     OW36249   7.734   5.293   0.375  0.2160 -0.2473  0.2367
11603SOL    HW136250   7.681   5.308   0.297 -1.1651 -2.2286  0.7193
11603SOL    HW236251   7.819   5.332   0.355 -0.4746  0.2825 -1.7933
11604SOL     OW36252   1.555   1.759   8.349  0.0319 -0.8030  0.8401
11604SOL    HW136253   1.529   1.788   8.437 -0.3235  0.7202  0.2599
11604SOL    HW236254   1.632   1.812   8.328 -0.7439 -0.0778 -0.3226
11605SOL     OW36255   0.745   0.053   1.743  0.3035 -0.4468 -0.2788
11605SOL    HW136256   0.811   0.081   1.807 -1.2714  1.5533  0.5898
11605SOL    HW236257   0.749  -0.042   1.746  1.6468 -0.4019  1.3576
11606SOL     OW36258   1.163   2.781   5.954  0.5424 -0.0883  0.2916
11606SOL    HW136259   1.127   2.843   5.891  0.1129 -2.2031 -1.7165
11606SOL    HW236260   1.245   2.752   5.914 -0.1983 -2.1710  0.1626
11607SOL     OW36261   1.438   6.812   6.183 -0.5769 -0.2719  0.2869
11607SOL    HW136262   1.372   6.826   6.251  0.2845  2.0846  0.7297
11607SOL    HW236263   1.389   6.818   6.101 -1.9266 -4.7333  0.5052
11608SOL     OW36264   7.962   0.402   4.421  0.0465  0.6053 -0.1426
11608SOL    HW136265   7.871   0.431   4.415 -0.7847 -1.7673 -0.2475
11608SOL    HW236266   7.975   0.380   4.513  0.2297  0.1170 -0.2807
11609SOL     OW36267   4.122   3.687   0.066  0.4030  0.2139 -0.1036
11609SOL    HW136268   4.117   3.598   0.099 -0.7188  0.1704 -0.3527
11609SOL    HW236269   4.177   3.734   0.129 -1.5886  0.1236  1.8061
11610SOL     OW36270   3.980   1.486   1.343 -0.1916 -0.0639 -1.1029
11610SOL    HW136271   4.072   1.474   1.363  0.2341  3.4566 -0.3452
11610SOL    HW236272   3.934   1.442   1.415  0.6712 -3.5671 -2.4849
11611SOL     OW36273   0.831   7.931   8.846  0.5272 -0.5061 -0.6292
11611SOL    HW136274   0.893   7.859   8.852  1.4949  0.2291 -1.4204
11611SOL    HW236275   0.838   7.976   8.930  2.2730  0.5005 -1.2773
11612SOL     OW36276   7.379   4.861   1.411 -0.3086  0.1624 -0.3495
11612SOL    HW136277   7.294   4.838   1.372  0.1636  0.6018 -1.7140
11612SOL    HW236278   7.374   4.955   1.425 -0.4433  0.0161  0.6036
11613SOL     OW36279   4.434   2.603   4.129 -0.6369  0.0340  0.5057
11613SOL    HW136280   4.410   2.535   4.066 -0.2025 -0.8807  1.2991
11613SOL    HW236281   4.503   2.564   4.182  0.7535  1.6563 -0.0123
11614SOL     OW36282   5.286   6.664   4.031  0.2075  0.1827 -0.5914
11614SOL    HW136283   5.335   6.593   3.990 -1.1924 -0.8186 -0.6141
11614SOL    HW236284   5.242   6.623   4.105 -0.6709  1.0168 -0.6342
11615SOL     OW36285   6.356   6.220   1.192  0.8299 -0.0455 -0.3890
11615SOL    HW136286   6.420   6.156   1.159 -0.3373 -2.0223  0.9861
11615SOL    HW236287   6.348   6.284   1.121  2.9443 -0.7274 -1.3442
11616SOL     OW36288   0.052   3.705   7.422 -0.4660 -0.5015  0.1084
11616SOL    HW136289  -0.032   3.675   7.386  0.6926 -1.5814 -1.8654
11616SOL    HW236290   0.092   3.626   7.458 -0.0971 -0.0697  0.6615
11617SOL     OW36291   7.269   4.310   2.587 -0.2397  0.1849 -0.2999
11617SOL    HW136292   7.356   4.348   2.593 -0.7007  1.0122  2.9869
11617SOL    HW236293   7.270   4.260   2.505  3.0702  0.6592 -0.6788
11618SOL     OW36294   7.601   3.434   4.643  0.5704  0.3271  0.2147
11618SOL    HW136295   7.658   3.411   4.717  0.0910  2.0778  1.1842
11618SOL    HW236296   7.646   3.398   4.566  1.8847 -0.1651  1.1740
11619SOL     OW36297   2.442   4.599   8.785  0.9220 -0.0695  0.1521
11619SOL    HW136298   2.399   4.515   8.797  0.5704  0.0338 -0.3553
11619SOL    HW236299   2.441   4.640   8.871 -1.1026  0.4541 -0.0825
11620SOL     OW36300   1.277   1.227   0.185  0.5270  0.2983  0.3064
11620SOL    HW136301   1.368   1.225   0.155  1.0266  2.1225  1.5561
11620SOL    HW236302   1.234   1.157   0.135  3.0998 -2.2306  1.3592
11621SOL     OW36303   2.252   7.682  10.191  0.5612 -0.3148 -0.2270
11621SOL    HW136304   2.339   7.649  10.210  0.8468  0.9788  0.8282
11621SOL    HW236305   2.205   7.675  10.274 -0.0698 -0.1949 -0.5686
11622SOL     OW36306   6.526   6.140   3.694  0.2303  0.2399  0.2414
11622SOL    HW136307   6.538   6.141   3.599 -2.6928  3.2411 -0.2808
11622SOL    HW236308   6.452   6.081   3.708  0.8538 -0.4415  0.7289
11623SOL     OW36309   3.621   6.974   8.154  0.4949 -0.1599 -0.1323
11623SOL    HW136310   3.711   6.970   8.187  0.8780 -0.1539 -1.1425
11623SOL    HW236311   3.623   7.043   8.088 -0.3214  0.0195  0.0264
11624SOL     OW36312   1.887   5.096   2.603 -0.2947  0.8577  0.2445
11624SOL    HW136313   1.813   5.040   2.582  0.2612 -0.5950  1.9018
11624SOL    HW236314   1.853   5.185   2.593 -2.1401  0.2319  0.5134
11625SOL     OW36315   0.791   2.741   4.551 -0.4392  0.2272 -0.8848
11625SOL    HW136316   0.699   2.721   4.536 -0.7735  0.0298  1.1816
11625SOL    HW236317   0.836   2.657   4.541 -0.7248 -0.0077 -0.2226
11626SOL     OW36318   3.386   2.557   1.533 -0.4035 -0.0525  0.2346
11626SOL    HW136319   3.372   2.529   1.442  2.2760 -1.1033  0.0312
11626SOL    HW236320   3.417   2.477   1.577 -0.0395  0.8410  1.6456
11627SOL     OW36321   4.480   5.741   7.104 -0.4254 -0.3060 -0.5288
11627SOL    HW136322   4.491   5.714   7.013 -0.0727 -1.5682 -0.1369
11627SOL    HW236323   4.385   5.749   7.115 -0.4891 -0.5391 -0.8973
11628SOL     OW36324   1.839   3.216  10.746  0.4315 -0.0705 -0.4338
11628SOL    HW136325   1.751   3.233  10.780  0.0263 -2.0903 -0.3263
11628SOL    HW236326   1.824   3.188  10.655  0.9543 -0.5203 -0.3819
11629SOL     OW36327   2.735   2.840   6.053  0.1957  0.2208  0.4869
11629SOL    HW136328   2.784   2.874   6.128  1.4195  2.6343 -1.2641
11629SOL    HW236329   2.682   2.915   6.024  0.2841 -0.4145 -1.4529
11630SOL     OW36330   7.583   2.805  10.038  0.0770  0.4516  0.2434
11630SOL    HW136331   7.646   2.822  10.108  0.5582  2.1279 -0.5552
11630SOL    HW236332   7.518   2.747  10.078  1.3195 -0.1343  1.5189
11631SOL     OW36333   6.183   4.431   8.461  0.8660  0.0307 -0.3976
11631SOL    HW136334   6.201   4.482   8.381 -1.8320 -0.0894 -1.1557
11631SOL    HW236335   6.202   4.341   8.436 -1.1813 -0.1762 -1.3847
11632SOL     OW36336   4.353   5.304  11.440 -0.3209  0.1178  0.8985
11632SOL    HW136337   4.336   5.211  11.427 -1.1160  0.4966 -1.2043
11632SOL    HW236338   4.266   5.344  11.443  0.0056  0.8102  1.8864
11633SOL     OW36339   4.895   7.043   2.994 -0.0177 -0.1395 -0.4529
11633SOL    HW136340   4.829   6.976   3.010  1.3898 -1.5730 -0.4474
11633SOL    HW236341   4.979   6.998   3.002  1.1049  2.0377  1.7556
11634SOL     OW36342   2.571   7.707   5.605  0.3635  0.0608 -0.0795
11634SOL    HW136343   2.611   7.767   5.668  1.3440  0.0310 -0.6379
11634SOL    HW236344   2.615   7.623   5.621  1.2301  0.2436 -1.3135
11635SOL     OW36345   6.078   1.154   5.221  0.2939  0.7432 -0.3480
11635SOL    HW136346   6.163   1.185   5.189 -0.2613  1.6122 -1.0001
11635SOL    HW236347   6.088   1.151   5.316  0.8506  1.4541 -0.3792
11636SOL     OW36348   3.278   6.948   9.072  0.2467  0.4114 -0.1836
11636SOL    HW136349   3.286   7.013   9.002  1.0430 -0.3346 -0.7966
11636SOL    HW236350   3.363   6.903   9.074 -0.1834 -0.4064  0.4352
11637SOL     OW36351   1.660   5.321   6.891  0.4176 -0.4807 -0.2992
11637SOL    HW136352   1.594   5.373   6.845  0.4337  0.2513  0.4801
11637SOL    HW236353   1.717   5.386   6.932 -0.9889 -1.0262  2.7810
11638SOL     OW36354   5.413   3.117   4.052  0.3588  0.6297 -0.9206
11638SOL    HW136355   5.344   3.076   4.104  0.1059 -0.0275 -1.7494
11638SOL    HW236356   5.493   3.070   4.077  0.8068  2.3172  1.0841
11639SOL     OW36357   6.933   2.816   7.955  0.3128  0.4300  0.2330
11639SOL    HW136358   6.904   2.725   7.948 -0.3163  0.7354 -1.7727
11639SOL    HW236359   6.904   2.857   7.873  2.2964  1.9537  0.2046
11640SOL     OW36360   7.231   7.951   9.142 -0.1300 -0.3404  0.3485
11640SOL    HW136361   7.203   7.859   9.148  0.9931 -0.8447 -1.5023
11640SOL    HW236362   7.303   7.958   9.205  0.2069 -0.8984  0.0260
11641SOL     OW36363   0.906   6.996   4.897  0.8035  0.1959 -0.2206
11641SOL    HW136364   0.851   6.918   4.889 -0.5670  0.9104  1.5095
11641SOL    HW236365   0.944   6.990   4.984 -0.1674  1.9110  0.3794
11642SOL     OW36366   2.840   5.067   7.264  0.1757  0.3844 -0.4465
11642SOL    HW136367   2.860   5.149   7.309 -0.1990 -0.0361  0.5162
11642SOL    HW236368   2.752   5.044   7.294 -0.9304  1.0679 -2.9034
11643SOL     OW36369   5.298   4.304   4.583 -0.1682 -0.1035  0.4395
11643SOL    HW136370   5.280   4.391   4.548 -1.8980 -0.3706  0.5905
11643SOL    HW236371   5.346   4.321   4.665 -0.9507  0.7385  0.7435
11644SOL     OW36372   4.388   4.982   4.352 -0.2460 -0.4865  0.1190
11644SOL    HW136373   4.307   4.968   4.304  0.1926  1.5627 -1.3184
11644SOL    HW236374   4.359   5.002   4.441 -1.1644 -2.1206  0.2319
11645SOL     OW36375   7.325   7.957   2.924  0.2441  0.2153 -0.4530
11645SOL    HW136376   7.230   7.956   2.937  0.3830 -0.5176  0.7030
11645SOL    HW236377   7.359   8.005   3.000  0.8434 -0.2048 -0.4520
11646SOL     OW36378   2.260   6.967  11.426 -0.0814  0.7742  0.6455
11646SOL    HW136379   2.296   6.935  11.509 -0.6616  0.8823  0.9371
11646SOL    HW236380   2.264   6.891  11.368  2.1821  1.1953  0.1422
11647SOL     OW36381   7.227   4.951  11.659 -0.0571  0.4915  0.3717
11647SOL    HW136382   7.249   5.035  11.698  0.8377  0.1544  0.6268
11647SOL    HW236383   7.248   4.961  11.566  2.3096 -0.1585  0.7836
11648SOL     OW36384   5.502   7.042   8.318  0.0546  0.2599 -0.0745
11648SOL    HW136385   5.482   6.970   8.378  0.0675  0.8999  0.7110
11648SOL    HW236386   5.533   7.113   8.375 -1.7778  1.5686 -0.6071
11649SOL     OW36387   7.450   5.685   0.694  0.0694 -0.3122  0.2673
11649SOL    HW136388   7.475   5.630   0.769  0.5843 -1.2821 -0.5862
11649SOL    HW236389   7.359   5.660   0.676  0.9329 -2.5748 -1.4609
11650SOL     OW36390   6.090   1.244   0.419  0.1182  0.0040 -0.2763
11650SOL    HW136391   6.037   1.268   0.496  0.0219 -0.1022 -0.3083
11650SOL    HW236392   6.139   1.323   0.397  1.7140 -0.5262  1.1476
11651SOL     OW36393   4.085   6.581   9.589 -0.0872  0.6178 -0.3016
11651SOL    HW136394   4.042   6.606   9.671  0.4529 -0.6558  0.4052
11651SOL    HW236395   4.165   6.633   9.586 -0.9897  2.0251 -0.9671
11652SOL     OW36396   4.184   7.570  12.277 -0.0092  0.3421 -0.0155
11652SOL    HW136397   4.266   7.587  12.323 -0.5455  0.4757  0.9449
11652SOL    HW236398   4.138   7.507  12.333 -1.1901  1.4059  0.2882
11653SOL     OW36399   0.577   4.852   1.577 -0.2612 -0.8443 -0.0091
11653SOL    HW136400   0.489   4.882   1.601 -0.8107 -2.0076 -0.4962
11653SOL    HW236401   0.636   4.904   1.632 -0.9859  2.5356 -2.1556
11654SOL     OW36402   4.687   5.710   8.655  0.4190 -0.3479 -0.1387
11654SOL    HW136403   4.645   5.752   8.579  0.6089  0.4664  0.1884
11654SOL    HW236404   4.614   5.674   8.706  0.1949  0.1392 -0.1076
11655SOL     OW36405   7.171   2.563   8.630  0.0621  0.1735  0.0689
11655SOL    HW136406   7.081   2.594   8.617  1.2444  3.0511 -2.5441
11655SOL    HW236407   7.203   2.613   8.705 -0.4710 -0.9266  1.0667
11656SOL     OW36408   4.230   4.414   5.314  0.2214 -0.4277  0.9482
11656SOL    HW136409   4.277   4.403   5.232  0.3180 -0.0604  0.9522
11656SOL    HW236410   4.229   4.508   5.329 -2.3781 -0.2006 -0.1511
11657SOL     OW36411   0.350   1.747   0.996 -0.1401  0.5805 -0.0562
11657SOL    HW136412   0.345   1.710   0.908  0.6088  0.9856 -0.2748
11657SOL    HW236413   0.323   1.839   0.985 -0.1566  0.6016  0.1570
11658SOL     OW36414   3.236   0.488   7.156 -0.8259  0.3098 -0.2706
11658SOL    HW136415   3.278   0.574   7.153 -1.6964  0.7184 -1.5391
11658SOL    HW236416   3.241   0.462   7.248  0.3757  1.2448 -0.0447
11659SOL     OW36417   6.121   3.071   2.287  0.3536 -0.0860 -0.3221
11659SOL    HW136418   6.071   3.098   2.210  0.1258 -1.2720 -0.6057
11659SOL    HW236419   6.061   3.083   2.360  0.5498  0.9829 -0.3186
11660SOL     OW36420   1.967   6.182  10.975 -0.1479 -0.2706 -0.1355
11660SOL    HW136421   1.997   6.110  11.030  0.8371 -0.5551 -1.0090
11660SOL    HW236422   1.885   6.211  11.015  0.9726  0.1446  2.0015
11661SOL     OW36423   0.187   5.597   6.668 -0.2292  0.2292 -0.4657
11661SOL    HW136424   0.222   5.638   6.747  1.3094  0.0863 -1.0431
11661SOL    HW236425   0.092   5.609   6.674  0.0791  3.1765 -0.2405
11662SOL     OW36426   1.806   6.545   7.149 -0.2534 -0.3923 -0.2746
11662SOL    HW136427   1.782   6.603   7.077  0.2376  1.9214  1.3324
11662SOL    HW236428   1.726   6.537   7.201  0.4591  1.5036  1.2124
11663SOL     OW36429   5.678   0.412   7.389 -0.0193 -0.6762 -0.3084
11663SOL    HW136430   5.768   0.381   7.380  0.0218 -0.3680 -1.0478
11663SOL    HW236431   5.655   0.444   7.302 -1.1134 -1.4413 -0.3205
11664SOL     OW36432   3.983   6.344   0.198  0.2878  0.4323  0.0533
11664SOL    HW136433   3.992   6.370   0.106  0.1874  1.3844  0.3101
11664SOL    HW236434   4.067   6.367   0.237 -0.2492  1.5589  0.5668
11665SOL     OW36435   0.174   3.161  11.821 -0.7442  0.2154  0.3167
11665SOL    HW136436   0.159   3.231  11.884 -1.7667  1.0415 -0.7997
11665SOL    HW236437   0.096   3.106  11.827 -0.3282 -0.3572  0.5774
11666SOL     OW36438   6.133   6.051   1.192  0.4277 -0.0467 -0.4389
11666SOL    HW136439   6.102   6.092   1.273 -0.2350 -0.7071 -0.3490
11666SOL    HW236440   6.206   6.106   1.165  1.5966 -0.5971  1.3696
11667SOL     OW36441   6.806   2.383   9.790  0.4971 -0.3057 -0.2451
11667SOL    HW136442   6.817   2.392   9.885 -0.4430 -3.0869  0.2298
11667SOL    HW236443   6.891   2.352   9.759  0.7594  0.4601 -0.3221
11668SOL     OW36444   3.329   1.472  10.519 -0.1792 -0.0079 -0.4688
11668SOL    HW136445   3.368   1.489  10.605  1.0182 -1.1585 -0.7552
11668SOL    HW236446   3.351   1.549  10.467  0.2156  0.1204 -0.1171
11669SOL     OW36447   1.551   2.455  10.810 -0.0753 -0.9986  0.2534
11669SOL    HW136448   1.638   2.415  10.817 -0.1691 -1.0280  1.4038
11669SOL    HW236449   1.492   2.381  10.797  0.2403 -0.8495 -2.5657
11670SOL     OW36450   3.665   0.179   1.696 -0.2150  0.3451 -0.4486
11670SOL    HW136451   3.641   0.226   1.615 -2.5297 -2.7473 -1.7678
11670SOL    HW236452   3.662   0.246   1.764  0.2738  2.7828 -2.6446
11671SOL     OW36453   3.915   2.377  10.443 -0.7081  0.9582 -0.3565
11671SOL    HW136454   3.856   2.448  10.470 -0.6913  0.4792  1.0535
11671SOL    HW236455   3.935   2.331  10.525 -1.4187 -1.2197 -1.3411
11672SOL     OW36456   2.171   3.646   4.488 -0.7498 -0.2407  0.6801
11672SOL    HW136457   2.172   3.551   4.502  1.3735 -0.3678  0.0045
11672SOL    HW236458   2.124   3.681   4.564 -1.9010 -1.8418  0.7481
11673SOL     OW36459   6.058   7.616   3.817 -0.2161 -0.4307  0.3137
11673SOL    HW136460   6.133   7.584   3.868  1.3888  0.0805 -1.5919
11673SOL    HW236461   6.069   7.576   3.731 -2.3939 -0.6389  0.0890
11674SOL     OW36462   6.055   4.380   5.824  0.2633  0.3816  0.2630
11674SOL    HW136463   5.995   4.452   5.847 -0.6831  0.1350 -1.3322
11674SOL    HW236464   6.032   4.310   5.885  0.9314  1.2662  1.5779
11675SOL     OW36465   7.946   3.279  10.211  0.3841 -0.6093 -0.0253
11675SOL    HW136466   7.951   3.188  10.181 -0.5806 -1.1364  1.3216
11675SOL    HW236467   7.853   3.299  10.212  0.4667 -0.2171  1.4290
11676SOL     OW36468   5.425   2.690  10.200  0.2460  0.9393  0.1553
11676SOL    HW136469   5.516   2.661  10.203  0.0659  0.3285 -0.2165
11676SOL    HW236470   5.395   2.667  10.112 -0.5870  0.1324  0.6326
11677SOL     OW36471   4.956   4.439  11.915 -0.5821  0.3133 -0.2515
11677SOL    HW136472   4.909   4.422  11.996 -1.4003 -0.1738 -0.8177
11677SOL    HW236473   4.991   4.528  11.926  1.3927 -0.6083  1.6025
11678SOL     OW36474   7.455   0.858   3.674 -0.1566 -0.4794 -0.5874
11678SOL    HW136475   7.365   0.869   3.641 -0.4033 -0.2165  0.1384
11678SOL    HW236476   7.493   0.946   3.670  0.4878 -0.8035 -2.0289
11679SOL     OW36477   2.701   5.132   3.530  0.4171  0.4794 -0.3082
11679SOL    HW136478   2.783   5.180   3.517 -1.1175  2.9298 -1.7427
11679SOL    HW236479   2.658   5.136   3.445  0.0334 -3.4006 -0.4645
11680SOL     OW36480   7.039   1.684   0.574 -0.8561  0.4518 -0.3468
11680SOL    HW136481   7.115   1.627   0.560 -1.2445 -0.2133  0.1956
11680SOL    HW236482   7.063   1.766   0.531 -0.0467  0.0768 -0.6421
11681SOL     OW36483   0.103   3.009   9.152  0.5850  0.6154 -0.2237
11681SOL    HW136484   0.164   2.984   9.083 -0.6469 -1.5813 -0.6106
11681SOL    HW236485   0.017   3.003   9.111 -0.0635  0.8508  1.0604
11682SOL     OW36486   7.926   3.356   1.212 -0.1250  0.5174  0.7661
11682SOL    HW136487   7.843   3.313   1.233 -0.0303 -0.2476 -0.3576
11682SOL    HW236488   7.987   3.324   1.279 -0.1759 -0.7698  0.2345
11683SOL     OW36489   5.110   0.248   2.157  0.3563 -0.0439  0.2326
11683SOL    HW136490   5.183   0.187   2.144 -0.4138 -1.3650  1.7897
11683SOL    HW236491   5.150   0.327   2.193  0.9813 -0.9536  1.5934
11684SOL     OW36492   4.902   3.416   4.277 -0.6362  0.8388  0.5114
11684SOL    HW136493   4.909   3.346   4.341 -0.3485  1.6099  1.3428
11684SOL    HW236494   4.810   3.444   4.282 -0.8539  0.2387 -0.1268
11685SOL     OW36495   4.968   5.094   6.879  0.2448  0.4178  0.4348
11685SOL    HW136496   4.994   5.117   6.968  0.8273  1.1382  0.0896
11685SOL    HW236497   5.024   5.020   6.856  0.0120  0.1547  0.7021
11686SOL     OW36498   2.544   5.055   6.892  0.1242 -0.2440  0.2121
11686SOL    HW136499   2.504   4.973   6.921  0.0612  0.4868  2.3000
11686SOL    HW236500   2.472   5.117   6.886  0.4805  0.2435  0.8613
11687SOL     OW36501   4.440   1.805   4.562 -0.2948 -0.0853 -0.3147
11687SOL    HW136502   4.535   1.811   4.552  0.1356  2.0068  3.2690
11687SOL    HW236503   4.427   1.742   4.632 -1.3221  1.2506  0.7524
11688SOL     OW36504   6.249   2.245   8.941  0.0123 -0.6157  0.5660
11688SOL    HW136505   6.333   2.243   8.987  0.0191 -1.6923  0.5377
11688SOL    HW236506   6.199   2.314   8.985  1.1934  0.6122  0.0414
11689SOL     OW36507   0.914   6.180   9.822  0.2141 -0.3847 -0.0796
11689SOL    HW136508   0.822   6.206   9.818 -0.0967 -1.5621 -1.2439
11689SOL    HW236509   0.930   6.160   9.914 -0.4611  0.5599  0.2614
11690SOL     OW36510   5.546   1.374  11.679  0.4067 -0.1502  0.1573
11690SOL    HW136511   5.619   1.436  11.685  0.7530 -0.5036 -0.2914
11690SOL    HW236512   5.472   1.420  11.718  1.2318 -0.3812  2.0849
11691SOL     OW36513   6.233   3.309   5.588 -0.0316 -0.0189  0.5135
11691SOL    HW136514   6.300   3.346   5.531  0.8675 -0.3249  1.3397
11691SOL    HW236515   6.223   3.219   5.558 -1.2578  0.4791 -0.6429
11692SOL     OW36516   4.554   5.271   4.085 -0.4504 -0.3316  0.4728
11692SOL    HW136517   4.499   5.338   4.126  0.1567  0.6739 -0.3358
11692SOL    HW236518   4.643   5.307   4.088 -0.0828 -1.1833  0.1966
11693SOL     OW36519   2.037   6.927   2.338 -0.3960  0.3332  0.2192
11693SOL    HW136520   1.990   6.969   2.266  0.2083  0.4383 -0.1203
11693SOL    HW236521   1.980   6.855   2.365 -0.3794 -0.0706 -0.7512
11694SOL     OW36522   3.118   0.465   8.594  0.1589 -0.4963 -0.2521
11694SOL    HW136523   3.182   0.427   8.654  0.2494 -1.3370 -0.8652
11694SOL    HW236524   3.171   0.508   8.526  0.1195 -1.7999 -1.1507
11695SOL     OW36525   4.770   5.531   9.449 -0.3160 -0.3069 -0.5515
11695SOL    HW136526   4.722   5.566   9.524 -0.1346 -1.2472  0.0236
11695SOL    HW236527   4.826   5.603   9.421 -0.9849  0.3202 -0.2963
11696SOL     OW36528   6.619   6.832  12.221  0.3079 -0.1924  0.1064
11696SOL    HW136529   6.588   6.859  12.135 -2.3789  3.0598  1.7991
11696SOL    HW236530   6.540   6.836  12.276  1.9684 -1.7030  2.8070
11697SOL     OW36531   4.360   0.441   7.220 -0.2362 -0.1884  0.1037
11697SOL    HW136532   4.364   0.383   7.296  2.2467  0.9105  0.9231
11697SOL    HW236533   4.442   0.425   7.174 -0.5277  1.0312 -0.8904
11698SOL     OW36534   7.326   5.102   0.351 -0.1177  0.2598 -0.7158
11698SOL    HW136535   7.361   5.143   0.272  1.0291  0.9527  0.1209
11698SOL    HW236536   7.399   5.050   0.386 -0.3845  0.5134  0.2529
11699SOL     OW36537   0.159   4.862   2.277 -0.3095 -0.0751  0.6334
11699SOL    HW136538   0.116   4.779   2.297 -0.1487  0.2660  2.5992
11699SOL    HW236539   0.088   4.926   2.273 -0.2627 -0.0039  0.9416
11700SOL     OW36540   2.748   4.023   7.200  0.3870 -0.7478 -0.2325
11700SOL    HW136541   2.776   3.936   7.173 -1.4186 -1.1545 -0.9839
11700SOL    HW236542   2.687   4.051   7.132  0.7235  1.0142  0.1287
11701SOL     OW36543   5.715   2.187   2.403 -0.3256  0.0310 -0.0884
11701SOL    HW136544   5.649   2.247   2.367 -2.1004 -1.7344  0.0711
11701SOL    HW236545   5.793   2.202   2.349 -1.2998  1.1272 -1.2455
11702SOL     OW36546   7.793   5.100   8.466  0.4861  0.0593  0.0099
11702SOL    HW136547   7.746   5.142   8.538 -0.1913 -1.3974  0.4575
11702SOL    HW236548   7.823   5.172   8.411 -1.2960  1.0975  0.3309
11703SOL     OW36549   7.044   7.077   2.832  0.2321  0.1506  0.6996
11703SOL    HW136550   7.081   7.061   2.919  0.2118  0.7332  0.8227
11703SOL    HW236551   6.951   7.096   2.848  0.6638  2.4954  0.8229
11704SOL     OW36552   1.696   1.271   1.183  0.0194  0.3200 -0.4311
11704SOL    HW136553   1.675   1.218   1.260 -0.9635  1.8289  0.3764
11704SOL    HW236554   1.611   1.299   1.149  0.4236 -0.3549 -2.1468
11705SOL     OW36555   0.857   2.576   8.473 -0.2768 -0.5378 -0.2781
11705SOL    HW136556   0.883   2.506   8.413  1.3024  0.2651 -0.5569
11705SOL    HW236557   0.818   2.643   8.416  0.0796 -0.3124 -0.2568
11706SOL     OW36558   3.522   1.555   6.001 -0.3994 -0.4747  0.8140
11706SOL    HW136559   3.446   1.497   5.986 -0.6193  0.0867 -0.3301
11706SOL    HW236560   3.597   1.495   6.004 -0.8689 -1.0373  1.9376
11707SOL     OW36561   1.481   5.475  11.990 -0.0835 -0.6134  0.3295
11707SOL    HW136562   1.500   5.569  11.982  1.8876 -0.8854  1.1607
11707SOL    HW236563   1.450   5.465  12.080  0.7335 -0.8899  0.5873
11708SOL     OW36564   5.635   2.684  12.359  0.0393 -0.5085 -0.0181
11708SOL    HW136565   5.679   2.727  12.432 -0.3228  1.1597 -0.7301
11708SOL    HW236566   5.617   2.596  12.390  0.8592 -0.1744  1.4972
11709SOL     OW36567   7.368   2.713   5.172  0.4689  0.0891  0.1715
11709SOL    HW136568   7.323   2.629   5.187 -0.1957  0.5649  0.9081
11709SOL    HW236569   7.444   2.710   5.229  0.4127  0.0119  0.2439
11710SOL     OW36570   6.285   1.484   0.448 -0.4460 -0.6079  0.8289
11710SOL    HW136571   6.348   1.545   0.409 -0.2221  0.1156  2.2545
11710SOL    HW236572   6.199   1.520   0.424 -0.3243 -0.8222  0.0456
11711SOL     OW36573   0.671   0.174   1.500 -0.3136 -0.3913 -0.3292
11711SOL    HW136574   0.619   0.247   1.534 -0.0841 -0.2526 -0.2736
11711SOL    HW236575   0.695   0.123   1.577 -0.6058 -0.6141 -0.3840
11712SOL     OW36576   5.682   6.768   7.749  0.4677  0.3568  0.2670
11712SOL    HW136577   5.592   6.799   7.750  1.2075  2.7969 -0.6914
11712SOL    HW236578   5.721   6.804   7.829  0.5294 -1.0604  0.9097
11713SOL     OW36579   4.440   7.218   1.334 -0.5619 -0.2925 -0.1379
11713SOL    HW136580   4.390   7.211   1.416  2.6098  1.0390  2.0992
11713SOL    HW236581   4.406   7.297   1.292 -0.1699  0.7855  1.5002
11714SOL     OW36582   3.092   2.983   1.516 -0.2805 -0.3657 -0.0474
11714SOL    HW136583   3.106   3.075   1.493  1.1006 -0.1248  1.5679
11714SOL    HW236584   3.023   2.953   1.456 -0.6314  1.6623 -0.7189
11715SOL     OW36585   4.216   3.027   6.093  0.2881 -0.6809 -0.1110
11715SOL    HW136586   4.227   3.093   6.161 -0.5635 -0.2036 -0.4278
11715SOL    HW236587   4.130   2.989   6.110  0.2398 -0.8322 -0.6820
11716SOL     OW36588   0.844   5.144   1.980  0.4979  0.6159 -0.5235
11716SOL    HW136589   0.808   5.125   2.067  0.1566 -1.7426 -1.1272
11716SOL    HW236590   0.815   5.234   1.962 -3.8532 -0.5043 -0.3034
11717SOL     OW36591   4.397   5.295   5.360 -0.2040  0.4488  0.1748
11717SOL    HW136592   4.459   5.225   5.339 -1.8276 -1.3638  1.1301
11717SOL    HW236593   4.357   5.318   5.276  1.1217  1.0701 -0.3200
11718SOL     OW36594   2.418   4.993   3.017  0.5993  0.5112 -0.2695
11718SOL    HW136595   2.483   4.936   3.056 -0.3302 -0.1641  0.3376
11718SOL    HW236596   2.423   5.074   3.067 -0.1017 -0.0989  0.8179
11719SOL     OW36597   2.762   4.465   6.350 -0.4144 -0.4639 -0.9820
11719SOL    HW136598   2.724   4.512   6.276  0.0796  0.1226 -0.8679
11719SOL    HW236599   2.808   4.391   6.309 -0.2846 -0.2394 -1.2497
11720SOL     OW36600   7.876   3.329   5.805 -0.7871 -0.0323 -0.1490
11720SOL    HW136601   7.950   3.280   5.840 -1.0722 -0.2697  0.1304
11720SOL    HW236602   7.878   3.311   5.711  1.6858  2.8535 -0.8069
11721SOL     OW36603   1.606   1.216  10.256  0.5279  0.3020  0.3142
11721SOL    HW136604   1.627   1.302  10.219 -1.0417  1.0787  1.1305
11721SOL    HW236605   1.538   1.181  10.198  1.8245 -0.8653 -0.5807
11722SOL     OW36606   6.361   6.681   5.395 -0.9028 -0.1178  0.6255
11722SOL    HW136607   6.287   6.668   5.335  0.4134 -0.7733 -0.9244
11722SOL    HW236608   6.433   6.707   5.339  0.8596 -2.4359  1.6596
11723SOL     OW36609   3.754   7.945   8.909  0.0394 -0.2649 -0.0067
11723SOL    HW136610   3.767   8.019   8.968 -0.5108 -0.8623  0.8932
11723SOL    HW236611   3.714   7.983   8.831 -2.2758  0.1255  1.2956
11724SOL     OW36612   4.094   6.428   4.711  0.2624 -0.1669  0.0255
11724SOL    HW136613   4.109   6.350   4.764  1.6135  0.7987  1.1227
11724SOL    HW236614   4.178   6.474   4.711 -0.4756  1.2648 -0.6488
11725SOL     OW36615   3.474   3.103   1.828  0.0829 -0.0470  0.1957
11725SOL    HW136616   3.495   3.194   1.847 -1.0546  0.2755  0.0022
11725SOL    HW236617   3.474   3.060   1.913 -0.4238  0.3818  0.4233
11726SOL     OW36618   0.522   5.590  12.239  0.1865  0.2150  0.5794
11726SOL    HW136619   0.473   5.610  12.318 -1.3907 -1.4268  0.0740
11726SOL    HW236620   0.470   5.628  12.168  0.3972 -0.3028  0.1432
11727SOL     OW36621   2.589   7.827   2.730 -0.4436 -0.1733 -0.4569
11727SOL    HW136622   2.578   7.763   2.660 -1.0472 -1.0004  0.3601
11727SOL    HW236623   2.634   7.901   2.689  2.4325 -2.0180 -0.9062
11728SOL     OW36624   3.406   5.889   6.616 -0.1230 -0.2329  0.7152
11728SOL    HW136625   3.474   5.948   6.648  0.5075 -0.3307 -0.3701
11728SOL    HW236626   3.345   5.945   6.569  0.7898 -0.4643 -0.8275
11729SOL     OW36627   0.266   6.775   5.894  0.4110 -0.3778  0.2578
11729SOL    HW136628   0.262   6.844   5.828 -2.3554  0.0432  0.7260
11729SOL    HW236629   0.235   6.697   5.849 -2.7127  0.1700  1.1764
11730SOL     OW36630   4.828   4.343  11.246 -0.2081 -0.7148  0.3317
11730SOL    HW136631   4.829   4.273  11.312 -0.3109 -0.3901  0.6879
11730SOL    HW236632   4.895   4.319  11.183  0.2206 -0.7923  0.8157
11731SOL     OW36633   2.704   6.938   4.885 -0.1472  0.8305  0.0197
11731SOL    HW136634   2.676   6.903   4.800  1.2479 -0.7414  0.1409
11731SOL    HW236635   2.630   6.991   4.915 -1.6657 -0.5647 -1.0741
11732SOL     OW36636   2.291   4.387   3.985 -0.2095  0.5584  0.0768
11732SOL    HW136637   2.303   4.435   4.067 -0.1678  2.4501 -0.9737
11732SOL    HW236638   2.360   4.419   3.927  0.0943 -1.1331 -0.5487
11733SOL     OW36639   6.396   1.057   0.068  0.0462  0.1755 -0.7028
11733SOL    HW136640   6.447   0.988   0.027  0.1884 -0.2325  0.1431
11733SOL    HW236641   6.360   1.017   0.148 -1.0895  0.6329 -0.9577
11734SOL     OW36642   3.841   7.281   6.055 -0.0796  0.0317 -0.7471
11734SOL    HW136643   3.795   7.276   5.972  0.6771  2.2045 -1.3762
11734SOL    HW236644   3.919   7.334   6.037  1.4604 -1.5325  0.8056
11735SOL     OW36645   1.326   1.068   4.819  0.0893  0.1355  0.2927
11735SOL    HW136646   1.310   1.080   4.912 -0.6544 -0.1980  0.2247
11735SOL    HW236647   1.381   0.990   4.814  0.5387  0.4401  0.4748
11736SOL     OW36648   6.922   5.460   0.635 -0.5574 -0.4786  0.5720
11736SOL    HW136649   7.013   5.449   0.660 -0.6225  0.2718  1.1776
11736SOL    HW236650   6.901   5.551   0.658 -0.8328  0.0532 -1.5749
11737SOL     OW36651   1.651   5.921   9.187  0.6407  0.2754  0.6003
11737SOL    HW136652   1.617   6.006   9.215 -0.6574  0.1065 -0.3987
11737SOL    HW236653   1.646   5.923   9.091  0.3815 -1.0165  0.5682
11738SOL     OW36654   0.127   1.858  11.595 -0.3053 -0.3371 -0.4243
11738SOL    HW136655   0.139   1.880  11.502 -0.1727 -1.7640 -0.7675
11738SOL    HW236656   0.216   1.852  11.629 -0.3519  0.0590 -0.2274
11739SOL     OW36657   6.621   4.685   1.982 -0.1113  0.3109  0.6806
11739SOL    HW136658   6.717   4.686   1.988 -0.1726  0.2142  2.0523
11739SOL    HW236659   6.603   4.641   1.899  1.0207 -0.9665  1.0673
11740SOL     OW36660   2.337   7.653   2.049 -0.0168  0.0088  0.1525
11740SOL    HW136661   2.287   7.735   2.044  0.2497  0.1574 -0.0639
11740SOL    HW236662   2.335   7.630   2.142 -0.5887 -0.0485  0.1305
11741SOL     OW36663   0.502   2.233   9.273 -0.1564 -0.4133  0.2318
11741SOL    HW136664   0.454   2.315   9.259  0.3856 -0.2574 -0.7848
11741SOL    HW236665   0.582   2.260   9.318 -0.9599 -0.6671  1.8802
11742SOL     OW36666   6.083   2.599   6.003  0.1377 -0.0342 -0.0806
11742SOL    HW136667   6.053   2.581   5.914 -3.6452 -0.2445  1.0475
11742SOL    HW236668   6.076   2.694   6.011 -1.1214 -0.1532  0.4257
11743SOL     OW36669   4.399   7.092   7.588  0.4235  1.1763  0.2617
11743SOL    HW136670   4.447   7.154   7.642  1.0886 -0.4218  1.5937
11743SOL    HW236671   4.363   7.029   7.650 -0.1928  0.1985 -1.0374
11744SOL     OW36672   4.100   7.973   4.101 -0.1616  0.3454 -0.6549
11744SOL    HW136673   4.179   7.919   4.093 -0.9392 -1.2316  1.4510
11744SOL    HW236674   4.028   7.916   4.077 -1.0979 -0.0222  2.4974
11745SOL     OW36675   5.119   6.914   3.692 -0.3395 -0.6005  0.1603
11745SOL    HW136676   5.144   7.007   3.692  0.1925 -0.7176  1.3816
11745SOL    HW236677   5.036   6.912   3.644 -0.8701  0.6711  0.9525
11746SOL     OW36678   0.149   1.488   8.188 -0.1179 -0.6425 -0.4193
11746SOL    HW136679   0.095   1.465   8.263  0.6173 -3.0652 -0.5239
11746SOL    HW236680   0.232   1.517   8.226 -0.8742  1.5815 -0.2981
11747SOL     OW36681   1.985   3.829   1.224 -0.1469  0.0604 -0.3297
11747SOL    HW136682   2.030   3.762   1.275  0.2033 -0.1609 -0.9179
11747SOL    HW236683   2.041   3.843   1.148 -1.5479 -0.9707 -1.6174
11748SOL     OW36684   2.151   2.731  10.806 -0.3410  0.1985 -0.0038
11748SOL    HW136685   2.147   2.826  10.816 -0.6431  0.2837 -0.8223
11748SOL    HW236686   2.216   2.717  10.737 -1.0632 -0.1137 -0.6426
11749SOL     OW36687   1.637   7.295   7.563  0.4364  0.2220 -0.5266
11749SOL    HW136688   1.611   7.375   7.610  0.1185  0.2682 -0.7781
11749SOL    HW236689   1.696   7.326   7.495  3.8719 -0.1880  2.0149
11750SOL     OW36690   6.167   3.539   2.216 -0.4559  0.1861  0.2254
11750SOL    HW136691   6.082   3.498   2.199 -0.3727  0.5203 -1.0631
11750SOL    HW236692   6.230   3.487   2.166  0.1278 -0.1198  1.2527
11751SOL     OW36693   7.419   5.116   1.939  0.1581 -0.3554 -0.2917
11751SOL    HW136694   7.427   5.051   1.870 -0.4185  0.9163 -1.5991
11751SOL    HW236695   7.383   5.193   1.896 -0.3386  0.4455  1.4557
11752SOL     OW36696   6.238   0.044   0.244 -0.4280 -0.0999 -0.5135
11752SOL    HW136697   6.195  -0.040   0.229 -1.0955  0.0359  0.5385
11752SOL    HW236698   6.323   0.021   0.280 -1.1591 -0.3328  1.1502
11753SOL     OW36699   6.875   3.405   2.521 -0.2436  0.2987 -0.2239
11753SOL    HW136700   6.802   3.347   2.541  0.5679 -0.0771  1.8872
11753SOL    HW236701   6.850   3.490   2.556 -0.1019  0.4290 -0.4345
11754SOL     OW36702   0.648   3.194   4.150  0.0607  0.1310 -0.6490
11754SOL    HW136703   0.738   3.182   4.181 -0.4927  0.6500  1.2875
11754SOL    HW236704   0.603   3.113   4.175 -0.5938  0.8899  0.7000
11755SOL     OW36705   2.910   3.321   4.823 -0.4957  0.3121 -0.5056
11755SOL    HW136706   2.867   3.247   4.866  0.8236  0.5004  1.2205
11755SOL    HW236707   2.996   3.327   4.864 -1.3011  4.1552  1.0271
11756SOL     OW36708   5.123   6.895   3.036  0.5893  0.2262  0.0755
11756SOL    HW136709   5.130   6.832   3.108  1.0143 -0.9448 -0.9742
11756SOL    HW236710   5.201   6.881   2.983 -0.8312 -0.6163 -1.9391
11757SOL     OW36711   5.390   4.346   2.944 -0.3646  0.2659 -0.0252
11757SOL    HW136712   5.410   4.322   3.035 -0.4306 -1.4306 -0.4175
11757SOL    HW236713   5.436   4.281   2.892  1.7699  2.6718 -1.3616
11758SOL     OW36714   0.304   4.656   0.535 -0.0660 -0.1325  0.5806
11758SOL    HW136715   0.385   4.681   0.490 -0.2838 -1.7841 -0.8361
11758SOL    HW236716   0.243   4.728   0.515  0.3288 -0.0588 -0.4528
11759SOL     OW36717   7.871   3.959   5.918  0.3975 -0.1180 -0.5623
11759SOL    HW136718   7.953   3.948   5.966 -0.4749 -2.2170  0.5417
11759SOL    HW236719   7.849   3.871   5.887 -0.4189  0.7398 -2.6335
11760SOL     OW36720   1.248   5.667  10.358 -1.0906  0.2114  0.2706
11760SOL    HW136721   1.307   5.593  10.367 -2.2623 -0.6895  0.8943
11760SOL    HW236722   1.160   5.628  10.360 -1.7316  1.6060  0.6388
11761SOL     OW36723   6.991   1.956   6.889 -0.0386  0.7874  0.3278
11761SOL    HW136724   6.939   1.984   6.814  0.3306  0.6048  0.0006
11761SOL    HW236725   7.074   2.003   6.880  0.5591 -0.3183 -0.1853
11762SOL     OW36726   1.636   1.317   7.254 -0.0975  0.1440  0.0925
11762SOL    HW136727   1.731   1.326   7.256  0.0842 -1.3534 -0.2699
11762SOL    HW236728   1.613   1.293   7.344 -0.2660  1.4895  0.4216
11763SOL     OW36729   4.082   7.066   6.109 -0.2590 -0.3389 -0.3904
11763SOL    HW136730   4.056   7.002   6.043 -0.2997  1.1448 -1.8898
11763SOL    HW236731   4.001   7.111   6.133 -0.3032 -1.1199  0.9781
11764SOL     OW36732   0.813   7.415   7.534 -0.2131 -0.1929 -0.3224
11764SOL    HW136733   0.836   7.508   7.541 -1.0531 -0.0810  1.4479
11764SOL    HW236734   0.717   7.413   7.538 -0.2795 -1.0690 -1.6256
11765SOL     OW36735   7.431   2.585   4.795  0.3488  0.2972 -0.0375
11765SOL    HW136736   7.507   2.596   4.853 -1.5090  2.0780  2.2521
11765SOL    HW236737   7.368   2.649   4.827 -1.3882  0.3279 -3.1741
11766SOL     OW36738   0.305   4.630  11.676 -0.3788 -0.1705 -0.1613
11766SOL    HW136739   0.329   4.598  11.589  2.1002  1.1075 -0.0559
11766SOL    HW236740   0.250   4.707  11.659 -0.3187 -0.2190 -0.5769
11767SOL     OW36741   2.601   4.907   1.050 -0.1603 -0.5808  0.6191
11767SOL    HW136742   2.653   4.843   1.003 -0.9160  0.0407 -1.1759
11767SOL    HW236743   2.625   4.991   1.011 -0.7994 -0.0206  1.3772
11768SOL     OW36744   7.658   5.605   5.093  0.2969  0.5461 -0.3537
11768SOL    HW136745   7.636   5.606   5.186  1.9146  2.8263  0.0884
11768SOL    HW236746   7.711   5.527   5.082  1.8682  1.3296  1.1647
11769SOL     OW36747   1.260   5.638   7.447  0.0035  0.1207 -0.1011
11769SOL    HW136748   1.175   5.609   7.411 -0.1553 -1.2352  1.2844
11769SOL    HW236749   1.250   5.732   7.459 -1.7188 -0.1612  1.0118
11770SOL     OW36750   7.485   0.816   2.918 -0.3278 -0.3206 -0.1444
11770SOL    HW136751   7.390   0.821   2.905 -0.2592 -2.4331 -2.0130
11770SOL    HW236752   7.521   0.803   2.830  1.6535 -0.2793  0.6080
11771SOL     OW36753   4.745   3.327   8.281 -0.1779  0.0682 -0.0485
11771SOL    HW136754   4.709   3.375   8.207 -0.1796 -1.1710 -0.8837
11771SOL    HW236755   4.690   3.351   8.356 -2.5441 -1.4417 -1.1797
11772SOL     OW36756   2.309   7.091   7.022  0.3182 -0.1686 -0.1614
11772SOL    HW136757   2.265   7.171   6.991 -0.5455 -0.4424  0.3157
11772SOL    HW236758   2.238   7.038   7.059  1.1406 -0.3555  1.2188
11773SOL     OW36759   6.158   6.605   5.209 -0.1508  0.1765  0.2197
11773SOL    HW136760   6.121   6.550   5.278 -0.6394 -1.5089 -1.3185
11773SOL    HW236761   6.083   6.653   5.173  0.1856  1.4704  1.1695
11774SOL     OW36762   3.096   4.240   9.636 -0.1082  0.4485  0.3246
11774SOL    HW136763   3.186   4.215   9.657 -0.4100 -0.6993  0.3032
11774SOL    HW236764   3.091   4.333   9.659  1.2492  0.6803 -0.2384
11775SOL     OW36765   7.759   3.009   2.152 -0.4650 -0.1573 -0.2863
11775SOL    HW136766   7.813   2.943   2.194 -0.0567 -1.4970 -2.7398
11775SOL    HW236767   7.673   3.000   2.194  0.0536 -0.9982  0.6458
11776SOL     OW36768   2.019   1.491   5.969  0.1564  0.2909 -0.2382
11776SOL    HW136769   1.929   1.522   5.958 -0.7406 -2.5637 -2.0889
11776SOL    HW236770   2.011   1.395   5.970  2.9831 -0.0595  1.9136
11777SOL     OW36771   1.529   5.418   0.996  0.0698  0.1130  0.2340
11777SOL    HW136772   1.449   5.374   1.023 -0.3237 -0.0803 -1.1932
11777SOL    HW236773   1.600   5.359   1.023 -0.3856 -0.7801 -0.4849
11778SOL     OW36774   5.860   1.798   3.541  0.4380 -0.4372  0.3858
11778SOL    HW136775   5.941   1.778   3.588 -1.1145 -2.9499  2.2911
11778SOL    HW236776   5.813   1.858   3.598  0.5506  0.3621 -0.3314
11779SOL     OW36777   5.361   6.459   9.031  0.8590 -0.2832  0.3317
11779SOL    HW136778   5.414   6.534   9.002  2.8283 -1.0666  1.6184
11779SOL    HW236779   5.414   6.382   9.009 -0.0732 -1.1624  1.0650
11780SOL     OW36780   4.811   3.797   4.923 -0.8619  0.1272 -0.0919
11780SOL    HW136781   4.751   3.746   4.977 -2.0143  0.4978 -0.9882
11780SOL    HW236782   4.809   3.885   4.961 -0.6711  0.0715  0.0469
11781SOL     OW36783   7.291   6.709   8.797  0.2744  0.1071  0.0908
11781SOL    HW136784   7.295   6.700   8.892  0.3925 -0.0099  0.0765
11781SOL    HW236785   7.383   6.711   8.770  0.2674 -1.4065 -0.1552
11782SOL     OW36786   0.910   2.154  10.749 -0.3200 -0.3813 -0.3034
11782SOL    HW136787   0.858   2.111  10.681 -1.5661 -1.2681  1.1651
11782SOL    HW236788   0.978   2.090  10.770 -2.1862 -1.7933  1.8966
11783SOL     OW36789   0.479   4.215   0.895 -0.0559 -0.4677 -0.0926
11783SOL    HW136790   0.400   4.265   0.878  0.3544  0.3511  0.3870
11783SOL    HW236791   0.449   4.124   0.902 -0.9212 -0.1816 -0.0624
11784SOL     OW36792   7.802   7.352   9.835 -0.3012  0.3066  0.3133
11784SOL    HW136793   7.809   7.329   9.928 -1.1360 -1.0644  0.0527
11784SOL    HW236794   7.713   7.327   9.810 -0.0697  0.6029 -0.8799
11785SOL     OW36795   4.783   7.376   2.097 -0.1236  0.3187  0.2273
11785SOL    HW136796   4.851   7.318   2.063  1.2337  0.8098  2.0171
11785SOL    HW236797   4.709   7.363   2.036  0.3675 -2.6849  0.0931
11786SOL     OW36798   7.827   0.850   6.615  0.0751  0.4159 -0.3092
11786SOL    HW136799   7.856   0.774   6.666 -2.0906  0.6384  1.3940
11786SOL    HW236800   7.906   0.904   6.607  1.4947 -1.6137 -0.9337
11787SOL     OW36801   2.882   3.062   7.429  0.5676  0.0231  0.1801
11787SOL    HW136802   2.920   3.057   7.341  0.7915 -0.3353  0.2939
11787SOL    HW236803   2.939   3.123   7.476 -0.4780  1.4733 -0.3761
11788SOL     OW36804   6.488   2.076   3.748  0.2835  0.3386  0.0525
11788SOL    HW136805   6.451   1.989   3.765  1.0407  0.3131  1.7803
11788SOL    HW236806   6.560   2.060   3.688 -0.3201 -0.0637 -0.5779
11789SOL     OW36807   7.102   3.498   3.295  0.4800 -0.0546 -0.2135
11789SOL    HW136808   7.006   3.490   3.292  0.5297 -0.7508 -0.0474
11789SOL    HW236809   7.128   3.506   3.203  0.3099 -0.5094 -0.3040
11790SOL     OW36810   3.271   2.901   7.873 -0.7138  0.0728 -0.1647
11790SOL    HW136811   3.366   2.898   7.864 -0.5693 -0.1204  1.3101
11790SOL    HW236812   3.250   2.994   7.876 -0.4919  0.1121  0.2145
11791SOL     OW36813   1.511   2.538  11.594  0.0475 -0.4416  0.2590
11791SOL    HW136814   1.495   2.630  11.572  2.3169  0.6948  2.7236
11791SOL    HW236815   1.606   2.533  11.605 -0.0251 -3.1095  0.2300
11792SOL     OW36816   4.016   1.891   1.585  0.1640  0.3585  0.5650
11792SOL    HW136817   4.093   1.834   1.575 -0.0965  0.1420 -0.3413
11792SOL    HW236818   4.024   1.927   1.673  0.5080 -0.8319  1.0401
11793SOL     OW36819   1.824   0.198   4.063  0.4555  0.5728 -0.0721
11793SOL    HW136820   1.795   0.289   4.057 -0.7180  0.2415  0.2301
11793SOL    HW236821   1.859   0.190   4.152 -0.8210  0.3726  0.4355
11794SOL     OW36822   0.770   6.389   5.272  0.6349  0.1725 -0.4197
11794SOL    HW136823   0.680   6.399   5.302  0.6454 -1.7120  0.3712
11794SOL    HW236824   0.763   6.375   5.178  0.1927  1.0933 -0.5251
11795SOL     OW36825   2.288   7.261   3.130  0.2779 -0.1977  0.1898
11795SOL    HW136826   2.330   7.178   3.110 -0.2305 -0.1471 -1.2048
11795SOL    HW236827   2.219   7.270   3.064  1.5145  2.1921 -0.9074
11796SOL     OW36828   1.600   1.877  10.161 -0.1318 -0.2065  0.1868
11796SOL    HW136829   1.566   1.962  10.131 -0.5487  0.0251  1.2645
11796SOL    HW236830   1.599   1.822  10.083  0.0811  0.7544 -0.5178
11797SOL     OW36831   3.069   0.037   2.846 -0.3326 -0.2986 -0.0041
11797SOL    HW136832   3.101   0.123   2.819 -0.9938  0.1382  0.5554
11797SOL    HW236833   3.121   0.014   2.923  1.7557 -1.6767 -1.7263
11798SOL     OW36834   6.437   7.393   2.904  0.4710  0.2028  0.3954
11798SOL    HW136835   6.521   7.428   2.934  0.6332  1.7287 -1.6449
11798SOL    HW236836   6.442   7.397   2.809 -2.1013  0.8164  0.2160
11799SOL     OW36837   2.044   1.038   2.094  0.4386 -0.0041  0.2992
11799SOL    HW136838   2.086   1.029   2.008  0.1418  1.1086  0.0281
11799SOL    HW236839   1.961   0.991   2.085 -0.1020  1.0402 -0.3975
11800SOL     OW36840   2.118   1.410  11.387  0.0673  0.1957 -0.0055
11800SOL    HW136841   2.081   1.330  11.425 -1.1626  1.2765  1.1955
11800SOL    HW236842   2.060   1.480  11.418  1.5321  1.6446 -0.3938
11801SOL     OW36843   2.470   6.047   9.930  0.3554 -0.1470 -0.7254
11801SOL    HW136844   2.413   5.990   9.879  0.2049 -0.5830 -0.0859
11801SOL    HW236845   2.512   6.104   9.866  0.1160 -0.6378 -1.3184
11802SOL     OW36846   2.736   6.261  10.847 -0.2359 -0.1352 -0.1321
11802SOL    HW136847   2.829   6.283  10.835  0.1329 -1.0371  0.8781
11802SOL    HW236848   2.723   6.183  10.793  0.1543 -1.2464  1.3231
11803SOL     OW36849   2.530   0.652  11.231  0.0638  0.5114  0.2653
11803SOL    HW136850   2.606   0.629  11.178  0.1600  0.7124  0.3184
11803SOL    HW236851   2.513   0.744  11.211  0.2593  0.6596  0.7883
11804SOL     OW36852   4.670   4.690   2.188 -0.1526 -0.0209  0.3300
11804SOL    HW136853   4.648   4.604   2.152  0.6165 -1.5965  3.3059
11804SOL    HW236854   4.586   4.736   2.191 -0.6505 -0.7743 -0.9260
11805SOL     OW36855   6.392   0.468  12.196 -0.0964  0.1613  0.2709
11805SOL    HW136856   6.391   0.409  12.121  0.9687  0.2353  0.1793
11805SOL    HW236857   6.432   0.548  12.162 -2.4283  1.3509  0.1178
11806SOL     OW36858   4.975   1.678  12.112  0.3982  0.1119 -0.4255
11806SOL    HW136859   5.052   1.630  12.081 -0.3399 -1.7359  0.4408
11806SOL    HW236860   4.981   1.674  12.207 -1.4575 -1.3285 -0.3177
11807SOL     OW36861   6.267   5.006   1.094  0.0052  0.2330 -0.2327
11807SOL    HW136862   6.201   4.946   1.128 -1.5885  0.6441 -2.3488
11807SOL    HW236863   6.344   4.952   1.078  0.0346 -0.3823  1.7243
11808SOL     OW36864   6.118   0.914   8.710  0.3973 -0.7510  0.2361
11808SOL    HW136865   6.105   0.968   8.632  0.0318 -2.3458 -0.8748
11808SOL    HW236866   6.097   0.825   8.680 -0.8419 -1.2578  2.4434
11809SOL     OW36867   2.490   4.725   4.865  0.1065  0.1362 -0.2835
11809SOL    HW136868   2.494   4.708   4.771  0.2388 -0.4381 -0.1775
11809SOL    HW236869   2.410   4.778   4.877  0.6904  1.1724 -0.8543
11810SOL     OW36870   1.778   6.416   6.458 -0.4184  0.2686  0.6246
11810SOL    HW136871   1.820   6.375   6.383 -0.5205  1.4798 -0.1052
11810SOL    HW236872   1.711   6.353   6.485  1.3087 -1.3585  1.3622
11811SOL     OW36873   1.443   6.742   5.262  0.2877  0.4302  0.2872
11811SOL    HW136874   1.363   6.793   5.252  0.2651  0.1275 -1.2377
11811SOL    HW236875   1.494   6.791   5.326 -0.1209  1.8862 -0.4493
11812SOL     OW36876   7.732   7.416  10.476  0.1048 -0.2192 -0.1343
11812SOL    HW136877   7.818   7.415  10.518 -1.3127  0.4830  3.0931
11812SOL    HW236878   7.704   7.324  10.479 -0.5600 -0.0002  1.9587
11813SOL     OW36879   7.955   4.283   8.200 -0.1336  0.4823  0.6276
11813SOL    HW136880   7.904   4.280   8.119 -0.7124 -4.2332  0.9008
11813SOL    HW236881   7.890   4.303   8.268 -0.2874  1.1176  0.3032
11814SOL     OW36882   6.457   2.017   0.678 -0.5635  0.4149  0.2337
11814SOL    HW136883   6.420   1.930   0.692 -0.7209  0.5597  0.7429
11814SOL    HW236884   6.544   2.012   0.718  0.0425  0.0338 -1.0782
11815SOL     OW36885   6.081   2.566   4.167  0.4888  0.2710  0.2648
11815SOL    HW136886   6.066   2.631   4.099 -0.9904 -1.1518 -0.8401
11815SOL    HW236887   6.150   2.604   4.222 -0.1352  2.6197 -0.4746
11816SOL     OW36888   2.993   6.570   0.724  0.5514 -0.3298  0.0140
11816SOL    HW136889   2.968   6.512   0.797  0.7397 -0.8599 -0.3421
11816SOL    HW236890   2.910   6.611   0.697  0.2150 -1.3088 -0.4874
11817SOL     OW36891   6.406   5.769  10.537 -0.1913  0.4650  0.0783
11817SOL    HW136892   6.441   5.857  10.530 -1.3040  0.8579 -0.8292
11817SOL    HW236893   6.335   5.766  10.473 -0.3420 -1.0067  0.2752
11818SOL     OW36894   6.944   4.604   6.541  0.0292 -0.3576  0.5675
11818SOL    HW136895   6.892   4.530   6.568  1.4547 -1.2392  1.0030
11818SOL    HW236896   6.941   4.665   6.615 -2.0680  0.6014 -0.2188
11819SOL     OW36897   5.448   0.202  10.668  1.0938 -0.0346 -0.1335
11819SOL    HW136898   5.435   0.167  10.580 -0.2219  1.2549 -0.4771
11819SOL    HW236899   5.503   0.136  10.711 -0.5810 -2.1327 -0.9991
11820SOL     OW36900   6.941   0.139   0.674  0.0155  0.5015  0.7378
11820SOL    HW136901   6.909   0.218   0.717  1.7351  0.6692  1.7902
11820SOL    HW236902   6.908   0.067   0.728 -0.0681  0.5800  0.7917
11821SOL     OW36903   7.080   1.696   6.322 -0.0847 -0.0058 -0.1923
11821SOL    HW136904   7.116   1.645   6.249 -1.5026 -2.3682  0.6425
11821SOL    HW236905   7.137   1.675   6.396 -0.2628  0.1745 -0.0039
11822SOL     OW36906   3.216   2.356  11.365  0.1644 -0.4870  0.2276
11822SOL    HW136907   3.198   2.312  11.282  0.8053  1.0606 -0.7710
11822SOL    HW236908   3.178   2.298  11.431 -0.9015 -1.4597 -1.1751
11823SOL     OW36909   6.841   0.472  10.822  0.1745 -0.4987  0.2421
11823SOL    HW136910   6.816   0.535  10.889 -1.3383 -0.5089 -0.2866
11823SOL    HW236911   6.868   0.394  10.871  1.9039  0.4472  0.8957
11824SOL     OW36912   1.387   6.646  10.002 -0.2069  0.4787  0.5384
11824SOL    HW136913   1.376   6.552   9.985  0.4111  0.2199  1.4932
11824SOL    HW236914   1.299   6.682   9.996 -0.3448 -0.0243 -0.6295
11825SOL     OW36915   6.453   3.773   0.110 -0.1061  0.5020 -0.0371
11825SOL    HW136916   6.489   3.730   0.188  2.0946  2.5254  0.1688
11825SOL    HW236917   6.369   3.808   0.139  0.2862  0.4911  1.1821
11826SOL     OW36918   4.599   5.424  11.970 -0.4029 -0.0246  0.1015
11826SOL    HW136919   4.674   5.483  11.978  0.1913 -0.6579 -0.5396
11826SOL    HW236920   4.525   5.473  12.005 -0.5988  2.3225 -3.1290
11827SOL     OW36921   1.643   6.022   5.007 -0.4799 -0.2026  0.2329
11827SOL    HW136922   1.603   5.959   4.947  1.1691  0.0159 -1.1480
11827SOL    HW236923   1.728   5.985   5.029  0.4344  1.3958 -0.4246
11828SOL     OW36924   7.090   4.754   6.351 -0.3949 -0.7431 -0.0016
11828SOL    HW136925   7.037   4.692   6.403  1.0807 -1.4200  0.7565
11828SOL    HW236926   7.151   4.698   6.303  1.9764  0.0973  1.8226
11829SOL     OW36927   0.176   6.291   3.630  0.3244  0.6653 -0.1687
11829SOL    HW136928   0.266   6.322   3.622  0.5397  0.2084  0.3619
11829SOL    HW236929   0.150   6.317   3.719  0.4927 -0.5864  0.2676
11830SOL     OW36930   0.502   4.206   7.887  0.3669  0.6470 -0.1936
11830SOL    HW136931   0.509   4.209   7.982 -0.7294  1.0210 -0.1182
11830SOL    HW236932   0.573   4.147   7.860  1.3802  1.3764  0.7636
11831SOL     OW36933   7.926   4.889  11.066  0.3331  0.1215 -0.2563
11831SOL    HW136934   7.897   4.980  11.069 -0.8216 -0.1018 -2.3985
11831SOL    HW236935   7.877   4.845  11.135 -0.5130  0.7820 -0.4240
11832SOL     OW36936   4.307   2.386   5.176 -0.6002  0.4970  0.0112
11832SOL    HW136937   4.271   2.428   5.098  0.4487  0.3348 -0.5836
11832SOL    HW236938   4.295   2.451   5.246  1.7674  2.2430 -1.0530
11833SOL     OW36939   5.282   7.613  10.117 -0.0995 -0.0196 -0.0075
11833SOL    HW136940   5.351   7.561  10.157  0.8310  2.1346  1.3395
11833SOL    HW236941   5.255   7.561  10.041  3.1399 -0.8753 -0.7402
11834SOL     OW36942   7.638   3.538  12.185  0.6264 -0.3387  0.5422
11834SOL    HW136943   7.717   3.570  12.141 -0.7356  0.0273 -1.7735
11834SOL    HW236944   7.610   3.463  12.132 -0.6067 -0.4452  1.3047
11835SOL     OW36945   7.801   0.020   1.915  0.1992  0.2276 -0.2295
11835SOL    HW136946   7.849  -0.061   1.933  0.0655 -0.0979 -1.2763
11835SOL    HW236947   7.761   0.006   1.829 -3.1741 -0.1964  1.2819
11836SOL     OW36948   2.825   1.605   1.113  0.0326 -0.7343 -0.2369
11836SOL    HW136949   2.858   1.516   1.115  0.2899 -0.6541 -0.7637
11836SOL    HW236950   2.730   1.595   1.121  0.0778 -1.0369 -0.0525
11837SOL     OW36951   0.018   6.352   9.504  0.6369 -0.4353  0.7556
11837SOL    HW136952   0.032   6.331   9.412  1.1250  0.6808  0.5609
11837SOL    HW236953  -0.071   6.320   9.523  0.4907 -0.5667 -0.1231
11838SOL     OW36954   4.323   1.625   2.096 -0.7536 -0.5281 -0.1307
11838SOL    HW136955   4.250   1.643   2.036 -0.3656 -0.1577 -0.4959
11838SOL    HW236956   4.316   1.693   2.163 -0.3449 -0.0786 -0.5376
11839SOL     OW36957   0.974   1.378   8.176 -0.3544 -0.0429  0.5073
11839SOL    HW136958   1.059   1.345   8.146 -1.1240 -1.3112 -0.4209
11839SOL    HW236959   0.915   1.304   8.163 -1.1801  0.0518  3.2643
11840SOL     OW36960   1.437   0.167   0.900  0.5410  0.0136 -0.1011
11840SOL    HW136961   1.391   0.232   0.954  2.3313  0.5007  0.9096
11840SOL    HW236962   1.429   0.085   0.949 -0.5426 -0.2611 -0.7022
11841SOL     OW36963   3.835   0.673  10.672 -0.0136  0.1884 -0.1936
11841SOL    HW136964   3.890   0.695  10.597  0.9594 -0.2037  0.3864
11841SOL    HW236965   3.868   0.588  10.703 -2.0704 -0.9479 -0.8690
11842SOL     OW36966   2.211   5.880   2.136  0.3226 -0.2705  0.2781
11842SOL    HW136967   2.303   5.879   2.161  0.3991  1.2640  0.1262
11842SOL    HW236968   2.164   5.897   2.218  0.3915  1.9064 -0.0876
11843SOL     OW36969   5.854   0.582   8.354 -0.0593  0.1309 -0.3541
11843SOL    HW136970   5.779   0.593   8.296  1.7193 -0.2630 -2.8375
11843SOL    HW236971   5.867   0.488   8.360 -1.3191  0.0189  2.3203
11844SOL     OW36972   0.719   2.151   1.265  0.6447  0.4968  0.1134
11844SOL    HW136973   0.720   2.055   1.266 -2.1112  0.3172 -2.0971
11844SOL    HW236974   0.663   2.175   1.338 -0.3552  0.2881 -0.5714
11845SOL     OW36975   3.052   4.825  10.611  1.1292 -0.2230 -0.5823
11845SOL    HW136976   3.005   4.803  10.692  1.7070  0.2524 -0.1037
11845SOL    HW236977   3.128   4.874  10.641  1.3874 -0.1017 -1.4210
11846SOL     OW36978   5.772   1.789   6.552  0.0106  0.1500  0.2202
11846SOL    HW136979   5.703   1.782   6.618 -1.6642 -1.2087 -1.5461
11846SOL    HW236980   5.761   1.876   6.515  0.9660  0.9266  1.6456
11847SOL     OW36981   2.136   0.701   6.308 -0.2647 -0.0159 -0.0454
11847SOL    HW136982   2.195   0.668   6.375 -0.9869 -0.7912  0.2256
11847SOL    HW236983   2.153   0.647   6.231 -2.2360 -1.8700  0.7308
11848SOL     OW36984   7.775   7.828   5.047  0.0267 -0.4901  0.3294
11848SOL    HW136985   7.791   7.753   4.989 -1.1280 -1.4334  1.1710
11848SOL    HW236986   7.819   7.901   5.005 -0.7612 -1.1467 -1.7216
11849SOL     OW36987   7.509   6.469   5.923  0.4519 -0.0185 -0.2109
11849SOL    HW136988   7.551   6.526   5.987  1.0648 -0.3508 -0.3070
11849SOL    HW236989   7.578   6.446   5.862 -0.3434  1.0968 -1.6008
11850SOL     OW36990   2.482   0.317  10.511  0.7575 -0.3840 -0.4964
11850SOL    HW136991   2.486   0.232  10.554  0.4537 -0.3654 -0.4231
11850SOL    HW236992   2.395   0.318  10.470 -0.1052  0.6969  1.2054
11851SOL     OW36993   6.911   2.875  11.715 -0.3536  0.0168 -0.1157
11851SOL    HW136994   6.876   2.962  11.697 -1.4957 -0.2201  0.8766
11851SOL    HW236995   6.929   2.838  11.628  1.1307  1.5869 -0.5482
11852SOL     OW36996   2.391   4.957  10.155 -0.2967  0.4324  0.1294
11852SOL    HW136997   2.476   4.990  10.125  1.1004 -1.0594  2.1644
11852SOL    HW236998   2.350   5.031  10.198 -0.0104  1.1554 -0.8010
11853SOL     OW36999   4.160   6.196  10.954 -0.3967 -0.6201 -0.1360
11853SOL    HW137000   4.164   6.290  10.936 -0.4372 -0.4171  0.8237
11853SOL    HW237001   4.149   6.191  11.049  0.9801 -1.6150  0.0009
11854SOL     OW37002   6.821   5.547   7.035 -0.9680  0.1655 -0.2428
11854SOL    HW137003   6.872   5.470   7.011 -0.7982 -0.3150  1.5093
11854SOL    HW237004   6.742   5.511   7.075 -1.0292  0.9040  0.3074
11855SOL     OW37005   0.950   7.106   5.564  0.7161 -0.1932 -0.2271
11855SOL    HW137006   0.967   7.200   5.557  0.8706 -0.2305 -0.3539
11855SOL    HW237007   1.010   7.076   5.632  1.1111 -0.3126 -0.6274
11856SOL     OW37008   6.003   0.500   1.930 -0.4015 -0.5738 -0.8660
11856SOL    HW137009   6.081   0.521   1.982  0.9301  2.2696 -3.6575
11856SOL    HW237010   5.939   0.468   1.995  2.1274 -0.3882  1.9539
11857SOL     OW37011   3.225   3.634   2.668 -0.2377  0.6561 -0.6413
11857SOL    HW137012   3.281   3.563   2.637 -0.7920  0.7768 -1.9713
11857SOL    HW237013   3.172   3.595   2.737  0.8682  0.3272  0.0610
11858SOL     OW37014   6.010   6.884   0.655 -0.1323 -0.3729 -0.0298
11858SOL    HW137015   5.961   6.918   0.581  0.0264  0.0032  0.0337
11858SOL    HW237016   5.996   6.790   0.653 -1.8549 -0.1719  0.6975
11859SOL     OW37017   4.375   7.777   7.007  0.2139  0.4610  0.6036
11859SOL    HW137018   4.411   7.857   6.969  1.4724 -0.3171  0.1147
11859SOL    HW237019   4.451   7.729   7.040 -0.2534 -1.4837 -0.9578
11860SOL     OW37020   6.744   2.410   4.420 -0.0008 -0.0118  0.2572
11860SOL    HW137021   6.687   2.343   4.382  1.1607 -0.4369 -0.7905
11860SOL    HW237022   6.727   2.488   4.367  1.5390 -0.5758 -1.1517
11861SOL     OW37023   0.903   5.893   5.687 -0.3429  0.5991  0.5948
11861SOL    HW137024   0.840   5.853   5.628  0.9990 -0.9682  0.1650
11861SOL    HW237025   0.892   5.987   5.673  1.1251  0.3508 -3.5670
11862SOL     OW37026   3.659   4.349   0.170  0.4965 -0.3234  0.0803
11862SOL    HW137027   3.700   4.344   0.256  0.9768  2.7375  0.1415
11862SOL    HW237028   3.569   4.378   0.188 -0.0859 -1.6894 -0.3999
11863SOL     OW37029   1.120   2.107   1.429 -0.4931  0.2890 -0.0103
11863SOL    HW137030   1.098   2.194   1.394 -0.5995 -0.8540 -3.0541
11863SOL    HW237031   1.036   2.062   1.434 -0.5039  0.4482  2.0451
11864SOL     OW37032   2.723   0.447   9.107 -0.0303 -0.7565 -0.2102
11864SOL    HW137033   2.738   0.491   9.191 -2.8692 -1.7454  0.9470
11864SOL    HW237034   2.670   0.508   9.057 -1.0992 -1.4342  0.0570
11865SOL     OW37035   0.624   7.620   1.860 -0.5149 -0.1778  0.0496
11865SOL    HW137036   0.667   7.557   1.802  0.4939 -0.5592  1.1799
11865SOL    HW237037   0.685   7.694   1.864 -0.8178  0.0659  0.2260
11866SOL     OW37038   0.005   0.048  11.411 -0.1616 -0.3127  0.1008
11866SOL    HW137039   0.046   0.002  11.338  1.5224 -1.1754  1.5134
11866SOL    HW237040   0.071   0.112  11.439 -0.8024  0.0506  0.8127
11867SOL     OW37041   0.364   5.035   8.313 -0.0367  0.9645  0.3566
11867SOL    HW137042   0.296   4.968   8.317  0.1916  0.7781  1.4311
11867SOL    HW237043   0.373   5.066   8.403  3.5815 -1.3050  0.9716
11868SOL     OW37044   7.468   5.833   9.991 -0.6426 -0.1800  0.1922
11868SOL    HW137045   7.416   5.763  10.029  0.3842 -0.0635  1.9181
11868SOL    HW237046   7.465   5.903  10.056  1.0684  0.1012  0.0138
11869SOL     OW37047   0.985   1.778   9.695 -0.0589  0.2965 -0.2223
11869SOL    HW137048   0.971   1.872   9.702  0.2455  0.2878  0.5031
11869SOL    HW237049   0.996   1.747   9.785 -2.4431 -0.7995 -0.2116
11870SOL     OW37050   5.777   4.160   1.276  0.2753 -0.3480  0.0984
11870SOL    HW137051   5.787   4.248   1.312 -0.8567 -1.0093  2.1657
11870SOL    HW237052   5.690   4.160   1.236  0.3470 -0.4775 -0.0595
11871SOL     OW37053   0.428   1.587   1.595 -0.2013 -0.1988 -0.8962
11871SOL    HW137054   0.372   1.655   1.557 -1.0366 -0.4461 -0.1667
11871SOL    HW237055   0.433   1.519   1.528  0.3980  0.4476 -1.5168
11872SOL     OW37056   3.854   5.962   3.092 -0.3727  0.8515 -0.2113
11872SOL    HW137057   3.872   5.934   3.003 -0.3055  3.5985 -1.1460
11872SOL    HW237058   3.936   5.945   3.140 -0.2070 -0.0615 -0.7955
11873SOL     OW37059   3.210   5.966   9.626 -0.1156  0.3276  0.8425
11873SOL    HW137060   3.203   6.002   9.538  0.7299  0.0055  0.6302
11873SOL    HW237061   3.267   5.890   9.616  3.0355  2.2742  2.1741
11874SOL     OW37062   0.740   1.122   5.061 -0.4922  0.0897  0.2862
11874SOL    HW137063   0.716   1.095   4.973  0.0101  0.5092  0.0185
11874SOL    HW237064   0.784   1.206   5.050 -0.4309  0.1496  0.9346
11875SOL     OW37065   6.374   5.391   7.501 -0.0324  0.0963 -0.5046
11875SOL    HW137066   6.458   5.365   7.539 -1.5848 -2.1310  1.6856
11875SOL    HW237067   6.376   5.487   7.502  1.2723  0.1366  2.5013
11876SOL     OW37068   1.871   4.982   4.305  0.1718 -0.2172 -0.0212
11876SOL    HW137069   1.966   4.991   4.299  0.1992 -0.8278 -0.7723
11876SOL    HW237070   1.847   4.937   4.223 -0.7955  0.2099  0.0241
11877SOL     OW37071   7.828   2.060   0.208  0.0946 -0.2759 -0.3766
11877SOL    HW137072   7.900   2.052   0.145 -0.6037 -0.4103 -1.1828
11877SOL    HW237073   7.761   2.110   0.161  0.2289  1.1269  0.8889
11878SOL     OW37074   7.804   6.933   9.035  0.2403  0.2642  0.0463
11878SOL    HW137075   7.772   6.882   9.109 -0.0024  1.0105  0.4734
11878SOL    HW237076   7.899   6.921   9.037  0.2399  0.3261  0.5148
11879SOL     OW37077   7.861   3.166   4.852 -0.1416  1.3002  0.3312
11879SOL    HW137078   7.822   3.185   4.767 -1.2000 -0.8030  0.2737
11879SOL    HW237079   7.948   3.132   4.831 -0.5263  0.4575  0.0191
11880SOL     OW37080   6.805   0.855   9.821 -0.1055  0.3306 -0.3934
11880SOL    HW137081   6.749   0.934   9.820 -1.0751 -0.3065  0.8302
11880SOL    HW237082   6.772   0.804   9.895  1.1927 -0.7507 -0.5405
11881SOL     OW37083   3.679   4.593  10.453  0.0451  0.3751 -0.5437
11881SOL    HW137084   3.643   4.584  10.365 -0.6514  1.1653 -0.3580
11881SOL    HW237085   3.674   4.504  10.490  0.4247  0.0222 -1.3177
11882SOL     OW37086   0.234   2.601   3.998  0.2746 -0.2924  1.1361
11882SOL    HW137087   0.138   2.606   3.994  0.3392  0.3568  0.0722
11882SOL    HW237088   0.264   2.668   3.937  1.3782 -3.4410 -2.0926
11883SOL     OW37089   5.141   5.061   6.191 -0.6609  0.6544  0.1090
11883SOL    HW137090   5.143   5.157   6.191  2.1630  0.7281 -1.8167
11883SOL    HW237091   5.211   5.036   6.252 -1.1319 -0.2005  0.3115
11884SOL     OW37092   2.337   5.329   4.374  0.3296 -0.1075 -0.4936
11884SOL    HW137093   2.251   5.303   4.407  1.0745 -1.4845  0.4813
11884SOL    HW237094   2.346   5.282   4.292  0.0666  0.2180 -0.7116
11885SOL     OW37095   3.820   6.685   4.017  0.4915  0.3393 -0.1373
11885SOL    HW137096   3.805   6.727   3.932  1.8792 -1.0162 -1.1276
11885SOL    HW237097   3.829   6.757   4.079 -1.5036  1.3520 -0.9220
11886SOL     OW37098   2.372   6.372   0.036 -0.2544  0.3553 -0.0389
11886SOL    HW137099   2.365   6.451  -0.018  0.7840  0.9096  0.5984
11886SOL    HW237100   2.439   6.319  -0.007  0.2842  0.6145  0.4668
11887SOL     OW37101   1.960   2.871   9.672  0.2567  0.0569 -0.2728
11887SOL    HW137102   2.040   2.912   9.637  0.2318  0.0648 -0.3198
11887SOL    HW237103   1.992   2.816   9.744  0.2399  0.5129  0.0876
11888SOL     OW37104   6.566   6.336  10.811 -0.5224  0.0623 -0.1877
11888SOL    HW137105   6.539   6.356  10.901 -0.0380  0.3363 -0.1005
11888SOL    HW237106   6.487   6.302  10.770 -0.5896 -0.6648  0.5205
11889SOL     OW37107   5.969   4.540   6.184 -0.1666 -0.3708 -0.0115
11889SOL    HW137108   5.888   4.493   6.206 -1.3605  2.0927  1.2203
11889SOL    HW237109   5.940   4.626   6.154  1.9844  0.1174 -0.9006
11890SOL     OW37110   3.449   1.138   1.550  0.0777  0.2701  0.3638
11890SOL    HW137111   3.530   1.125   1.501  1.2887 -0.8438  2.5126
11890SOL    HW237112   3.472   1.199   1.620 -0.2931 -1.6472  2.2738
11891SOL     OW37113   0.115   1.885  10.235 -0.4973  0.3164 -0.3316
11891SOL    HW137114   0.137   1.851  10.322 -1.6131 -0.1917 -0.2255
11891SOL    HW237115   0.149   1.819  10.174 -0.7745  0.0572 -0.2125
11892SOL     OW37116   7.017   7.427   9.838 -0.0886 -0.0157 -0.2430
11892SOL    HW137117   7.000   7.372   9.762 -0.6503  0.2941 -0.3455
11892SOL    HW237118   7.016   7.516   9.804  0.4426  0.0893 -0.0095
11893SOL     OW37119   6.629   0.446   2.995  0.1001  0.2818  0.4073
11893SOL    HW137120   6.718   0.438   3.028  0.1163 -0.3482  0.2325
11893SOL    HW237121   6.575   0.450   3.074 -0.0228 -3.0645  0.6318
11894SOL     OW37122   7.928   4.248   7.714  0.2032 -0.0934  0.5418
11894SOL    HW137123   7.913   4.158   7.744  1.2037 -0.2610  0.5832
11894SOL    HW237124   8.023   4.259   7.718  0.0088  1.4133  1.8024
11895SOL     OW37125   4.002   1.462   3.510  0.3067  0.1239 -0.5632
11895SOL    HW137126   4.029   1.370   3.516  0.6267  0.2785  0.4547
11895SOL    HW237127   4.064   1.501   3.448  0.4089 -0.2630 -0.7034
11896SOL     OW37128   0.965   0.997   4.854 -0.5418 -0.4220 -0.0007
11896SOL    HW137129   1.040   1.016   4.911  0.1289  0.1870 -1.0701
11896SOL    HW237130   0.905   0.948   4.911  0.2794 -0.1848  1.1200
11897SOL     OW37131   3.908   5.612   2.086 -0.1321  0.6632  0.3562
11897SOL    HW137132   3.963   5.533   2.090  0.0530  0.7823  0.1416
11897SOL    HW237133   3.933   5.654   2.004 -1.3360  0.1316 -0.3052
11898SOL     OW37134   3.629   0.963   7.960  0.0629  0.2167 -0.0255
11898SOL    HW137135   3.685   1.007   7.896 -0.9823  2.0947  0.2793
11898SOL    HW237136   3.635   0.870   7.938 -0.1745  0.7746 -2.7897
11899SOL     OW37137   2.864   4.390   6.833 -0.0747  0.4850 -0.0120
11899SOL    HW137138   2.948   4.408   6.875  0.1985 -0.4990 -0.1169
11899SOL    HW237139   2.876   4.417   6.742  0.2040  0.1169 -0.0834
11900SOL     OW37140   6.106   2.000   8.849  0.0858 -0.0729  0.0961
11900SOL    HW137141   6.160   2.075   8.872  0.6694 -0.4115 -0.1725
11900SOL    HW237142   6.079   2.017   8.759  2.3656 -1.4278 -0.9054
11901SOL     OW37143   3.036   2.994   0.353 -0.0114  0.2671  0.1174
11901SOL    HW137144   3.103   2.997   0.421  2.2817  1.3856 -2.0030
11901SOL    HW237145   3.056   2.914   0.303  1.7114  1.9991 -2.2101
11902SOL     OW37146   6.133   2.344  10.541  0.1481 -0.4875  0.0935
11902SOL    HW137147   6.156   2.420  10.594  2.1762 -1.0817  0.1464
11902SOL    HW237148   6.166   2.365  10.453 -3.0961  0.4557 -1.0378
11903SOL     OW37149   6.818   3.586   9.281 -0.4491 -0.2660 -0.3655
11903SOL    HW137150   6.892   3.646   9.268  0.7276 -1.2515  1.4900
11903SOL    HW237151   6.755   3.638   9.331 -0.3566  0.0907 -0.6109
11904SOL     OW37152   7.288   2.165   4.393 -0.7179  0.2065 -0.2381
11904SOL    HW137153   7.265   2.243   4.445  0.8118  0.0605  0.7293
11904SOL    HW237154   7.366   2.192   4.344 -0.1612 -0.7000  0.1224
11905SOL     OW37155   6.463   7.978   9.738  0.2314  0.2398  0.0521
11905SOL    HW137156   6.435   7.908   9.679  0.6590 -0.9056  1.1616
11905SOL    HW237157   6.389   8.039   9.740 -0.6661 -0.8150  0.0330
11906SOL     OW37158   2.592   5.181   5.358 -0.3977 -0.0954 -0.3636
11906SOL    HW137159   2.518   5.180   5.419 -0.5647 -0.8143 -0.5636
11906SOL    HW237160   2.666   5.147   5.409 -0.0588  1.1198 -0.0065
11907SOL     OW37161   6.178   0.475   8.803  0.3009  0.6177  0.2355
11907SOL    HW137162   6.104   0.518   8.760  0.6385 -0.1311 -1.1378
11907SOL    HW237163   6.253   0.530   8.782  0.5204  0.0735 -0.4342
11908SOL     OW37164   3.767   3.058   3.659 -0.4453  0.4704  0.1585
11908SOL    HW137165   3.719   3.133   3.694 -0.1272  1.2168 -0.9487
11908SOL    HW237166   3.834   3.096   3.603  0.8084 -0.5885  0.8674
11909SOL     OW37167   0.848   6.303   6.984  0.2381  0.2553 -0.3346
11909SOL    HW137168   0.848   6.238   6.915 -0.2969  1.3832 -1.4403
11909SOL    HW237169   0.758   6.338   6.984  0.3774  0.6557  0.5633
11910SOL     OW37170   6.975   7.703   3.543  0.1196  0.3558 -0.1714
11910SOL    HW137171   7.010   7.721   3.456  2.4271  1.5515  0.9095
11910SOL    HW237172   7.023   7.626   3.574 -1.3155 -0.6090 -0.2506
11911SOL     OW37173   5.787   0.734   4.073 -0.5141 -0.4635 -0.6695
11911SOL    HW137174   5.707   0.718   4.122 -0.6787  0.7390 -0.4992
11911SOL    HW237175   5.772   0.819   4.030  1.0608  0.3246  0.2474
11912SOL     OW37176   0.860   6.146  10.109  0.0140 -0.1184  0.0705
11912SOL    HW137177   0.882   6.116  10.197  1.1383 -1.2641 -0.5538
11912SOL    HW237178   0.767   6.129  10.100 -0.2869  0.7832  1.3051
11913SOL     OW37179   5.497   6.209  11.585  0.4351 -0.0316 -0.3863
11913SOL    HW137180   5.412   6.248  11.567  0.3404 -0.3308 -0.5890
11913SOL    HW237181   5.515   6.154  11.509  2.1584  2.3232 -1.8356
11914SOL     OW37182   6.975   0.927   1.881 -0.1466  0.5028  0.3857
11914SOL    HW137183   7.052   0.956   1.931  0.3109 -0.0788  0.0432
11914SOL    HW237184   6.910   0.995   1.895  0.8698  1.6903 -0.3762
11915SOL     OW37185   7.205   3.320   2.068  0.7056 -0.4404 -0.4754
11915SOL    HW137186   7.191   3.326   1.974  0.0542 -1.5904 -0.4710
11915SOL    HW237187   7.202   3.226   2.087 -0.6316 -0.1590  0.8859
11916SOL     OW37188   1.165   3.072   5.412 -0.4425  0.3368  0.4516
11916SOL    HW137189   1.122   3.087   5.497  0.1016  0.9663  0.6240
11916SOL    HW237190   1.255   3.051   5.434 -0.8388 -1.9001  0.1344
11917SOL     OW37191   6.939   5.197   3.048  0.0704  0.0081 -0.2038
11917SOL    HW137192   6.948   5.112   3.006  2.8001  0.5228 -0.7918
11917SOL    HW237193   7.014   5.203   3.108  0.5672  2.4033 -0.9591
11918SOL     OW37194   0.584   1.571   7.157  0.1438  0.0568 -0.0641
11918SOL    HW137195   0.586   1.632   7.231  0.5877  0.8565 -0.7214
11918SOL    HW237196   0.603   1.625   7.080  0.7583 -0.9450 -0.6467
11919SOL     OW37197   4.994   6.056   2.657 -0.1717  0.1602  0.5546
11919SOL    HW137198   4.911   6.090   2.693 -0.5247 -0.0465 -0.0517
11919SOL    HW237199   5.032   6.130   2.611  0.9266  0.8235  2.3869
11920SOL     OW37200   1.592   1.707   6.370  0.7910  0.2175 -0.1722
11920SOL    HW137201   1.611   1.800   6.388 -0.0109  0.3018  0.2623
11920SOL    HW237202   1.523   1.710   6.303  1.2448 -0.0791 -0.6611
11921SOL     OW37203   5.626   4.363   8.529  0.2340 -0.2394 -0.2466
11921SOL    HW137204   5.702   4.314   8.498 -0.5406 -2.4879  1.2065
11921SOL    HW237205   5.659   4.418   8.599  0.3558 -2.3519  1.4513
11922SOL     OW37206   6.374   2.775   0.382  0.8069 -0.0167  0.0307
11922SOL    HW137207   6.332   2.821   0.454  2.6381  0.1791  1.0292
11922SOL    HW237208   6.383   2.684   0.412  1.9651  0.1551  0.2748
11923SOL     OW37209   2.841   5.118  12.364  0.4926  0.2473  0.2061
11923SOL    HW137210   2.831   5.195  12.308  3.7791 -0.6920 -1.9130
11923SOL    HW237211   2.766   5.063  12.342 -0.3900  1.6063 -0.3104
11924SOL     OW37212   4.536   5.127   6.129 -0.0092 -0.3735  0.1748
11924SOL    HW137213   4.589   5.085   6.198  2.4279  0.2419 -1.2100
11924SOL    HW237214   4.517   5.214   6.163  0.3457 -0.4094  0.4728
11925SOL     OW37215   6.204   1.920  11.474 -0.1014  0.2184  0.1310
11925SOL    HW137216   6.244   1.975  11.406 -2.6479  0.3576 -1.3943
11925SOL    HW237217   6.177   1.982  11.542 -0.3276  0.4862 -0.1996
11926SOL     OW37218   2.294   5.331  11.081 -0.4673  0.2520  0.5374
11926SOL    HW137219   2.371   5.319  11.136 -0.4928  4.5957  1.9550
11926SOL    HW237220   2.322   5.304  10.993  1.4323 -1.5438  1.6121
11927SOL     OW37221   2.581   4.941   8.612 -0.1081 -0.0719 -0.1753
11927SOL    HW137222   2.538   5.018   8.575  1.9214  1.2409  0.0349
11927SOL    HW237223   2.664   4.935   8.565  0.4953 -1.1345  0.9675
11928SOL     OW37224   6.327   1.379  10.369  0.7048 -0.0772 -0.6871
11928SOL    HW137225   6.249   1.433  10.383  0.1230 -0.8557 -0.8430
11928SOL    HW237226   6.339   1.332  10.452  0.2558 -0.8944 -1.0730
11929SOL     OW37227   7.792   2.117  11.545 -0.4974  0.3679 -0.3165
11929SOL    HW137228   7.778   2.183  11.477 -0.7955  1.2637  0.5733
11929SOL    HW237229   7.738   2.148  11.619  0.8401  0.1466  0.7928
11930SOL     OW37230   7.456   4.156   8.247 -0.4573 -0.4647  0.5800
11930SOL    HW137231   7.394   4.094   8.286 -0.2807 -0.9458  0.1093
11930SOL    HW237232   7.405   4.200   8.179 -0.5372 -0.2065  0.8060
11931SOL     OW37233   7.384   3.584   5.099 -0.0690  0.4909 -0.5370
11931SOL    HW137234   7.315   3.558   5.038 -1.0621 -1.1617  1.1690
11931SOL    HW237235   7.387   3.513   5.163  1.3664  1.8249  0.9703
11932SOL     OW37236   6.123   6.759   2.437 -0.5791 -0.0685 -0.1130
11932SOL    HW137237   6.218   6.760   2.452 -0.3249  1.8302 -1.5946
11932SOL    HW237238   6.088   6.821   2.501 -0.7306 -0.0587 -0.2055
11933SOL     OW37239   6.619   2.281   6.067  0.2172 -0.4428 -0.3873
11933SOL    HW137240   6.582   2.281   5.979 -0.3792  1.8855 -0.1952
11933SOL    HW237241   6.549   2.249   6.123  0.5293 -1.7255 -0.6880
11934SOL     OW37242   0.512   5.388   8.832 -0.2947  0.8131 -0.2846
11934SOL    HW137243   0.498   5.293   8.834  0.3622  0.7229  0.4933
11934SOL    HW237244   0.591   5.400   8.779  0.0500  0.8539  0.2228
11935SOL     OW37245   6.746   4.950   4.726  0.0217 -0.2790  0.0981
11935SOL    HW137246   6.765   4.886   4.657 -1.0440 -0.2332 -0.2636
11935SOL    HW237247   6.792   5.029   4.698 -0.2381 -0.3228 -0.4721
11936SOL     OW37248   3.310   4.430   9.928 -0.3683 -0.2842  0.1095
11936SOL    HW137249   3.248   4.468   9.990  0.0089  1.7353 -0.6720
11936SOL    HW237250   3.337   4.347   9.968 -1.2055  0.2910  1.9439
11937SOL     OW37251   1.525   1.055   1.391  0.7467  0.4100 -0.0528
11937SOL    HW137252   1.505   1.100   1.473  2.9670 -0.5458  1.0978
11937SOL    HW237253   1.512   0.963   1.411 -1.4809  0.3008 -1.6926
11938SOL     OW37254   1.788   1.309   5.415 -0.7200  0.3210  0.2474
11938SOL    HW137255   1.862   1.343   5.365 -0.9078 -0.1192 -0.3405
11938SOL    HW237256   1.818   1.223   5.446 -0.5663  0.6355  0.9850
11939SOL     OW37257   5.610   0.081   2.282  0.7231  0.6388 -0.1302
11939SOL    HW137258   5.704   0.095   2.271  0.8034  0.6759  0.5499
11939SOL    HW237259   5.604   0.018   2.354  0.2533 -0.0285 -0.7398
11940SOL     OW37260   2.722   5.341   2.361 -0.3225  0.0996 -0.0821
11940SOL    HW137261   2.652   5.319   2.300  0.0047 -0.8692 -0.1224
11940SOL    HW237262   2.769   5.412   2.319  0.7978 -1.5077 -1.6850
11941SOL     OW37263   4.279   6.579   1.563 -0.2953 -0.4038  1.3779
11941SOL    HW137264   4.356   6.522   1.569 -0.5215 -0.6572  1.9783
11941SOL    HW237265   4.235   6.567   1.646 -0.4816  0.4680  1.4069
11942SOL     OW37266   6.937   6.853   7.636 -0.0519  0.4032  0.2961
11942SOL    HW137267   6.980   6.799   7.570 -3.0888 -0.2424 -1.3242
11942SOL    HW237268   6.943   6.800   7.716 -0.6868 -1.2017 -0.6554
11943SOL     OW37269   2.825   0.083   9.725 -0.5528  0.3944 -0.1532
11943SOL    HW137270   2.893   0.093   9.659 -0.6299  0.3263 -0.2447
11943SOL    HW237271   2.829  -0.010   9.749 -0.8684  0.3017 -0.4429
11944SOL     OW37272   0.349   3.884   3.702 -0.0109 -0.6195  0.0988
11944SOL    HW137273   0.356   3.959   3.760 -1.8323  0.4526 -0.9844
11944SOL    HW237274   0.385   3.914   3.618  2.5180 -2.1227  0.5319
11945SOL     OW37275   7.289   0.945   1.786 -0.0426 -0.6412  0.1003
11945SOL    HW137276   7.220   0.914   1.727  0.7030 -0.6772 -0.7896
11945SOL    HW237277   7.283   1.040   1.782 -0.0940 -0.6449  0.0865
11946SOL     OW37278   1.894   3.471   0.102 -0.2027 -0.1878  0.1111
11946SOL    HW137279   1.961   3.412   0.137  0.9797  1.0228  0.0035
11946SOL    HW237280   1.902   3.462   0.007  0.4455  0.5846  0.0740
11947SOL     OW37281   4.915   7.428   6.936  0.4334 -0.2593 -0.0097
11947SOL    HW137282   4.826   7.394   6.926  0.6667 -1.5164  1.7142
11947SOL    HW237283   4.968   7.376   6.875  0.1468 -0.1843 -0.3234
11948SOL     OW37284   0.119   7.044   5.268  0.3165 -0.0421  0.0011
11948SOL    HW137285   0.130   6.949   5.261 -0.7841 -0.0736 -3.2083
11948SOL    HW237286   0.049   7.056   5.331 -2.5960 -1.7799 -2.6205
11949SOL     OW37287   4.472   5.948   1.867 -0.2722  0.3701  0.2845
11949SOL    HW137288   4.523   5.881   1.821  0.2672 -0.2704  1.7473
11949SOL    HW237289   4.381   5.921   1.856 -0.0597 -0.6431  0.8784
11950SOL     OW37290   5.932   3.562   8.178 -0.1224 -0.1937  0.0109
11950SOL    HW137291   5.874   3.611   8.120 -0.0765  1.6234  1.4113
11950SOL    HW237292   6.020   3.587   8.151 -0.0680 -0.3032  0.0839
11951SOL     OW37293   4.368   2.968   2.136  0.4068  0.3328 -0.1887
11951SOL    HW137294   4.272   2.969   2.133  0.3592 -0.0363  0.8861
11951SOL    HW237295   4.394   3.025   2.063 -0.5709 -1.4703 -2.0485
11952SOL     OW37296   3.885   1.720   4.905 -0.2422 -0.0221  0.2528
11952SOL    HW137297   3.816   1.683   4.849  1.6683 -0.2822 -2.0749
11952SOL    HW237298   3.924   1.790   4.853  1.4227 -0.0512  1.3827
11953SOL     OW37299   6.696   1.721   9.440  0.3218 -0.0710  0.5757
11953SOL    HW137300   6.650   1.723   9.355  0.7759 -0.7467  0.3025
11953SOL    HW237301   6.643   1.662   9.494  0.4032 -0.1857  0.5319
11954SOL     OW37302   1.830   7.164   1.267  0.5236 -0.0787  0.1145
11954SOL    HW137303   1.818   7.246   1.219 -0.6005  0.0318  0.5476
11954SOL    HW237304   1.816   7.187   1.359  1.1796 -0.5691  0.3440
11955SOL     OW37305   3.198   3.020   4.167 -0.3595 -0.6607 -0.0378
11955SOL    HW137306   3.131   2.957   4.193 -0.2829 -1.6456 -2.0205
11955SOL    HW237307   3.154   3.077   4.103  1.2275 -3.1038 -3.6528
11956SOL     OW37308   4.227   7.943  11.307  0.1753 -0.0012 -0.1397
11956SOL    HW137309   4.147   7.996  11.307 -0.3594 -0.7770 -0.9816
11956SOL    HW237310   4.220   7.888  11.229  1.3680 -0.3426 -0.0326
11957SOL     OW37311   3.210   1.426   8.507 -0.0516  0.0387 -0.2523
11957SOL    HW137312   3.255   1.452   8.427  1.3511 -1.7698 -0.1147
11957SOL    HW237313   3.264   1.462   8.578  0.0913 -0.4518 -0.1067
11958SOL     OW37314   6.230   4.337   3.101 -0.0897 -0.0175 -0.2565
11958SOL    HW137315   6.146   4.330   3.056  0.0588  2.6064 -1.1431
11958SOL    HW237316   6.215   4.296   3.186 -1.1303 -2.8282 -1.6615
11959SOL     OW37317   5.208   6.238   2.576 -0.0149 -0.0621 -0.0414
11959SOL    HW137318   5.164   6.314   2.538 -1.8667 -1.5327 -0.9863
11959SOL    HW237319   5.285   6.225   2.521 -0.1891  0.5609 -0.4433
11960SOL     OW37320   6.755   5.217  11.811 -0.2923 -0.5506  0.4465
11960SOL    HW137321   6.730   5.235  11.720 -0.2705  1.8474  0.8611
11960SOL    HW237322   6.848   5.194  11.806 -0.6074 -1.8289 -0.2378
11961SOL     OW37323   2.526   3.875   6.736 -0.1053 -0.2211  0.2291
11961SOL    HW137324   2.439   3.835   6.740 -0.3854  0.2594 -0.8838
11961SOL    HW237325   2.574   3.821   6.674 -0.4700  1.0665 -1.2506
11962SOL     OW37326   7.295   3.218   1.796  0.4902  0.6913 -0.8551
11962SOL    HW137327   7.253   3.200   1.712  0.5332 -0.0494 -0.7241
11962SOL    HW237328   7.328   3.133   1.825 -1.1079  0.5541  0.7727
11963SOL     OW37329   0.806   5.074  10.013 -0.5709 -0.2743 -0.4638
11963SOL    HW137330   0.770   5.152  10.056 -0.0307  0.6170 -1.5819
11963SOL    HW237331   0.898   5.095   9.998  0.3963 -2.3042  1.8499
11964SOL     OW37332   2.690   5.662   5.195  0.1232  0.7207  0.1467
11964SOL    HW137333   2.744   5.589   5.224  0.1403  0.4977 -0.4282
11964SOL    HW237334   2.606   5.622   5.173 -0.1234  0.9923  0.5688
11965SOL     OW37335   7.090   5.942  12.269 -0.3667 -0.2279 -0.0510
11965SOL    HW137336   7.108   5.850  12.285  0.0127 -0.0224  0.7193
11965SOL    HW237337   7.047   5.973  12.348  1.7873  0.8692  0.7697
11966SOL     OW37338   7.013   2.522   6.215  0.1079  0.1594  0.7611
11966SOL    HW137339   6.995   2.611   6.186  0.4199  0.2253  0.7694
11966SOL    HW237340   7.018   2.528   6.310  4.3018  0.9553  0.6501
11967SOL     OW37341   4.208   4.180   9.872 -0.2467 -0.5295  0.0412
11967SOL    HW137342   4.209   4.103   9.814  1.0102  0.1404 -0.8528
11967SOL    HW237343   4.181   4.252   9.815 -0.3115 -0.0911  0.6210
11968SOL     OW37344   1.375   6.543  10.510  0.1702 -0.2734 -0.0373
11968SOL    HW137345   1.428   6.465  10.495  1.0634 -0.0366  1.6261
11968SOL    HW237346   1.328   6.556  10.428  0.2827 -2.3336 -0.4858
11969SOL     OW37347   6.549   0.927   3.130  0.2042 -0.4407 -0.4276
11969SOL    HW137348   6.522   0.931   3.221 -1.0765 -0.5293 -0.7805
11969SOL    HW237349   6.476   0.967   3.082  0.4839 -1.1484 -1.4755
11970SOL     OW37350   3.498   6.269  10.637  0.1598  0.3220 -0.9415
11970SOL    HW137351   3.522   6.185  10.597  0.9913  0.8904 -1.6815
11970SOL    HW237352   3.481   6.248  10.729  2.5249 -0.3234 -0.5748
11971SOL     OW37353   1.680   6.439  12.279 -0.1485  0.4451  0.3201
11971SOL    HW137354   1.703   6.455  12.370  0.7730  0.5716  0.0693
11971SOL    HW237355   1.742   6.372  12.250  0.5003  1.4352 -0.6253
11972SOL     OW37356   7.354   4.101   7.840  0.0609 -0.1426  0.3602
11972SOL    HW137357   7.325   4.027   7.894 -0.8718  0.5270  0.8175
11972SOL    HW237358   7.274   4.130   7.795  0.5584  0.1464 -0.3605
11973SOL     OW37359   6.106   6.306   4.262  0.0194  0.3362 -0.3073
11973SOL    HW137360   6.107   6.212   4.280  1.8146  0.6012  1.4101
11973SOL    HW237361   6.190   6.338   4.298 -0.6192  2.6047 -0.6798
11974SOL     OW37362   0.411   3.853  10.611 -0.3663 -0.6705  0.2284
11974SOL    HW137363   0.500   3.851  10.576  1.1424 -1.8552  3.6830
11974SOL    HW237364   0.411   3.924  10.674 -2.4893  0.4234 -0.8822
11975SOL     OW37365   2.488   4.713   4.608  0.2690  0.5644  0.4643
11975SOL    HW137366   2.526   4.626   4.617  1.2342  0.9803  0.4863
11975SOL    HW237367   2.535   4.752   4.534 -1.3724  0.4383 -0.7000
11976SOL     OW37368   5.825   1.741   0.923 -0.1336 -0.1454  0.1623
11976SOL    HW137369   5.732   1.728   0.938 -0.0528  1.0290  2.0402
11976SOL    HW237370   5.831   1.829   0.886  0.2620  0.0636  0.7073
11977SOL     OW37371   2.223   0.578  10.206 -0.4785  0.1056 -0.0444
11977SOL    HW137372   2.261   0.498  10.243  0.5788  1.3032  1.6256
11977SOL    HW237373   2.277   0.596  10.129  0.8529  0.4428  0.9135
11978SOL     OW37374   7.573   0.162   2.631  0.3522  0.1455  0.0800
11978SOL    HW137375   7.623   0.153   2.549 -0.7710  1.4066 -0.7832
11978SOL    HW237376   7.523   0.080   2.637  0.7001 -0.1027 -0.3007
11979SOL     OW37377   7.161   7.639   5.432  0.3136  0.0693  0.5602
11979SOL    HW137378   7.141   7.721   5.478  0.1460  0.4880 -0.2428
11979SOL    HW237379   7.212   7.666   5.356 -1.8994 -0.2621 -1.1452
11980SOL     OW37380   0.420   5.540   1.537 -0.3029 -0.9595 -0.0786
11980SOL    HW137381   0.406   5.445   1.530 -0.8291 -0.9006  0.1064
11980SOL    HW237382   0.344   5.571   1.585  0.1454 -0.5166  0.3575
11981SOL     OW37383   0.781   6.193   3.483 -0.0364  0.1903 -0.3447
11981SOL    HW137384   0.810   6.103   3.470  1.6304  0.4492  1.1662
11981SOL    HW237385   0.754   6.196   3.575  1.0476  1.5010 -0.0419
11982SOL     OW37386   2.956   1.397   2.117  0.3793 -0.1896 -0.2306
11982SOL    HW137387   3.025   1.338   2.087 -0.0099 -0.5594 -0.4104
11982SOL    HW237388   2.900   1.343   2.172  0.0653  0.0353 -0.3282
11983SOL     OW37389   6.934   0.800   2.703 -0.0495 -0.4537 -0.0295
11983SOL    HW137390   6.964   0.878   2.657  2.7588 -0.3422  1.7487
11983SOL    HW237391   6.896   0.833   2.784 -1.5769 -0.8425 -0.5470
11984SOL     OW37392   5.826   6.189   1.981  0.2776  0.4262 -0.3196
11984SOL    HW137393   5.888   6.119   2.003 -0.7632 -0.1078  1.0131
11984SOL    HW237394   5.821   6.243   2.059 -0.9917  0.4176 -0.3750
11985SOL     OW37395   4.978   1.169   2.748  0.2497 -0.2539  0.1495
11985SOL    HW137396   4.918   1.138   2.815  0.1595 -1.2347 -0.3724
11985SOL    HW237397   5.058   1.191   2.795 -0.5627  1.3301  0.8944
11986SOL     OW37398   7.099   6.999   0.529  0.0226 -0.4491  0.0314
11986SOL    HW137399   7.095   6.979   0.623  0.6388 -0.8911 -0.0302
11986SOL    HW237400   7.157   6.933   0.493 -2.2957 -1.9791 -1.1400
11987SOL     OW37401   7.693   3.764   1.965  0.0788  0.2238  0.3729
11987SOL    HW137402   7.631   3.770   2.038 -0.2251  0.2793  0.1109
11987SOL    HW237403   7.674   3.679   1.925  0.3633  0.1163  0.4618
11988SOL     OW37404   4.903   3.630   3.520 -0.3504  0.1457  0.4717
11988SOL    HW137405   4.828   3.608   3.575 -1.8068  0.6594 -1.2342
11988SOL    HW237406   4.913   3.724   3.529  0.0361  0.0931  0.6125
11989SOL     OW37407   1.769   1.180   0.292  0.3905  0.1808 -0.2126
11989SOL    HW137408   1.677   1.197   0.313  0.8982  2.2905  0.4959
11989SOL    HW237409   1.805   1.266   0.270  1.9977 -0.7363 -1.3373
11990SOL     OW37410   3.030   2.689   0.812 -0.2218 -0.7022  0.0270
11990SOL    HW137411   3.056   2.628   0.881  2.2372 -0.0674 -0.2479
11990SOL    HW237412   3.031   2.636   0.732 -0.2632 -0.7877  0.0820
11991SOL     OW37413   2.018   4.487   5.183  0.3136  0.1058  0.1936
11991SOL    HW137414   1.983   4.508   5.097 -0.3363  2.0203  0.8722
11991SOL    HW237415   1.948   4.438   5.227 -0.1636  0.9014  0.3314
11992SOL     OW37416   2.247   0.532   1.038 -0.3600 -0.1989 -0.0830
11992SOL    HW137417   2.243   0.606   0.977 -0.1882 -0.2222 -0.1222
11992SOL    HW237418   2.226   0.456   0.985  2.3395 -0.5978 -0.7454
11993SOL     OW37419   4.417   4.316   9.621  0.0182  0.2986  0.0823
11993SOL    HW137420   4.459   4.302   9.706 -1.2045 -0.8761  0.5167
11993SOL    HW237421   4.326   4.337   9.642 -0.3783 -0.3290 -0.9437
11994SOL     OW37422   5.012   6.114   8.037 -0.4952 -0.0181 -0.2902
11994SOL    HW137423   4.944   6.154   8.091 -0.2771  1.3317 -0.9627
11994SOL    HW237424   5.047   6.187   7.985  1.9093 -0.5081  0.4964
11995SOL     OW37425   1.331   2.952   9.952 -0.2009  0.3521  0.0556
11995SOL    HW137426   1.322   2.859   9.932 -0.9905  0.5922 -0.7758
11995SOL    HW237427   1.426   2.967   9.957 -0.0344 -0.2352 -1.1071
11996SOL     OW37428   1.710   0.958   8.933 -0.2617 -0.2090  0.5725
11996SOL    HW137429   1.646   0.904   8.886 -0.2548 -0.2462  0.6061
11996SOL    HW237430   1.776   0.980   8.867 -0.4599  0.0722  0.4641
11997SOL     OW37431   2.135   0.404   6.144  0.1553  0.4721 -0.5701
11997SOL    HW137432   2.138   0.438   6.054  0.2733 -0.3105 -0.8735
11997SOL    HW237433   2.043   0.411   6.168  0.4741  2.8780  0.1385
11998SOL     OW37434   0.338   6.609   0.580  0.2518 -0.0728 -0.3623
11998SOL    HW137435   0.359   6.692   0.536  2.0973 -0.8056 -0.9570
11998SOL    HW237436   0.340   6.631   0.674  1.4071  0.4466 -0.4827
11999SOL     OW37437   7.123   5.849   9.781  0.2087  0.5239 -0.2005
11999SOL    HW137438   7.090   5.875   9.867 -0.5555  0.6479 -0.5205
11999SOL    HW237439   7.200   5.903   9.767 -1.0728  2.3243 -0.6427
12000SOL     OW37440   6.001   1.119   4.452  0.0244  0.3835 -0.0399
12000SOL    HW137441   6.092   1.089   4.450 -0.2248 -0.3647 -1.0908
12000SOL    HW237442   5.969   1.095   4.538  0.2446 -1.1684 -0.3598
12001SOL     OW37443   3.125   0.422   2.639 -0.2130  0.1505 -0.5926
12001SOL    HW137444   3.129   0.347   2.581 -0.6874 -0.9034  0.6900
12001SOL    HW237445   3.069   0.485   2.594  0.5065 -0.0962 -1.8562
12002SOL     OW37446   4.526   2.665   2.720 -0.1469 -0.1707  0.2130
12002SOL    HW137447   4.439   2.704   2.731 -1.1067 -1.2322 -2.7856
12002SOL    HW237448   4.573   2.725   2.662 -0.8168 -2.0755 -2.4915
12003SOL     OW37449   1.414   4.279   2.723  0.3143 -0.1011 -0.0694
12003SOL    HW137450   1.478   4.316   2.784 -0.2405 -0.2865  0.6302
12003SOL    HW237451   1.394   4.350   2.663  0.5591  0.2067  0.2118
12004SOL     OW37452   1.757   3.409   6.641  0.2884 -0.8731  0.1468
12004SOL    HW137453   1.745   3.398   6.547  3.1461  0.6068 -0.5332
12004SOL    HW237454   1.830   3.351   6.663 -0.5256 -1.4281  1.5615
12005SOL     OW37455   6.870   1.464   8.664 -0.4219  0.4865 -0.3956
12005SOL    HW137456   6.855   1.450   8.570 -0.3808 -0.1148 -0.3168
12005SOL    HW237457   6.941   1.528   8.667 -1.1188  1.2999 -0.7712
12006SOL     OW37458   2.142   2.552   4.425 -0.2208  0.3363 -0.1470
12006SOL    HW137459   2.161   2.482   4.363  0.6356  0.2156  0.2386
12006SOL    HW237460   2.162   2.633   4.377 -1.0447  0.3259 -0.5333
12007SOL     OW37461   7.833   4.742  10.088  0.0683  0.4978 -0.1080
12007SOL    HW137462   7.749   4.734  10.133 -0.1520  1.0259 -0.4160
12007SOL    HW237463   7.816   4.708  10.000  0.4124 -0.2220  0.0924
12008SOL     OW37464   6.274   0.037   9.543 -0.5047 -0.3736 -0.2582
12008SOL    HW137465   6.278  -0.049   9.501 -1.0575  0.8581 -3.1152
12008SOL    HW237466   6.183   0.064   9.535  0.1144  1.5309 -1.9949
12009SOL     OW37467   7.773   6.859   3.550 -0.1145  0.4878  0.0719
12009SOL    HW137468   7.795   6.860   3.643 -0.9049 -0.2816  0.2883
12009SOL    HW237469   7.822   6.785   3.514 -0.6766  0.0703  0.1310
12010SOL     OW37470   2.345   4.228  10.164  0.5847  0.2504  0.0670
12010SOL    HW137471   2.371   4.297  10.103 -0.7816  0.7910  0.0781
12010SOL    HW237472   2.426   4.208  10.212  1.6645 -0.1337 -1.8143
12011SOL     OW37473   7.031   2.029   5.286  0.4068  0.7500  0.0007
12011SOL    HW137474   6.973   2.042   5.361  0.8768  1.5709  0.2345
12011SOL    HW237475   7.115   2.003   5.325 -0.0788 -1.5559 -0.3842
12012SOL     OW37476   1.245   3.849  10.071  0.1719  0.0117 -0.5133
12012SOL    HW137477   1.296   3.797  10.133  1.8672  1.4745 -0.5903
12012SOL    HW237478   1.212   3.922  10.122 -0.3224  0.0448 -0.8715
12013SOL     OW37479   2.337   3.182   2.975 -0.5622  0.0335 -0.8433
12013SOL    HW137480   2.258   3.211   2.931  0.4092  0.8684 -2.1000
12013SOL    HW237481   2.381   3.124   2.912  0.3752  0.4725 -0.6137
12014SOL     OW37482   7.862   3.644   2.233  0.2176 -0.0171  0.2167
12014SOL    HW137483   7.810   3.568   2.206 -0.0102  0.2465 -0.0966
12014SOL    HW237484   7.868   3.637   2.328  1.2005 -1.0722  0.0958
12015SOL     OW37485   1.552   6.994   7.985  0.4622 -0.1393 -0.2636
12015SOL    HW137486   1.624   6.936   7.963  1.9207  1.3978  0.2678
12015SOL    HW237487   1.585   7.082   7.968 -0.8282  0.6873  1.1985
12016SOL     OW37488   0.090   7.039   9.092  0.0923  0.3126 -0.2728
12016SOL    HW137489   0.084   7.126   9.130 -0.1813 -0.6580  2.0745
12016SOL    HW237490   0.182   7.015   9.101 -0.1439 -0.2882  0.7234
12017SOL     OW37491   6.582   0.350  10.770 -0.3377 -0.0314 -0.3124
12017SOL    HW137492   6.667   0.394  10.773 -0.8845  1.2728 -2.0737
12017SOL    HW237493   6.545   0.364  10.858  0.3318  1.3840 -0.2284
12018SOL     OW37494   7.076   1.996  12.456 -0.1698  0.0705  0.1871
12018SOL    HW137495   7.014   1.954  12.397 -0.7204 -1.0317  1.5155
12018SOL    HW237496   7.023   2.027  12.529  0.5294  1.2629  0.2166
12019SOL     OW37497   6.603   2.114   1.003  0.4237  0.2718 -0.4708
12019SOL    HW137498   6.607   2.204   1.035  0.8910  0.1213 -0.1128
12019SOL    HW237499   6.677   2.106   0.943 -0.0608  0.3522 -1.0892
12020SOL     OW37500   3.713   0.314   7.714 -0.5382 -0.2079  0.3702
12020SOL    HW137501   3.739   0.249   7.649  0.0219 -0.6519  1.0211
12020SOL    HW237502   3.790   0.369   7.725 -0.9299  0.4347  0.0030
12021SOL     OW37503   7.585   0.785   3.935 -0.8301 -0.6339  0.0314
12021SOL    HW137504   7.561   0.763   3.845  0.7127 -0.4678 -0.4442
12021SOL    HW237505   7.515   0.842   3.966 -2.1915 -1.9508 -0.5084
12022SOL     OW37506   1.825   1.882  12.347 -0.2055 -0.0741  0.0781
12022SOL    HW137507   1.766   1.846  12.412 -1.1993  1.2022 -0.0854
12022SOL    HW237508   1.825   1.977  12.363  1.6171 -0.0023 -0.0787
12023SOL     OW37509   0.826   0.337  10.764 -0.2543 -0.8461  0.0093
12023SOL    HW137510   0.900   0.370  10.816  0.0784 -2.7630  0.8352
12023SOL    HW237511   0.762   0.307  10.829 -0.9797 -0.8834 -0.7013
12024SOL     OW37512   3.654   4.696   5.585  0.2012 -0.0267  0.0667
12024SOL    HW137513   3.748   4.707   5.567  0.4772 -0.1136  1.3675
12024SOL    HW237514   3.647   4.607   5.618 -0.6600 -0.7111 -1.7979
12025SOL     OW37515   6.150   0.323   4.240  0.2974  0.0102  0.4533
12025SOL    HW137516   6.121   0.408   4.208 -1.4724 -0.1592  1.4724
12025SOL    HW237517   6.106   0.259   4.184  0.7741 -0.2542  0.3703
12026SOL     OW37518   0.288   6.059   5.880  0.6119  0.3054  0.6535
12026SOL    HW137519   0.336   6.074   5.799 -0.0946 -3.2326 -0.6037
12026SOL    HW237520   0.343   5.997   5.929 -0.1272  0.4600  1.7092
12027SOL     OW37521   0.361   6.455   0.013 -0.1454 -0.3270  0.0786
12027SOL    HW137522   0.426   6.524  -0.002 -0.5014 -0.0770 -0.3157
12027SOL    HW237523   0.384   6.419   0.100  2.0756 -1.9441 -1.0574
12028SOL     OW37524   6.020   5.816   2.675 -0.0548 -0.0065 -0.0730
12028SOL    HW137525   5.989   5.900   2.708 -2.6750 -1.2813  1.0094
12028SOL    HW237526   6.075   5.781   2.745 -0.2316  0.1347  0.1373
12029SOL     OW37527   2.187   3.057   6.987 -0.1328 -0.4674  0.0308
12029SOL    HW137528   2.198   2.989   7.053  0.5886 -1.1147 -0.7306
12029SOL    HW237529   2.128   3.121   7.027 -0.3752 -1.2626  0.9682
12030SOL     OW37530   1.797   2.541   4.887 -0.0882  0.0186  0.6084
12030SOL    HW137531   1.865   2.599   4.923 -0.2339  0.1896  0.6078
12030SOL    HW237532   1.835   2.507   4.806  0.2397 -0.3637  0.9196
12031SOL     OW37533   5.018   0.427   1.635  0.1217 -0.3774  0.0293
12031SOL    HW137534   4.937   0.391   1.599 -0.4249  1.4424 -0.6566
12031SOL    HW237535   4.998   0.445   1.727 -1.0179  2.0644 -0.6310
12032SOL     OW37536   3.656   5.881  11.238 -0.1397  0.1034  0.2060
12032SOL    HW137537   3.630   5.800  11.282  0.3550  0.8337  1.9106
12032SOL    HW237538   3.621   5.951  11.293 -0.4053  1.0726 -1.1413
12033SOL     OW37539   5.770   0.955   3.637  0.2428 -0.4403 -0.6483
12033SOL    HW137540   5.814   0.872   3.618  0.2472 -0.5063 -0.3593
12033SOL    HW237541   5.759   0.954   3.732  0.2076 -0.1259 -0.6508
12034SOL     OW37542   2.198   3.241   9.692 -0.0937  0.0157  0.4086
12034SOL    HW137543   2.125   3.214   9.748 -1.4456  0.6139 -0.9845
12034SOL    HW237544   2.231   3.159   9.655 -1.5084 -0.1204 -0.6353
12035SOL     OW37545   7.362   2.632  11.314  0.4209 -0.0005 -0.5127
12035SOL    HW137546   7.450   2.658  11.342  1.1878 -1.5795 -1.3455
12035SOL    HW237547   7.372   2.605  11.223 -0.5178 -1.9214 -0.1145
12036SOL     OW37548   0.910   6.880   5.844 -0.2148 -0.5107 -0.8009
12036SOL    HW137549   0.839   6.921   5.794 -0.1020  0.4915 -0.1666
12036SOL    HW237550   0.988   6.898   5.793 -0.3249 -1.0497 -1.1682
12037SOL     OW37551   0.389   6.740   7.565  0.1587 -0.6342 -0.1485
12037SOL    HW137552   0.421   6.769   7.479 -0.2294 -0.0033 -0.0872
12037SOL    HW237553   0.410   6.813   7.624  0.3698 -1.0402  0.2856
12038SOL     OW37554   5.829   0.374   3.017  0.1495 -0.0729  0.8869
12038SOL    HW137555   5.896   0.442   3.009  0.7953 -0.8239 -0.5560
12038SOL    HW237556   5.853   0.327   3.098  0.7391  0.3208  0.9511
12039SOL     OW37557   3.779   3.877  10.405  0.4532  0.7365  0.4492
12039SOL    HW137558   3.751   3.786  10.398 -0.2648  0.9790  0.0738
12039SOL    HW237559   3.856   3.874  10.461 -0.3377  0.0453  1.5370
12040SOL     OW37560   4.024   3.033   2.241 -0.2455 -0.0805 -0.3866
12040SOL    HW137561   3.983   3.008   2.323  0.6393  0.7351  0.3432
12040SOL    HW237562   3.977   3.112   2.214 -1.4889 -1.1449 -1.4510
12041SOL     OW37563   7.343   6.660   5.534 -0.6068 -0.2678  0.3530
12041SOL    HW137564   7.269   6.638   5.589 -0.5058  0.1056  0.6439
12041SOL    HW237565   7.334   6.754   5.517 -0.3658 -0.2788  0.1425
12042SOL     OW37566   6.561   2.749  12.470  0.4133  0.0835 -0.5064
12042SOL    HW137567   6.588   2.658  12.459 -1.5177 -0.4138 -1.7341
12042SOL    HW237568   6.623   2.785  12.532  1.6609 -1.8771 -0.5148
12043SOL     OW37569   6.893   6.834  11.912  0.2157 -0.2060  0.3932
12043SOL    HW137570   6.971   6.863  11.958  0.2043  1.3782 -0.5118
12043SOL    HW237571   6.829   6.904  11.926  0.1912  0.3077 -1.8984
12044SOL     OW37572   4.212   5.538  10.234  0.1066  0.4191 -0.0342
12044SOL    HW137573   4.124   5.518  10.203 -0.3673  1.5075  0.5352
12044SOL    HW237574   4.228   5.475  10.304 -0.2635  0.2776 -0.0750
12045SOL     OW37575   5.159   6.653   6.095 -0.6522  0.7635  0.5011
12045SOL    HW137576   5.129   6.601   6.169 -1.0389  0.5039  0.1635
12045SOL    HW237577   5.185   6.737   6.134  1.4523 -0.1670  1.2940
12046SOL     OW37578   1.268   6.520  12.143  0.2716 -0.1450  0.0784
12046SOL    HW137579   1.357   6.546  12.119  0.3712  0.6561  1.2382
12046SOL    HW237580   1.268   6.424  12.135  0.5329  0.0071 -2.1854
12047SOL     OW37581   2.438   7.253   7.225  0.2862  0.1116 -0.0147
12047SOL    HW137582   2.448   7.341   7.190 -0.5584  0.1682 -0.1129
12047SOL    HW237583   2.432   7.196   7.148  0.3135  0.0241  0.0467
12048SOL     OW37584   3.632   5.678   7.691  0.3511  0.5761 -0.2814
12048SOL    HW137585   3.617   5.760   7.644 -0.0262  1.5077  1.3812
12048SOL    HW237586   3.626   5.702   7.784 -0.1694 -1.4162  0.2499
12049SOL     OW37587   1.066   3.058   9.206 -0.4340 -0.1589 -0.1639
12049SOL    HW137588   1.050   3.120   9.278  0.7762 -0.0501  0.0345
12049SOL    HW237589   1.035   2.974   9.239 -0.2141 -0.0399  0.3584
12050SOL     OW37590   5.724   3.074  10.880  0.5276 -0.1749  0.2042
12050SOL    HW137591   5.738   3.069  10.786 -0.6538  1.3242 -0.1043
12050SOL    HW237592   5.655   3.010  10.898 -0.2553  0.5257 -0.2209
12051SOL     OW37593   4.277   1.367   3.280 -0.1168  0.0967  0.4271
12051SOL    HW137594   4.265   1.279   3.317 -0.4113  0.4098  1.1025
12051SOL    HW237595   4.230   1.365   3.197 -0.7930 -0.1474  0.8090
12052SOL     OW37596   0.693   1.441   5.779 -0.0283 -0.0811  0.1889
12052SOL    HW137597   0.755   1.431   5.851 -2.0955 -0.1556  2.0754
12052SOL    HW237598   0.698   1.357   5.733  0.1065 -0.7214  1.3077
12053SOL     OW37599   3.136   5.516   1.084  0.2369  0.3893  0.3914
12053SOL    HW137600   3.052   5.519   1.039  0.3659 -0.5294  0.0632
12053SOL    HW237601   3.142   5.427   1.119  0.5424  0.8151  1.4566
12054SOL     OW37602   1.671   5.417   4.068  0.1383  0.1333 -0.4981
12054SOL    HW137603   1.607   5.445   4.004  0.5463  0.5172 -0.7437
12054SOL    HW237604   1.676   5.322   4.058 -0.1538  0.1378 -0.6908
12055SOL     OW37605   1.134   7.888   2.489 -0.1551  0.0855 -0.2216
12055SOL    HW137606   1.226   7.903   2.511 -0.1443  0.7317 -0.6434
12055SOL    HW237607   1.088   7.889   2.573 -0.1172  2.4564 -0.1422
12056SOL     OW37608   7.353   2.699   6.002  0.3456  0.7822 -0.3029
12056SOL    HW137609   7.319   2.734   6.084  1.2015  1.4074 -0.1970
12056SOL    HW237610   7.324   2.608   6.001  0.0065  0.8697  0.5100
12057SOL     OW37611   3.917   6.097   5.274  0.4754  0.1144  0.0830
12057SOL    HW137612   4.001   6.106   5.229  0.1293  1.8775 -0.2948
12057SOL    HW237613   3.886   6.010   5.251  1.8211 -0.2594 -0.4241
12058SOL     OW37614   7.049   2.702   1.552  0.0264 -0.2845 -0.2531
12058SOL    HW137615   6.993   2.683   1.627  0.3770  0.4776  0.2193
12058SOL    HW237616   7.120   2.638   1.557  0.5555  0.3499  0.6230
12059SOL     OW37617   0.210   2.840   4.867 -0.2709 -0.1471 -0.1337
12059SOL    HW137618   0.134   2.785   4.886 -1.3261  1.2461 -0.2332
12059SOL    HW237619   0.197   2.919   4.918  1.5637 -0.2127  0.5262
12060SOL     OW37620   1.913   4.489   1.357  0.2684  0.1072  0.3137
12060SOL    HW137621   1.870   4.575   1.359 -1.3022 -0.6370  0.0945
12060SOL    HW237622   1.961   4.488   1.275 -0.4172  0.4492 -0.1011
12061SOL     OW37623   0.966   0.979   1.024  0.2293 -0.0069  0.4138
12061SOL    HW137624   0.982   0.893   0.986 -1.4327  0.8392 -2.5675
12061SOL    HW237625   0.936   0.961   1.113  1.5182 -2.3519  0.4448
12062SOL     OW37626   4.908   3.039  11.126 -0.5018 -0.2729  0.1075
12062SOL    HW137627   4.928   3.109  11.188  1.1735  0.4416 -1.1494
12062SOL    HW237628   4.961   3.060  11.049 -2.5717 -1.0533 -1.6241
12063SOL     OW37629   2.587   3.003   9.388  0.3408  0.1926 -0.0545
12063SOL    HW137630   2.620   3.039   9.470 -0.3679  1.0993 -0.1480
12063SOL    HW237631   2.495   3.029   9.385  0.4766  0.6487 -1.3623
12064SOL     OW37632   1.885   4.137  10.720  0.8316  0.4628 -0.1836
12064SOL    HW137633   1.952   4.069  10.710  1.3532  0.9716 -0.1910
12064SOL    HW237634   1.814   4.094  10.769  2.2398  0.6302  2.1689
12065SOL     OW37635   0.865   7.965   6.271  0.1765 -0.4554 -0.0509
12065SOL    HW137636   0.882   8.009   6.188 -1.2889 -0.2111 -0.2604
12065SOL    HW237637   0.874   8.033   6.337  1.4185 -0.6660  0.0240
12066SOL     OW37638   7.084   3.341   1.597 -0.2653 -0.5107 -0.1896
12066SOL    HW137639   7.098   3.406   1.666  1.8718 -0.6076 -0.4531
12066SOL    HW237640   7.094   3.391   1.516 -0.0134 -0.8948 -0.3975
12067SOL     OW37641   1.772   2.868   2.948  0.1781  0.4548  0.1711
12067SOL    HW137642   1.803   2.890   2.860 -2.1137  1.0461 -0.5480
12067SOL    HW237643   1.733   2.781   2.938  0.7402  0.1093  0.8597
12068SOL     OW37644   7.846   4.774   7.299 -0.2496  1.0145  0.3854
12068SOL    HW137645   7.920   4.831   7.277  0.4295  0.2267  0.6015
12068SOL    HW237646   7.884   4.688   7.311 -1.2240  0.5700  0.4044
12069SOL     OW37647   0.563   0.152   8.537  0.1925  0.0168  0.0280
12069SOL    HW137648   0.596   0.063   8.542 -0.6216 -0.3637 -0.9732
12069SOL    HW237649   0.632   0.206   8.575  0.7670 -1.0140  0.4792
12070SOL     OW37650   4.411   4.733   6.913 -0.2571 -0.2296 -0.0165
12070SOL    HW137651   4.421   4.653   6.861  1.6664 -0.3241  0.4269
12070SOL    HW237652   4.323   4.726   6.951 -0.3708 -1.8173 -0.5139
12071SOL     OW37653   7.762   5.244   2.629  0.1474 -0.0976  0.1681
12071SOL    HW137654   7.713   5.194   2.563  0.0758  0.2838 -0.0749
12071SOL    HW237655   7.696   5.302   2.668  0.4869  0.7557 -0.4884
12072SOL     OW37656   5.025   0.242  12.206 -0.5719 -0.1463  0.1372
12072SOL    HW137657   4.986   0.327  12.184 -0.0200  0.5452  1.6729
12072SOL    HW237658   5.085   0.224  12.135  0.0023  1.2355  0.2354
12073SOL     OW37659   3.548   1.046   2.029 -0.3570  0.3555  0.4355
12073SOL    HW137660   3.490   1.106   2.074 -0.3797  2.3679 -2.0597
12073SOL    HW237661   3.490   0.989   1.978 -0.3021  2.0559 -1.6807
12074SOL     OW37662   4.082   7.953   8.838  0.0303 -0.5356 -0.4004
12074SOL    HW137663   4.080   7.893   8.914 -0.2551 -0.3009 -0.2203
12074SOL    HW237664   4.040   8.033   8.870  2.5607  0.6965  0.1425
12075SOL     OW37665   3.987   1.252   1.539 -0.2752 -0.8153 -0.5730
12075SOL    HW137666   4.050   1.199   1.489  0.2601  1.1083 -2.0443
12075SOL    HW237667   3.921   1.188   1.568  1.2081 -2.5460 -0.7921
12076SOL     OW37668   4.541   3.972   2.855 -0.2959  0.3809 -0.1328
12076SOL    HW137669   4.446   3.956   2.860 -0.4310  0.8799 -0.9907
12076SOL    HW237670   4.570   3.971   2.946 -1.5774  2.8932  0.3909
12077SOL     OW37671   5.626   7.139   1.128  0.6272  0.7186 -0.2684
12077SOL    HW137672   5.535   7.116   1.148  0.7916  0.1345 -0.1629
12077SOL    HW237673   5.664   7.162   1.212  0.9197 -0.2922 -0.1174
12078SOL     OW37674   7.631   5.054   3.742 -0.9596  0.4514  0.0335
12078SOL    HW137675   7.557   5.050   3.682 -0.8124  1.9868 -0.2960
12078SOL    HW237676   7.638   5.147   3.765 -1.9036 -0.1922  3.5365
12079SOL     OW37677   6.638   2.169   4.031 -0.5832 -0.0404 -0.3978
12079SOL    HW137678   6.652   2.075   4.018 -1.1118 -0.3778  1.2916
12079SOL    HW237679   6.590   2.175   4.114 -0.1436  1.7518 -0.2428
12080SOL     OW37680   6.583   3.508  10.077  0.1015  0.9311  0.6599
12080SOL    HW137681   6.520   3.441  10.103 -0.1367  1.2261  0.8415
12080SOL    HW237682   6.531   3.586  10.060  0.4413  1.2727  1.1444
12081SOL     OW37683   0.631   7.004   9.276 -0.1272  0.5013 -0.1393
12081SOL    HW137684   0.603   6.915   9.257 -0.5536  0.6525 -0.2259
12081SOL    HW237685   0.705   7.019   9.216  2.0863 -0.8943  2.0337
12082SOL     OW37686   4.550   7.046   3.616  0.4699  0.3264  0.4315
12082SOL    HW137687   4.467   7.092   3.600  0.0375 -0.4939  0.2430
12082SOL    HW237688   4.617   7.108   3.590 -0.1291  0.4951 -0.7711
12083SOL     OW37689   0.070   1.626   3.451  0.2380 -0.4626  0.1007
12083SOL    HW137690  -0.019   1.596   3.431 -0.1081  1.1947 -1.0242
12083SOL    HW237691   0.121   1.602   3.373  0.7365 -1.1910  0.6412
12084SOL     OW37692   1.261   6.861   1.515 -0.7075 -0.0321  0.0726
12084SOL    HW137693   1.277   6.769   1.495 -0.4477 -0.0388  0.3013
12084SOL    HW237694   1.341   6.890   1.559 -0.9647  0.1893  0.3960
12085SOL     OW37695   3.179   1.128   1.530 -0.0575 -0.5633  0.3070
12085SOL    HW137696   3.162   1.070   1.456  1.1225 -0.1608 -0.3063
12085SOL    HW237697   3.274   1.135   1.533 -0.1664  2.1899 -0.3299
12086SOL     OW37698   2.081   2.923   6.714 -0.8721  0.7696 -0.0622
12086SOL    HW137699   2.080   2.978   6.792 -0.0464  0.2468  0.3335
12086SOL    HW237700   2.163   2.873   6.721  0.6807  2.6855 -2.6497
12087SOL     OW37701   0.755   3.004  10.874 -0.0374  0.0983  0.2477
12087SOL    HW137702   0.720   3.008  10.785 -2.3937 -0.6159  1.0538
12087SOL    HW237703   0.719   2.923  10.911  2.8564 -0.9263  1.1318
12088SOL     OW37704   7.177   6.273   9.192  0.3166  0.3568 -0.3781
12088SOL    HW137705   7.207   6.193   9.235  0.0219  0.1942 -0.4704
12088SOL    HW237706   7.086   6.254   9.167  0.8455 -0.0154 -2.1878
12089SOL     OW37707   6.130   5.501   9.129  0.2727 -0.1538  0.1474
12089SOL    HW137708   6.172   5.539   9.052 -0.3197  1.2782  0.5027
12089SOL    HW237709   6.182   5.423   9.149  1.4715  0.4120 -0.6615
12090SOL     OW37710   6.374   6.490   6.384 -0.1169 -0.0565  0.2100
12090SOL    HW137711   6.341   6.408   6.347 -1.4080  0.7696 -0.5367
12090SOL    HW237712   6.327   6.559   6.337  2.7915  1.2423 -1.0240
12091SOL     OW37713   4.754   6.499  11.193  0.3151  0.5359  0.3211
12091SOL    HW137714   4.695   6.567  11.159 -0.8557  1.0910  3.2027
12091SOL    HW237715   4.829   6.547  11.227  1.0374  0.0721 -0.5814
12092SOL     OW37716   2.958   7.596   0.589  0.2395  0.4077  0.2982
12092SOL    HW137717   3.000   7.663   0.643  1.9114  0.9455 -1.5717
12092SOL    HW237718   2.983   7.618   0.499  0.9871 -2.8034 -0.3971
12093SOL     OW37719   0.300   2.787   4.615  0.5074 -0.2081  0.3282
12093SOL    HW137720   0.273   2.802   4.705 -0.4598 -0.3374  0.0709
12093SOL    HW237721   0.240   2.840   4.562 -0.1752 -1.5522 -0.3352
12094SOL     OW37722   5.710   4.908   1.151 -0.4193 -0.4092  0.6855
12094SOL    HW137723   5.621   4.940   1.139 -0.3906 -0.7292 -0.5203
12094SOL    HW237724   5.766   4.984   1.134 -0.3710 -0.8780 -1.7141
12095SOL     OW37725   0.693   4.155   2.167 -0.5773  0.6461 -0.1973
12095SOL    HW137726   0.771   4.133   2.116  0.2467  1.1459  0.7977
12095SOL    HW237727   0.680   4.248   2.152  0.0242  0.9287  0.9316
12096SOL     OW37728   0.816   5.036   8.856  1.5822  0.1449  0.2182
12096SOL    HW137729   0.794   4.948   8.825 -0.6161  0.2468  1.3309
12096SOL    HW237730   0.852   5.023   8.944  1.8333  0.3288  0.1456
12097SOL     OW37731   2.139   7.808   7.348 -0.6771 -0.1792 -0.1155
12097SOL    HW137732   2.196   7.872   7.389  1.3018 -1.5722 -0.5344
12097SOL    HW237733   2.095   7.856   7.278 -0.3976  1.0469  0.5234
12098SOL     OW37734   0.720   4.611  12.119  0.7109  0.5049  0.2754
12098SOL    HW137735   0.697   4.702  12.137 -1.7871 -0.2458  1.4006
12098SOL    HW237736   0.683   4.562  12.193  1.1865 -1.5000 -0.7485
12099SOL     OW37737   2.239   2.117  12.365  0.1796  0.4638  0.2705
12099SOL    HW137738   2.159   2.111  12.312  1.0627  1.5549 -1.2580
12099SOL    HW237739   2.278   2.201  12.341  2.7842 -0.8499 -0.5213
12100SOL     OW37740   3.535   6.176   4.311  0.2912  0.3214 -0.0727
12100SOL    HW137741   3.445   6.195   4.287 -0.3824 -0.7198  1.4802
12100SOL    HW237742   3.580   6.163   4.228 -0.1941  3.9576 -1.0608
12101SOL     OW37743   4.876   7.789   1.990  0.6186 -0.0342  0.3169
12101SOL    HW137744   4.866   7.883   1.974 -2.7317 -0.5895 -2.1073
12101SOL    HW237745   4.946   7.762   1.931  0.2740  0.7198 -0.4674
12102SOL     OW37746   3.935   6.894   8.599 -0.1153  0.3074  0.0879
12102SOL    HW137747   4.008   6.850   8.643 -0.9367 -1.0983  0.1394
12102SOL    HW237748   3.871   6.824   8.584 -1.2230  1.3886 -0.4431
12103SOL     OW37749   7.175   3.963   1.778  0.2080 -0.0374 -0.2849
12103SOL    HW137750   7.207   3.969   1.868  0.6854  0.3417 -0.4769
12103SOL    HW237751   7.082   3.943   1.787  0.2274  0.1176  0.2947
12104SOL     OW37752   0.560   5.278   7.199  0.2319 -0.1693  0.5127
12104SOL    HW137753   0.639   5.243   7.241  0.4211 -0.1291  0.1941
12104SOL    HW237754   0.515   5.200   7.165  0.5072 -0.1386  0.0573
12105SOL     OW37755   7.562   5.056  11.775 -0.1936 -0.0466  0.3322
12105SOL    HW137756   7.597   5.132  11.822 -1.1407  1.0327 -0.6382
12105SOL    HW237757   7.614   5.053  11.695  0.2539 -0.8296  0.6403
12106SOL     OW37758   0.419   6.299   6.053  0.6196 -0.0410 -0.4243
12106SOL    HW137759   0.492   6.241   6.031  1.8692  1.1503  0.4270
12106SOL    HW237760   0.461   6.378   6.086 -1.0575  1.1453 -1.0383
12107SOL     OW37761   6.142   2.036   7.779  0.8029 -0.2313 -0.1362
12107SOL    HW137762   6.108   1.955   7.816  2.0085  0.3949  2.5307
12107SOL    HW237763   6.065   2.091   7.766  0.1056 -1.3377 -0.9032
12108SOL     OW37764   4.143   5.227  10.121 -0.3694 -0.3304  0.1152
12108SOL    HW137765   4.120   5.169  10.049 -0.4301 -0.0695 -0.0780
12108SOL    HW237766   4.234   5.205  10.141 -0.3226 -0.3375 -0.1050
12109SOL     OW37767   0.600   4.126  10.676  0.0485 -0.0605  0.5580
12109SOL    HW137768   0.587   4.084  10.591  1.1695 -0.2527  0.4715
12109SOL    HW237769   0.623   4.217  10.654 -1.6759  0.4474  0.7273
12110SOL     OW37770   6.837   2.935   1.155  0.0341 -0.5356 -0.3190
12110SOL    HW137771   6.908   2.921   1.093 -0.5485  0.1841 -1.1693
12110SOL    HW237772   6.757   2.934   1.102 -0.3851  1.3896  0.2042
12111SOL     OW37773   2.478   5.435   9.952  0.0630 -0.5361 -0.7948
12111SOL    HW137774   2.448   5.508  10.006 -0.4962  0.2373 -2.0914
12111SOL    HW237775   2.574   5.443   9.952  0.1720 -1.3538  1.1176
12112SOL     OW37776   7.752   5.828   5.174  0.1078  0.0197 -0.9647
12112SOL    HW137777   7.730   5.745   5.132 -0.3914 -1.0355  1.2355
12112SOL    HW237778   7.825   5.807   5.232  0.3204  1.2457 -0.7534
12113SOL     OW37779   1.684   5.422   8.467  0.1376 -0.8328 -0.2840
12113SOL    HW137780   1.631   5.502   8.464 -1.1465 -1.6887 -1.8096
12113SOL    HW237781   1.733   5.429   8.549 -1.4119  0.5914  0.5735
12114SOL     OW37782   4.710   5.496  10.355 -0.4062 -0.1701  0.0878
12114SOL    HW137783   4.723   5.417  10.407 -2.1972 -1.1719 -0.8822
12114SOL    HW237784   4.766   5.484  10.279  0.2678  0.1071  0.5262
12115SOL     OW37785   4.914   0.049   1.204 -0.1215 -0.1940  0.5011
12115SOL    HW137786   4.958   0.133   1.186 -1.0738 -0.2743 -2.9924
12115SOL    HW237787   4.976  -0.017   1.174 -0.3790 -0.6219  0.8963
12116SOL     OW37788   5.916   3.980  11.347 -0.8572  0.1598 -0.3317
12116SOL    HW137789   5.871   4.011  11.426  0.0764  1.2311 -0.1921
12116SOL    HW237790   5.872   4.024  11.275 -0.9752  0.0640 -0.3188
12117SOL     OW37791   1.626   0.909   8.659  0.0923  0.3374  0.2507
12117SOL    HW137792   1.623   0.972   8.587  1.1493  0.7264  0.5335
12117SOL    HW237793   1.680   0.837   8.628  1.1707  0.8437  0.8928
12118SOL     OW37794   6.899   1.372   9.940 -0.2593  0.7706  0.1504
12118SOL    HW137795   6.825   1.312   9.931 -0.4397  0.8175  1.1464
12118SOL    HW237796   6.860   1.454   9.969  0.2524  0.4763  1.8223
12119SOL     OW37797   7.940   7.208  12.405  0.0850 -0.1047 -0.2121
12119SOL    HW137798   7.848   7.209  12.380 -0.5796  0.4823  2.0509
12119SOL    HW237799   7.967   7.117  12.398 -1.3306 -0.6728  1.2390
12120SOL     OW37800   3.280   3.416   3.409  0.1543  0.0631 -0.0045
12120SOL    HW137801   3.343   3.454   3.470  0.4710  0.1285 -0.3720
12120SOL    HW237802   3.219   3.488   3.391 -0.5008 -0.2171  0.9574
12121SOL     OW37803   4.675   6.884   2.878 -0.5132 -0.3979 -0.0894
12121SOL    HW137804   4.606   6.950   2.884  1.0952  1.4688 -0.8774
12121SOL    HW237805   4.665   6.846   2.790 -0.6619 -0.2920 -0.1183
12122SOL     OW37806   2.999   6.147  11.122 -0.4828 -0.1108  0.0826
12122SOL    HW137807   3.040   6.216  11.070 -0.3782 -0.1541  0.1067
12122SOL    HW237808   2.905   6.165  11.116 -0.5684 -0.8508 -1.1819
12123SOL     OW37809   1.053   5.943   8.940  0.1129 -0.0621 -0.0077
12123SOL    HW137810   0.968   5.902   8.920  0.1023  0.2947 -0.7326
12123SOL    HW237811   1.038   6.036   8.926  0.7537 -0.0432 -0.6476
12124SOL     OW37812   1.308   2.643   1.389 -0.2534  0.0088  0.3389
12124SOL    HW137813   1.314   2.737   1.373  1.5910 -0.1138  0.1765
12124SOL    HW237814   1.330   2.632   1.481 -0.0296 -0.2996  0.2514
12125SOL     OW37815   0.285   6.925   1.229 -0.1429 -0.2687 -1.1846
12125SOL    HW137816   0.347   6.960   1.294  0.1096  0.0289 -1.5805
12125SOL    HW237817   0.200   6.926   1.274  0.5279 -3.5837  0.5130
12126SOL     OW37818   3.706   4.915   3.149  0.4902 -0.4645 -0.1072
12126SOL    HW137819   3.755   4.925   3.231  1.4759 -1.3440 -0.5696
12126SOL    HW237820   3.751   4.972   3.087 -1.8435  2.3395  0.5494
12127SOL     OW37821   6.503   1.604   4.581 -0.3670  0.5968 -0.3361
12127SOL    HW137822   6.432   1.541   4.573  0.5612 -0.4931 -0.2716
12127SOL    HW237823   6.523   1.606   4.675  1.8829 -1.6917 -0.6554
12128SOL     OW37824   2.796   6.911   7.280  0.3137 -0.0680 -0.1107
12128SOL    HW137825   2.763   6.826   7.251  0.9263 -0.6337  0.8098
12128SOL    HW237826   2.801   6.904   7.375 -0.7172  1.4086  0.0852
12129SOL     OW37827   1.075   3.262   7.439  0.5740  0.6058  0.7087
12129SOL    HW137828   1.133   3.337   7.455 -0.0226  1.1376  0.4256
12129SOL    HW237829   1.062   3.223   7.525  1.8115  0.1264  0.7024
12130SOL     OW37830   0.559   5.550  10.496 -0.4333 -0.2310 -0.1584
12130SOL    HW137831   0.563   5.595  10.411 -0.9665  0.2712  0.0747
12130SOL    HW237832   0.524   5.616  10.556 -0.5455 -0.7430  0.3449
12131SOL     OW37833   2.380   6.594  12.172 -0.0559 -0.5687 -0.1020
12131SOL    HW137834   2.353   6.573  12.261  0.0147  3.7470  1.1330
12131SOL    HW237835   2.305   6.640  12.134  1.3945  1.4527 -0.6751
12132SOL     OW37836   2.597   0.389   0.109 -0.4420 -0.1832 -0.0050
12132SOL    HW137837   2.615   0.370   0.017 -1.1796  1.1772 -0.4549
12132SOL    HW237838   2.659   0.334   0.157  0.8984  0.0887 -1.3381
12133SOL     OW37839   5.110   7.436   6.284 -0.1862 -0.1350  0.2305
12133SOL    HW137840   5.192   7.435   6.333 -0.5981  2.0830  1.0843
12133SOL    HW237841   5.074   7.348   6.296  1.7333 -0.9601  0.3497
12134SOL     OW37842   3.578   7.673   8.512 -0.4494  0.1164 -0.0039
12134SOL    HW137843   3.529   7.751   8.485 -1.5024 -0.2311  0.8489
12134SOL    HW237844   3.516   7.601   8.499 -0.1967 -0.3239  1.1728
12135SOL     OW37845   1.781   5.376  10.993  0.2247 -0.3752 -0.6725
12135SOL    HW137846   1.711   5.427  11.035  0.5107  0.1964 -0.8730
12135SOL    HW237847   1.747   5.287  10.990 -0.9417  0.0676 -1.7021
12136SOL     OW37848   0.934   3.768   8.049 -0.4131 -0.2615 -0.1667
12136SOL    HW137849   1.028   3.774   8.068 -0.5009 -0.8325  0.4688
12136SOL    HW237850   0.894   3.744   8.133 -1.0591 -0.6327 -0.5783
12137SOL     OW37851   4.006   4.224   5.087 -0.3079  0.3406 -0.3081
12137SOL    HW137852   4.065   4.173   5.141 -0.0854  0.2889 -0.5975
12137SOL    HW237853   3.975   4.294   5.144  0.4797  0.7069 -0.3153
12138SOL     OW37854   4.010   3.821   8.627  0.0943  0.4104  0.1473
12138SOL    HW137855   3.962   3.863   8.699  2.3566  1.5511  1.1005
12138SOL    HW237856   4.093   3.794   8.666  0.1045 -1.9087 -1.3202
12139SOL     OW37857   3.543   5.225   2.467  0.2689  0.4857  1.0365
12139SOL    HW137858   3.494   5.283   2.526 -2.1337 -0.8727  0.4926
12139SOL    HW237859   3.534   5.138   2.506 -0.9542 -0.3641 -0.9596
12140SOL     OW37860   0.054   1.358   9.987 -0.9269 -0.4417  0.3134
12140SOL    HW137861   0.136   1.408   9.991  0.1777 -2.2683  2.6391
12140SOL    HW237862   0.032   1.357   9.894  1.1002  1.0132 -0.2626
12141SOL     OW37863   1.781   2.831   9.319  0.3071  0.3679 -0.1392
12141SOL    HW137864   1.711   2.826   9.254  0.4889 -0.5545 -0.2788
12141SOL    HW237865   1.861   2.814   9.269  0.3240 -1.7507  0.5191
12142SOL     OW37866   1.053   4.038  10.116  0.1093 -0.3005  0.7273
12142SOL    HW137867   1.005   4.097  10.174  0.1186  0.1554  0.2701
12142SOL    HW237868   0.985   3.993  10.066  0.1038 -0.6666  1.0529
12143SOL     OW37869   0.164   7.127   3.154  0.0738 -0.6008 -0.1450
12143SOL    HW137870   0.194   7.112   3.064 -0.4633 -1.3666 -0.2029
12143SOL    HW237871   0.106   7.054   3.172 -1.1321  0.4333  0.2491
12144SOL     OW37872   6.906   0.337   6.341 -0.2335  0.0168 -0.3807
12144SOL    HW137873   6.994   0.370   6.324 -0.0285 -0.5282 -0.4199
12144SOL    HW237874   6.900   0.257   6.288 -0.6572 -0.0908 -0.1772
12145SOL     OW37875   1.354   2.380   5.463  0.6172 -0.6705 -0.7143
12145SOL    HW137876   1.334   2.471   5.445 -0.6280 -1.0194 -1.1774
12145SOL    HW237877   1.346   2.372   5.558 -5.0077 -1.4516 -0.8969
12146SOL     OW37878   3.219   5.478  10.757  0.6356 -0.1004  0.1703
12146SOL    HW137879   3.217   5.574  10.760 -0.6440 -0.1349  1.7176
12146SOL    HW237880   3.151   5.454  10.694  0.7141 -0.0014  0.0479
12147SOL     OW37881   0.878   6.224   7.933 -0.0775 -0.2476  0.3325
12147SOL    HW137882   0.889   6.312   7.969  0.8879 -0.8919  1.7031
12147SOL    HW237883   0.950   6.214   7.871 -0.8973  0.3437 -0.7409
12148SOL     OW37884   3.773   1.541   2.468  1.2872  0.0001 -0.0516
12148SOL    HW137885   3.796   1.577   2.554 -3.1675 -0.1203  1.4582
12148SOL    HW237886   3.742   1.453   2.486 -0.4407  0.2223 -1.5863
12149SOL     OW37887   6.412   1.388  12.030  0.2711  0.0910  0.0166
12149SOL    HW137888   6.472   1.404  11.958 -0.7842 -1.6447 -1.3288
12149SOL    HW237889   6.357   1.316  12.000 -0.9046  0.0133  2.1522
12150SOL     OW37890   1.799   5.987   1.687  0.9270 -0.4038 -0.1201
12150SOL    HW137891   1.882   6.005   1.731  0.9941 -0.6774 -0.1312
12150SOL    HW237892   1.753   6.071   1.686  0.0714 -0.7662  2.2616
12151SOL     OW37893   1.114   7.008   4.436 -0.2703 -0.0490 -0.3835
12151SOL    HW137894   1.200   7.037   4.467  0.4143 -1.5206 -0.8018
12151SOL    HW237895   1.054   7.032   4.506  1.0613 -2.3168  1.6875
12152SOL     OW37896   0.445   7.599  12.227  0.3837 -0.2392  0.1956
12152SOL    HW137897   0.481   7.512  12.211  0.0954 -0.3664  0.2509
12152SOL    HW237898   0.425   7.633  12.139  0.9401 -0.0379  0.1399
12153SOL     OW37899   2.203   0.957   9.137  0.0245 -0.6981  0.7739
12153SOL    HW137900   2.134   1.004   9.092  0.5315  0.1060  0.8102
12153SOL    HW237901   2.271   1.023   9.153  1.2047 -1.6477 -0.0709
12154SOL     OW37902   0.120   2.458   9.952 -0.2467  0.2215  0.2747
12154SOL    HW137903   0.111   2.465  10.047  0.0438 -0.0045  0.3209
12154SOL    HW237904   0.090   2.542   9.919 -0.3162  0.3141  0.5697
12155SOL     OW37905   6.825   3.958   9.444  0.7017  0.0309  0.6311
12155SOL    HW137906   6.787   4.043   9.467  0.5532  0.5514 -1.3098
12155SOL    HW237907   6.758   3.894   9.466 -0.2748  0.6906 -0.3071
12156SOL     OW37908   2.429   4.870   2.028  0.3270 -0.3264  0.3456
12156SOL    HW137909   2.465   4.836   1.946  0.5022 -2.4994  1.2575
12156SOL    HW237910   2.495   4.931   2.060  0.8227 -0.3905 -0.5209
12157SOL     OW37911   4.570   3.920   3.138 -0.1920  0.2114  0.5687
12157SOL    HW137912   4.664   3.933   3.125 -0.0554 -0.3006  1.0010
12157SOL    HW237913   4.562   3.891   3.229 -0.6195 -1.2707  0.0890
12158SOL     OW37914   6.792   3.139   5.396  0.3716  0.1120 -0.3250
12158SOL    HW137915   6.870   3.187   5.424 -0.2103  0.0601  1.5165
12158SOL    HW237916   6.827   3.063   5.350  1.3754  0.7595 -0.6754
12159SOL     OW37917   3.647   7.193   7.352 -0.2080  0.4860  0.1294
12159SOL    HW137918   3.716   7.138   7.315 -0.3908  1.8102 -2.4037
12159SOL    HW237919   3.679   7.283   7.342 -1.8724  1.0831 -0.3053
12160SOL     OW37920   2.949   5.166   0.514 -0.1616 -0.2627 -0.3748
12160SOL    HW137921   2.972   5.248   0.471 -0.6875 -0.4336 -0.9927
12160SOL    HW237922   3.031   5.116   0.516  0.0226  0.0329 -0.5436
12161SOL     OW37923   0.007   2.167   7.678  0.0851 -0.1848 -0.2831
12161SOL    HW137924   0.055   2.226   7.736 -0.9424  0.2935  0.1165
12161SOL    HW237925  -0.074   2.148   7.727 -0.0467 -1.1102 -0.8483
12162SOL     OW37926   6.309   7.057   6.094 -0.5771  0.4316  0.2394
12162SOL    HW137927   6.227   7.104   6.113 -0.8144  0.0059  0.2905
12162SOL    HW237928   6.291   6.967   6.121 -0.5942  0.0109 -1.1075
12163SOL     OW37929   5.619   0.062   0.679 -0.0407  0.1210 -0.5021
12163SOL    HW137930   5.663   0.135   0.722  2.9052 -0.6968 -1.9352
12163SOL    HW237931   5.557   0.103   0.619  0.7183  1.4256 -0.4210
12164SOL     OW37932   6.211   7.256   9.756 -0.4633 -0.4663 -0.7723
12164SOL    HW137933   6.171   7.215   9.833  0.3001  1.2274  0.6001
12164SOL    HW237934   6.274   7.191   9.724  1.0950 -0.2969  1.6611
12165SOL     OW37935   7.641   0.148   4.389  0.5586  0.1999  0.1277
12165SOL    HW137936   7.546   0.140   4.378  0.3145  1.7460  0.8744
12165SOL    HW237937   7.652   0.171   4.481  1.7800 -1.4539  0.4331
12166SOL     OW37938   4.192   6.206   4.867 -0.5471 -0.0715 -0.4866
12166SOL    HW137939   4.205   6.119   4.829 -0.2151 -0.3187  0.1787
12166SOL    HW237940   4.280   6.235   4.890 -0.9015 -0.9498  2.3134
12167SOL     OW37941   0.519   2.916   5.213 -0.8475  0.3813  0.1685
12167SOL    HW137942   0.607   2.953   5.206 -1.8013  3.1985  1.9020
12167SOL    HW237943   0.499   2.888   5.123  1.0486  1.4624 -0.6601
12168SOL     OW37944   5.752   1.905  10.115  0.1547 -0.4270 -0.1430
12168SOL    HW137945   5.751   1.832  10.177 -0.0674  1.3105  2.0091
12168SOL    HW237946   5.677   1.959  10.140  0.0620  0.3648 -1.9634
12169SOL     OW37947   7.330   2.726   7.478  0.3583  0.7084 -0.0892
12169SOL    HW137948   7.375   2.809   7.462 -0.4030  1.1749  0.1219
12169SOL    HW237949   7.262   2.747   7.542 -0.2738  0.0618 -0.5242
12170SOL     OW37950   0.193   4.183  10.250  0.2433 -0.2333 -0.2444
12170SOL    HW137951   0.173   4.130  10.327  2.2755 -1.2456 -0.3475
12170SOL    HW237952   0.126   4.159  10.187 -0.3739 -0.7792  0.5972
12171SOL     OW37953   1.522   4.101   9.901 -0.5942  0.2325 -0.4142
12171SOL    HW137954   1.555   4.191   9.904 -1.1184  0.4390 -0.6537
12171SOL    HW237955   1.431   4.109   9.929 -0.2254 -0.4436  1.1382
12172SOL     OW37956   4.476   0.947   4.240 -0.0433 -0.2112  0.3430
12172SOL    HW137957   4.516   1.033   4.230 -1.8766  0.6860  0.2253
12172SOL    HW237958   4.433   0.931   4.155  0.3301 -1.2878  0.3393
12173SOL     OW37959   0.571   0.454   1.002  0.2851 -0.0004 -0.3003
12173SOL    HW137960   0.581   0.539   1.045 -0.4662  0.0532 -0.2059
12173SOL    HW237961   0.610   0.392   1.063 -1.8032 -0.0720  1.0958
12174SOL     OW37962   7.962   3.338   8.123  0.3159 -0.0432  0.3977
12174SOL    HW137963   7.876   3.326   8.163  0.0541  0.8138  0.1111
12174SOL    HW237964   7.997   3.249   8.116 -0.5563 -0.4099  0.4878
12175SOL     OW37965   1.622   5.141   4.010  0.1069  0.2337  0.3680
12175SOL    HW137966   1.655   5.052   4.001 -0.0237  0.2476 -0.2412
12175SOL    HW237967   1.528   5.131   4.023  0.2313  0.2329  1.4083
12176SOL     OW37968   3.490   0.195   0.627 -0.3294 -0.1644 -0.1648
12176SOL    HW137969   3.508   0.113   0.581 -0.3738  0.3523 -1.1262
12176SOL    HW237970   3.397   0.189   0.651 -0.5212 -0.0924 -0.8694
12177SOL     OW37971   2.601   0.159  11.775  0.1886  0.3894  0.6737
12177SOL    HW137972   2.617   0.119  11.690 -1.0329 -0.5110  0.8392
12177SOL    HW237973   2.664   0.116  11.834 -0.6782 -0.8857  0.7198
12178SOL     OW37974   5.329   7.415   3.513  0.4079 -0.9147 -0.1330
12178SOL    HW137975   5.330   7.511   3.521  0.5729 -0.9182 -0.1122
12178SOL    HW237976   5.236   7.393   3.511  0.3627 -0.6799 -1.0344
12179SOL     OW37977   7.571   3.794   3.303  0.4968  0.4758  0.5316
12179SOL    HW137978   7.561   3.713   3.253  0.8157  1.4755 -1.2506
12179SOL    HW237979   7.583   3.766   3.394  0.0793 -1.4316  0.0302
12180SOL     OW37980   2.745   1.716   7.058  0.5806 -0.7478  0.2003
12180SOL    HW137981   2.788   1.797   7.086  0.8085 -1.3371  1.6455
12180SOL    HW237982   2.746   1.719   6.962  2.5580 -0.0862  0.2148
12181SOL     OW37983   5.620   6.471   0.810  0.0667  0.5867  0.1250
12181SOL    HW137984   5.647   6.559   0.782  1.4280  0.0782 -0.2240
12181SOL    HW237985   5.702   6.427   0.834 -0.6210 -0.5114  0.5294
12182SOL     OW37986   3.815   7.043   2.504 -0.1853  0.5478  0.5830
12182SOL    HW137987   3.810   7.137   2.518 -1.6999  0.2080  2.8933
12182SOL    HW237988   3.778   7.030   2.417  0.1079  2.0878  0.2050
12183SOL     OW37989   6.861   5.018   3.719 -1.2443  0.9034 -0.0368
12183SOL    HW137990   6.882   4.935   3.763 -2.4408  0.8192  0.4028
12183SOL    HW237991   6.780   5.000   3.672 -1.4545  1.7897 -0.0206
12184SOL     OW37992   5.422   6.901   9.508  0.1533  0.5032 -0.2441
12184SOL    HW137993   5.448   6.809   9.515 -0.5957  0.4125  2.5547
12184SOL    HW237994   5.505   6.949   9.504  0.5542 -0.2256 -1.7777
12185SOL     OW37995   6.705   1.647   4.185 -0.2793  0.2516  0.0896
12185SOL    HW137996   6.719   1.667   4.278 -1.1808 -1.3096  0.6059
12185SOL    HW237997   6.629   1.589   4.185  0.4352 -0.7432 -1.5227
12186SOL     OW37998   0.483   4.741   6.974  0.0400 -0.2296  0.2016
12186SOL    HW137999   0.514   4.697   6.895 -0.1563 -1.0448  0.5701
12186SOL    HW238000   0.428   4.677   7.018 -0.9262  0.6627  0.3490
12187SOL     OW38001   3.334   2.740   3.299 -0.2383  0.1962  0.0373
12187SOL    HW138002   3.255   2.715   3.252 -0.2341  0.3759 -0.0669
12187SOL    HW238003   3.325   2.835   3.313 -0.5884  0.0216  1.0619
12188SOL     OW38004   0.272   2.577   3.135  0.3503  0.1407 -0.4687
12188SOL    HW138005   0.361   2.571   3.101  0.4421  0.0075 -0.2104
12188SOL    HW238006   0.277   2.535   3.221 -0.0464 -0.2205 -0.6194
12189SOL     OW38007   6.956   4.429   3.680 -0.0819 -0.0319  0.6139
12189SOL    HW138008   6.931   4.514   3.717 -1.3736  0.6951 -1.6856
12189SOL    HW238009   7.052   4.432   3.676 -0.1310  1.8242 -0.4004
12190SOL     OW38010   7.293   1.348  10.926  0.0250 -0.1184 -0.2475
12190SOL    HW138011   7.272   1.354  10.832 -0.0040  0.2594 -0.2175
12190SOL    HW238012   7.312   1.438  10.952 -0.7883 -0.0961  0.3061
12191SOL     OW38013   7.418   5.451   5.370  0.1528 -0.3796  0.0257
12191SOL    HW138014   7.425   5.437   5.275 -0.5958 -1.2295  0.0813
12191SOL    HW238015   7.325   5.446   5.389  0.3132 -0.4536  0.8431
12192SOL     OW38016   4.793   6.641   2.497  1.0120  0.0793  0.4340
12192SOL    HW138017   4.809   6.547   2.488  0.8400  0.1155 -0.3338
12192SOL    HW238018   4.861   6.671   2.558  0.8421 -0.6020  0.9691
12193SOL     OW38019   4.636   3.459   8.628 -0.7810 -0.1620 -0.5232
12193SOL    HW138020   4.685   3.540   8.640 -0.2535 -0.4578 -0.6393
12193SOL    HW238021   4.686   3.393   8.676  0.4323 -1.0193 -2.8070
12194SOL     OW38022   6.709   7.840  10.302  0.3582  0.3652 -0.4198
12194SOL    HW138023   6.731   7.781  10.230 -1.3961  0.3610 -1.0071
12194SOL    HW238024   6.628   7.803  10.338  0.9983  0.5895  1.3193
12195SOL     OW38025   2.486   1.030   6.341 -0.3777  0.2910 -0.6272
12195SOL    HW138026   2.431   1.108   6.334  0.1526  0.6291 -1.1729
12195SOL    HW238027   2.452   0.971   6.275 -0.7057  0.1053 -0.2932
12196SOL     OW38028   5.724   4.626   3.609  0.1943  0.2669 -0.4499
12196SOL    HW138029   5.644   4.610   3.559 -1.1549 -0.1278  1.7044
12196SOL    HW238030   5.792   4.581   3.560 -1.3647 -1.6186 -1.0045
12197SOL     OW38031   0.533   4.760   0.086  0.3525 -0.0927  0.4803
12197SOL    HW138032   0.510   4.828   0.023  1.3557  1.1586  1.4086
12197SOL    HW238033   0.621   4.733   0.061  0.0770 -0.8404  0.3040
12198SOL     OW38034   4.278   2.337   5.565 -0.1648 -0.5837 -0.4389
12198SOL    HW138035   4.231   2.257   5.542  0.4139 -1.2464  0.6160
12198SOL    HW238036   4.361   2.331   5.517  0.3960 -1.2346  0.5594
12199SOL     OW38037   4.415   7.173  12.252  0.3261 -0.1937  0.1328
12199SOL    HW138038   4.400   7.198  12.343 -0.3228  1.5735 -0.4070
12199SOL    HW238039   4.505   7.140  12.251 -0.1872 -1.8090  1.6805
12200SOL     OW38040   2.059   7.378  10.161 -0.1523 -0.2320  1.1937
12200SOL    HW138041   2.013   7.454  10.125  2.5994  2.3161  2.6657
12200SOL    HW238042   2.113   7.346  10.089 -0.3583  0.0270  0.9205
12201SOL     OW38043   6.650   5.035   9.738 -0.0244  0.3309  0.4125
12201SOL    HW138044   6.603   5.108   9.779  1.5849  0.7302  1.6432
12201SOL    HW238045   6.637   5.048   9.644 -1.1088  1.2647  0.6734
12202SOL     OW38046   5.693   1.394   3.231  0.1717 -0.6265 -0.1426
12202SOL    HW138047   5.767   1.354   3.276 -0.2996 -1.2155  0.1277
12202SOL    HW238048   5.658   1.325   3.176 -1.3122 -0.9517  1.1296
12203SOL     OW38049   4.284   5.634   4.232  0.3814  0.2610 -0.1278
12203SOL    HW138050   4.286   5.729   4.216 -1.0795  0.2710 -0.4043
12203SOL    HW238051   4.203   5.621   4.281  0.4391 -0.8808 -0.3264
12204SOL     OW38052   3.824   1.457  10.674  0.3618 -0.0631  0.6028
12204SOL    HW138053   3.829   1.396  10.600  2.4889  1.6370 -0.7947
12204SOL    HW238054   3.896   1.431  10.731  1.6618  1.3971 -0.2953
12205SOL     OW38055   5.747   2.845   1.106  0.1221 -0.1443  0.8052
12205SOL    HW138056   5.827   2.800   1.078  0.3892  1.1398 -0.6709
12205SOL    HW238057   5.677   2.796   1.063  0.3956  0.6551 -0.6249
12206SOL     OW38058   6.190   5.977   6.837  0.2149 -0.1718  0.0587
12206SOL    HW138059   6.242   5.975   6.918 -0.1177  1.0468  0.3268
12206SOL    HW238060   6.250   5.944   6.769  0.6671 -0.7129  0.6969
12207SOL     OW38061   6.972   0.824   5.195 -0.2496  0.0123 -0.0653
12207SOL    HW138062   6.902   0.875   5.153  1.2055  2.0395 -0.1939
12207SOL    HW238063   7.028   0.796   5.123 -0.9554 -1.7499  0.0207
12208SOL     OW38064   7.353   3.058   5.673  0.3480  0.1141  0.5934
12208SOL    HW138065   7.340   3.126   5.607 -0.1060 -0.2112  0.3430
12208SOL    HW238066   7.443   3.027   5.658 -0.2461 -1.0106 -0.8878
12209SOL     OW38067   0.729   3.759   5.975 -0.5532  0.1491  0.4955
12209SOL    HW138068   0.724   3.674   6.018  0.6087 -0.6933 -0.9478
12209SOL    HW238069   0.681   3.748   5.893 -0.0825  0.7598  0.1265
12210SOL     OW38070   0.907   2.812   5.352  0.2779  0.0322 -0.0459
12210SOL    HW138071   0.870   2.896   5.378 -0.6586 -0.6015  0.7214
12210SOL    HW238072   0.992   2.809   5.396 -0.2827 -0.0098  1.0693
12211SOL     OW38073   7.405   7.710   4.430 -0.5644  0.5036 -0.1404
12211SOL    HW138074   7.354   7.762   4.367  0.4690  1.1536 -0.4802
12211SOL    HW238075   7.458   7.652   4.375 -1.7345 -0.9719  0.2413
12212SOL     OW38076   2.463   2.707   1.519  0.0816 -0.0888  0.4124
12212SOL    HW138077   2.532   2.772   1.527  1.3761 -0.7407 -3.3717
12212SOL    HW238078   2.496   2.643   1.455 -2.3692 -2.7798  1.5770
12213SOL     OW38079   3.312   4.491   4.820  0.4528 -0.1261  0.7397
12213SOL    HW138080   3.330   4.425   4.752 -1.2890 -0.4673  0.5619
12213SOL    HW238081   3.229   4.463   4.859 -0.6931  2.2691  0.2460
12214SOL     OW38082   3.017   2.156   8.159  0.0703  0.3217  0.1622
12214SOL    HW138083   3.000   2.117   8.245  0.7234  0.3782  0.3273
12214SOL    HW238084   2.990   2.247   8.167  1.2697  0.6605  0.7170
12215SOL     OW38085   1.002   1.076   2.867 -0.4206 -0.1350 -0.4781
12215SOL    HW138086   1.083   1.091   2.818  0.0206  2.6453  0.8747
12215SOL    HW238087   0.954   1.159   2.859 -1.1717 -0.2213  2.1543
12216SOL     OW38088   2.979   1.620   1.951 -0.2584  0.1812  0.6241
12216SOL    HW138089   2.963   1.571   2.031 -0.3169  0.9335  1.0878
12216SOL    HW238090   2.923   1.698   1.959  1.1627  1.2318  0.7460
12217SOL     OW38091   6.558   6.687   1.219  0.3740 -0.0177  0.1801
12217SOL    HW138092   6.482   6.647   1.261  0.3013  0.3167  0.3768
12217SOL    HW238093   6.615   6.712   1.292 -0.3925  1.8464  0.1993
12218SOL     OW38094   0.161   0.063   3.037  0.2520  0.3506 -0.0045
12218SOL    HW138095   0.094   0.097   2.978  0.9793 -0.2027 -1.1945
12218SOL    HW238096   0.165   0.126   3.109 -0.3487  1.2804 -0.7727
12219SOL     OW38097   0.176   0.959  10.461  0.6298 -0.6142  0.1004
12219SOL    HW138098   0.207   0.875  10.427  2.0103  0.8715 -2.6473
12219SOL    HW238099   0.256   1.011  10.473 -0.2965  0.8469  0.1738
12220SOL     OW38100   3.204   4.039  12.134  0.1939 -0.1891  0.6111
12220SOL    HW138101   3.279   4.035  12.075  0.5059  0.2679  0.9678
12220SOL    HW238102   3.212   4.124  12.178 -0.6692 -0.0199  0.4741
12221SOL     OW38103   0.165   4.953  12.038 -0.0848 -0.3324 -0.2994
12221SOL    HW138104   0.210   4.869  12.029 -0.3702 -0.5194  0.0089
12221SOL    HW238105   0.128   4.951  12.126 -0.0915  0.1175 -0.2897
12222SOL     OW38106   6.332   3.077   7.927 -0.6313  0.2935  0.4056
12222SOL    HW138107   6.355   3.114   8.012  0.2456  1.6102 -0.3727
12222SOL    HW238108   6.306   3.152   7.874 -1.3454 -0.5239 -0.4601
12223SOL     OW38109   6.717   2.523   8.871  0.3804  0.6041 -0.2243
12223SOL    HW138110   6.670   2.514   8.954  0.9240 -3.3694 -0.1149
12223SOL    HW238111   6.648   2.522   8.804  0.0686  0.5243  0.0927
12224SOL     OW38112   3.196   6.341   3.757  0.3564  0.5277 -0.4434
12224SOL    HW138113   3.191   6.246   3.761 -1.5819  0.6067  0.3527
12224SOL    HW238114   3.117   6.368   3.709  0.6702  1.7364 -0.3229
12225SOL     OW38115   3.814   7.310   2.374  0.2190 -0.1147 -0.1674
12225SOL    HW138116   3.842   7.398   2.399  0.0536  0.3562 -1.5383
12225SOL    HW238117   3.824   7.308   2.279  0.3046 -1.6190 -0.1520
12226SOL     OW38118   4.249   7.815   1.462 -0.4096 -0.2674  0.5816
12226SOL    HW138119   4.300   7.817   1.381 -0.2071 -0.4504  0.7044
12226SOL    HW238120   4.172   7.763   1.441 -0.0075 -0.9284  0.7088
12227SOL     OW38121   2.692   0.071  11.466  0.6967 -0.2316  0.1335
12227SOL    HW138122   2.711  -0.023  11.469 -0.5209 -0.4728  1.7307
12227SOL    HW238123   2.673   0.089  11.373  1.1336 -1.5102 -0.2225
12228SOL     OW38124   6.743   2.416  10.101  0.1501 -0.0070  0.5478
12228SOL    HW138125   6.664   2.441  10.150  0.9906 -1.1165  2.5904
12228SOL    HW238126   6.750   2.321  10.113  1.0294 -0.1578 -0.8490
12229SOL     OW38127   1.980   7.354   4.755 -0.0660  0.8172 -0.4130
12229SOL    HW138128   2.048   7.288   4.738  0.2790  1.0873 -0.0780
12229SOL    HW238129   1.898   7.303   4.756  0.2064  0.3724 -0.0549
12230SOL     OW38130   6.025   1.122   0.716  0.3477 -0.0660 -0.0208
12230SOL    HW138131   6.013   1.077   0.800 -0.3573  2.5644  1.3790
12230SOL    HW238132   6.058   1.208   0.739 -0.5447  0.9972 -2.4024
12231SOL     OW38133   3.577   0.900   1.648 -0.2119 -0.2496 -0.0127
12231SOL    HW138134   3.499   0.933   1.690  0.5174  0.4224  0.8408
12231SOL    HW238135   3.559   0.807   1.633 -0.2350 -0.6881  2.4207
12232SOL     OW38136   2.899   7.980   1.716  0.1351  1.0557  0.1325
12232SOL    HW138137   2.831   7.913   1.727 -0.1182  0.9603 -1.7214
12232SOL    HW238138   2.952   7.973   1.796  0.6553 -1.9731 -0.3589
12233SOL     OW38139   1.422   6.677   1.316  0.0244  0.1388  0.5026
12233SOL    HW138140   1.386   6.608   1.261  1.2109 -1.1492  1.2842
12233SOL    HW238141   1.501   6.705   1.271  0.4194 -0.1672  0.9948
12234SOL     OW38142   6.585   0.351   0.334 -0.0258 -0.3403 -0.1134
12234SOL    HW138143   6.612   0.282   0.274 -0.6701 -1.4038  0.7927
12234SOL    HW238144   6.543   0.416   0.278 -0.7490 -1.3760 -0.8050
12235SOL     OW38145   6.072   6.619   8.843 -0.2228  0.0212 -0.2231
12235SOL    HW138146   6.084   6.605   8.749 -0.8763 -0.2440 -0.2683
12235SOL    HW238147   6.133   6.690   8.865  0.0126  0.0067 -0.8218
12236SOL     OW38148   4.601   3.864   4.117 -0.4241  0.4482 -0.0335
12236SOL    HW138149   4.642   3.950   4.122  0.0795  0.1481  1.9438
12236SOL    HW238150   4.569   3.847   4.206 -0.6779 -1.3259 -0.4213
12237SOL     OW38151   3.576   1.990  12.041 -0.2601  0.3320 -0.0590
12237SOL    HW138152   3.665   1.981  12.075 -0.1876  0.7124 -0.1339
12237SOL    HW238153   3.558   2.084  12.047 -0.4514  0.3282 -0.5610
12238SOL     OW38154   1.661   6.278   9.765 -0.3038  0.0516 -0.3225
12238SOL    HW138155   1.720   6.343   9.726 -0.7377 -0.8031 -2.5898
12238SOL    HW238156   1.716   6.229   9.826  0.4541  1.4137  0.1295
12239SOL     OW38157   6.639   2.936   8.343  1.0606 -0.0653 -0.3916
12239SOL    HW138158   6.697   2.892   8.406  1.4377  0.7760 -0.1381
12239SOL    HW238159   6.611   3.015   8.387  1.3108  0.5270 -1.2650
12240SOL     OW38160   2.285   4.017   9.960 -0.2631  0.3394 -1.2561
12240SOL    HW138161   2.191   4.005   9.943 -1.0932 -0.5647  2.7575
12240SOL    HW238162   2.291   4.105   9.998  0.3439  0.1040 -0.7874
12241SOL     OW38163   3.169   6.027   2.757 -0.6549 -0.2816  0.5462
12241SOL    HW138164   3.096   6.072   2.715  0.5823  1.7150  0.4355
12241SOL    HW238165   3.243   6.087   2.750  1.3731 -2.6721 -0.4215
12242SOL     OW38166   5.927   7.925   4.978  0.5086  0.3474  0.5833
12242SOL    HW138167   5.992   7.868   5.018 -0.4291 -1.5958 -0.5174
12242SOL    HW238168   5.870   7.952   5.050  0.4121 -0.9021  0.9878
12243SOL     OW38169   5.927   1.672   4.371 -0.0940  0.5994  0.7876
12243SOL    HW138170   5.934   1.733   4.298 -1.0301 -0.7127 -0.4494
12243SOL    HW238171   5.836   1.645   4.372  0.5128 -1.6654  0.5048
12244SOL     OW38172   2.820   6.264   2.963  0.1610  0.3489 -0.3406
12244SOL    HW138173   2.815   6.349   3.007  0.2892  1.0745 -1.6825
12244SOL    HW238174   2.882   6.214   3.017 -1.8283  0.1541  1.9403
12245SOL     OW38175   0.657   4.698   6.694  0.3367 -0.8529 -0.1765
12245SOL    HW138176   0.678   4.792   6.701 -0.9391 -0.6088  0.5367
12245SOL    HW238177   0.733   4.654   6.732 -0.2370  0.0074  2.1722
12246SOL     OW38178   5.237   2.487   2.780 -0.0365 -0.2987 -0.0385
12246SOL    HW138179   5.259   2.577   2.759  1.2992 -0.2216  1.4953
12246SOL    HW238180   5.266   2.436   2.704 -1.1097  0.5641 -1.0579
12247SOL     OW38181   2.354   6.862   7.817  0.3647 -0.0238 -0.1077
12247SOL    HW138182   2.390   6.896   7.898 -1.3187  0.5343  0.4592
12247SOL    HW238183   2.370   6.931   7.752 -0.2863  0.5363  0.3096
12248SOL     OW38184   1.838   5.281  10.181 -0.1149 -0.0690 -0.0260
12248SOL    HW138185   1.896   5.239  10.117  0.9432  1.1677  0.0803
12248SOL    HW238186   1.897   5.325  10.242 -1.1455  2.0163 -0.4412
12249SOL     OW38187   0.621   0.639   6.845 -0.2579  0.2371  0.7710
12249SOL    HW138188   0.576   0.614   6.764  0.9099  0.1175  0.1310
12249SOL    HW238189   0.614   0.734   6.849 -0.1066  0.2681  0.3821
12250SOL     OW38190   2.297   7.735   8.303  0.0000 -0.3648 -0.5806
12250SOL    HW138191   2.261   7.668   8.361  0.6854 -0.4396 -0.2326
12250SOL    HW238192   2.392   7.720   8.306  0.0529 -0.2754 -1.6066
12251SOL     OW38193   7.889   3.610   3.314 -0.0302  0.2685  0.5166
12251SOL    HW138194   7.939   3.662   3.252  0.4813 -0.1266  0.5939
12251SOL    HW238195   7.873   3.527   3.269  0.0355  0.1127  0.7752
12252SOL     OW38196   4.015   7.201  11.856  0.1902  0.0647  0.3474
12252SOL    HW138197   4.001   7.295  11.844  0.3501  0.6606  3.7099
12252SOL    HW238198   4.110   7.190  11.855  0.1848  0.0219  0.3229
12253SOL     OW38199   4.646   7.172   8.034 -0.2124  0.1629 -0.5371
12253SOL    HW138200   4.577   7.151   8.096  0.3210  1.0397  0.3655
12253SOL    HW238201   4.725   7.183   8.087  0.3687  0.4343 -1.4196
12254SOL     OW38202   0.897   7.036   8.631 -0.1782 -0.3056 -0.3456
12254SOL    HW138203   0.885   7.106   8.567 -1.3308 -0.5832 -0.4548
12254SOL    HW238204   0.940   7.079   8.706  2.3400 -0.2268 -1.7125
12255SOL     OW38205   0.401   3.897  11.819 -0.4042  0.0861  0.0397
12255SOL    HW138206   0.492   3.918  11.839  0.1408 -2.1416  0.1442
12255SOL    HW238207   0.361   3.884  11.905 -1.0332  1.6904  0.0265
12256SOL     OW38208   6.436   3.431   2.431  0.3306 -0.6728  0.0977
12256SOL    HW138209   6.518   3.383   2.441  0.3888 -0.8768 -1.2225
12256SOL    HW238210   6.368   3.367   2.452  0.4299 -1.1769 -1.0736
12257SOL     OW38211   0.786   2.531   6.438  0.1855 -0.1911  0.3841
12257SOL    HW138212   0.857   2.571   6.487  0.5158  1.4286 -1.3055
12257SOL    HW238213   0.717   2.597   6.435 -1.2912 -1.5908  1.6582
12258SOL     OW38214   3.838   0.941  10.068 -0.4848  0.3812 -0.0148
12258SOL    HW138215   3.810   0.865  10.119  2.7113 -0.2233  1.1400
12258SOL    HW238216   3.892   0.904   9.998  1.5279  1.4749  0.8486
12259SOL     OW38217   3.869   2.688   3.018  0.9374  0.6351 -0.1574
12259SOL    HW138218   3.836   2.638   3.093  0.2939  2.1633  0.6183
12259SOL    HW238219   3.942   2.635   2.985  1.7184  0.2440  1.9900
12260SOL     OW38220   1.227   5.849   6.911 -0.0936 -0.9284  0.0638
12260SOL    HW138221   1.145   5.863   6.863  0.9836 -0.0108 -1.5919
12260SOL    HW238222   1.268   5.935   6.913  1.4098 -1.6178 -0.2278
12261SOL     OW38223   3.367   6.052   5.349 -0.1898  0.1639 -0.6825
12261SOL    HW138224   3.406   6.095   5.273 -1.3454  0.7149 -0.9858
12261SOL    HW238225   3.375   5.959   5.330  0.8895  0.2687 -0.7746
12262SOL     OW38226   4.995   1.322   9.459  0.1666  0.0770 -0.3450
12262SOL    HW138227   5.086   1.300   9.481 -0.4889 -0.4419  2.1616
12262SOL    HW238228   4.964   1.247   9.409  0.6531 -0.5354  0.2424
12263SOL     OW38229   0.888   5.819  11.666  0.0038  0.2274 -0.4437
12263SOL    HW138230   0.949   5.893  11.658  0.3517  0.2316  1.7428
12263SOL    HW238231   0.886   5.799  11.759 -3.8035  0.5947 -0.2765
12264SOL     OW38232   0.659   3.343   0.390  0.3037  0.2372  0.4418
12264SOL    HW138233   0.578   3.295   0.374  0.5049  0.0921 -0.1769
12264SOL    HW238234   0.718   3.315   0.320  1.1521 -0.2354  1.3212
12265SOL     OW38235   0.957   0.956  11.667  0.0032 -0.0964  0.3761
12265SOL    HW138236   1.007   0.894  11.615 -0.4864  0.4688 -0.7895
12265SOL    HW238237   0.884   0.905  11.702 -0.5893 -0.1241 -0.8563
12266SOL     OW38238   7.828   3.884  10.804  0.0297  0.0978 -0.2901
12266SOL    HW138239   7.774   3.963  10.811  0.0015  0.0939 -0.4561
12266SOL    HW238240   7.900   3.898  10.866  0.6534  0.7623 -1.1384
12267SOL     OW38241   2.940   0.287  11.031 -0.0569  0.2205  0.2076
12267SOL    HW138242   2.947   0.223  11.102 -0.1266  0.1210  0.1240
12267SOL    HW238243   2.866   0.257  10.978  1.7090 -1.3417 -1.5502
12268SOL     OW38244   0.053   7.602  12.035  0.7558  0.4708  0.3772
12268SOL    HW138245   0.104   7.634  11.961  2.8694 -0.4215  1.3619
12268SOL    HW238246   0.007   7.525  12.000 -0.8171  1.8628 -0.7911
12269SOL     OW38247   6.947   3.467   2.157 -0.4067  0.2566 -0.0443
12269SOL    HW138248   6.895   3.402   2.205 -0.0805  0.0833  0.0786
12269SOL    HW238249   7.013   3.415   2.112 -0.2809  0.4871 -0.1203
12270SOL     OW38250   5.715   0.309   1.064 -0.2514  0.0672  0.4120
12270SOL    HW138251   5.763   0.234   1.099  1.7841  0.7501 -0.7485
12270SOL    HW238252   5.647   0.327   1.130  1.8095 -0.2310  2.7782
12271SOL     OW38253   6.554   0.425   7.252  0.3441 -0.5154  0.5901
12271SOL    HW138254   6.586   0.337   7.268  1.3798  0.0846  2.0463
12271SOL    HW238255   6.588   0.448   7.165  0.5643 -1.3223  0.4593
12272SOL     OW38256   6.509   7.199   2.467  0.3477  0.6207  0.2131
12272SOL    HW138257   6.433   7.168   2.517  0.6166 -1.4155 -0.5455
12272SOL    HW238258   6.487   7.179   2.376  1.3752  0.9578 -0.1249
12273SOL     OW38259   4.180   0.342  10.716  0.1391  0.0408 -0.0461
12273SOL    HW138260   4.274   0.360  10.721 -0.2749  2.2146  2.0893
12273SOL    HW238261   4.151   0.391  10.639  0.6681 -0.0572 -0.3113
12274SOL     OW38262   5.497   3.156  10.658 -0.0766 -0.3015  0.7583
12274SOL    HW138263   5.511   3.226  10.595 -3.2732 -1.5051 -1.5070
12274SOL    HW238264   5.405   3.164  10.684  0.2867 -1.8224  2.8028
12275SOL     OW38265   7.205   6.522   9.129  0.4724 -0.0597  0.4735
12275SOL    HW138266   7.201   6.437   9.174 -1.3034 -1.0376 -1.3999
12275SOL    HW238267   7.148   6.579   9.180 -2.2966 -1.4266 -0.9122
12276SOL     OW38268   2.230   0.409   6.744  0.1291  0.0127  0.4582
12276SOL    HW138269   2.264   0.352   6.675 -2.0717 -0.9122  0.0535
12276SOL    HW238270   2.278   0.492   6.733  0.8486 -0.5941 -1.2252
12277SOL     OW38271   3.794   3.702   3.334  0.2452  0.2863 -0.0715
12277SOL    HW138272   3.788   3.774   3.271 -1.4093 -1.1524 -1.6589
12277SOL    HW238273   3.857   3.642   3.294 -1.0555 -0.7877 -0.5561
12278SOL     OW38274   5.887   4.537   5.545 -0.4590 -0.3749 -0.7094
12278SOL    HW138275   5.912   4.447   5.529  0.8679 -0.5908  2.0460
12278SOL    HW238276   5.924   4.586   5.472 -0.1236 -1.8988 -1.5900
12279SOL     OW38277   5.905   0.561  12.416  0.1118 -0.3287  0.7607
12279SOL    HW138278   5.993   0.538  12.385  0.2182 -0.5442  1.2118
12279SOL    HW238279   5.860   0.593  12.338  0.0999 -1.6661  0.1975
12280SOL     OW38280   6.608   2.515   9.127 -0.3875 -0.3542  0.3350
12280SOL    HW138281   6.680   2.526   9.189 -0.1495  1.8981 -0.2468
12280SOL    HW238282   6.546   2.584   9.150 -0.9927 -0.4322 -0.9945
12281SOL     OW38283   5.062   4.984   0.267  0.5782  0.2874 -0.2467
12281SOL    HW138284   4.982   5.034   0.286  0.1004  0.1167 -1.7277
12281SOL    HW238285   5.133   5.047   0.281  0.1412  0.6641  0.3128
12282SOL     OW38286   1.843   6.689   0.979  0.4305  0.2183  0.3176
12282SOL    HW138287   1.873   6.743   0.906  2.7221  0.1572  1.1347
12282SOL    HW238288   1.838   6.600   0.943  0.2700  0.3838 -0.0738
12283SOL     OW38289   4.641   0.274  11.292  0.2352  0.6667  0.6625
12283SOL    HW138290   4.719   0.312  11.252 -0.8059  0.0600 -2.1878
12283SOL    HW238291   4.585   0.350  11.312  0.4802  0.9592  0.2471
12284SOL     OW38292   2.287   5.071   6.538  0.1448  0.1240  0.0995
12284SOL    HW138293   2.250   5.013   6.470 -1.5273  0.5211  0.6175
12284SOL    HW238294   2.287   5.017   6.617 -0.3885  0.4687  0.3417
12285SOL     OW38295   3.074   1.519   0.856 -0.8919  0.4003 -0.6034
12285SOL    HW138296   3.140   1.450   0.860 -0.9181  0.4122  0.2815
12285SOL    HW238297   3.094   1.567   0.776  0.1906  0.4256 -0.3349
12286SOL     OW38298   2.706   7.057   8.706 -0.0585  0.0959  0.4771
12286SOL    HW138299   2.615   7.032   8.693 -0.3345  1.1581  0.3217
12286SOL    HW238300   2.742   6.989   8.762 -0.3460 -1.5665 -1.2350
12287SOL     OW38301   1.664   3.867   7.501  0.1431 -0.3113 -0.6073
12287SOL    HW138302   1.664   3.776   7.531 -1.1052  0.4055  1.7949
12287SOL    HW238303   1.748   3.902   7.530 -0.2773 -0.1345  0.4226
12288SOL     OW38304   5.838   0.188   6.276  0.1805 -0.1435  0.5933
12288SOL    HW138305   5.884   0.237   6.344 -0.8837 -0.5239  1.6230
12288SOL    HW238306   5.885   0.208   6.195  1.6456  0.0957  1.4812
12289SOL     OW38307   7.166   3.327   0.307 -0.3436 -0.5140  0.2952
12289SOL    HW138308   7.217   3.280   0.373  1.1396  0.8197  0.1552
12289SOL    HW238309   7.192   3.418   0.317  0.3551 -0.3259 -2.4926
12290SOL     OW38310   1.171   6.821  11.463 -0.0520 -0.0465  0.4393
12290SOL    HW138311   1.237   6.839  11.530 -0.7317 -0.2510  1.1871
12290SOL    HW238312   1.088   6.824  11.511 -0.5404 -0.3426 -0.3739
12291SOL     OW38313   6.426   0.217   5.663  0.3007 -0.1125  0.5620
12291SOL    HW138314   6.446   0.249   5.752 -0.9188  0.6888  0.5638
12291SOL    HW238315   6.507   0.232   5.614  0.6141  0.5169  1.2486
12292SOL     OW38316   1.536   4.603  12.286 -0.2090  0.1189 -0.3811
12292SOL    HW138317   1.571   4.685  12.322  2.2900 -0.2650 -1.7181
12292SOL    HW238318   1.475   4.632  12.217  0.7388  0.8803 -0.9255
12293SOL     OW38319   0.205   3.056   7.527 -0.9139 -0.3517 -0.0721
12293SOL    HW138320   0.202   3.131   7.586  2.8094 -1.7199  2.2083
12293SOL    HW238321   0.267   3.082   7.458 -1.5428 -0.4923 -0.7051
12294SOL     OW38322   6.324   7.932  11.823 -0.3686 -0.1500 -0.3711
12294SOL    HW138323   6.261   8.003  11.816 -0.2404 -0.0462 -0.4747
12294SOL    HW238324   6.340   7.923  11.917  1.2524  1.4103 -0.4509
12295SOL     OW38325   2.291   3.630   9.326  0.0235 -0.0026  0.4382
12295SOL    HW138326   2.348   3.554   9.316  0.8074  0.5708  0.4796
12295SOL    HW238327   2.263   3.651   9.237  2.2133  1.4592  0.0062
12296SOL     OW38328   4.798   3.237  10.953  0.3886 -0.1607  0.6978
12296SOL    HW138329   4.728   3.269  10.897  0.8525 -0.4195 -0.0505
12296SOL    HW238330   4.873   3.294  10.933  0.3570  0.2191  1.6062
12297SOL     OW38331   7.735   5.040   0.791  0.1783 -0.4263  0.5223
12297SOL    HW138332   7.805   5.026   0.856 -1.0655 -0.2960  1.9385
12297SOL    HW238333   7.772   5.106   0.731  1.6998 -1.2093  0.5330
12298SOL     OW38334   6.195   7.887   7.609 -0.3600 -0.3097  0.0928
12298SOL    HW138335   6.186   7.909   7.516  1.2552 -0.3974 -0.1042
12298SOL    HW238336   6.216   7.971   7.651  2.3991 -0.8003 -0.1626
12299SOL     OW38337   4.245   5.821  10.671  0.5239 -0.2282 -0.3578
12299SOL    HW138338   4.227   5.732  10.700 -0.6120 -0.1394 -0.7635
12299SOL    HW238339   4.266   5.868  10.751 -1.9161 -0.1429  0.3038
12300SOL     OW38340   5.280   1.585   2.535  0.8890 -0.1794 -0.1659
12300SOL    HW138341   5.357   1.618   2.581  0.6291 -0.7201  0.6870
12300SOL    HW238342   5.246   1.660   2.487  2.3457 -0.1040 -1.1438
12301SOL     OW38343   6.883   3.553  10.105  0.1393 -0.1356  0.4538
12301SOL    HW138344   6.793   3.520  10.110  0.2292 -0.4137  0.2870
12301SOL    HW238345   6.902   3.555  10.011 -0.1266  1.1271  0.4002
12302SOL     OW38346   4.099   1.319   5.262  0.6369  0.3088 -0.5091
12302SOL    HW138347   4.014   1.364   5.264  1.5495  2.1183 -0.6730
12302SOL    HW238348   4.087   1.247   5.200 -0.6029  0.9052 -0.9896
12303SOL     OW38349   4.482   1.613   0.873  0.2312 -0.6046  0.3361
12303SOL    HW138350   4.478   1.689   0.931 -0.9040 -1.0454  0.8669
12303SOL    HW238351   4.398   1.613   0.828  1.0447 -0.3501 -1.2383
12304SOL     OW38352   1.196   4.872   1.289  0.3128  0.3737  0.0211
12304SOL    HW138353   1.273   4.927   1.277 -1.2768  2.6882 -0.4900
12304SOL    HW238354   1.191   4.821   1.208  1.3722  0.0942  0.1220
12305SOL     OW38355   2.805   1.258   5.104  0.4753  0.3258 -0.5351
12305SOL    HW138356   2.900   1.264   5.101  0.5580 -0.9899 -1.3892
12305SOL    HW238357   2.787   1.166   5.123 -0.6324  0.6579  0.1248
12306SOL     OW38358   6.827   0.999  11.838  0.2894 -1.0173  0.9325
12306SOL    HW138359   6.916   0.991  11.805 -0.2770 -1.2599 -0.6586
12306SOL    HW238360   6.834   1.054  11.916  1.6232  0.4872 -0.1763
12307SOL     OW38361   1.637   7.592   5.083 -0.0022 -0.1620  0.3520
12307SOL    HW138362   1.719   7.625   5.048 -1.5504  1.1625 -2.3889
12307SOL    HW238363   1.622   7.642   5.163  0.5372  1.6530 -0.6298
12308SOL     OW38364   7.004   6.371   2.431  0.3704  0.4419  0.4177
12308SOL    HW138365   6.918   6.333   2.450  0.0657  0.6775 -0.4314
12308SOL    HW238366   7.034   6.406   2.515 -0.8162  1.2450  0.5382
12309SOL     OW38367   3.138   0.264  11.455 -0.2751 -0.7003 -0.0260
12309SOL    HW138368   3.203   0.326  11.421 -2.7381  1.5125 -1.0396
12309SOL    HW238369   3.147   0.188  11.398 -1.1059  1.1003 -2.7633
12310SOL     OW38370   5.140   5.352  11.494 -0.7277  0.6514  0.2455
12310SOL    HW138371   5.201   5.285  11.526 -1.1443  0.4993  0.7208
12310SOL    HW238372   5.062   5.303  11.469 -0.7448  0.8754 -0.1365
12311SOL     OW38373   7.568   6.690   4.135  0.1241  0.3953  0.4425
12311SOL    HW138374   7.521   6.609   4.153  0.9201 -0.1207  0.2427
12311SOL    HW238375   7.555   6.744   4.213  0.5387 -0.3841  1.0587
12312SOL     OW38376   4.761   2.011   3.650  0.3202 -0.5305  0.6712
12312SOL    HW138377   4.754   1.989   3.743  1.2304 -1.7049  0.4922
12312SOL    HW238378   4.851   1.987   3.626 -0.2245 -1.2975 -0.7530
12313SOL     OW38379   3.296   3.977   0.825  0.2065  0.0638  0.2540
12313SOL    HW138380   3.273   3.985   0.732  1.1228  1.4422  0.1165
12313SOL    HW238381   3.353   3.900   0.829  0.5884  0.3040 -0.4257
12314SOL     OW38382   1.198   6.224   6.321  0.4301 -0.3327 -0.9622
12314SOL    HW138383   1.123   6.208   6.264  0.8413 -0.8614 -1.3707
12314SOL    HW238384   1.267   6.256   6.262  0.2782  0.9669 -0.4683
12315SOL     OW38385   5.596   4.842  10.344  0.0655 -0.5966 -0.4545
12315SOL    HW138386   5.664   4.904  10.368  1.5748 -2.4447  0.2880
12315SOL    HW238387   5.517   4.896  10.331  0.8696  1.2674  1.7495
12316SOL     OW38388   1.384   0.111   3.930  0.2416  0.1025  0.0930
12316SOL    HW138389   1.383   0.016   3.921  0.2680 -0.0417  1.4268
12316SOL    HW238390   1.466   0.138   3.888  0.6869 -0.5641  0.5169
12317SOL     OW38391   6.056   5.172   2.765 -0.1549  0.0712  0.9068
12317SOL    HW138392   6.106   5.165   2.846 -1.8620 -0.1151  1.9945
12317SOL    HW238393   5.970   5.137   2.787 -0.6942  0.1209 -0.9708
12318SOL     OW38394   2.899   4.490   9.904 -0.1366  0.9449  0.1422
12318SOL    HW138395   2.852   4.420   9.948 -2.0568  1.6923 -0.5969
12318SOL    HW238396   2.966   4.517   9.966  0.1363 -0.9827  0.7513
12319SOL     OW38397   7.241   6.544  11.822 -0.3933  0.3065  0.2985
12319SOL    HW138398   7.239   6.499  11.906  1.2503 -0.5054 -0.0578
12319SOL    HW238399   7.239   6.474  11.757 -1.2747  0.9063 -0.3542
12320SOL     OW38400   6.781   0.399   7.570 -0.1831 -0.2149 -0.3552
12320SOL    HW138401   6.832   0.393   7.651  0.6423 -0.6853 -0.9014
12320SOL    HW238402   6.829   0.346   7.507 -1.5542 -0.9867 -0.7940
12321SOL     OW38403   5.666   0.357   8.324  0.0422 -0.5237 -0.2444
12321SOL    HW138404   5.637   0.432   8.273 -0.2618 -0.2512  0.3139
12321SOL    HW238405   5.668   0.284   8.262  1.0689  0.0938 -0.9735
12322SOL     OW38406   4.794   2.261  10.608 -0.2290 -0.0697  0.2750
12322SOL    HW138407   4.860   2.279  10.542 -0.5829  1.2678  0.2737
12322SOL    HW238408   4.774   2.168  10.597  0.0522  0.0315 -1.1770
12323SOL     OW38409   2.038   1.660   2.832  0.1474  1.0343 -1.2964
12323SOL    HW138410   2.123   1.634   2.868 -0.6221 -0.8705 -0.7574
12323SOL    HW238411   2.053   1.665   2.737  0.5550 -0.7018 -1.3600
12324SOL     OW38412   2.110   4.372   0.652 -0.5026  0.5437  0.2958
12324SOL    HW138413   2.125   4.292   0.701 -0.9392  0.8951  1.0170
12324SOL    HW238414   2.166   4.437   0.694 -2.1083  1.2653  1.4622
12325SOL     OW38415   1.654   7.184  11.819 -0.0683  0.1744 -0.2155
12325SOL    HW138416   1.737   7.176  11.773 -0.5899  0.1806 -1.1910
12325SOL    HW238417   1.588   7.158  11.754 -0.9304  1.4777  0.1009
12326SOL     OW38418   6.759   2.768   0.512  0.4072 -0.2112 -0.2440
12326SOL    HW138419   6.752   2.673   0.507  0.4262 -0.2822  0.7248
12326SOL    HW238420   6.768   2.797   0.422 -3.3510 -0.8308 -0.9998
12327SOL     OW38421   1.002   1.679   8.168  0.3284  0.1755 -0.3729
12327SOL    HW138422   0.947   1.601   8.176  1.0209 -0.1375  1.9080
12327SOL    HW238423   1.091   1.648   8.184  0.9963  1.0159 -2.1047
12328SOL     OW38424   2.411   0.573   3.511 -0.0138  0.1530  0.3546
12328SOL    HW138425   2.396   0.618   3.428 -1.0965 -0.2357  0.3205
12328SOL    HW238426   2.482   0.622   3.553 -0.6414  1.4201 -0.0130
12329SOL     OW38427   2.910   1.368   1.157 -0.0061 -0.0071  0.4219
12329SOL    HW138428   2.935   1.308   1.087 -0.7402 -1.3816  1.3116
12329SOL    HW238429   2.866   1.314   1.222  0.8030  1.1985  2.0637
12330SOL     OW38430   7.318   3.449   3.679  0.9355  0.7367  0.0370
12330SOL    HW138431   7.276   3.405   3.752  0.3727  1.9489  0.4680
12330SOL    HW238432   7.288   3.401   3.602  0.4595  0.2797  0.4968
12331SOL     OW38433   7.677   3.098   1.875  0.0086  0.3567 -0.0770
12331SOL    HW138434   7.611   3.040   1.837  1.3854 -1.0995 -0.3106
12331SOL    HW238435   7.727   3.042   1.935  1.9525  1.0519 -0.9716
12332SOL     OW38436   5.539   7.893   3.463  0.0515  0.4975 -0.7644
12332SOL    HW138437   5.619   7.844   3.481  0.7723  1.7200 -0.5178
12332SOL    HW238438   5.526   7.886   3.368  0.6678  0.6269 -0.8564
12333SOL     OW38439   1.799   0.304   2.621  0.4604 -0.0731  0.0294
12333SOL    HW138440   1.780   0.280   2.712 -1.1025  1.8540  0.2776
12333SOL    HW238441   1.817   0.220   2.578  0.6442 -1.0951  1.9694
12334SOL     OW38442   1.207   4.170   2.377  0.1839 -0.1550  0.0004
12334SOL    HW138443   1.222   4.127   2.460  0.8131  0.4148  0.1903
12334SOL    HW238444   1.281   4.231   2.367  0.0331 -0.1000 -0.8901
12335SOL     OW38445   3.222   4.986   8.370  0.6575 -0.2306 -0.3925
12335SOL    HW138446   3.208   4.925   8.297  0.6894 -0.4850 -0.1899
12335SOL    HW238447   3.275   5.056   8.333 -1.4241  0.9736 -1.2963
12336SOL     OW38448   3.386   6.386   8.086  0.1211 -0.7483 -0.2503
12336SOL    HW138449   3.304   6.356   8.125  0.2765 -1.2922 -0.3399
12336SOL    HW238450   3.411   6.461   8.139 -0.5181 -0.4758 -0.3228
12337SOL     OW38451   4.513   0.505   8.744 -0.2420  0.6467 -0.4689
12337SOL    HW138452   4.453   0.580   8.750 -1.6751 -0.4296 -0.9516
12337SOL    HW238453   4.474   0.438   8.800  1.2770  0.3938  0.3435
12338SOL     OW38454   5.776   2.167   0.368 -0.4931 -0.7358 -0.1071
12338SOL    HW138455   5.787   2.222   0.290  0.4015 -2.2035 -1.0628
12338SOL    HW238456   5.731   2.223   0.430  0.5533  1.1644 -0.9598
12339SOL     OW38457   1.602   1.708  12.271 -0.2564  0.0699 -0.5106
12339SOL    HW138458   1.657   1.644  12.316 -1.0892  0.2846  0.8815
12339SOL    HW238459   1.516   1.697  12.310 -0.5318  1.7038 -0.5748
12340SOL     OW38460   3.730   5.806   6.922 -0.2226  0.2801  0.2793
12340SOL    HW138461   3.761   5.885   6.879 -2.6540  2.2744  1.8458
12340SOL    HW238462   3.738   5.737   6.856  0.7063  2.1086 -1.6218
12341SOL     OW38463   2.576   5.425   6.133  0.0415 -0.1451  0.2340
12341SOL    HW138464   2.655   5.371   6.130 -1.4617 -2.4611 -0.3631
12341SOL    HW238465   2.506   5.366   6.103 -1.7724  2.0739 -0.1126
12342SOL     OW38466   7.080   5.404   7.428 -0.0492  0.2480 -0.0285
12342SOL    HW138467   7.136   5.451   7.366 -1.1500 -0.5442 -1.7048
12342SOL    HW238468   7.120   5.317   7.436  0.8755  0.7702  1.5307
12343SOL     OW38469   4.772   2.822   7.145  0.6513  0.0788  0.2285
12343SOL    HW138470   4.695   2.874   7.169 -1.8356 -2.1348 -2.2866
12343SOL    HW238471   4.805   2.863   7.065  1.0704  0.0003  0.3578
12344SOL     OW38472   7.488   4.529   0.690  0.0553 -0.0432  0.3110
12344SOL    HW138473   7.457   4.449   0.731 -0.8117  0.0275 -0.1977
12344SOL    HW238474   7.515   4.503   0.602  0.6204  0.0601  0.4507
12345SOL     OW38475   2.886   0.585   6.376  0.2286  0.3171  0.3361
12345SOL    HW138476   2.803   0.621   6.343 -0.0471 -0.6578 -0.0711
12345SOL    HW238477   2.953   0.626   6.322 -0.0048  0.8893  0.4721
12346SOL     OW38478   2.415   6.107  10.323  0.0492 -0.2758  0.5698
12346SOL    HW138479   2.361   6.044  10.275 -0.3783 -0.4697  1.2892
12346SOL    HW238480   2.495   6.059  10.345 -0.2453 -0.5534  1.0549
12347SOL     OW38481   0.634   2.281   9.860  0.4042  0.7721  0.7799
12347SOL    HW138482   0.562   2.330   9.899  0.0405  0.2540  0.7710
12347SOL    HW238483   0.637   2.200   9.911  3.0161  2.0341  2.9422
12348SOL     OW38484   1.228   3.600   8.964 -0.6211 -0.2506 -0.0813
12348SOL    HW138485   1.168   3.546   9.016 -0.3110  0.0501  0.6034
12348SOL    HW238486   1.315   3.562   8.980 -0.7450 -1.5880 -2.1914
12349SOL     OW38487   3.987   6.382   7.819 -0.1667 -0.4378  0.1348
12349SOL    HW138488   3.965   6.432   7.739  1.8421  0.6376  0.1800
12349SOL    HW238489   4.043   6.312   7.788 -1.0953 -1.3137  0.3822
12350SOL     OW38490   1.239   1.628   3.033 -0.1456  0.1767  0.3864
12350SOL    HW138491   1.210   1.546   2.992 -1.1441  1.0035 -0.6343
12350SOL    HW238492   1.327   1.642   3.000 -0.7350  0.5476 -1.1092
12351SOL     OW38493   2.220   3.786   2.282 -0.3951 -0.4429 -0.1185
12351SOL    HW138494   2.160   3.860   2.281 -1.1667 -1.0477 -1.0370
12351SOL    HW238495   2.169   3.715   2.324 -0.3468 -0.9680 -0.9339
12352SOL     OW38496   2.628   6.879   0.480 -0.5031 -0.0134 -0.5467
12352SOL    HW138497   2.648   6.789   0.455 -0.3920 -0.1871  0.1491
12352SOL    HW238498   2.681   6.895   0.558 -0.7707  0.5446 -0.4698
12353SOL     OW38499   2.319   6.137   2.431  0.1971 -0.5760  0.5482
12353SOL    HW138500   2.377   6.103   2.499 -1.2581 -1.3591  1.4250
12353SOL    HW238501   2.378   6.154   2.357  1.3433 -2.9213  0.8126
12354SOL     OW38502   5.637   5.967   6.609  0.1032 -0.0824  0.0304
12354SOL    HW138503   5.699   5.895   6.600 -1.5520 -1.4601 -0.9181
12354SOL    HW238504   5.623   5.975   6.703  0.8636 -0.4940  0.1907
12355SOL     OW38505   6.603   3.376   6.916  0.4634 -0.6660  0.4153
12355SOL    HW138506   6.533   3.422   6.962  1.5516  0.9539  0.5238
12355SOL    HW238507   6.678   3.380   6.975  0.7793 -2.0732  0.1592
12356SOL     OW38508   3.567   4.475   1.018  0.0807  0.0657 -0.3997
12356SOL    HW138509   3.511   4.427   0.957 -0.5205  0.4171 -0.1246
12356SOL    HW238510   3.653   4.478   0.975  0.7408 -3.0811  0.4575
12357SOL     OW38511   3.104   0.245   3.596 -0.0510  0.3835  0.4612
12357SOL    HW138512   3.020   0.210   3.565  0.6757  0.0332 -1.1671
12357SOL    HW238513   3.158   0.168   3.611  1.3809  0.6391 -2.6277
12358SOL     OW38514   6.564   3.190   3.231  0.0994  0.0874  0.0537
12358SOL    HW138515   6.563   3.170   3.325 -0.5227  1.4706  0.3711
12358SOL    HW238516   6.556   3.105   3.188  2.6155 -0.8116  1.1931
12359SOL     OW38517   1.255   7.300   7.033 -0.7360  0.0863  0.1381
12359SOL    HW138518   1.282   7.341   6.951  1.3515 -2.1878 -0.4137
12359SOL    HW238519   1.329   7.315   7.092  0.5427 -3.4454 -0.3534
12360SOL     OW38520   6.205   4.765   5.781  0.2652  0.2213  1.1116
12360SOL    HW138521   6.109   4.761   5.774  0.3952 -1.5588 -0.5858
12360SOL    HW238522   6.234   4.675   5.765  2.3498  1.2354 -1.7953
12361SOL     OW38523   4.963   1.691   7.621  0.0452  0.3004  0.5794
12361SOL    HW138524   5.030   1.726   7.679  0.0471  2.5054 -0.6400
12361SOL    HW238525   4.880   1.714   7.662 -0.0742 -2.5480  2.1589
12362SOL     OW38526   0.940   5.381  11.780  0.1460  0.1955 -0.0502
12362SOL    HW138527   1.026   5.420  11.762  1.2727 -1.6603  0.9546
12362SOL    HW238528   0.948   5.291  11.747 -2.2726  0.6233 -2.0926
12363SOL     OW38529   5.198   1.753   3.138  0.2950 -0.1262 -0.0290
12363SOL    HW138530   5.174   1.845   3.127  0.5589  0.0177  0.5487
12363SOL    HW238531   5.288   1.748   3.103 -0.0568 -0.3719 -0.9282
12364SOL     OW38532   1.746   7.226   0.079  0.8532  0.2609  0.1836
12364SOL    HW138533   1.783   7.200   0.163  0.9585  0.8579  0.3273
12364SOL    HW238534   1.809   7.289   0.044 -0.3684  1.8649  0.7725
12365SOL     OW38535   6.330   6.927   6.821  0.6608 -0.2266  0.4309
12365SOL    HW138536   6.333   6.861   6.890  1.6294 -0.6764 -0.0153
12365SOL    HW238537   6.420   6.932   6.790  0.6646  1.5169  0.6406
12366SOL     OW38538   3.916   0.811   6.333  0.2137 -0.2584 -0.1191
12366SOL    HW138539   3.877   0.771   6.256  0.4224 -2.0294  0.6347
12366SOL    HW238540   3.860   0.782   6.406  0.7883  0.2625  0.5442
12367SOL     OW38541   3.373   0.365   3.641 -0.2857  0.0057 -0.0542
12367SOL    HW138542   3.281   0.356   3.614 -0.5106 -0.0843  0.6998
12367SOL    HW238543   3.373   0.339   3.733  0.5119 -0.0472 -0.0626
12368SOL     OW38544   2.015   2.704   5.643  0.2325 -0.7708 -0.0502
12368SOL    HW138545   2.107   2.697   5.618  0.1445 -0.6905 -0.4025
12368SOL    HW238546   2.006   2.793   5.677 -0.1664 -0.0424 -1.9466
12369SOL     OW38547   4.710   0.509   1.350 -0.3118  0.0633 -0.0977
12369SOL    HW138548   4.633   0.532   1.401  0.3203  0.4273  0.7009
12369SOL    HW238549   4.752   0.439   1.399 -0.3745 -0.4623 -0.7694
12370SOL     OW38550   7.511   6.065   4.474  0.4018 -0.1908  0.0094
12370SOL    HW138551   7.481   5.978   4.500  0.9343  0.0973  1.6816
12370SOL    HW238552   7.431   6.112   4.452  0.1158 -1.1108 -1.0272
12371SOL     OW38553   3.523   0.107   2.100 -0.2350 -0.4382 -0.1018
12371SOL    HW138554   3.591   0.101   2.032  0.5027  0.1403  0.5810
12371SOL    HW238555   3.510   0.016   2.128  0.0049 -0.5936 -0.4803
12372SOL     OW38556   0.856   3.764   0.552  0.2918 -0.5012 -0.0826
12372SOL    HW138557   0.880   3.778   0.460 -0.7849 -1.1480 -0.4919
12372SOL    HW238558   0.841   3.851   0.587  0.0877 -0.2766 -0.7104
12373SOL     OW38559   7.255   0.376   7.596  0.4147 -0.4264 -0.4426
12373SOL    HW138560   7.297   0.462   7.608  2.0495 -1.1229 -0.8222
12373SOL    HW238561   7.261   0.335   7.682 -1.4279  0.2413  0.0503
12374SOL     OW38562   5.255   0.705   3.097  0.0561 -0.0501 -0.1791
12374SOL    HW138563   5.333   0.758   3.082 -0.0836  0.4060  0.6284
12374SOL    HW238564   5.184   0.756   3.060  0.2200 -0.8209 -1.6119
12375SOL     OW38565   6.011   0.215  10.764  0.0809  0.1988 -0.0901
12375SOL    HW138566   5.941   0.279  10.754  1.7497  2.3255  1.0394
12375SOL    HW238567   6.085   0.252  10.716  0.9477 -1.1546  0.1400
12376SOL     OW38568   2.352   5.061   8.514  0.7309 -0.4732  0.0103
12376SOL    HW138569   2.315   4.973   8.527 -1.4959  0.1095 -1.7974
12376SOL    HW238570   2.324   5.110   8.591 -0.7613 -0.5511 -0.4531
12377SOL     OW38571   7.856   5.791   1.006  0.1269 -0.4098 -0.2034
12377SOL    HW138572   7.772   5.786   1.050  0.0008  1.5987 -0.0974
12377SOL    HW238573   7.914   5.735   1.057 -1.2672 -2.3458 -0.6610
12378SOL     OW38574   2.745   3.909   5.404 -0.3914  0.6996 -0.2601
12378SOL    HW138575   2.710   3.915   5.316 -0.4468  0.0422 -0.2875
12378SOL    HW238576   2.822   3.966   5.404  1.6907 -1.9105 -1.7693
12379SOL     OW38577   6.387   4.223   1.414 -0.2919 -0.0425  0.2341
12379SOL    HW138578   6.333   4.299   1.437 -1.3315 -1.2697  2.1661
12379SOL    HW238579   6.329   4.149   1.425  1.4114 -1.3257  0.9977
12380SOL     OW38580   1.869   6.797   1.242 -0.0641  0.1492  0.2078
12380SOL    HW138581   1.886   6.888   1.220 -0.8458  0.4456  0.7886
12380SOL    HW238582   1.834   6.758   1.162 -1.9809  0.9716  0.5960
12381SOL     OW38583   3.480   4.142   8.571 -0.0876 -0.3186  0.0652
12381SOL    HW138584   3.434   4.066   8.608 -2.4621  1.6132  1.4388
12381SOL    HW238585   3.495   4.199   8.647 -0.5046  1.5668 -1.2048
12382SOL     OW38586   0.048   0.662   7.896 -0.4787 -0.1407 -0.5244
12382SOL    HW138587   0.034   0.718   7.972  1.0581 -1.8861  1.1522
12382SOL    HW238588  -0.038   0.625   7.876 -1.5626  2.7252 -1.7462
12383SOL     OW38589   5.410   1.167   7.935 -0.6979  0.0705 -0.4743
12383SOL    HW138590   5.472   1.202   7.870 -1.0395  0.0439 -0.8208
12383SOL    HW238591   5.460   1.164   8.016  1.5852 -4.9353 -1.7017
12384SOL     OW38592   4.590   3.908  10.261 -0.0002 -0.2477 -0.1572
12384SOL    HW138593   4.593   3.912  10.357 -0.4862 -1.4927 -0.0735
12384SOL    HW238594   4.577   3.816  10.242  1.4470 -0.2119 -1.4793
12385SOL     OW38595   7.398   2.606   0.182 -0.0241 -0.5161 -0.1861
12385SOL    HW138596   7.462   2.590   0.112 -0.0927 -1.6034 -0.0172
12385SOL    HW238597   7.421   2.693   0.215  1.2635 -0.7989 -0.2591
12386SOL     OW38598   0.260   1.969  12.010  0.0061  0.8205 -0.4595
12386SOL    HW138599   0.290   1.887  12.049  1.8343  0.5609 -2.2332
12386SOL    HW238600   0.258   2.031  12.083  0.4457 -0.3412  0.5706
12387SOL     OW38601   3.101   3.820   2.010  0.0057  0.6703 -0.3627
12387SOL    HW138602   3.187   3.859   2.026  0.2041  0.1556 -0.1481
12387SOL    HW238603   3.040   3.894   2.014  0.3157  0.8906  0.5364
12388SOL     OW38604   0.831   1.614   0.600  0.6355  0.4090 -0.4956
12388SOL    HW138605   0.839   1.537   0.542 -0.2866 -1.7990  2.0956
12388SOL    HW238606   0.919   1.627   0.635  0.8324  0.6516 -1.0748
12389SOL     OW38607   3.129   0.130   9.412  0.2787  0.0968 -0.3980
12389SOL    HW138608   3.090   0.196   9.355 -0.7645  1.0243  1.2930
12389SOL    HW238609   3.214   0.167   9.437  0.6215 -0.1915 -1.1187
12390SOL     OW38610   3.133   3.047   9.277  0.2064  0.0227 -0.0723
12390SOL    HW138611   3.100   3.082   9.359 -2.9680 -0.4808 -1.0012
12390SOL    HW238612   3.154   3.124   9.224  0.8283  0.3571  0.6470
12391SOL     OW38613   3.993   2.201   5.286 -0.0476  0.1724 -0.2228
12391SOL    HW138614   4.071   2.170   5.333 -0.2439 -1.1990 -0.7426
12391SOL    HW238615   4.010   2.180   5.194 -0.5100  1.0007 -0.5068
12392SOL     OW38616   2.270   5.684   1.307 -0.4267 -0.0454 -0.0532
12392SOL    HW138617   2.209   5.715   1.374 -0.1362  0.5077 -0.0377
12392SOL    HW238618   2.353   5.673   1.353 -0.6625 -1.4408  0.0723
12393SOL     OW38619   3.333   2.639   0.590  0.2110  0.4001 -0.2432
12393SOL    HW138620   3.396   2.594   0.646  0.1625  0.7213  0.0763
12393SOL    HW238621   3.310   2.718   0.639 -0.0768  0.5237 -0.5737
12394SOL     OW38622   5.456   4.482  11.322  0.5206  0.0484 -0.3570
12394SOL    HW138623   5.509   4.540  11.376 -0.0238  0.2572 -0.0464
12394SOL    HW238624   5.395   4.440  11.383 -1.0123  1.2943 -0.9715
12395SOL     OW38625   5.239   4.368   8.959 -0.0655  0.2296 -0.2503
12395SOL    HW138626   5.325   4.370   9.002 -0.4893  1.5452  0.6011
12395SOL    HW238627   5.247   4.302   8.891  1.4296 -0.1101  0.2338
12396SOL     OW38628   0.190   5.032   7.993 -0.3339  0.5309 -0.1189
12396SOL    HW138629   0.125   4.988   8.048 -0.4500  1.2974  0.3837
12396SOL    HW238630   0.195   5.121   8.029 -1.0053  1.3092 -1.8521
12397SOL     OW38631   7.356   2.520   2.261 -0.2950  0.1288  0.5497
12397SOL    HW138632   7.290   2.460   2.227  0.2391  2.0002 -4.6783
12397SOL    HW238633   7.313   2.606   2.261  0.7237  0.6773  1.9369
12398SOL     OW38634   6.128   6.263   4.972  0.1829  0.3006  0.2091
12398SOL    HW138635   6.087   6.210   5.041  0.8783  0.0966  0.4758
12398SOL    HW238636   6.055   6.296   4.920 -0.2610 -0.9838 -0.0073
12399SOL     OW38637   5.307   0.485   1.876  0.1733 -0.3676  0.1800
12399SOL    HW138638   5.340   0.442   1.797  1.1987  0.8601 -0.1044
12399SOL    HW238639   5.233   0.537   1.846 -0.8602 -1.6213  0.4652
12400SOL     OW38640   1.961   4.601   9.123 -0.1007 -0.3258  0.6395
12400SOL    HW138641   2.018   4.676   9.105  2.4007 -1.6406  2.4905
12400SOL    HW238642   1.891   4.637   9.178  0.4841  0.8393  0.6689
12401SOL     OW38643   6.705   5.732   4.319 -0.2627 -0.1275 -0.1951
12401SOL    HW138644   6.654   5.661   4.357  1.1663 -0.3590  1.4455
12401SOL    HW238645   6.766   5.688   4.260 -1.1635  0.0396 -1.2822
12402SOL     OW38646   2.015   1.927   1.290  0.1505 -0.0471 -0.0970
12402SOL    HW138647   1.977   1.888   1.211  1.1323 -0.3711 -0.4173
12402SOL    HW238648   2.015   1.856   1.354 -0.1740  0.0753  0.0427
12403SOL     OW38649   0.910   2.369   2.587 -0.2093 -0.0662 -0.0589
12403SOL    HW138650   0.988   2.355   2.533 -0.6186 -2.9198 -0.0699
12403SOL    HW238651   0.944   2.378   2.676  0.1809 -0.2701 -0.1839
12404SOL     OW38652   6.375   6.054   0.718  0.4179  0.0681 -0.1896
12404SOL    HW138653   6.370   5.975   0.665  1.3889 -0.4741  0.4808
12404SOL    HW238654   6.297   6.052   0.773 -0.5588  0.5959 -1.4989
12405SOL     OW38655   6.036   0.130   4.072 -0.4608 -0.1685  0.0485
12405SOL    HW138656   6.036   0.037   4.047  0.0133  0.2365 -1.5439
12405SOL    HW238657   5.943   0.149   4.089 -0.3747 -1.3968  2.4490
12406SOL     OW38658   0.572   7.576   0.003 -0.0066  0.7753  0.3006
12406SOL    HW138659   0.511   7.593  -0.068  0.0770  2.4647  0.5990
12406SOL    HW238660   0.522   7.525   0.067  0.0884 -1.2817 -1.1785
12407SOL     OW38661   6.605   5.926   0.167  0.0145  0.7793  0.2164
12407SOL    HW138662   6.649   5.894   0.088  0.4697  2.4523 -0.2459
12407SOL    HW238663   6.514   5.938   0.140  0.2118  1.5505 -0.1395
12408SOL     OW38664   0.763   1.474   6.925  0.0961 -0.7895 -0.1598
12408SOL    HW138665   0.710   1.410   6.972 -0.3133 -1.5060 -1.5453
12408SOL    HW238666   0.731   1.471   6.835  1.1437  0.2276 -0.6021
12409SOL     OW38667   0.613   1.795   6.124 -0.4409  0.2874 -0.9498
12409SOL    HW138668   0.529   1.752   6.113 -0.6792  0.8540 -1.3872
12409SOL    HW238669   0.670   1.728   6.161 -0.8348 -0.3650 -1.5120
12410SOL     OW38670   3.448   5.035   1.832  0.3730  0.4940  0.3192
12410SOL    HW138671   3.449   5.080   1.916 -2.1220  0.9699  0.1661
12410SOL    HW238672   3.480   4.947   1.851  0.3639  0.7641  1.6505
12411SOL     OW38673   2.343   3.065   1.834  0.3520 -0.0073  0.5217
12411SOL    HW138674   2.421   3.009   1.839  0.4732 -0.0333 -1.0027
12411SOL    HW238675   2.331   3.080   1.740 -2.6755 -1.6556  0.5224
12412SOL     OW38676   7.454   3.765   2.134 -0.5910  0.0208 -0.1215
12412SOL    HW138677   7.438   3.857   2.151 -1.1424 -0.4878  2.5801
12412SOL    HW238678   7.367   3.728   2.118 -0.3247 -0.0007 -1.7540
12413SOL     OW38679   4.869   3.340  12.304 -0.3950  0.5275 -0.2473
12413SOL    HW138680   4.816   3.295  12.370 -0.5307  0.4208 -0.4293
12413SOL    HW238681   4.817   3.335  12.224  0.2533 -0.2876 -0.6227
12414SOL     OW38682   5.940   6.517   1.466 -0.5337  0.1728  0.9135
12414SOL    HW138683   5.876   6.473   1.522 -1.8942 -0.2308 -0.8484
12414SOL    HW238684   6.011   6.454   1.456 -0.7757 -0.1721  1.3256
12415SOL     OW38685   4.288   5.348   9.015  0.1619 -0.5552  0.7018
12415SOL    HW138686   4.305   5.437   8.982  0.0635 -1.1303 -1.0039
12415SOL    HW238687   4.224   5.361   9.085 -0.4706  0.6780 -0.0454
12416SOL     OW38688   1.010   6.542   9.031 -0.1697 -0.0520  0.1075
12416SOL    HW138689   1.087   6.583   9.069  0.1815  0.5706 -1.1967
12416SOL    HW238690   1.004   6.456   9.073  1.6280 -0.3842 -0.2502
12417SOL     OW38691   6.579   1.270   2.726  0.0489  0.1103 -0.0190
12417SOL    HW138692   6.606   1.179   2.719  2.0426  0.6653 -0.2954
12417SOL    HW238693   6.561   1.283   2.820  0.1707 -0.4532  0.0836
12418SOL     OW38694   7.296   3.936   4.221  0.0599  0.3066 -0.0393
12418SOL    HW138695   7.331   4.019   4.254  0.9240 -1.0722  2.8630
12418SOL    HW238696   7.367   3.874   4.233 -0.5538 -0.9115 -2.1796
12419SOL     OW38697   4.874   0.489   4.088 -0.1590  0.2410 -0.3635
12419SOL    HW138698   4.927   0.554   4.040  1.8068 -2.3478 -2.0022
12419SOL    HW238699   4.827   0.442   4.020  1.2215 -2.3085  0.3282
12420SOL     OW38700   3.391   6.045   1.683  0.2357  0.2435 -0.1722
12420SOL    HW138701   3.356   5.957   1.699 -0.3129  0.7386  1.5887
12420SOL    HW238702   3.458   6.032   1.616  0.4845 -1.5950  0.3704
12421SOL     OW38703   5.571   3.615  11.767  0.2443  0.6185 -0.6913
12421SOL    HW138704   5.615   3.601  11.851 -0.4188  0.1661 -0.4128
12421SOL    HW238705   5.498   3.553  11.767  1.2966 -0.7329 -2.3780
12422SOL     OW38706   7.972   7.793   6.392 -0.0652 -0.4107  0.6255
12422SOL    HW138707   8.034   7.748   6.334 -1.8040 -0.1567 -1.5813
12422SOL    HW238708   8.027   7.846   6.449  1.8392 -1.8940  0.3001
12423SOL     OW38709   6.001   2.027   0.379 -0.2171 -0.3271 -0.0174
12423SOL    HW138710   6.045   2.099   0.425  1.5596 -0.3705 -1.4941
12423SOL    HW238711   5.914   2.061   0.360 -0.4723  0.2574  1.9348
12424SOL     OW38712   1.586   3.915   7.786 -0.0897  0.1109 -0.7475
12424SOL    HW138713   1.586   4.000   7.741  1.2237  0.7956  0.4750
12424SOL    HW238714   1.648   3.862   7.736  0.6548  0.5677 -0.3365
12425SOL     OW38715   3.021   5.763  10.989 -0.4789 -0.0998 -0.1920
12425SOL    HW138716   2.943   5.709  10.976 -0.4343 -0.0828 -0.5473
12425SOL    HW238717   3.011   5.799  11.078  0.5127 -2.3317  0.8793
12426SOL     OW38718   4.424   7.334  10.673 -0.1835  0.3804  0.3342
12426SOL    HW138719   4.334   7.324  10.703 -1.4544  0.7949 -2.9303
12426SOL    HW238720   4.472   7.263  10.715 -2.0522  0.0550  2.0281
12427SOL     OW38721   4.585   4.181   9.815  0.3377  0.1248  0.1367
12427SOL    HW138722   4.608   4.134   9.896  1.3610  1.6377  0.7762
12427SOL    HW238723   4.662   4.169   9.759  0.6008  0.9756  0.2993
12428SOL     OW38724   3.154   4.931  10.294  0.6283  0.4395  0.3887
12428SOL    HW138725   3.174   4.864  10.360 -0.4570  0.1411  0.4368
12428SOL    HW238726   3.076   4.976  10.327 -0.3298 -0.1335 -0.9656
12429SOL     OW38727   3.311   5.772   9.307  0.1371  0.4254 -0.1299
12429SOL    HW138728   3.382   5.822   9.348 -0.9073  0.9648  1.0815
12429SOL    HW238729   3.252   5.838   9.271  0.1952 -0.0177 -1.0871
12430SOL     OW38730   2.556   2.251   6.045  0.3180  0.3931 -0.0383
12430SOL    HW138731   2.575   2.169   6.091 -0.5103  0.8332  1.1322
12430SOL    HW238732   2.642   2.281   6.014  0.7684 -0.4112  0.3901
12431SOL     OW38733   3.752   6.590   8.971  0.3068 -0.7000  0.3525
12431SOL    HW138734   3.793   6.507   8.996  0.2065 -0.2422  2.1567
12431SOL    HW238735   3.775   6.601   8.879  1.2437 -2.1983  0.3750
12432SOL     OW38736   1.827   4.006   5.368 -0.0417  0.5630 -0.3333
12432SOL    HW138737   1.767   3.953   5.315  0.8212  1.0644 -1.8702
12432SOL    HW238738   1.883   3.941   5.411  0.5122  0.1684 -1.5961
12433SOL     OW38739   2.994   2.380   8.728 -1.1477 -0.1185  0.1675
12433SOL    HW138740   3.022   2.461   8.771 -2.2674  0.6425 -0.4921
12433SOL    HW238741   2.995   2.401   8.635 -0.9271 -1.0506 -0.0450
12434SOL     OW38742   2.058   0.061   9.160  0.7020 -0.2490 -0.8161
12434SOL    HW138743   2.149   0.086   9.149  0.6526  0.2914 -0.0859
12434SOL    HW238744   2.060  -0.034   9.173  0.9617 -0.5593 -2.8125
12435SOL     OW38745   7.047   6.058   1.622  0.0061  0.5179 -0.0973
12435SOL    HW138746   7.073   5.967   1.634 -1.0827  0.1812 -0.2301
12435SOL    HW238747   6.953   6.055   1.609  0.2657  1.3952 -2.7347
12436SOL     OW38748   0.309   3.336   7.938  0.1705  0.7141 -0.4301
12436SOL    HW138749   0.286   3.418   7.982 -0.9953 -0.0920  0.4883
12436SOL    HW238750   0.405   3.332   7.944  0.1092  1.1475  1.0602
12437SOL     OW38751   6.262   4.456   0.883  0.0192 -0.0418 -0.1440
12437SOL    HW138752   6.196   4.524   0.896  0.3095 -0.2583  3.3686
12437SOL    HW238753   6.344   4.497   0.911  0.7459 -0.8927 -0.9865
12438SOL     OW38754   1.344   1.756   9.289  0.5078  0.4391  0.4295
12438SOL    HW138755   1.392   1.752   9.206 -0.6187 -0.1486 -0.2259
12438SOL    HW238756   1.339   1.849   9.309 -2.0939  0.9735 -1.9852
12439SOL     OW38757   2.315   1.027   7.471 -0.7090 -0.0711 -0.0514
12439SOL    HW138758   2.394   0.974   7.480 -0.9352 -0.3805  0.1242
12439SOL    HW238759   2.342   1.115   7.498 -0.5971 -0.3269  0.6952
12440SOL     OW38760   1.596   0.049  10.267 -0.0121 -0.5491  0.1545
12440SOL    HW138761   1.678  -0.001  10.264 -1.0862 -2.4030  0.0313
12440SOL    HW238762   1.540   0.005  10.204 -1.0159  0.8687  0.0380
12441SOL     OW38763   0.916   0.185   3.442  0.2883  0.2238  0.2673
12441SOL    HW138764   0.965   0.123   3.496  0.7671  1.0856  0.8431
12441SOL    HW238765   0.856   0.131   3.392  0.6640 -0.7002  0.7959
12442SOL     OW38766   7.981   3.943  11.912 -1.0241  0.1088 -0.2059
12442SOL    HW138767   7.944   4.000  11.980 -0.9104 -0.9757  0.7982
12442SOL    HW238768   7.940   3.973  11.831 -1.5232  1.1381  0.4053
12443SOL     OW38769   2.223   6.197   1.077 -0.7583 -0.3467 -0.4823
12443SOL    HW138770   2.245   6.107   1.055  0.3736 -0.9115  2.5658
12443SOL    HW238771   2.262   6.249   1.006  1.5519 -2.0695 -0.5958
12444SOL     OW38772   0.755   7.558   2.186  0.1260  0.4096 -0.1345
12444SOL    HW138773   0.699   7.541   2.110 -0.7566  1.8698  0.1321
12444SOL    HW238774   0.698   7.542   2.261  1.2795 -2.0141  0.3123
12445SOL     OW38775   2.559   6.149   3.738  0.5466  0.0826 -0.0711
12445SOL    HW138776   2.588   6.236   3.710 -0.8635  0.2817 -1.0543
12445SOL    HW238777   2.522   6.163   3.825  0.5544  0.4259 -0.1208
12446SOL     OW38778   1.959   4.364   5.902 -0.8246  0.3341 -0.2553
12446SOL    HW138779   1.977   4.393   5.813 -1.0918 -0.4245 -0.5685
12446SOL    HW238780   1.872   4.326   5.898  0.7400 -3.7481 -0.7586
12447SOL     OW38781   5.713   1.609   0.538 -0.8419  0.1022 -0.0268
12447SOL    HW138782   5.649   1.609   0.610 -1.5296  0.5198 -0.6180
12447SOL    HW238783   5.745   1.700   0.535 -0.4972 -0.0164  0.0251
12448SOL     OW38784   0.889   3.553   9.506 -0.0205 -0.0525  0.3753
12448SOL    HW138785   0.970   3.605   9.498  0.0174 -0.2633 -0.6488
12448SOL    HW238786   0.916   3.474   9.553  0.3351 -0.0323  0.2094
12449SOL     OW38787   6.094   2.027   8.201 -0.2646  0.0464 -0.0025
12449SOL    HW138788   6.018   1.984   8.161  0.5102 -0.8807 -0.5359
12449SOL    HW238789   6.066   2.117   8.216 -1.4226 -0.2491 -0.3017
12450SOL     OW38790   6.125   4.123   3.280  0.5224  0.5063  0.6132
12450SOL    HW138791   6.086   4.108   3.193 -2.2489  1.8369  1.5137
12450SOL    HW238792   6.153   4.036   3.309  0.3856 -0.1505 -1.0887
12451SOL     OW38793   4.128   6.679   4.015 -0.2011 -0.0778  0.0328
12451SOL    HW138794   4.074   6.630   4.077 -1.3774  0.5257 -0.4792
12451SOL    HW238795   4.107   6.771   4.031  1.2512  0.2266  0.3173
12452SOL     OW38796   1.699   4.640  10.947 -0.8748  0.0571 -0.3868
12452SOL    HW138797   1.712   4.717  11.002 -1.3511  0.6940 -1.1522
12452SOL    HW238798   1.754   4.573  10.987  0.0452  0.9704 -0.0744
12453SOL     OW38799   3.308   5.966   1.075 -0.5521 -0.8036  0.2858
12453SOL    HW138800   3.239   5.919   1.029 -2.2570  2.4671 -0.8303
12453SOL    HW238801   3.307   6.054   1.037  2.9381  0.0014  1.6169
12454SOL     OW38802   1.310   3.204   5.022 -0.4700 -0.2439 -0.2360
12454SOL    HW138803   1.331   3.256   5.099  0.1653 -0.1848 -0.4400
12454SOL    HW238804   1.249   3.138   5.053 -0.2948 -0.1592  0.2940
12455SOL     OW38805   6.863   7.312   0.755 -0.7045 -0.1456  0.0245
12455SOL    HW138806   6.789   7.372   0.745  0.0683  0.8189 -0.0807
12455SOL    HW238807   6.823   7.226   0.770 -1.8402  0.0874 -1.5009
12456SOL     OW38808   5.806   1.979   0.686 -0.1253  0.5364 -0.1670
12456SOL    HW138809   5.780   1.938   0.604  1.7815 -0.5343 -0.2830
12456SOL    HW238810   5.725   2.017   0.720 -1.7432 -2.1457 -0.7273
12457SOL     OW38811   0.358   5.541  10.084 -0.4367  0.8028  0.2208
12457SOL    HW138812   0.288   5.486  10.119 -1.0830  0.4241 -1.5945
12457SOL    HW238813   0.355   5.528   9.989  2.0452  0.8210  0.0581
12458SOL     OW38814   3.865   4.852  11.467  0.2326 -0.1652 -1.1201
12458SOL    HW138815   3.774   4.833  11.488  0.3765 -0.1365 -0.4408
12458SOL    HW238816   3.881   4.806  11.385 -0.5050  0.1541 -1.4566
12459SOL     OW38817   1.932   2.635  10.469  0.8029 -0.1363  0.3009
12459SOL    HW138818   1.971   2.548  10.470  1.5993  0.2069  1.2870
12459SOL    HW238819   1.859   2.630  10.531 -0.0618 -0.4655 -0.7017
12460SOL     OW38820   6.489   4.720   8.283  0.5246  0.3235 -0.6885
12460SOL    HW138821   6.517   4.803   8.320  0.9670  0.5946 -1.5917
12460SOL    HW238822   6.543   4.709   8.204  0.8617 -1.0859 -0.2929
12461SOL     OW38823   2.162   2.464   8.176  0.7361 -0.3063 -0.3396
12461SOL    HW138824   2.240   2.514   8.199  0.4137 -0.0243  0.1867
12461SOL    HW238825   2.182   2.374   8.201  1.0092 -0.2914 -0.5041
12462SOL     OW38826   3.952   4.129   4.201 -0.2841 -0.5725  0.1910
12462SOL    HW138827   3.934   4.192   4.271  0.8786 -1.3098  1.1908
12462SOL    HW238828   3.879   4.068   4.204  0.4538 -1.4503  1.7879
12463SOL     OW38829   4.471   5.251   8.705  0.0935  0.1706 -0.2381
12463SOL    HW138830   4.395   5.280   8.654 -0.9832 -1.0037  0.6353
12463SOL    HW238831   4.527   5.208   8.641 -0.5303  0.0246 -0.7053
12464SOL     OW38832   5.060   1.148   1.381 -0.3079  0.0791 -0.6968
12464SOL    HW138833   5.084   1.179   1.293  1.2054  1.0895  0.0325
12464SOL    HW238834   5.139   1.106   1.414 -0.9566 -0.5605  0.0799
12465SOL     OW38835   5.220   3.897   4.715  0.0854  0.2142 -0.4984
12465SOL    HW138836   5.179   3.874   4.799  0.4676  3.3377  0.6926
12465SOL    HW238837   5.314   3.885   4.730  0.1141  0.2555 -0.6484
12466SOL     OW38838   2.120   0.871   6.033 -0.1016 -0.0994 -0.2212
12466SOL    HW138839   2.116   0.776   6.022 -0.3588  0.0613 -1.7050
12466SOL    HW238840   2.028   0.898   6.038 -0.0359  0.0932 -0.0612
12467SOL     OW38841   0.491   5.276   9.976 -0.0642 -0.0138  0.0078
12467SOL    HW138842   0.459   5.198  10.022  0.0221 -0.2228 -0.2793
12467SOL    HW238843   0.478   5.348  10.038  1.6082 -0.5383  1.0274
12468SOL     OW38844   6.569   3.930   2.958 -0.0911  0.2893  0.4476
12468SOL    HW138845   6.556   3.996   3.027  1.3540  0.4379  0.6032
12468SOL    HW238846   6.480   3.899   2.938 -0.6663  1.2682  1.3642
12469SOL     OW38847   5.315   5.804   6.392  0.0301  0.0550  0.1260
12469SOL    HW138848   5.353   5.878   6.345  2.4891  0.6405  2.7132
12469SOL    HW238849   5.278   5.843   6.472 -0.8523 -1.2546  0.3922
12470SOL     OW38850   4.214   1.719  11.025  0.6962  0.0041  0.2565
12470SOL    HW138851   4.272   1.743  11.097  1.4434 -0.0774 -0.3122
12470SOL    HW238852   4.216   1.794  10.966  2.5646 -1.1290 -1.2230
12471SOL     OW38853   6.813   6.326  10.506 -0.0617 -0.0311  0.4249
12471SOL    HW138854   6.770   6.283  10.580 -1.0959  2.0217  1.0713
12471SOL    HW238855   6.743   6.339  10.442  0.7846 -1.6154 -0.9017
12472SOL     OW38856   2.575   3.079   5.387  0.4823  0.1832  0.4028
12472SOL    HW138857   2.585   3.106   5.295  1.0078 -0.3276  0.3037
12472SOL    HW238858   2.628   3.000   5.394 -0.3698 -0.3566  0.8954
12473SOL     OW38859   2.867   3.405  10.891 -0.3764 -0.1183 -0.1424
12473SOL    HW138860   2.816   3.408  10.972 -1.0623 -1.6024 -0.4697
12473SOL    HW238861   2.860   3.493  10.854 -0.0069  0.5886  1.4266
12474SOL     OW38862   2.387   4.117  12.080  0.0418 -0.3952  0.6272
12474SOL    HW138863   2.440   4.050  12.037  0.3374  0.0018  0.3687
12474SOL    HW238864   2.367   4.179  12.011 -0.4064 -0.3233  0.8224
12475SOL     OW38865   0.295   5.537   0.763  0.4681  0.2039  0.2781
12475SOL    HW138866   0.349   5.458   0.764 -1.4445 -1.1728 -0.1525
12475SOL    HW238867   0.281   5.555   0.670 -0.7935 -0.1946  0.3732
12476SOL     OW38868   7.703   4.215  11.932  0.3304 -0.1394  0.3073
12476SOL    HW138869   7.744   4.148  11.986  0.2307 -0.7539 -0.3716
12476SOL    HW238870   7.613   4.221  11.966 -0.0616 -1.2915 -0.4611
12477SOL     OW38871   7.963   4.590   8.047 -0.1637  0.1845  0.3508
12477SOL    HW138872   8.025   4.526   8.013  0.0178  0.3691  0.3311
12477SOL    HW238873   7.940   4.559   8.134  0.1126  0.2259  0.4377
12478SOL     OW38874   0.228   7.334  11.366 -0.1079  0.9804 -0.3169
12478SOL    HW138875   0.216   7.303  11.277 -1.8261 -2.0054  0.8157
12478SOL    HW238876   0.315   7.301  11.391  0.3225  1.7146 -0.8005
12479SOL     OW38877   0.018   0.428  12.386 -0.1294  0.1204  0.9243
12479SOL    HW138878   0.091   0.428  12.448  1.9586 -2.7889 -1.2006
12479SOL    HW238879  -0.006   0.335  12.379 -1.7548  0.6295 -0.9696
12480SOL     OW38880   1.169   4.247  11.509  0.0359 -0.4326  0.2921
12480SOL    HW138881   1.137   4.275  11.595  0.5105  0.1575  0.2877
12480SOL    HW238882   1.128   4.162  11.494 -0.7326 -0.1473  0.7213
12481SOL     OW38883   3.211   1.975   0.783 -0.2323 -0.0285  0.5496
12481SOL    HW138884   3.265   1.985   0.861 -0.1632  1.2732  0.3713
12481SOL    HW238885   3.264   1.923   0.723  1.4777  2.2870 -0.1253
12482SOL     OW38886   3.311   4.765   2.458 -0.0251 -0.1920  0.0293
12482SOL    HW138887   3.255   4.815   2.399  1.9382  0.3081 -1.4882
12482SOL    HW238888   3.255   4.692   2.487 -1.1665 -0.2811 -2.2014
12483SOL     OW38889   0.835   1.480  11.422 -0.1356 -0.1648  0.1297
12483SOL    HW138890   0.925   1.447  11.417 -0.6040 -1.5411  0.1670
12483SOL    HW238891   0.844   1.574  11.437  1.2928 -0.2957  0.2354
12484SOL     OW38892   4.720   0.819  10.230 -0.2514  0.3836  0.6050
12484SOL    HW138893   4.673   0.743  10.262  0.2006  0.4480  1.4465
12484SOL    HW238894   4.813   0.797  10.244  0.0066  0.2288 -1.0628
12485SOL     OW38895   1.778   6.402   1.284 -0.0268 -0.4891  0.1000
12485SOL    HW138896   1.695   6.384   1.241  0.1485 -0.7982 -0.1187
12485SOL    HW238897   1.822   6.316   1.288 -0.3487 -0.6133  1.5498
12486SOL     OW38898   6.104   6.595   1.759  0.1523 -0.3793  0.4537
12486SOL    HW138899   6.154   6.514   1.753 -3.1327 -2.4990 -1.0594
12486SOL    HW238900   6.110   6.633   1.672  1.4978  1.0112  1.0994
12487SOL     OW38901   1.460   7.131   0.880  0.5443 -0.2790 -0.2118
12487SOL    HW138902   1.553   7.119   0.864  0.3317 -1.4426 -0.7059
12487SOL    HW238903   1.455   7.181   0.961  1.5913 -0.4773 -0.0192
12488SOL     OW38904   1.169   0.348   4.154  0.1107 -0.1820  0.1000
12488SOL    HW138905   1.155   0.282   4.222  3.6316 -1.1885  0.0694
12488SOL    HW238906   1.123   0.315   4.078  0.8677 -2.1067  0.4176
12489SOL     OW38907   2.934   0.443  11.490  0.0210 -0.0718 -0.2705
12489SOL    HW138908   2.988   0.521  11.501 -1.8811  1.6183 -2.0305
12489SOL    HW238909   2.996   0.371  11.481  1.8368  1.0542  2.1247
12490SOL     OW38910   1.903   0.224   8.256 -0.1636  0.6138 -0.1955
12490SOL    HW138911   1.822   0.274   8.255 -1.3146 -1.1627  0.4157
12490SOL    HW238912   1.878   0.137   8.287  2.0302  0.1065  0.3537
12491SOL     OW38913   2.929   4.031   6.709 -0.5545 -0.0243 -0.1825
12491SOL    HW138914   2.976   4.109   6.736 -0.3980 -0.5155  1.0248
12491SOL    HW238915   2.928   3.975   6.787 -0.0632 -1.5196 -1.2024
12492SOL     OW38916   0.977   4.784   9.704 -0.5134 -0.6276 -0.0890
12492SOL    HW138917   0.935   4.838   9.638 -0.8843 -2.7166 -1.6869
12492SOL    HW238918   0.924   4.704   9.707  0.3356 -1.1779  1.7010
12493SOL     OW38919   6.682   2.861   0.260  0.1424  0.6669  0.4539
12493SOL    HW138920   6.601   2.830   0.301  1.0278  0.0004  1.7689
12493SOL    HW238921   6.663   2.952   0.235 -1.4118  0.1406 -0.4523
12494SOL     OW38922   5.261   7.077  11.216  0.1142  0.1882  0.2802
12494SOL    HW138923   5.334   7.015  11.217  0.0507  0.0843  1.8091
12494SOL    HW238924   5.263   7.116  11.304 -1.3896  0.5166  0.1843
12495SOL     OW38925   4.349   7.533   3.241 -0.5563  0.4233 -0.2474
12495SOL    HW138926   4.361   7.615   3.288  1.6025 -0.4028  0.8126
12495SOL    HW238927   4.255   7.523   3.233 -0.9196  2.0865  1.2764
12496SOL     OW38928   7.399   4.622   5.019  0.2999  0.0030  0.4155
12496SOL    HW138929   7.463   4.561   4.981  0.8247 -0.6031  2.1834
12496SOL    HW238930   7.314   4.589   4.988  0.5897 -1.5212  1.1444
12497SOL     OW38931   1.332   6.187   4.742 -0.2222  0.6774 -0.2868
12497SOL    HW138932   1.387   6.264   4.728 -0.3298  0.8316  0.1115
12497SOL    HW238933   1.319   6.151   4.655  1.4739 -0.0462 -0.2746
12498SOL     OW38934   4.874   1.326   0.879  0.4785 -0.1666  0.3240
12498SOL    HW138935   4.956   1.305   0.836  0.0076 -0.0494 -0.6609
12498SOL    HW238936   4.885   1.417   0.908  1.1233 -0.5287  1.2615
12499SOL     OW38937   6.110   3.754   5.912 -0.5363 -0.2295  0.5362
12499SOL    HW138938   6.166   3.832   5.915  0.0927 -0.6234 -0.6501
12499SOL    HW238939   6.161   3.689   5.864 -0.8617 -1.5564  1.9086
12500SOL     OW38940   0.113   1.273   4.497 -0.2670  0.2831 -0.0063
12500SOL    HW138941   0.060   1.352   4.487 -0.8157  0.0858  1.0927
12500SOL    HW238942   0.193   1.303   4.539  0.0941  0.4370 -0.7854
12501SOL     OW38943   6.831   4.389   1.682 -0.2638 -0.5522  0.2547
12501SOL    HW138944   6.757   4.335   1.709  0.6034 -1.1397  1.5423
12501SOL    HW238945   6.867   4.423   1.764  0.0682  0.8466 -0.4353
12502SOL     OW38946   2.606   6.958   6.195 -0.3002  0.7348  0.4787
12502SOL    HW138947   2.670   6.907   6.145  0.3751  1.6219  0.4169
12502SOL    HW238948   2.638   6.956   6.285  0.4633  2.1214  0.2642
12503SOL     OW38949   0.625   0.613   9.612 -0.0495 -0.3272  0.1195
12503SOL    HW138950   0.615   0.593   9.705 -0.6715 -1.2993 -0.1466
12503SOL    HW238951   0.554   0.565   9.569  0.8975 -0.7891 -0.9769
12504SOL     OW38952   7.764   5.813   4.652  0.2609  0.3245 -0.1474
12504SOL    HW138953   7.763   5.744   4.718 -0.9955  1.9559  1.6432
12504SOL    HW238954   7.857   5.822   4.628  0.5323 -1.4200  0.1085
12505SOL     OW38955   2.180   6.676   5.481 -0.2382 -0.4797  0.0321
12505SOL    HW138956   2.090   6.670   5.514 -0.2982 -2.5653 -0.3407
12505SOL    HW238957   2.202   6.586   5.456  2.1359 -0.1330  0.5842
12506SOL     OW38958   1.468   7.170   1.169  0.3730 -0.0434 -0.6026
12506SOL    HW138959   1.506   7.087   1.197 -1.5197 -0.4781  0.9072
12506SOL    HW238960   1.537   7.235   1.183  1.4914 -1.1632 -0.7200
12507SOL     OW38961   6.059   1.710   2.942 -0.1066 -0.1293 -0.9403
12507SOL    HW138962   5.980   1.687   2.893  0.2296 -0.3667 -1.3733
12507SOL    HW238963   6.105   1.627   2.954 -0.2998 -0.1182 -0.0020
12508SOL     OW38964   1.044   3.996   6.581  0.7917  0.0002 -0.0692
12508SOL    HW138965   1.028   4.038   6.497 -0.4541 -1.0960 -0.4116
12508SOL    HW238966   0.966   3.943   6.597  2.0327 -1.7381  0.5921
12509SOL     OW38967   7.252   7.043  12.284  0.3919 -0.2546 -0.1729
12509SOL    HW138968   7.269   7.107  12.353 -1.2779  1.0395 -0.8945
12509SOL    HW238969   7.339   7.022  12.249  1.1626 -0.0907  1.5409
12510SOL     OW38970   5.848   0.627   7.047  0.3557  0.0508  0.1251
12510SOL    HW138971   5.900   0.589   6.976  1.3933  0.4440  0.6642
12510SOL    HW238972   5.786   0.558   7.071 -1.4153  0.5562 -2.4768
12511SOL     OW38973   3.069   1.853   2.250  0.5648  0.1800 -0.6208
12511SOL    HW138974   3.122   1.931   2.238  1.4261 -0.2151  0.4927
12511SOL    HW238975   2.982   1.878   2.221  1.3111  0.8718 -2.4118
12512SOL     OW38976   2.467   5.663   9.751 -0.3565  0.7168  0.1726
12512SOL    HW138977   2.411   5.641   9.825 -0.0098 -0.6344  0.0535
12512SOL    HW238978   2.534   5.595   9.750 -1.5839 -0.5902 -2.6900
12513SOL     OW38979   6.449   3.567   1.725 -0.0483  0.0770 -0.2965
12513SOL    HW138980   6.453   3.663   1.726 -0.2100  0.0749  0.3906
12513SOL    HW238981   6.539   3.539   1.740  0.0574  0.1181 -0.8286
12514SOL     OW38982   3.081   3.809  11.733 -0.0977 -0.0692 -0.0456
12514SOL    HW138983   3.098   3.735  11.674 -0.8097  0.9116 -1.5525
12514SOL    HW238984   3.162   3.860  11.731 -0.0090 -0.2064  0.0687
12515SOL     OW38985   3.801   4.792   6.187 -0.1740  0.4295 -0.6449
12515SOL    HW138986   3.732   4.825   6.129  0.7875  1.2601 -1.3529
12515SOL    HW238987   3.879   4.840   6.161  0.7677 -0.7616 -0.1111
12516SOL     OW38988   3.371   1.239   9.273  0.2008  0.3294 -0.1398
12516SOL    HW138989   3.310   1.201   9.210  1.2361  0.3942 -1.2393
12516SOL    HW238990   3.426   1.165   9.300 -0.3858  0.2557  0.8888
12517SOL     OW38991   6.609   2.769   3.806 -0.0068 -0.8301  0.1403
12517SOL    HW138992   6.518   2.784   3.834 -1.0392 -2.5524 -1.9594
12517SOL    HW238993   6.626   2.677   3.831  0.8789 -0.7674 -0.2187
12518SOL     OW38994   1.107   4.508   0.951  0.1421  0.4258 -0.4258
12518SOL    HW138995   1.034   4.478   0.896  1.0711  1.2663 -2.2043
12518SOL    HW238996   1.183   4.460   0.919  0.5987  0.3602  0.6903
12519SOL     OW38997   7.561   1.381   0.979  0.2214  0.6420 -0.1349
12519SOL    HW138998   7.565   1.471   1.009 -0.1468  0.1844  1.3407
12519SOL    HW238999   7.650   1.348   0.989 -0.1521  0.1176  1.7240
12520SOL     OW39000   1.311   7.120   6.218 -0.0175  0.0801  0.0314
12520SOL    HW139001   1.282   7.050   6.276  1.0261 -0.2006  0.2480
12520SOL    HW239002   1.328   7.194   6.276  1.1328 -0.2352  0.1307
12521SOL     OW39003   5.065   7.413   0.735 -0.2430 -0.5819 -0.3150
12521SOL    HW139004   5.053   7.319   0.725  0.5461 -0.8608  1.0986
12521SOL    HW239005   5.124   7.438   0.665  0.4780 -1.3664 -0.0079
12522SOL     OW39006   7.442   5.792   4.837  0.1969 -0.1272  0.0537
12522SOL    HW139007   7.493   5.865   4.870 -0.5074  0.1467  0.5598
12522SOL    HW239008   7.445   5.727   4.907 -1.7635  0.6751  0.9670
12523SOL     OW39009   3.903   1.980   1.370  0.0083  0.0443 -0.5123
12523SOL    HW139010   3.952   1.955   1.447  0.2945 -0.5782 -0.8938
12523SOL    HW239011   3.953   2.053   1.332 -1.2919  1.8830  1.0828
12524SOL     OW39012   7.140   6.733  11.402  0.2670 -0.0884 -0.0176
12524SOL    HW139013   7.208   6.799  11.409 -0.3002  0.5776 -0.5814
12524SOL    HW239014   7.138   6.711  11.309 -1.5194  1.2750 -0.3622
12525SOL     OW39015   2.564   2.982   4.047 -0.6292  0.1688 -0.1520
12525SOL    HW139016   2.535   2.954   4.134 -0.7394 -0.6282 -0.4339
12525SOL    HW239017   2.611   3.064   4.062  0.2541 -0.4877  0.7978
12526SOL     OW39018   2.922   4.073   4.561 -0.1026 -0.5454 -0.0338
12526SOL    HW139019   2.975   4.069   4.640  0.4097  1.0710 -0.2391
12526SOL    HW239020   2.986   4.077   4.489 -0.4857  0.4768 -0.3441
12527SOL     OW39021   1.308   6.246   0.318  0.0110 -0.2672  0.7255
12527SOL    HW139022   1.219   6.209   0.316  0.2477 -0.9181 -2.3208
12527SOL    HW239023   1.359   6.190   0.260  1.4316  2.2985 -0.7079
12528SOL     OW39024   7.485   0.622   1.198 -0.6619 -0.0924  0.3386
12528SOL    HW139025   7.550   0.691   1.207  0.6808 -1.3732  0.8643
12528SOL    HW239026   7.465   0.595   1.288  0.5272 -1.8637  0.1281
12529SOL     OW39027   5.541   6.291   9.729 -0.1844 -0.1577  0.0821
12529SOL    HW139028   5.592   6.370   9.744 -0.7068 -0.1495  2.2245
12529SOL    HW239029   5.495   6.307   9.647  2.4431  0.2103 -1.4377
12530SOL     OW39030   4.262   7.088   8.906 -0.3556  0.2084  0.2707
12530SOL    HW139031   4.281   6.994   8.900  1.4826  0.4469  1.5191
12530SOL    HW239032   4.179   7.098   8.860 -0.5560 -2.0074  0.0129
12531SOL     OW39033   7.330   5.997   2.327 -0.1608 -0.1167  0.4720
12531SOL    HW139034   7.320   6.090   2.344  0.5027 -0.3490  2.4161
12531SOL    HW239035   7.263   5.955   2.381  0.1171 -0.8057  0.2945
12532SOL     OW39036   7.757   5.703  11.881  0.3010  0.4650  0.6999
12532SOL    HW139037   7.790   5.710  11.970  0.5130 -0.7955  0.7316
12532SOL    HW239038   7.823   5.653  11.834 -0.1073  0.5749 -0.0196
12533SOL     OW39039   1.002   7.007   6.239 -0.0926 -0.2678 -0.4914
12533SOL    HW139040   0.909   6.982   6.245  0.0635 -0.4905  2.2046
12533SOL    HW239041   1.009   7.051   6.155 -2.7983  0.3429 -0.5011
12534SOL     OW39042   0.959   3.337  10.828  0.0225 -0.5260  0.0894
12534SOL    HW139043   0.996   3.313  10.913 -0.0591 -1.8412 -0.2106
12534SOL    HW239044   0.865   3.340  10.842  0.0058 -0.7863  0.0531
12535SOL     OW39045   2.443   0.658  10.032  0.3458 -0.5945 -0.0592
12535SOL    HW139046   2.527   0.699  10.053  0.8214 -1.5426 -0.0628
12535SOL    HW239047   2.393   0.727   9.988  1.1621 -0.0508 -0.1540
12536SOL     OW39048   5.371   4.217   6.740 -0.1689 -0.0300  0.0399
12536SOL    HW139049   5.280   4.242   6.750 -0.2178  0.8977 -2.1002
12536SOL    HW239050   5.376   4.128   6.776 -1.9900 -0.2371 -0.1349
12537SOL     OW39051   4.633   4.626   0.927  0.1824  0.8626 -0.3288
12537SOL    HW139052   4.687   4.589   0.996  0.2150  1.1606 -0.1943
12537SOL    HW239053   4.544   4.597   0.948  0.1400  1.2710  0.0498
12538SOL     OW39054   1.989   7.520   9.176  0.1885  0.4929  0.5354
12538SOL    HW139055   1.909   7.468   9.185  0.6063 -0.4273 -0.7325
12538SOL    HW239056   2.040   7.498   9.254  0.2675 -0.8999  0.1280
12539SOL     OW39057   0.593   4.666   4.144  0.4359 -0.4605 -0.1262
12539SOL    HW139058   0.582   4.739   4.084  0.3907  1.6208  2.2743
12539SOL    HW239059   0.511   4.662   4.193  1.1499 -0.8552  1.0831
12540SOL     OW39060   6.571   3.977   5.208  0.2465  0.1593  0.0886
12540SOL    HW139061   6.530   4.024   5.280 -1.7896 -1.6498  0.2069
12540SOL    HW239062   6.661   3.962   5.237  0.2113  1.7237  1.0926
12541SOL     OW39063   4.599   2.685   3.652 -0.2371  0.5449 -0.6761
12541SOL    HW139064   4.522   2.700   3.706 -0.3519  0.2766 -0.7648
12541SOL    HW239065   4.572   2.618   3.589 -0.0442  0.7092 -0.9386
12542SOL     OW39066   3.442   3.090   4.269 -0.1652 -0.1899  0.4693
12542SOL    HW139067   3.369   3.050   4.222  2.6672 -3.5074 -1.5567
12542SOL    HW239068   3.456   3.035   4.346  1.5010 -0.9944 -0.3599
12543SOL     OW39069   2.670   2.195  10.002 -0.2023 -0.5560 -0.4035
12543SOL    HW139070   2.597   2.207  10.063 -0.4192 -0.1442 -0.7437
12543SOL    HW239071   2.694   2.102  10.012  0.4846 -0.2611  1.1058
12544SOL     OW39072   6.107   5.596  11.559 -0.9679 -0.4310  0.4311
12544SOL    HW139073   6.134   5.613  11.649  0.3444  1.1504 -0.2023
12544SOL    HW239074   6.162   5.523  11.530  0.2592  0.5435  0.2298
12545SOL     OW39075   2.539   6.494   2.363  0.1359 -0.0858 -0.3348
12545SOL    HW139076   2.506   6.478   2.275  0.8969  0.6254 -0.7610
12545SOL    HW239077   2.462   6.482   2.419 -0.3365 -0.6375 -1.0764
12546SOL     OW39078   4.804   2.518  10.166 -0.2938  0.8386  0.6974
12546SOL    HW139079   4.864   2.552  10.100 -1.5318  2.6852  0.4589
12546SOL    HW239080   4.759   2.445  10.123  2.1254 -0.9988  1.0828
12547SOL     OW39081   7.126   6.920  10.343 -0.0847 -0.3887 -0.2588
12547SOL    HW139082   7.074   6.982  10.291 -0.2023 -0.9637 -0.8363
12547SOL    HW239083   7.141   6.966  10.426  0.4743  0.7241 -0.9494
12548SOL     OW39084   4.710   4.485  11.504  0.0122 -0.2371 -0.2615
12548SOL    HW139085   4.777   4.505  11.439  0.1809  0.6573  0.1624
12548SOL    HW239086   4.741   4.407  11.548  0.0747 -0.6432 -1.0094
12549SOL     OW39087   6.786   0.370   4.385 -0.2040 -0.0425  0.1283
12549SOL    HW139088   6.756   0.431   4.452  0.5656  0.7976 -0.2859
12549SOL    HW239089   6.828   0.424   4.319  1.8567 -1.1275  0.4736
12550SOL     OW39090   1.996   6.030   1.435  0.3191 -0.3940  0.3280
12550SOL    HW139091   1.975   6.063   1.348 -0.1722 -0.7457  0.3108
12550SOL    HW239092   1.911   6.018   1.478  0.5551 -0.2248  0.8554
12551SOL     OW39093   4.392   0.966  10.717  0.6724 -0.0222  0.4288
12551SOL    HW139094   4.430   0.982  10.804  1.5890  1.2353 -0.1639
12551SOL    HW239095   4.364   1.053  10.688 -0.7832 -0.6237 -0.0330
12552SOL     OW39096   5.944   6.008   8.611 -0.1891  0.1605 -0.2388
12552SOL    HW139097   5.942   5.917   8.641 -0.8155  0.2602  0.0212
12552SOL    HW239098   6.037   6.031   8.613 -0.0833 -0.2777  0.2834
12553SOL     OW39099   4.046   7.442  11.602  0.0644  0.0557 -0.5282
12553SOL    HW139100   4.092   7.521  11.574  0.2437  0.1633  0.0704
12553SOL    HW239101   4.107   7.371  11.580  1.6253  0.3375  2.3903
12554SOL     OW39102   2.900   6.958   2.008  0.2325 -0.1159  0.4021
12554SOL    HW139103   2.853   6.986   2.087 -1.2031 -1.1712 -0.0547
12554SOL    HW239104   2.910   7.039   1.957  0.1587  0.3622  1.1203
12555SOL     OW39105   5.147   5.698   5.887  0.4127 -0.3016 -0.1535
12555SOL    HW139106   5.055   5.673   5.877  0.6323 -0.4616 -2.2529
12555SOL    HW239107   5.173   5.660   5.970 -0.6795 -2.6735 -0.7919
12556SOL     OW39108   1.598   2.328   5.821 -0.0521  0.0629 -0.1733
12556SOL    HW139109   1.604   2.408   5.768 -0.1234 -0.0941 -0.4198
12556SOL    HW239110   1.506   2.321   5.845  0.1587  0.7400  0.9215
12557SOL     OW39111   1.976   3.220   7.919  0.6705 -0.1750 -0.3211
12557SOL    HW139112   2.037   3.242   7.989  0.9221 -0.8056 -0.3380
12557SOL    HW239113   2.025   3.161   7.861 -0.2042 -1.3562  0.1016
12558SOL     OW39114   5.750   2.420  10.477 -0.4995  0.0156  0.1269
12558SOL    HW139115   5.663   2.456  10.494 -0.9588 -1.0235  0.0395
12558SOL    HW239116   5.786   2.476  10.408 -1.8618 -0.6720 -1.1883
12559SOL     OW39117   0.938   4.115   7.541 -0.2939 -0.2833 -0.1955
12559SOL    HW139118   0.845   4.124   7.521 -0.4056  0.0594  0.4711
12559SOL    HW239119   0.943   4.036   7.596 -0.1251 -0.5870 -0.6401
12560SOL     OW39120   0.707   4.987   3.672 -0.0950 -0.0205 -0.2407
12560SOL    HW139121   0.703   4.919   3.604  3.6734 -0.6301 -0.0947
12560SOL    HW239122   0.747   5.062   3.628  0.0776  0.4498  0.6908
12561SOL     OW39123   6.512   2.504  12.333  0.2521 -0.2793 -0.7239
12561SOL    HW139124   6.516   2.465  12.246 -1.9352 -3.5661  0.4556
12561SOL    HW239125   6.419   2.511  12.353  0.6481  2.2976  0.6511
12562SOL     OW39126   0.231   3.905   4.722  0.5536  0.0831 -0.2909
12562SOL    HW139127   0.172   3.893   4.796 -1.0133  0.7418 -1.3714
12562SOL    HW239128   0.319   3.895   4.758 -0.1190  1.2968  1.8333
12563SOL     OW39129   6.465   1.535   9.885 -0.2967  0.0812  0.6516
12563SOL    HW139130   6.488   1.606   9.946  0.1404 -0.3842  1.0385
12563SOL    HW239131   6.378   1.506   9.914 -0.0341 -0.2285  1.1478
12564SOL     OW39132   7.189   0.748   2.991 -0.2986 -0.3148 -0.2664
12564SOL    HW139133   7.247   0.674   2.974 -0.9129 -1.0451  0.6926
12564SOL    HW239134   7.102   0.717   2.966 -0.1672  1.2496 -3.0714
12565SOL     OW39135   0.377   1.447   4.861  0.1375  0.2880  0.1005
12565SOL    HW139136   0.412   1.438   4.949 -0.5552 -2.2158  0.1982
12565SOL    HW239137   0.431   1.388   4.808 -0.5833  0.4057 -0.7848
12566SOL     OW39138   7.232   0.993   0.897 -0.4108  0.4631 -0.1980
12566SOL    HW139139   7.291   1.015   0.969  0.1069  2.3051 -1.1271
12566SOL    HW239140   7.286   0.945   0.834 -1.0397 -1.8205  0.8920
12567SOL     OW39141   1.544   7.006   8.342 -0.6454 -0.1827 -0.0709
12567SOL    HW139142   1.497   7.009   8.425  1.9257 -0.6565  1.5084
12567SOL    HW239143   1.547   6.912   8.321 -0.3938 -0.1537 -0.1592
12568SOL     OW39144   4.037   7.542   0.958  0.0270  0.2821 -0.4436
12568SOL    HW139145   4.102   7.475   0.981  0.5089  1.4383  1.9457
12568SOL    HW239146   4.084   7.625   0.968 -1.7831  1.1756  1.5784
12569SOL     OW39147   5.261   5.880   2.295 -0.1972 -0.8324 -0.3945
12569SOL    HW139148   5.205   5.852   2.368 -0.8778 -0.3528 -0.7208
12569SOL    HW239149   5.230   5.968   2.274  1.0432 -0.3500 -0.2414
12570SOL     OW39150   1.617   1.401   4.739 -0.3894  0.3295 -0.2502
12570SOL    HW139151   1.552   1.466   4.713 -0.6960 -0.0373 -0.4090
12570SOL    HW239152   1.608   1.331   4.674 -0.2558  0.0019  0.0813
12571SOL     OW39153   6.791   1.128   1.930 -0.0883  0.0483  0.2454
12571SOL    HW139154   6.737   1.153   2.005  0.6349 -1.9791  1.5186
12571SOL    HW239155   6.735   1.144   1.854 -1.3214  0.9315  1.2906
12572SOL     OW39156   5.120   2.264   5.640 -0.5375  0.2064  0.0471
12572SOL    HW139157   5.170   2.196   5.597 -1.0414  1.1795 -2.1896
12572SOL    HW239158   5.186   2.315   5.688  0.1760 -0.3502 -0.3212
12573SOL     OW39159   6.738   6.763   4.212 -0.7660 -0.0131 -0.0821
12573SOL    HW139160   6.707   6.698   4.150 -1.4965 -0.0116  0.2699
12573SOL    HW239161   6.718   6.725   4.298  2.4775 -1.1855  0.3129
12574SOL     OW39162   0.607   1.971   7.535  0.2406 -0.1303  0.7177
12574SOL    HW139163   0.582   1.923   7.456  0.8272 -0.1131  0.5217
12574SOL    HW239164   0.562   1.925   7.606 -0.8644  0.2771  0.3012
12575SOL     OW39165   1.675   5.140   4.392  0.0601  0.4356  0.0752
12575SOL    HW139166   1.596   5.095   4.360  0.0899 -0.3329  1.0261
12575SOL    HW239167   1.747   5.086   4.360  0.0873 -0.3898  1.4414
12576SOL     OW39168   6.814   2.148   5.803 -0.6518  0.2651 -0.3430
12576SOL    HW139169   6.743   2.100   5.760 -1.7734  1.1309  0.4991
12576SOL    HW239170   6.840   2.092   5.876 -2.4096  1.1640  1.0391
12577SOL     OW39171   7.125   3.016   0.570 -0.3742  0.2373 -0.3729
12577SOL    HW139172   7.144   3.008   0.663 -1.0076 -1.1630 -0.3327
12577SOL    HW239173   7.032   3.040   0.567 -1.0438 -2.1004 -0.6148
12578SOL     OW39174   7.371   2.771   9.486 -0.0663  0.5108  0.3367
12578SOL    HW139175   7.388   2.755   9.579 -1.1944 -1.2507  0.3039
12578SOL    HW239176   7.330   2.857   9.483  0.1670  0.6687  1.4477
12579SOL     OW39177   4.891   4.763   7.549 -0.2882 -0.1664 -0.2307
12579SOL    HW139178   4.886   4.670   7.571  0.6927 -0.3025 -0.5305
12579SOL    HW239179   4.804   4.797   7.569 -0.4599 -1.0081  0.5230
12580SOL     OW39180   5.844   1.929  11.191  0.1774  0.1478 -0.5866
12580SOL    HW139181   5.922   1.914  11.137 -0.0195  1.4170 -1.2654
12580SOL    HW239182   5.825   2.023  11.181  0.9535  0.8186  2.8221
12581SOL     OW39183   0.489   5.513   7.078 -0.2122 -0.5046  0.0901
12581SOL    HW139184   0.569   5.552   7.041  0.1593 -0.9309  0.4247
12581SOL    HW239185   0.509   5.419   7.082 -1.6748 -0.9764 -2.1917
12582SOL     OW39186   3.511   2.276   8.989  0.2299  0.5621 -0.6088
12582SOL    HW139187   3.434   2.330   8.972 -0.9957 -1.0280 -0.3445
12582SOL    HW239188   3.586   2.333   8.968 -1.0288  1.5026 -2.8796
12583SOL     OW39189   1.113   2.247  11.678 -0.5551 -0.6728 -0.1562
12583SOL    HW139190   1.192   2.299  11.693 -0.4354 -1.4623  2.2632
12583SOL    HW239191   1.142   2.176  11.621  0.4721 -0.8770  0.5899
12584SOL     OW39192   5.770   2.860   9.855  0.2406  0.6277 -0.3749
12584SOL    HW139193   5.688   2.902   9.880 -1.1949 -2.3350  0.3535
12584SOL    HW239194   5.746   2.769   9.838  3.3222 -0.2561 -0.5728
12585SOL     OW39195   3.188   0.502   5.996  0.1103 -0.2016  0.0534
12585SOL    HW139196   3.154   0.508   5.907 -1.3998  0.1010  0.6155
12585SOL    HW239197   3.282   0.491   5.985  0.2486  1.9007 -1.5542
12586SOL     OW39198   7.849   6.242   3.892  0.2011  0.0841 -0.1415
12586SOL    HW139199   7.831   6.148   3.905 -0.2839 -0.2641 -2.7933
12586SOL    HW239200   7.787   6.286   3.950  0.5959 -1.2130  1.3358
12587SOL     OW39201   4.994   6.785   4.513  0.7497 -0.5771  0.1912
12587SOL    HW139202   4.959   6.700   4.486  0.3991  0.0516 -1.4614
12587SOL    HW239203   4.979   6.788   4.607 -3.7373 -0.4082 -0.3253
12588SOL     OW39204   6.317   1.673   5.367  0.0400 -0.3878 -0.1619
12588SOL    HW139205   6.239   1.648   5.317  0.1146 -0.9679  0.0088
12588SOL    HW239206   6.283   1.721   5.442 -0.0871  0.2741 -0.6306
12589SOL     OW39207   0.261   6.552   1.146 -0.0292  0.7312 -0.3308
12589SOL    HW139208   0.231   6.526   1.059  0.3130 -1.3665  0.1338
12589SOL    HW239209   0.349   6.586   1.132 -0.0939  0.6843 -0.8491
12590SOL     OW39210   6.865   7.038   4.465  0.5413 -0.4161  0.5365
12590SOL    HW139211   6.860   7.050   4.370  0.3970  0.6875  0.6764
12590SOL    HW239212   6.902   7.120   4.498  0.1407 -0.6028  1.4821
12591SOL     OW39213   0.199   7.222   1.526  0.2801 -0.4230  0.3525
12591SOL    HW139214   0.199   7.276   1.447 -0.3448  0.4909  0.9557
12591SOL    HW239215   0.235   7.279   1.594 -0.1459 -0.8524  0.9490
12592SOL     OW39216   3.525   7.769  10.711  0.0170 -0.4848  0.3218
12592SOL    HW139217   3.487   7.851  10.742 -2.6337 -1.1789 -0.8247
12592SOL    HW239218   3.580   7.739  10.784 -0.3204  1.4401  1.4191
12593SOL     OW39219   6.078   7.854  12.442 -0.0324  0.0751  0.6084
12593SOL    HW139220   6.016   7.896  12.501 -1.2021 -2.1574  1.0918
12593SOL    HW239221   6.025   7.822  12.369  0.4631 -1.8150  0.9984
12594SOL     OW39222   5.319   4.239   7.969 -0.2099 -0.2692  0.1796
12594SOL    HW139223   5.225   4.243   7.950 -0.0200  0.3861 -0.7014
12594SOL    HW239224   5.344   4.149   7.947 -0.1485  0.2458 -2.1391
12595SOL     OW39225   1.022   7.385   1.503 -0.3789  0.9657 -0.2966
12595SOL    HW139226   1.038   7.479   1.496  2.9941  0.4804 -1.0659
12595SOL    HW239227   1.088   7.354   1.566 -0.7348 -0.9905 -0.8100
12596SOL     OW39228   6.309   6.274   2.844  0.1515 -0.0760  0.5050
12596SOL    HW139229   6.254   6.243   2.916  0.4159  0.0059  0.7402
12596SOL    HW239230   6.306   6.203   2.780 -1.0057  0.3139  0.0902
12597SOL     OW39231   2.326   3.877   1.239 -0.0380 -0.3481  0.0470
12597SOL    HW139232   2.273   3.808   1.280 -0.8462 -0.0325 -0.4325
12597SOL    HW239233   2.270   3.911   1.169 -1.0469  2.9620  2.2272
12598SOL     OW39234   6.910   7.700   5.082  0.0218  0.1935 -0.2211
12598SOL    HW139235   6.983   7.678   5.025  0.6735  0.3699  0.5261
12598SOL    HW239236   6.873   7.615   5.108  1.1446  0.0051  0.8834
12599SOL     OW39237   7.804   1.503   7.071  0.1850  0.0705  0.0388
12599SOL    HW139238   7.892   1.531   7.097  0.7704 -0.6564 -1.0518
12599SOL    HW239239   7.802   1.409   7.090 -0.3894  0.1064  0.1576
12600SOL     OW39240   1.932   0.662   9.067 -1.0172 -0.1916 -0.2323
12600SOL    HW139241   1.972   0.691   8.985 -0.9591 -1.0710 -0.5222
12600SOL    HW239242   1.937   0.567   9.064 -1.8453 -0.2652  0.3819
12601SOL     OW39243   2.261   4.795   2.982  0.1791 -0.3369  0.1686
12601SOL    HW139244   2.266   4.766   2.891 -0.6409 -0.9824  0.3191
12601SOL    HW239245   2.298   4.883   2.981 -0.4121 -0.0821 -0.9153
12602SOL     OW39246   1.786   0.547   6.851  0.3012  0.3371  0.0138
12602SOL    HW139247   1.806   0.641   6.850  1.1119  0.2819  2.4661
12602SOL    HW239248   1.870   0.505   6.866 -0.1657 -0.7445 -0.3144
12603SOL     OW39249   1.821   2.361  11.635  0.1822 -0.4422 -0.4396
12603SOL    HW139250   1.787   2.286  11.586 -0.1263  0.0584 -1.0154
12603SOL    HW239251   1.900   2.388  11.588  0.5236 -0.6564  0.0046
12604SOL     OW39252   0.040   6.708   0.234  0.0823 -0.4592  0.3654
12604SOL    HW139253   0.119   6.754   0.208  0.8293 -0.7792  1.9789
12604SOL    HW239254   0.030   6.638   0.169  1.2845 -0.5973  0.3206
12605SOL     OW39255   1.536   7.283  10.885 -0.0525  0.0784  0.5235
12605SOL    HW139256   1.484   7.320  10.814 -0.2475  1.2451  1.2479
12605SOL    HW239257   1.590   7.216  10.843 -0.9776 -0.0348 -0.5163
12606SOL     OW39258   5.894   5.862   6.846 -0.2128 -0.1294  0.3396
12606SOL    HW139259   5.890   5.816   6.930  1.1098 -1.5594 -0.3062
12606SOL    HW239260   5.985   5.892   6.840 -0.4596  0.5188 -0.3011
12607SOL     OW39261   4.388   1.141  11.889  0.4702 -0.1210  0.1328
12607SOL    HW139262   4.424   1.210  11.833 -0.3725 -2.2630 -3.4061
12607SOL    HW239263   4.465   1.095  11.923  1.1188 -0.3366 -1.5142
12608SOL     OW39264   7.289   7.072   8.714  0.1967 -0.4024  0.3872
12608SOL    HW139265   7.207   7.108   8.679  1.0632  0.9034 -0.3631
12608SOL    HW239266   7.296   7.109   8.802  1.1580  1.4985 -0.4308
12609SOL     OW39267   2.068   5.323   7.373  0.1440 -0.1879 -0.9383
12609SOL    HW139268   2.001   5.263   7.404  0.1939 -0.0111 -0.4782
12609SOL    HW239269   2.145   5.268   7.357  0.3315 -0.1938 -0.0816
12610SOL     OW39270   0.056   5.688   2.870 -0.2707 -0.1613 -0.5137
12610SOL    HW139271   0.004   5.741   2.931  1.6101  1.7162 -0.4154
12610SOL    HW239272   0.092   5.752   2.808  0.9169 -1.5186 -1.2698
12611SOL     OW39273   7.753   4.896   1.389  0.1502 -0.2277 -0.1847
12611SOL    HW139274   7.677   4.866   1.438 -0.4119  1.6293  0.1677
12611SOL    HW239275   7.718   4.960   1.327  1.2441 -0.4405 -1.0649
12612SOL     OW39276   6.645   7.018   7.696 -0.5739  0.0645 -0.0342
12612SOL    HW139277   6.563   7.053   7.661 -1.2516  0.5734  1.9544
12612SOL    HW239278   6.618   6.950   7.758  0.4938  0.3791  0.8019
12613SOL     OW39279   7.617   2.998   6.555  0.1667 -0.3114  0.0273
12613SOL    HW139280   7.643   3.090   6.558  2.7432 -0.7066 -3.4649
12613SOL    HW239281   7.592   2.977   6.645 -2.0571  4.1077  0.7019
12614SOL     OW39282   2.606   7.252   1.635 -0.4356 -0.4421  0.1956
12614SOL    HW139283   2.513   7.273   1.625 -0.2940  0.9594  1.4161
12614SOL    HW239284   2.647   7.287   1.556 -1.1167 -2.5819 -1.1746
12615SOL     OW39285   2.526   2.673   3.679 -0.6415  0.1556 -0.0378
12615SOL    HW139286   2.519   2.763   3.710  0.5219 -0.0799  1.0193
12615SOL    HW239287   2.518   2.620   3.758 -0.5285 -0.6262 -0.5412
12616SOL     OW39288   2.026   7.969   0.165 -0.1863 -0.0651  0.5416
12616SOL    HW139289   2.053   7.977   0.073 -0.0327  1.1428  0.6841
12616SOL    HW239290   1.946   8.021   0.171  0.3680  0.7118  1.3196
12617SOL     OW39291   1.649   1.484   9.161 -0.8509 -0.5445 -0.3527
12617SOL    HW139292   1.696   1.489   9.078 -1.0568 -0.0377 -0.4418
12617SOL    HW239293   1.656   1.572   9.198  0.0389 -0.9871  0.6070
12618SOL     OW39294   2.277   1.698   5.541  0.1851  0.1814 -0.1797
12618SOL    HW139295   2.258   1.788   5.513 -2.4194 -0.8501 -2.2205
12618SOL    HW239296   2.206   1.677   5.602 -0.1975 -0.9408 -0.9718
12619SOL     OW39297   4.428   6.325   4.664 -0.1012 -0.7192 -0.7352
12619SOL    HW139298   4.429   6.231   4.651  1.4529 -0.8310 -0.0074
12619SOL    HW239299   4.503   6.343   4.720 -0.4293  0.9456 -0.7574
12620SOL     OW39300   6.030   2.900   8.068  0.1201  0.1490  0.0069
12620SOL    HW139301   6.033   2.806   8.089  1.3511  0.2157  0.2587
12620SOL    HW239302   6.100   2.912   8.004  0.0291  0.9034  0.0428
12621SOL     OW39303   5.978   3.993   9.461  1.2369 -0.6603 -0.0085
12621SOL    HW139304   5.983   3.953   9.548 -0.7018  1.4229  1.1570
12621SOL    HW239305   5.915   3.939   9.413  0.6402 -0.5460  0.6406
12622SOL     OW39306   0.807   6.375   0.746  0.0983 -0.2875 -0.4447
12622SOL    HW139307   0.870   6.437   0.782 -0.7662  0.3888 -0.0631
12622SOL    HW239308   0.732   6.429   0.722 -0.4916 -1.1379 -0.5399
12623SOL     OW39309   7.575   1.597   4.759  0.4708  0.4405 -0.2326
12623SOL    HW139310   7.561   1.657   4.832  2.2006 -0.0606  0.5711
12623SOL    HW239311   7.531   1.638   4.685 -1.3930  0.9268  1.0893
12624SOL     OW39312   7.842   3.257   6.163  0.0100 -0.2945  0.5276
12624SOL    HW139313   7.901   3.237   6.091 -0.1950  1.5360 -0.1791
12624SOL    HW239314   7.769   3.195   6.152  0.6471 -0.9761  0.0293
12625SOL     OW39315   0.698   2.662  11.389 -0.3250  0.2672 -0.0567
12625SOL    HW139316   0.602   2.665  11.382 -0.4931  1.4699  1.8428
12625SOL    HW239317   0.717   2.571  11.413 -0.9191 -0.1330 -1.0341
12626SOL     OW39318   6.445   4.549   2.156  0.2779 -0.2936  0.0551
12626SOL    HW139319   6.369   4.579   2.106 -0.6740 -2.2712  0.2179
12626SOL    HW239320   6.512   4.615   2.140  0.0781 -0.8042 -3.9438
12627SOL     OW39321   4.490   0.989   0.234 -0.4527  0.1608 -0.0942
12627SOL    HW139322   4.568   1.040   0.216  0.9684 -1.3685  1.3648
12627SOL    HW239323   4.430   1.051   0.276  1.1066  0.7312  1.3993
12628SOL     OW39324   5.915   5.148   5.458  0.1267 -0.1132  0.4310
12628SOL    HW139325   5.858   5.219   5.485 -0.9927 -0.9300  0.2761
12628SOL    HW239326   5.873   5.069   5.491 -0.4103 -1.0118 -2.1394
12629SOL     OW39327   3.760   4.086   8.573  0.4196 -0.3686  0.2429
12629SOL    HW139328   3.666   4.068   8.572  0.7237 -2.0659 -1.4648
12629SOL    HW239329   3.801   4.004   8.601  1.4483  0.1025  0.1853
12630SOL     OW39330   7.701   4.112   7.187 -0.0924 -0.8962 -0.4313
12630SOL    HW139331   7.643   4.050   7.231  1.4623 -1.6106  0.6997
12630SOL    HW239332   7.646   4.190   7.173 -1.2555 -1.4586  0.7621
12631SOL     OW39333   7.462   7.155  12.083 -0.2547  0.1725 -0.4910
12631SOL    HW139334   7.533   7.103  12.046 -0.3700 -0.0687 -0.3805
12631SOL    HW239335   7.395   7.157  12.015 -1.3337 -1.9909  0.3933
12632SOL     OW39336   7.415   6.509   8.337  0.1055  0.6532 -0.4108
12632SOL    HW139337   7.511   6.504   8.343  0.1961  0.1379 -1.9052
12632SOL    HW239338   7.385   6.490   8.425  1.3961  1.3498  0.2122
12633SOL     OW39339   7.713   3.553   1.498  0.4906 -0.0564  0.1596
12633SOL    HW139340   7.657   3.627   1.473 -0.1620  0.1180  2.0095
12633SOL    HW239341   7.772   3.542   1.423 -1.1884  0.5450 -1.3297
12634SOL     OW39342   7.415   7.938  11.308  0.4721  0.4423 -0.1535
12634SOL    HW139343   7.490   7.928  11.249  0.9016  0.8235  0.3223
12634SOL    HW239344   7.429   7.872  11.376  0.6305  0.8270  0.1939
12635SOL     OW39345   2.329   5.175   0.759 -0.5510 -0.0464  0.5732
12635SOL    HW139346   2.293   5.156   0.672  0.0559  1.5073 -0.0725
12635SOL    HW239347   2.254   5.168   0.818 -0.7391 -2.3676  0.1684
12636SOL     OW39348   7.277   7.586  10.728 -0.1732  0.6998 -0.1485
12636SOL    HW139349   7.357   7.543  10.756 -0.6933 -0.1037  0.1315
12636SOL    HW239350   7.306   7.671  10.694  0.8150  0.2999 -0.3225
12637SOL     OW39351   2.867   7.653  10.445  0.1216  0.2188  0.1456
12637SOL    HW139352   2.956   7.674  10.416 -0.2795  1.3862 -0.3156
12637SOL    HW239353   2.827   7.612  10.369 -0.3939  1.7128 -0.4359
12638SOL     OW39354   4.083   4.963   6.833  0.1770 -0.6698  0.2119
12638SOL    HW139355   4.033   4.883   6.853 -1.2700 -0.3882 -1.9976
12638SOL    HW239356   4.059   5.024   6.903  0.0027 -1.6271  1.0036
12639SOL     OW39357   5.972   2.407  11.003 -0.0718  0.4388 -0.6183
12639SOL    HW139358   6.002   2.490  11.039 -0.2549  0.2951 -0.1187
12639SOL    HW239359   5.933   2.429  10.919  2.5181  0.4888 -1.8819
12640SOL     OW39360   7.971   0.389   4.681  0.6872 -0.3801 -0.5188
12640SOL    HW139361   8.040   0.375   4.746  1.2504 -0.1702 -1.0541
12640SOL    HW239362   7.986   0.478   4.648  1.1409 -0.8872 -1.7536
12641SOL     OW39363   4.789   4.647  10.875  0.6357 -0.4587  0.4330
12641SOL    HW139364   4.718   4.612  10.821  1.8641  0.3877 -1.8723
12641SOL    HW239365   4.761   4.632  10.965 -1.7533 -1.5042 -0.4165
12642SOL     OW39366   0.237   0.586   7.428  0.3084  0.4526  0.1824
12642SOL    HW139367   0.183   0.559   7.354 -1.4159  1.9771  0.8063
12642SOL    HW239368   0.321   0.612   7.389 -0.5697  1.2300 -1.2481
12643SOL     OW39369   4.555   6.728   9.504  0.1828 -0.3754  0.0549
12643SOL    HW139370   4.574   6.804   9.449  1.1649 -0.5307  0.1627
12643SOL    HW239371   4.569   6.652   9.448  1.7028 -0.5553  0.6242
12644SOL     OW39372   6.654   4.393   5.255  0.7470 -0.0585 -0.2408
12644SOL    HW139373   6.703   4.452   5.313  0.1258 -0.2038  0.4480
12644SOL    HW239374   6.633   4.318   5.310 -0.8580  0.3147 -0.2993
12645SOL     OW39375   1.294   0.861   8.333 -0.1363 -0.2131 -0.4618
12645SOL    HW139376   1.335   0.890   8.252  0.8698 -0.4431 -0.0600
12645SOL    HW239377   1.292   0.939   8.388  1.2025 -0.5323  0.0758
12646SOL     OW39378   3.371   4.329   9.355 -0.2058  0.4011  0.2157
12646SOL    HW139379   3.444   4.320   9.416 -1.0755 -0.0221  1.2229
12646SOL    HW239380   3.348   4.240   9.331  1.5184  0.5698 -2.5111
12647SOL     OW39381   1.193   5.938   7.316 -0.4406 -0.6052  0.0297
12647SOL    HW139382   1.119   5.961   7.260 -0.1980 -0.6427 -0.3099
12647SOL    HW239383   1.269   5.939   7.258  0.0070  0.5440  0.6015
12648SOL     OW39384   3.000   5.839   2.239 -0.4250  0.0447 -0.2685
12648SOL    HW139385   3.042   5.835   2.325 -0.3224  1.0701 -0.2644
12648SOL    HW239386   3.068   5.810   2.178 -0.4170 -0.4318 -0.0414
12649SOL     OW39387   0.800   2.576   9.659  0.2202  0.3737 -0.3260
12649SOL    HW139388   0.875   2.634   9.646 -1.2521  2.3219 -0.5456
12649SOL    HW239389   0.794   2.566   9.754  0.4620  0.6102 -0.2845
12650SOL     OW39390   7.350   0.286   6.941  0.2270  0.1566  0.3564
12650SOL    HW139391   7.261   0.304   6.972  0.3539  0.0415  0.8067
12650SOL    HW239392   7.365   0.194   6.963 -0.1103 -0.2701 -1.1513
12651SOL     OW39393   7.256   0.011  10.464 -0.1822 -0.3121  0.2473
12651SOL    HW139394   7.183  -0.003  10.402 -1.6947 -1.3166  2.1394
12651SOL    HW239395   7.334  -0.010  10.413 -1.3174 -0.6041 -1.4810
12652SOL     OW39396   3.356   1.992   1.833 -0.3109  0.5720 -0.8317
12652SOL    HW139397   3.308   1.915   1.806  0.4935  0.2598 -1.4288
12652SOL    HW239398   3.436   1.990   1.780  0.5981  0.7959  0.4718
12653SOL     OW39399   7.807   5.971   4.006  0.2072 -0.0428  0.3592
12653SOL    HW139400   7.733   6.012   4.049  0.3986  0.7682 -0.0606
12653SOL    HW239401   7.834   5.901   4.065 -1.8262 -1.3746 -0.1785
12654SOL     OW39402   6.865   7.964   6.884  0.5022 -0.1798  0.2914
12654SOL    HW139403   6.912   8.005   6.812  1.3999 -0.4744  0.6924
12654SOL    HW239404   6.927   7.964   6.957 -0.1077 -0.6088  0.8291
12655SOL     OW39405   6.580   5.105   6.304  0.0299  0.8987  0.0093
12655SOL    HW139406   6.580   5.177   6.241 -0.4318  1.7254  0.9515
12655SOL    HW239407   6.497   5.112   6.350 -0.5027 -0.8661 -0.5620
12656SOL     OW39408   1.591   7.391   8.444  0.3753  0.2175 -0.1792
12656SOL    HW139409   1.552   7.385   8.357  1.8569 -1.4129 -0.7755
12656SOL    HW239410   1.624   7.481   8.449 -1.8327  1.1109 -0.3013
12657SOL     OW39411   5.965   5.768   7.101 -0.0546 -0.9663 -0.1784
12657SOL    HW139412   5.974   5.677   7.075 -1.6769 -1.8298  1.9737
12657SOL    HW239413   5.990   5.770   7.193  0.4546  0.8731 -0.3242
12658SOL     OW39414   7.190   0.251   9.117  0.0787  0.2023  0.2318
12658SOL    HW139415   7.197   0.156   9.110 -0.6583  0.2553 -2.1431
12658SOL    HW239416   7.278   0.280   9.138  0.3974 -0.9687  0.5878
12659SOL     OW39417   7.116   3.230   7.930 -0.2785 -0.3503  0.4296
12659SOL    HW139418   7.025   3.210   7.908  0.4461 -1.6820 -1.7187
12659SOL    HW239419   7.141   3.162   7.992 -0.8955  0.3877  1.5114
12660SOL     OW39420   4.830   5.822   6.120 -0.0826  0.0534  0.4920
12660SOL    HW139421   4.797   5.735   6.098 -1.6081  0.5098  0.8477
12660SOL    HW239422   4.839   5.822   6.215 -0.3035  0.3495  0.5153
12661SOL     OW39423   1.735   3.298   6.389  0.1070  0.2626  0.2067
12661SOL    HW139424   1.695   3.211   6.376  0.4786  0.1731 -0.3769
12661SOL    HW239425   1.706   3.349   6.314  0.8020  0.2967 -0.0530
12662SOL     OW39426   4.005   6.834   7.531 -0.1053 -0.4307 -0.8745
12662SOL    HW139427   4.058   6.911   7.551 -1.7645  1.3367 -2.8925
12662SOL    HW239428   4.039   6.802   7.448  1.8807 -3.2310  0.8361
12663SOL     OW39429   5.316   3.866  11.365 -0.5635  0.3116 -0.1080
12663SOL    HW139430   5.286   3.925  11.434 -1.1721  0.4388 -0.4673
12663SOL    HW239431   5.248   3.799  11.360 -0.0494 -0.2241  0.0588
12664SOL     OW39432   7.423   2.229   9.298  0.4383  0.0986  0.0794
12664SOL    HW139433   7.450   2.302   9.241  0.3668  0.1599  0.1233
12664SOL    HW239434   7.504   2.181   9.314  0.2503 -0.6621 -1.1090
12665SOL     OW39435   1.432   5.658   1.022  0.2020  0.4757 -0.3752
12665SOL    HW139436   1.352   5.672   0.972  1.3508  1.3810 -2.0548
12665SOL    HW239437   1.462   5.571   0.995  0.8623  0.9944 -1.4055
12666SOL     OW39438   3.640   7.619  11.158  0.0139 -0.2090  0.0133
12666SOL    HW139439   3.730   7.588  11.161  0.0579 -0.1449 -0.5322
12666SOL    HW239440   3.587   7.540  11.161  0.1474 -0.5711 -3.4490
12667SOL     OW39441   0.745   3.318   8.493  0.5322 -0.2833 -0.6625
12667SOL    HW139442   0.680   3.317   8.423 -1.2069 -1.0733  0.8729
12667SOL    HW239443   0.802   3.244   8.475  1.0317  0.3933 -2.0089
12668SOL     OW39444   5.086   1.145   0.255  0.4153 -0.4458  0.2819
12668SOL    HW139445   5.132   1.085   0.313  2.9577  0.7240 -0.3884
12668SOL    HW239446   5.119   1.232   0.279 -0.8579  0.3924 -0.8222
12669SOL     OW39447   4.361   6.148  12.256 -0.5337 -0.5160  0.1833
12669SOL    HW139448   4.377   6.054  12.271 -0.6200 -0.3182  1.7577
12669SOL    HW239449   4.446   6.181  12.226 -0.3512 -1.0063  0.1328
12670SOL     OW39450   3.374   4.834   1.505  0.1112  0.0832 -0.4359
12670SOL    HW139451   3.347   4.782   1.430  0.2154 -0.2534 -0.2428
12670SOL    HW239452   3.420   4.772   1.562  0.4328  0.4345 -0.3087
12671SOL     OW39453   3.604   0.146  11.551 -0.0369  0.6418  0.3946
12671SOL    HW139454   3.660   0.204  11.500 -1.1243  0.1047 -1.5050
12671SOL    HW239455   3.559   0.092  11.486 -1.6171  0.0095  1.9213
12672SOL     OW39456   3.386   4.881   9.423  0.5903  0.2441 -0.5669
12672SOL    HW139457   3.480   4.864   9.420  0.6809  0.2454  1.1924
12672SOL    HW239458   3.348   4.798   9.453  0.2137  0.6976  0.2487
12673SOL     OW39459   6.166   1.687   5.864  0.0623  0.0580  0.3690
12673SOL    HW139460   6.153   1.750   5.935  1.2240  0.8324 -0.0624
12673SOL    HW239461   6.200   1.609   5.906  1.3035  0.7096  0.6491
12674SOL     OW39462   7.925   1.316   3.501 -0.3905  0.0748 -0.2555
12674SOL    HW139463   7.981   1.354   3.568  0.2315 -1.1805 -0.0422
12674SOL    HW239464   7.876   1.247   3.546  0.5768 -1.2946 -1.2139
12675SOL     OW39465   7.944   0.720   5.163  0.2617 -0.4701  0.3525
12675SOL    HW139466   8.019   0.742   5.107  0.1988  0.8333  0.7467
12675SOL    HW239467   7.974   0.645   5.214  2.5927  1.8920  2.7962
12676SOL     OW39468   4.574   1.800   2.832  0.0711  0.2057  0.0174
12676SOL    HW139469   4.480   1.795   2.818  0.1614 -0.2724 -0.4585
12676SOL    HW239470   4.607   1.852   2.758  0.0820  1.1049  0.6469
12677SOL     OW39471   5.531   0.248  11.056  0.5612 -0.6021  0.2747
12677SOL    HW139472   5.541   0.199  10.974  2.0069  1.1987 -0.6928
12677SOL    HW239473   5.549   0.183  11.124 -0.9314 -2.2190 -0.7639
12678SOL     OW39474   0.419   6.240   8.793 -0.0410 -0.1608  0.0609
12678SOL    HW139475   0.465   6.188   8.727  0.3920  0.9717 -0.5427
12678SOL    HW239476   0.326   6.217   8.781  0.1323 -0.7362 -0.2418
12679SOL     OW39477   0.428   4.513   2.500  0.1020  0.2648  0.5604
12679SOL    HW139478   0.399   4.423   2.486 -0.8479  0.2865  2.1809
12679SOL    HW239479   0.515   4.516   2.460 -0.3469 -1.0156 -0.5986
12680SOL     OW39480   2.713   2.757   0.647  0.2061 -0.0873 -0.5722
12680SOL    HW139481   2.745   2.666   0.646  0.6912  0.0631 -2.0103
12680SOL    HW239482   2.793   2.810   0.641  0.0519  0.5325  1.8300
12681SOL     OW39483   2.379   4.109   3.952 -0.1238  0.1866  0.3149
12681SOL    HW139484   2.403   4.090   3.861 -0.3131  1.2284  0.0270
12681SOL    HW239485   2.316   4.181   3.945  1.4863  1.7718  1.3684
12682SOL     OW39486   3.765   4.865  11.913 -0.2617 -0.1239  0.3803
12682SOL    HW139487   3.705   4.865  11.839 -0.5449  2.1883  0.5220
12682SOL    HW239488   3.852   4.874  11.874 -0.1550 -1.3957  0.2705
12683SOL     OW39489   4.152   4.121   6.491  0.7610  0.1233  0.4738
12683SOL    HW139490   4.173   4.083   6.576  0.3373 -0.0239  0.5124
12683SOL    HW239491   4.057   4.127   6.490  0.7872  0.5555  0.1966
12684SOL     OW39492   7.766   1.219   6.820  0.1171  0.5186  0.4362
12684SOL    HW139493   7.702   1.287   6.845  1.2128  1.0306  2.0131
12684SOL    HW239494   7.817   1.259   6.750  0.4769  1.1907  1.0628
12685SOL     OW39495   7.255   6.415   9.549  0.2138  0.1594 -0.3432
12685SOL    HW139496   7.261   6.495   9.496  1.1909 -1.1788 -2.3702
12685SOL    HW239497   7.339   6.371   9.536 -0.8639 -1.9462 -0.5551
12686SOL     OW39498   2.518   4.684   8.518  0.1225  0.5714 -0.3612
12686SOL    HW139499   2.559   4.765   8.549  1.7193 -0.0325 -0.8204
12686SOL    HW239500   2.495   4.636   8.598  1.4056  0.4026 -0.0767
12687SOL     OW39501   7.185   4.289   4.934  0.1862  0.4952 -0.7818
12687SOL    HW139502   7.184   4.384   4.926  1.7137  0.8064  1.6939
12687SOL    HW239503   7.254   4.260   4.875  0.1131  0.9692 -1.1049
12688SOL     OW39504   6.627   0.272   5.514  0.0406  0.0387 -0.8283
12688SOL    HW139505   6.624   0.367   5.524 -0.2871 -0.1676  1.8255
12688SOL    HW239506   6.708   0.255   5.468 -0.3163  1.6371 -2.1215
12689SOL     OW39507   7.916   1.634   8.604 -0.9036  0.7599  0.3999
12689SOL    HW139508   7.916   1.541   8.583  0.0231  0.4944  1.4714
12689SOL    HW239509   7.940   1.677   8.522  2.7503 -0.2379  0.7811
12690SOL     OW39510   0.998   2.802   9.288 -0.6949 -0.2258 -0.0387
12690SOL    HW139511   0.912   2.772   9.259 -0.7965 -0.7852  0.8199
12690SOL    HW239512   1.008   2.767   9.377  1.2261 -1.8187 -0.8137
12691SOL     OW39513   3.981   7.482  11.882 -0.1537 -0.1549  0.6616
12691SOL    HW139514   3.946   7.556  11.931 -1.5064 -0.7662  0.6477
12691SOL    HW239515   3.992   7.516  11.793  0.5275  0.4085  0.9469
12692SOL     OW39516   1.962   0.440  12.087  0.2942  0.2227 -0.1265
12692SOL    HW139517   1.872   0.434  12.056  0.0494  1.3650  0.2945
12692SOL    HW239518   1.992   0.526  12.056  0.2616  1.1195  2.1293
12693SOL     OW39519   4.950   7.316   0.446 -0.3328  0.5648  0.2180
12693SOL    HW139520   4.887   7.250   0.417 -0.0654 -0.0298  0.9629
12693SOL    HW239521   5.024   7.306   0.386 -0.3120  0.2228  0.3003
12694SOL     OW39522   1.336   5.153  11.188 -0.0416 -0.7589  0.0039
12694SOL    HW139523   1.256   5.118  11.226  0.2012 -2.2763 -0.8041
12694SOL    HW239524   1.372   5.081  11.136  1.2203  0.2716 -0.6238
12695SOL     OW39525   5.527   2.865   5.712 -0.5110  0.3671 -0.2639
12695SOL    HW139526   5.515   2.949   5.668 -0.5286  0.1075 -0.7506
12695SOL    HW239527   5.551   2.889   5.802 -0.5711  0.8920 -0.3844
12696SOL     OW39528   2.233   1.220   0.886  0.0472 -0.0174 -0.2721
12696SOL    HW139529   2.184   1.155   0.836  1.4527 -1.4364  0.1077
12696SOL    HW239530   2.319   1.181   0.899  0.1770  0.8588  2.0810
12697SOL     OW39531   6.503   1.983  12.199 -0.3064  0.1275 -0.5861
12697SOL    HW139532   6.557   1.957  12.124  1.5554  0.2093  0.6663
12697SOL    HW239533   6.557   1.963  12.276 -1.5891  1.3423  0.6919
12698SOL     OW39534   4.693   6.869   8.857 -0.1780  0.3303  0.0234
12698SOL    HW139535   4.780   6.860   8.819 -1.0303  1.3280 -2.2984
12698SOL    HW239536   4.677   6.963   8.858 -1.0510  0.1865  0.9182
12699SOL     OW39537   3.656   1.895   5.741  0.0991 -0.3147 -0.6313
12699SOL    HW139538   3.702   1.924   5.820  0.0213  0.0347 -0.7132
12699SOL    HW239539   3.572   1.862   5.774 -0.0290  0.0478 -0.5882
12700SOL     OW39540   5.025   6.955  11.475 -0.0588 -1.0403  0.4179
12700SOL    HW139541   5.044   7.048  11.484  0.0312 -1.0584  0.4167
12700SOL    HW239542   5.110   6.915  11.456 -0.3151 -0.9493 -1.0010
12701SOL     OW39543   0.342   3.812   2.299 -0.1297  0.1112  0.2080
12701SOL    HW139544   0.394   3.739   2.266 -1.9654 -0.4414 -1.7125
12701SOL    HW239545   0.406   3.878   2.324  1.5258 -1.4882  0.3550
12702SOL     OW39546   1.770   1.015   5.938 -0.1291 -0.4594 -0.5192
12702SOL    HW139547   1.704   1.010   5.869 -0.6050 -0.7232 -0.0561
12702SOL    HW239548   1.810   0.928   5.939 -1.6649 -1.2113  1.0083
12703SOL     OW39549   4.362   6.990   9.238 -0.2365  0.8477  0.1202
12703SOL    HW139550   4.273   6.956   9.237 -0.2985  0.9804 -1.2804
12703SOL    HW239551   4.361   7.062   9.302 -1.3713  1.4558 -0.5596
12704SOL     OW39552   1.108   6.674   3.683  0.8365  0.1132 -0.4228
12704SOL    HW139553   1.127   6.643   3.772 -1.0604 -0.1228 -0.0496
12704SOL    HW239554   1.078   6.764   3.694  2.8974  0.9413 -1.1277
12705SOL     OW39555   4.510   2.476   1.106  0.0911  0.3292 -0.5164
12705SOL    HW139556   4.528   2.431   1.024  1.5253  0.4370 -0.2818
12705SOL    HW239557   4.538   2.416   1.174 -0.6584  0.4290 -0.1014
12706SOL     OW39558   2.206   0.720   2.247  0.1870  0.3824 -0.2029
12706SOL    HW139559   2.157   0.718   2.330  1.6407 -1.3301  0.6794
12706SOL    HW239560   2.280   0.777   2.264  0.7735 -0.3837 -0.1282
12707SOL     OW39561   5.498   2.089   7.239  0.0770  0.3214  0.3333
12707SOL    HW139562   5.579   2.080   7.190 -0.6490 -1.6252 -0.6140
12707SOL    HW239563   5.482   2.002   7.275 -1.7249  0.5822  0.2486
12708SOL     OW39564   3.109   2.408   8.454  0.2388 -0.4027 -0.6400
12708SOL    HW139565   3.064   2.489   8.480  2.7932  0.7800  0.4033
12708SOL    HW239566   3.120   2.417   8.359 -1.2743 -0.5411 -0.8599
12709SOL     OW39567   2.695   1.579   0.339 -0.2075  0.7987  0.4631
12709SOL    HW139568   2.744   1.562   0.258 -0.3482 -0.4803  0.6271
12709SOL    HW239569   2.624   1.514   0.338  0.4331  0.0369  2.1409
12710SOL     OW39570   7.257   1.829   9.609  0.5148 -0.6221  0.0805
12710SOL    HW139571   7.165   1.804   9.597  0.3215 -0.3972  1.0358
12710SOL    HW239572   7.265   1.912   9.562  0.4163 -0.9903 -0.6051
12711SOL     OW39573   0.120   1.562   2.196  0.6749 -0.0139 -0.5263
12711SOL    HW139574   0.164   1.478   2.192 -0.8224 -0.8079 -1.1691
12711SOL    HW239575   0.095   1.581   2.105 -1.9254 -0.5504 -0.0012
12712SOL     OW39576   0.703   3.630   8.559 -0.0654  0.2299 -0.8452
12712SOL    HW139577   0.663   3.673   8.635 -0.5928  0.2010 -1.1004
12712SOL    HW239578   0.797   3.648   8.567 -0.1740  0.6132 -0.4324
12713SOL     OW39579   7.125   1.483   7.097 -0.0612 -0.0076  0.1535
12713SOL    HW139580   7.095   1.529   7.019  2.2551 -1.1878 -1.5460
12713SOL    HW239581   7.185   1.545   7.140 -0.0349  0.0245  0.0703
12714SOL     OW39582   7.084   3.962  12.331 -0.5529 -0.2772 -0.2967
12714SOL    HW139583   7.088   3.918  12.417 -0.5504  2.4839  1.2303
12714SOL    HW239584   7.000   3.935  12.295 -0.8317 -1.0477  0.8478
12715SOL     OW39585   0.808   0.639   7.335  0.2323 -0.3852 -0.6630
12715SOL    HW139586   0.867   0.707   7.370 -1.7905  1.6757 -1.0314
12715SOL    HW239587   0.827   0.637   7.242 -1.0475  1.1786 -0.9980
12716SOL     OW39588   1.056   2.778   2.613 -0.9993  0.6338  0.0237
12716SOL    HW139589   1.096   2.704   2.566  0.7146  0.8467  1.0868
12716SOL    HW239590   1.018   2.738   2.691 -0.5230  0.7906  0.3394
12717SOL     OW39591   2.707   5.985   3.223 -0.5102  0.1413  0.0523
12717SOL    HW139592   2.783   6.005   3.167  0.2744  1.3994  1.5109
12717SOL    HW239593   2.744   5.936   3.296 -0.7364  2.2972  1.7037
12718SOL     OW39594   5.560   1.047   6.557 -0.1199 -0.2680 -0.2219
12718SOL    HW139595   5.566   1.104   6.634 -2.2078  1.3029 -1.0971
12718SOL    HW239596   5.556   0.959   6.592 -1.0612  0.4122  1.5039
12719SOL     OW39597   3.953   5.749   8.732 -0.2257 -0.1919  0.7906
12719SOL    HW139598   3.862   5.757   8.702 -0.4227  3.1959  1.9146
12719SOL    HW239599   4.005   5.764   8.654 -0.4144 -4.1205 -0.3222
12720SOL     OW39600   3.215   1.936  12.314 -1.1693  0.2451  0.1266
12720SOL    HW139601   3.255   2.022  12.324 -0.6335  0.0207 -0.0118
12720SOL    HW239602   3.182   1.914  12.401  0.1973 -0.1298  0.5692
12721SOL     OW39603   2.007   1.634   1.454  0.3632 -0.2138 -0.5618
12721SOL    HW139604   1.982   1.582   1.530  0.2184  2.3419  1.2272
12721SOL    HW239605   1.927   1.643   1.403  0.0658 -0.5257 -0.1532
12722SOL     OW39606   2.369   7.771   2.977 -0.4261 -0.0450  0.1075
12722SOL    HW139607   2.360   7.693   3.031 -2.2650  1.5579  2.3329
12722SOL    HW239608   2.460   7.770   2.947  0.1182 -2.0295  1.6318
12723SOL     OW39609   2.766   6.976   9.484 -0.7609 -0.1854  0.6917
12723SOL    HW139610   2.803   7.055   9.523  0.9866  0.3096 -1.7869
12723SOL    HW239611   2.817   6.904   9.521  0.1400  0.1863  0.1957
12724SOL     OW39612   4.590   0.224  12.331  0.3810 -0.0126  0.1133
12724SOL    HW139613   4.623   0.308  12.361  1.5931 -1.2483  2.5379
12724SOL    HW239614   4.656   0.194  12.268  0.2029  0.5939 -0.3769
12725SOL     OW39615   5.243   3.436   5.501 -0.0416 -0.8288  0.0222
12725SOL    HW139616   5.221   3.472   5.415 -0.6151  1.1291  0.9246
12725SOL    HW239617   5.159   3.419   5.542  0.2271 -2.3518  0.0063
12726SOL     OW39618   5.150   4.238  11.355 -0.3580  0.0368  0.3293
12726SOL    HW139619   5.061   4.202  11.352 -0.3419  0.0409 -0.5232
12726SOL    HW239620   5.198   4.177  11.411 -0.8427 -0.0903  0.6155
12727SOL     OW39621   4.157   2.647   9.855 -0.7632 -0.0727  0.2708
12727SOL    HW139622   4.250   2.624   9.863 -0.7985 -0.1729  0.3846
12727SOL    HW239623   4.158   2.734   9.814 -0.6849 -1.0483 -1.9296
12728SOL     OW39624   3.335   7.056   4.240  0.0623  0.5215 -0.2590
12728SOL    HW139625   3.402   7.077   4.305  1.0197 -1.0810 -0.6669
12728SOL    HW239626   3.373   6.985   4.188 -2.1018 -0.7003 -0.2928
12729SOL     OW39627   7.334   0.204   2.403  0.1792  0.3281  0.6473
12729SOL    HW139628   7.375   0.117   2.400  0.0885  0.2930  0.4191
12729SOL    HW239629   7.253   0.190   2.452  0.3542  0.3650  0.9550
12730SOL     OW39630   0.673   5.534   8.484 -0.0305 -0.7928  0.1112
12730SOL    HW139631   0.617   5.462   8.453 -0.8981 -1.0376  2.0930
12730SOL    HW239632   0.625   5.571   8.558  0.8011  1.3195 -0.3367
12731SOL     OW39633   0.351   0.384  10.409 -0.4234 -0.2626  0.2483
12731SOL    HW139634   0.373   0.354  10.497  0.5568 -1.8373 -0.4949
12731SOL    HW239635   0.316   0.307  10.365 -0.9549  0.5140 -0.7395
12732SOL     OW39636   2.313   1.031   1.645 -0.3617 -0.0403  0.3586
12732SOL    HW139637   2.286   1.121   1.630  0.1169  0.3985  1.9195
12732SOL    HW239638   2.403   1.038   1.677 -0.4234 -1.0396  0.7981
12733SOL     OW39639   5.193   7.830   8.308  0.2844  0.3334  0.1038
12733SOL    HW139640   5.221   7.894   8.242  0.2766 -1.3330 -1.6003
12733SOL    HW239641   5.099   7.845   8.317  0.3142  0.6948 -0.1346
12734SOL     OW39642   7.732   5.191  12.153 -0.1363  0.0480 -0.5273
12734SOL    HW139643   7.746   5.227  12.066 -1.9210  2.1073 -0.0486
12734SOL    HW239644   7.682   5.110  12.138 -0.6500  0.5195 -1.4160
12735SOL     OW39645   0.245   0.033   6.268  0.3834 -0.0716  0.4635
12735SOL    HW139646   0.178   0.004   6.205  0.3914  1.6579 -0.4017
12735SOL    HW239647   0.295  -0.046   6.287 -0.8707 -1.0594 -0.1588
12736SOL     OW39648   5.896   3.944  10.115 -0.6422 -0.0903 -0.5143
12736SOL    HW139649   5.856   4.030  10.109  0.4428  0.4317 -0.6035
12736SOL    HW239650   5.834   3.884  10.074 -0.4707  0.9661 -2.3746
12737SOL     OW39651   0.423   2.044   7.917  0.7312  0.3788 -0.1730
12737SOL    HW139652   0.420   1.977   7.849 -0.2173 -0.4594  0.6553
12737SOL    HW239653   0.514   2.073   7.918  1.1866 -0.9506 -0.5212
12738SOL     OW39654   7.453   7.700   1.011  0.1694 -0.2490 -0.5027
12738SOL    HW139655   7.391   7.721   0.941  0.6981  1.9067 -0.4257
12738SOL    HW239656   7.537   7.736   0.979  0.3041  1.3389  1.4228
12739SOL     OW39657   0.242   2.167   2.624  0.0466 -0.3436  0.5588
12739SOL    HW139658   0.278   2.246   2.666  1.1838 -1.2986  1.4559
12739SOL    HW239659   0.215   2.196   2.537  3.2696  0.4515 -0.3055
12740SOL     OW39660   5.249   7.278  10.563 -0.4231  0.1138  0.2524
12740SOL    HW139661   5.169   7.293  10.512 -0.3815 -1.1049 -0.2088
12740SOL    HW239662   5.256   7.182  10.568  2.0476  0.1045 -1.4195
12741SOL     OW39663   5.653   1.912  11.504  0.1606 -0.5085  0.2787
12741SOL    HW139664   5.730   1.882  11.554 -0.8080 -0.7647  1.6761
12741SOL    HW239665   5.597   1.835  11.498  1.1539 -1.1558 -3.2208
12742SOL     OW39666   3.222   0.796   0.061 -0.4300 -0.2608 -0.1658
12742SOL    HW139667   3.141   0.815   0.013 -1.0974  0.6188  1.2328
12742SOL    HW239668   3.284   0.860   0.027  0.0705 -1.6755 -2.0701
12743SOL     OW39669   6.973   6.206   2.736 -0.2494  0.0233  0.0239
12743SOL    HW139670   7.000   6.159   2.815  0.7716 -1.1656 -0.9883
12743SOL    HW239671   7.045   6.266   2.717 -0.3906  0.1489 -0.1295
12744SOL     OW39672   5.698   1.275   2.025 -0.2114  0.5925 -0.2499
12744SOL    HW139673   5.791   1.252   2.021  0.0662  0.8181  2.7391
12744SOL    HW239674   5.655   1.204   1.977  1.3034 -1.2694  0.9529
12745SOL     OW39675   3.051   5.097   8.037  0.4635  0.1534 -0.2017
12745SOL    HW139676   3.107   5.026   8.069  0.0694  0.0282  0.2152
12745SOL    HW239677   3.078   5.109   7.946 -1.4417 -2.5377 -1.2408
12746SOL     OW39678   2.389   5.705   3.699  0.1672  0.3159  0.8536
12746SOL    HW139679   2.483   5.688   3.693  0.2438  0.9874 -0.1060
12746SOL    HW239680   2.350   5.641   3.639 -0.0119 -0.0987  1.4065
12747SOL     OW39681   3.793   4.003   8.220  0.4151 -0.4327 -0.3415
12747SOL    HW139682   3.699   4.011   8.207  0.4616 -0.4060 -0.6672
12747SOL    HW239683   3.802   3.947   8.297  0.1488 -1.7768 -1.2467
12748SOL     OW39684   5.592   2.790  11.409 -0.1439  0.1943 -0.2343
12748SOL    HW139685   5.661   2.748  11.460 -0.2254  0.2348 -0.0935
12748SOL    HW239686   5.554   2.856  11.467 -1.5635 -1.0804  0.3434
12749SOL     OW39687   1.091   2.581   6.845  0.5483 -0.1362  0.2949
12749SOL    HW139688   1.086   2.574   6.940  1.7986 -0.9038  0.3268
12749SOL    HW239689   1.071   2.492   6.814 -3.4210  0.8127 -0.3960
12750SOL     OW39690   3.488   1.047   3.147  0.1641  0.4978  0.1038
12750SOL    HW139691   3.431   0.971   3.148  0.4254  0.2934 -0.4884
12750SOL    HW239692   3.546   1.034   3.223  0.7707 -0.3321 -0.4809
12751SOL     OW39693   7.346   7.693   6.508 -0.4385  0.1725  0.5012
12751SOL    HW139694   7.342   7.641   6.588  0.2287 -0.6760  0.0013
12751SOL    HW239695   7.262   7.739   6.505 -0.7615 -0.3525  1.3123
12752SOL     OW39696   0.030   2.612  12.193  0.0311  0.1715  0.1250
12752SOL    HW139697  -0.055   2.655  12.192  0.1618  0.4249 -0.5466
12752SOL    HW239698   0.041   2.582  12.284  0.5635  2.7830  0.9901
12753SOL     OW39699   7.285   3.954  10.277 -0.5212 -0.4309  0.1298
12753SOL    HW139700   7.298   4.046  10.299 -0.4797 -0.4668  0.2526
12753SOL    HW239701   7.332   3.942  10.194  0.4656 -0.6247  0.7012
12754SOL     OW39702   5.645   3.366   6.186  0.2730  0.1837  0.0947
12754SOL    HW139703   5.609   3.297   6.242 -1.2455 -0.3700 -1.4893
12754SOL    HW239704   5.647   3.328   6.099  2.6471  1.0144 -0.2764
12755SOL     OW39705   0.167   1.294   2.238 -0.3995 -0.0778  0.2631
12755SOL    HW139706   0.076   1.307   2.213  0.1291  2.0732 -0.7513
12755SOL    HW239707   0.206   1.247   2.164 -0.0277  1.6813 -0.6941
12756SOL     OW39708   1.591   7.284   6.306 -0.0654  0.0192  0.0741
12756SOL    HW139709   1.625   7.358   6.355 -0.0826  0.1135 -0.0567
12756SOL    HW239710   1.540   7.234   6.370  0.5621 -0.2828  0.3418
12757SOL     OW39711   0.767   7.044   0.621  0.1633  0.2075 -0.3618
12757SOL    HW139712   0.731   7.006   0.542 -0.0053 -0.4797  0.0352
12757SOL    HW239713   0.732   7.133   0.624  0.5376  0.3895 -1.2895
12758SOL     OW39714   5.429   7.341   4.309 -0.0034  0.0686 -0.0965
12758SOL    HW139715   5.451   7.346   4.216  1.7115  0.9901  0.3203
12758SOL    HW239716   5.486   7.272   4.344  0.7099  0.9860  0.5984
12759SOL     OW39717   2.971   2.788   2.222  0.7106 -0.5585  0.1846
12759SOL    HW139718   2.891   2.755   2.182  0.4632 -1.5998  1.4744
12759SOL    HW239719   3.004   2.853   2.160 -0.9665 -0.3250 -0.5009
12760SOL     OW39720   6.534   7.049  11.012 -0.0666 -0.0562 -0.2869
12760SOL    HW139721   6.621   7.088  10.999  0.2399  0.4281  2.4471
12760SOL    HW239722   6.550   6.955  11.016  0.0223 -0.1133 -1.5561
12761SOL     OW39723   4.869   3.945   3.139  0.1034  0.0724 -0.2335
12761SOL    HW139724   4.943   3.893   3.108  0.8042  1.8302 -1.6653
12761SOL    HW239725   4.888   4.034   3.110 -0.7661  1.3050  2.6137
12762SOL     OW39726   6.227   0.041  12.315 -0.6530 -0.3740  0.5172
12762SOL    HW139727   6.180  -0.029  12.361 -1.6602 -0.3589 -0.4655
12762SOL    HW239728   6.214   0.118  12.370 -1.2975 -0.5012  0.5479
12763SOL     OW39729   4.714   3.301   7.729  0.1137 -0.1400 -0.1824
12763SOL    HW139730   4.685   3.383   7.690  1.8753  0.3888 -0.5057
12763SOL    HW239731   4.634   3.254   7.753 -0.9767  0.5747 -2.2585
12764SOL     OW39732   5.029   4.900   2.563 -0.1039 -0.4391  1.0121
12764SOL    HW139733   5.096   4.836   2.539 -0.1696 -0.5759  1.1878
12764SOL    HW239734   5.051   4.924   2.653  0.8533  0.9609  0.4392
12765SOL     OW39735   2.164   5.467   2.389 -0.5597  0.3661  0.0448
12765SOL    HW139736   2.222   5.394   2.412 -0.7334  0.3132  0.3244
12765SOL    HW239737   2.196   5.540   2.442  0.1687  0.7450 -0.8830
12766SOL     OW39738   2.610   1.429   5.014 -0.8232  0.2962 -0.2599
12766SOL    HW139739   2.532   1.390   5.053 -0.2138 -0.4445  0.2447
12766SOL    HW239740   2.682   1.375   5.045 -0.2416  0.1199 -1.8225
12767SOL     OW39741   0.073   2.682   2.256 -0.3168 -0.4307  0.4628
12767SOL    HW139742   0.079   2.771   2.291  0.7658  0.3826 -1.5931
12767SOL    HW239743   0.135   2.631   2.308  0.3594  0.4422  0.5252
12768SOL     OW39744   6.351   0.832   2.454  0.4835 -0.5202 -0.5556
12768SOL    HW139745   6.326   0.768   2.521  1.9135 -0.0970  0.4380
12768SOL    HW239746   6.447   0.838   2.461  0.3964  1.8599 -0.4472
12769SOL     OW39747   6.081   3.241   4.037 -0.0299  0.5311  0.2608
12769SOL    HW139748   6.102   3.330   4.065 -0.6808  0.7200  0.1531
12769SOL    HW239749   6.146   3.186   4.083  0.6748  1.0931 -0.0432
12770SOL     OW39750   2.568   0.064   0.022  0.0935  0.2659  0.0876
12770SOL    HW139751   2.580   0.068   0.116  1.4713  1.1572 -0.0918
12770SOL    HW239752   2.640   0.008  -0.009  0.0956  0.5788 -0.4985
12771SOL     OW39753   7.590   3.746   3.569  0.0266  0.0141  0.2103
12771SOL    HW139754   7.615   3.836   3.592 -1.0306  0.2882  0.3528
12771SOL    HW239755   7.557   3.709   3.651  1.1699 -0.7812  0.3375
12772SOL     OW39756   1.429   1.344   9.587 -0.2608 -0.7522  0.1326
12772SOL    HW139757   1.442   1.412   9.653  1.5762 -1.3459  0.4401
12772SOL    HW239758   1.363   1.380   9.529 -0.1388  0.8315  0.9136
12773SOL     OW39759   7.693   6.621   6.045  0.4655  0.0143 -0.1672
12773SOL    HW139760   7.742   6.653   6.121  0.8976  2.3329 -1.3125
12773SOL    HW239761   7.641   6.696   6.017 -1.5238 -1.5079 -0.7718
12774SOL     OW39762   5.316   7.051   6.600  0.2113  0.2806  0.3195
12774SOL    HW139763   5.389   6.988   6.598  0.0823  0.1409 -0.0924
12774SOL    HW239764   5.291   7.055   6.693  0.2795 -0.2097  0.3631
12775SOL     OW39765   5.476   0.219   8.092 -0.7208 -0.0974 -0.0769
12775SOL    HW139766   5.524   0.186   8.015 -1.0165 -0.4976 -0.0943
12775SOL    HW239767   5.425   0.143   8.122 -0.5566  0.0382  0.5540
12776SOL     OW39768   1.441   0.123  10.756  0.3068  0.1100  0.1444
12776SOL    HW139769   1.468   0.044  10.804 -0.2353 -1.2468 -1.6506
12776SOL    HW239770   1.522   0.170  10.739  0.9401 -1.1796 -0.5677
12777SOL     OW39771   5.347   6.812   2.890 -0.6622  0.2770  0.3584
12777SOL    HW139772   5.293   6.858   2.826 -0.8313 -0.4406 -0.0366
12777SOL    HW239773   5.313   6.722   2.889  0.1582 -0.0473  0.5241
12778SOL     OW39774   1.487   5.236   6.147  0.1528 -0.2802  0.4010
12778SOL    HW139775   1.570   5.257   6.189  0.7383 -2.2373  0.2917
12778SOL    HW239776   1.424   5.234   6.219  0.4516 -0.0566  0.6702
12779SOL     OW39777   6.489   7.630   6.784 -0.4169  0.2707  0.2703
12779SOL    HW139778   6.494   7.617   6.879 -1.8560 -0.4581  0.2828
12779SOL    HW239779   6.406   7.677   6.770  1.1639  3.0822 -0.4282
12780SOL     OW39780   1.770   3.661  10.877  0.2458  0.1018 -0.3067
12780SOL    HW139781   1.756   3.647  10.784 -1.6759 -1.8709  0.1845
12780SOL    HW239782   1.684   3.688  10.911  0.5109 -0.7208  1.1151
12781SOL     OW39783   1.083   0.487   4.684  0.4363 -0.4072 -0.1129
12781SOL    HW139784   1.013   0.530   4.637  0.2663 -0.9673 -0.3823
12781SOL    HW239785   1.039   0.421   4.739  0.7448 -0.7734 -0.2966
12782SOL     OW39786   7.371   0.558   2.956  0.2814  0.1977 -0.2514
12782SOL    HW139787   7.399   0.469   2.935  0.1497  0.2914 -0.8209
12782SOL    HW239788   7.435   0.614   2.912 -0.0693  0.3961 -0.5072
12783SOL     OW39789   3.039   3.389   4.179 -0.1772  0.3214 -0.6192
12783SOL    HW139790   3.035   3.465   4.121  0.5426  0.8058 -0.0550
12783SOL    HW239791   3.044   3.314   4.120  1.6955  0.8637 -1.2146
12784SOL     OW39792   6.229   0.265  11.372  0.2705  0.2067  0.0698
12784SOL    HW139793   6.166   0.309  11.429 -0.0949  2.2748 -1.8098
12784SOL    HW239794   6.183   0.187  11.342  0.0287 -0.2788  1.6138
12785SOL     OW39795   5.920   4.493   8.056  0.0170 -0.1394  0.2342
12785SOL    HW139796   5.984   4.431   8.092  0.8880  1.2752  1.2563
12785SOL    HW239797   5.872   4.525   8.132  0.0509  0.9197 -0.1648
12786SOL     OW39798   7.328   6.656   1.328  0.4677 -0.0541  0.0333
12786SOL    HW139799   7.333   6.745   1.364 -1.6648  1.6694 -3.4946
12786SOL    HW239800   7.420   6.630   1.318  1.1488  0.9124  2.7812
12787SOL     OW39801   3.175   6.648  11.097 -0.2452 -0.3374 -0.9383
12787SOL    HW139802   3.197   6.739  11.076 -0.4864 -0.0631 -0.0409
12787SOL    HW239803   3.250   6.616  11.147 -1.9079  0.7617  2.5983
12788SOL     OW39804   1.139   7.335   8.572 -0.5278  0.7486 -0.1582
12788SOL    HW139805   1.122   7.322   8.479 -0.5938  0.0991 -0.0617
12788SOL    HW239806   1.234   7.327   8.580 -0.6709 -1.0901  0.0922
12789SOL     OW39807   6.960   1.338   4.403  0.2043 -0.9824 -0.1572
12789SOL    HW139808   6.893   1.400   4.431  1.3668 -0.4050  1.5359
12789SOL    HW239809   6.914   1.255   4.393 -0.9796 -0.3232 -0.3246
12790SOL     OW39810   5.910   1.313  10.387  0.3423 -0.3343  0.0357
12790SOL    HW139811   5.838   1.355  10.339  0.7879  1.8460  1.1461
12790SOL    HW239812   5.967   1.277  10.319 -0.9105 -0.6028 -0.9097
12791SOL     OW39813   2.803   1.665  11.039  0.1566 -0.2947 -0.3516
12791SOL    HW139814   2.881   1.657  11.094  0.9122 -0.5775 -1.4472
12791SOL    HW239815   2.785   1.576  11.009 -1.0757 -0.3702  0.5099
12792SOL     OW39816   7.981   1.600   5.516 -0.3465 -0.0082 -0.3628
12792SOL    HW139817   7.923   1.545   5.462  0.5880 -1.0556 -0.3393
12792SOL    HW239818   7.954   1.689   5.495 -2.3146 -0.4411  0.0370
12793SOL     OW39819   5.030   0.938  12.064  0.1932  0.2581 -0.5042
12793SOL    HW139820   4.989   0.889  11.992  0.1607 -1.1356  0.4164
12793SOL    HW239821   5.016   1.030  12.042 -0.0593 -0.1357 -2.1313
12794SOL     OW39822   5.104   7.283   2.695  0.0168 -0.3471 -0.4630
12794SOL    HW139823   5.069   7.372   2.695 -1.2586 -0.8220  0.2709
12794SOL    HW239824   5.196   7.294   2.671 -0.0147  1.2016 -0.0199
12795SOL     OW39825   2.555   3.380   5.344  0.4653  0.1790  0.3753
12795SOL    HW139826   2.506   3.438   5.403  0.1371 -0.3563  0.6395
12795SOL    HW239827   2.511   3.296   5.351 -0.0093  0.2646 -1.1771
12796SOL     OW39828   3.963   5.014   6.122  0.3883 -0.5475 -0.2283
12796SOL    HW139829   3.932   5.045   6.036 -0.9898 -0.9957  0.0764
12796SOL    HW239830   4.048   4.975   6.103  0.6097  0.3410 -1.2001
12797SOL     OW39831   0.464   3.351   6.763 -0.4803 -0.4535  0.2242
12797SOL    HW139832   0.524   3.411   6.807  1.0862 -2.0195  0.3799
12797SOL    HW239833   0.488   3.357   6.671 -0.1576 -0.9848  0.2693
12798SOL     OW39834   0.634   3.859  10.411 -0.4160 -0.3494 -0.2098
12798SOL    HW139835   0.659   3.846  10.320 -0.5298 -2.7079  0.0141
12798SOL    HW239836   0.686   3.794  10.459  0.9043  1.9607  1.6557
12799SOL     OW39837   3.420   3.801   1.486  0.3206  0.5451  0.2053
12799SOL    HW139838   3.444   3.891   1.511  0.5831  0.3924  0.5062
12799SOL    HW239839   3.504   3.759   1.465  0.4030 -0.1651  1.8178
12800SOL     OW39840   0.785   1.951   7.234  0.3072  0.2622  0.2740
12800SOL    HW139841   0.876   1.976   7.251  0.1202  1.6140 -0.6298
12800SOL    HW239842   0.785   1.919   7.144  0.3163 -2.0637  1.0242
12801SOL     OW39843   6.637   6.614   4.566 -0.1109 -0.0460 -0.5821
12801SOL    HW139844   6.699   6.569   4.624 -2.1601  0.8804  2.5795
12801SOL    HW239845   6.661   6.707   4.573 -1.0293  0.1826 -0.3214
12802SOL     OW39846   3.900   0.006   0.927  0.1135  0.0010  0.2272
12802SOL    HW139847   3.811   0.040   0.928 -0.2970 -1.0315  1.4590
12802SOL    HW239848   3.951   0.069   0.977  0.4699  1.4750 -1.8615
12803SOL     OW39849   0.460   5.228   6.215 -0.3614 -0.6118 -0.3237
12803SOL    HW139850   0.435   5.226   6.123 -0.9486  0.0474 -0.1844
12803SOL    HW239851   0.391   5.179   6.260 -0.8696  0.3183 -0.0665
12804SOL     OW39852   2.846   4.225  10.309  0.3498  0.0270 -0.2011
12804SOL    HW139853   2.855   4.158  10.376  0.3083  0.6995  0.4828
12804SOL    HW239854   2.760   4.265  10.325  0.6218  0.6406 -0.2366
12805SOL     OW39855   3.128   6.598   5.363 -0.6634  0.6770 -0.4456
12805SOL    HW139856   3.145   6.665   5.429  0.5496  0.9673 -1.0348
12805SOL    HW239857   3.098   6.647   5.286  0.4347  0.5786 -0.9497
12806SOL     OW39858   6.723   3.325   1.855  0.4721  0.3917 -0.0718
12806SOL    HW139859   6.779   3.358   1.784 -0.3145 -2.1175 -2.0426
12806SOL    HW239860   6.659   3.269   1.810  0.4576 -2.0339  2.7044
12807SOL     OW39861   1.361   6.716  11.326 -0.1174 -0.2919 -0.4517
12807SOL    HW139862   1.397   6.794  11.284  3.7583 -0.0433  2.7580
12807SOL    HW239863   1.290   6.750  11.381  1.3721  1.0271  0.7379
12808SOL     OW39864   0.360   1.068   3.036 -0.4636 -0.0310 -0.4431
12808SOL    HW139865   0.410   0.995   3.072  0.9810  0.7857 -0.7105
12808SOL    HW239866   0.421   1.113   2.977 -2.1833 -0.2225 -2.4896
12809SOL     OW39867   6.617   6.561   5.787 -0.0845  0.2233 -0.2576
12809SOL    HW139868   6.657   6.627   5.730 -1.0147  1.2072  0.2003
12809SOL    HW239869   6.691   6.509   5.819  0.4862 -0.2421 -2.1838
12810SOL     OW39870   0.347   2.014   0.969 -0.1161 -0.1095  0.1170
12810SOL    HW139871   0.381   2.056   0.891 -0.1359 -0.6655 -0.1928
12810SOL    HW239872   0.272   2.068   0.995 -0.2658 -0.0708 -0.3983
12811SOL     OW39873   1.558   1.702   9.933 -0.0325  0.3242 -0.4044
12811SOL    HW139874   1.617   1.751   9.876 -0.9857  1.2469 -0.6184
12811SOL    HW239875   1.485   1.677   9.876 -2.4184  3.6606  0.9018
12812SOL     OW39876   6.130   7.405   8.735 -0.4745 -0.0839 -0.8711
12812SOL    HW139877   6.186   7.403   8.813 -0.4354 -1.2238 -0.9150
12812SOL    HW239878   6.143   7.493   8.700 -0.4121  0.4228  0.3459
12813SOL     OW39879   2.255   6.077   0.443 -0.0112 -0.4476 -0.0292
12813SOL    HW139880   2.277   5.995   0.399 -2.2346 -0.9398 -0.3242
12813SOL    HW239881   2.219   6.133   0.374  2.3495  1.2224 -0.0386
12814SOL     OW39882   5.483   4.528   4.328 -0.1729  0.2125 -0.2683
12814SOL    HW139883   5.477   4.503   4.236 -0.3959  1.9543 -0.7663
12814SOL    HW239884   5.572   4.563   4.338 -0.0021 -0.3586  0.2974
12815SOL     OW39885   5.228   0.804  11.748  0.1190  0.2810  0.1911
12815SOL    HW139886   5.213   0.728  11.692 -0.5971 -0.4413  1.3246
12815SOL    HW239887   5.176   0.874  11.709 -0.9102 -0.3968  0.3147
12816SOL     OW39888   5.915   6.386   4.585 -0.5188 -0.0478 -0.0769
12816SOL    HW139889   5.853   6.337   4.638 -0.7686  0.0082 -0.3132
12816SOL    HW239890   5.904   6.477   4.612  2.0396 -0.3902  2.5115
12817SOL     OW39891   1.603   5.080   0.946  0.1710  0.0552  0.1948
12817SOL    HW139892   1.531   5.083   1.008  0.6293 -3.0154  1.0656
12817SOL    HW239893   1.672   5.134   0.986 -0.8879  1.3721  0.3151
12818SOL     OW39894   3.092   5.715   4.923 -0.2216 -0.2916 -0.4298
12818SOL    HW139895   3.069   5.627   4.952 -1.2855 -0.4752 -1.7231
12818SOL    HW239896   3.055   5.773   4.989  1.3159 -0.8106  0.9473
12819SOL     OW39897   3.951   7.706   6.046  0.1154  0.4064 -0.0351
12819SOL    HW139898   3.917   7.745   5.966 -0.6611 -1.0334 -0.4493
12819SOL    HW239899   3.981   7.619   6.020 -0.7055 -0.3334  1.3293
12820SOL     OW39900   3.684   4.833   6.937  0.0277 -0.2350  0.4657
12820SOL    HW139901   3.736   4.883   6.873 -1.4461  0.1320 -0.4858
12820SOL    HW239902   3.677   4.892   7.012  2.6729 -1.0679  1.5067
12821SOL     OW39903   7.958   2.665   0.157  0.4856 -0.5738  0.7961
12821SOL    HW139904   7.975   2.721   0.233  0.0462  0.3306  0.2546
12821SOL    HW239905   7.862   2.661   0.151  0.3680  2.2413 -1.6578
12822SOL     OW39906   3.492   1.612   6.491  0.2664  0.5119  0.5803
12822SOL    HW139907   3.500   1.570   6.406 -0.6114 -0.4030  0.9221
12822SOL    HW239908   3.513   1.542   6.554 -0.4529  0.7924  1.1432
12823SOL     OW39909   3.269   1.327   4.521 -0.3830  0.1736 -0.8374
12823SOL    HW139910   3.265   1.390   4.449 -1.3333  0.7779 -0.2860
12823SOL    HW239911   3.193   1.271   4.507 -0.2750 -0.0319 -0.5919
12824SOL     OW39912   3.610   1.676   0.501 -0.5011  0.0183  0.0530
12824SOL    HW139913   3.666   1.635   0.567 -3.2353 -0.4106  2.3048
12824SOL    HW239914   3.671   1.708   0.434  2.1794 -2.5067  1.0804
12825SOL     OW39915   7.063   5.716  11.827 -0.1468 -0.2368  0.1844
12825SOL    HW139916   7.067   5.627  11.862 -1.1217 -0.2593  0.2487
12825SOL    HW239917   6.972   5.730  11.804 -0.1260  0.9632  0.7225
12826SOL     OW39918   1.790   5.415   7.854  0.7254  0.8102 -0.0155
12826SOL    HW139919   1.866   5.364   7.827  0.4186  0.9204 -1.1378
12826SOL    HW239920   1.719   5.350   7.862  0.8074  0.7820  0.5167
12827SOL     OW39921   5.845   5.865   9.561 -0.0067  0.1521  0.6094
12827SOL    HW139922   5.882   5.953   9.563 -0.7557  0.4548  2.2169
12827SOL    HW239923   5.921   5.807   9.569  0.4356  0.6376  0.0711
12828SOL     OW39924   2.849   1.782   5.796  0.0808  0.1998 -0.1576
12828SOL    HW139925   2.934   1.826   5.796  1.1324 -1.6952  1.4390
12828SOL    HW239926   2.859   1.709   5.857 -2.5287 -0.4411 -0.3678
12829SOL     OW39927   7.239   7.861   4.265 -0.1420  0.1089 -0.0130
12829SOL    HW139928   7.252   7.956   4.272 -0.9803  0.2206  0.1754
12829SOL    HW239929   7.247   7.842   4.172  0.4634  0.2945 -0.0020
12830SOL     OW39930   5.016   7.595   6.600  0.0280 -0.7110 -0.3436
12830SOL    HW139931   4.970   7.611   6.517  0.5581  1.6716 -0.2442
12830SOL    HW239932   5.109   7.596   6.577  0.2637  1.6011  0.4309
12831SOL     OW39933   2.526   3.407   2.638 -0.3606 -0.2754  1.0181
12831SOL    HW139934   2.500   3.315   2.633  0.6293 -0.5757  1.1403
12831SOL    HW239935   2.530   3.436   2.547 -0.1898 -0.5017  0.9521
12832SOL     OW39936   1.226   2.373   7.274 -0.1271 -0.2346 -0.1017
12832SOL    HW139937   1.274   2.415   7.202 -0.0889 -0.1631 -0.0340
12832SOL    HW239938   1.156   2.434   7.295  0.2144  0.0118  0.3182
12833SOL     OW39939   1.009   7.176   5.993  0.1499 -0.3745 -0.5200
12833SOL    HW139940   0.953   7.218   6.059  0.3883  0.4822 -0.8511
12833SOL    HW239941   0.948   7.148   5.925 -0.0209 -0.6643 -0.2555
12834SOL     OW39942   4.735   4.255  10.891  0.0528  0.2211  0.4696
12834SOL    HW139943   4.741   4.230  10.983  0.9713  0.5696  0.5212
12834SOL    HW239944   4.693   4.181  10.848  0.0367 -0.1398  1.1012
12835SOL     OW39945   2.269   1.844  11.655  0.1527  0.0226 -0.2065
12835SOL    HW139946   2.289   1.770  11.597 -1.3982 -0.2080 -0.4929
12835SOL    HW239947   2.217   1.903  11.600  0.3389  0.7418  0.3885
12836SOL     OW39948   4.916   3.330   1.779 -0.2850 -0.3950  0.9830
12836SOL    HW139949   4.936   3.299   1.691 -1.3957 -1.1274  0.9614
12836SOL    HW239950   4.996   3.313   1.829  0.1269 -0.5851  0.2798
12837SOL     OW39951   7.924   4.898   4.567  0.2588 -0.3672  0.3386
12837SOL    HW139952   7.964   4.823   4.612  0.0158  0.1715  1.5044
12837SOL    HW239953   7.965   4.974   4.608 -1.3796  0.1870  1.0220
12838SOL     OW39954   7.860   6.442   8.768 -0.3761  0.2317  0.1634
12838SOL    HW139955   7.897   6.512   8.822  0.3737 -0.2493  0.2882
12838SOL    HW239956   7.908   6.447   8.686  0.0121 -0.4294  0.3423
12839SOL     OW39957   4.769   3.755   2.251 -0.0650 -0.3782 -0.4392
12839SOL    HW139958   4.753   3.813   2.326 -0.8047  0.4348 -1.2015
12839SOL    HW239959   4.827   3.687   2.285 -1.8067 -1.0562  1.3735
12840SOL     OW39960   7.965   0.613  11.483 -0.0335  0.3398 -0.1718
12840SOL    HW139961   7.942   0.666  11.407 -3.8748 -0.6978  0.0572
12840SOL    HW239962   8.008   0.673  11.543 -1.2077  2.3616 -1.2616
12841SOL     OW39963   7.832   7.412  11.502 -0.0605 -0.4719  0.0785
12841SOL    HW139964   7.751   7.454  11.531  1.2619  0.6751  2.4050
12841SOL    HW239965   7.888   7.485  11.473  0.5371 -1.1392 -0.4962
12842SOL     OW39966   0.159   4.506   7.584 -0.1765  0.3767  0.5191
12842SOL    HW139967   0.076   4.515   7.631  0.4640  0.8987  1.6032
12842SOL    HW239968   0.219   4.565   7.631  0.5702  0.7111 -0.8028
12843SOL     OW39969   3.180   2.814  10.221 -0.9157  0.3387 -0.2319
12843SOL    HW139970   3.159   2.776  10.306  0.2164  0.3812  0.0896
12843SOL    HW239971   3.166   2.908  10.232  2.1988  0.8128  0.9675
12844SOL     OW39972   5.856   0.994  11.583  0.1942  0.0072 -0.2924
12844SOL    HW139973   5.878   1.006  11.675  0.9922 -1.5860 -0.2332
12844SOL    HW239974   5.892   1.071  11.539  0.0179  0.6634  0.6829
12845SOL     OW39975   3.555   1.219   5.081 -0.0887 -0.6265  1.0463
12845SOL    HW139976   3.621   1.156   5.052 -1.2248 -2.0344  1.3818
12845SOL    HW239977   3.475   1.191   5.037 -1.1521 -0.8999  3.0546
12846SOL     OW39978   2.818   3.384   0.203 -0.0432 -0.1841  0.0570
12846SOL    HW139979   2.736   3.338   0.187  0.1075 -1.3547  2.1707
12846SOL    HW239980   2.885   3.316   0.203  0.9113  0.6948 -1.2294
12847SOL     OW39981   1.013   2.619   3.671 -0.2680  0.1138 -0.3379
12847SOL    HW139982   0.980   2.652   3.587 -0.8912 -2.1628 -1.0773
12847SOL    HW239983   1.083   2.559   3.647  1.2900  1.3304  0.9799
12848SOL     OW39984   3.748   1.236   2.524  0.2492  0.1371  0.2220
12848SOL    HW139985   3.770   1.207   2.436  2.4349 -0.3172  0.8581
12848SOL    HW239986   3.705   1.160   2.565 -0.1850  0.1352 -0.2300
12849SOL     OW39987   0.418   6.253   9.079  0.2259 -0.2625 -0.0866
12849SOL    HW139988   0.405   6.264   8.984  2.2822 -0.8281 -0.4733
12849SOL    HW239989   0.433   6.159   9.090 -0.8988 -0.3465  0.9572
12850SOL     OW39990   2.121   5.122   9.728 -0.1344 -0.2246  0.0957
12850SOL    HW139991   2.109   5.028   9.714  1.7026 -0.4268 -0.3787
12850SOL    HW239992   2.079   5.163   9.652 -0.8855 -0.6632  0.2711
12851SOL     OW39993   0.483   4.909   6.354  0.0050 -0.3259  0.4981
12851SOL    HW139994   0.565   4.947   6.388  0.2860  0.2896 -0.8045
12851SOL    HW239995   0.467   4.833   6.410  1.4375 -0.4219  0.8180
12852SOL     OW39996   7.245   0.473  10.255  0.3739 -0.3445 -0.2675
12852SOL    HW139997   7.289   0.517  10.183 -0.1673 -0.0244 -0.4097
12852SOL    HW239998   7.303   0.487  10.330  2.0425 -2.5292 -1.0389
12853SOL     OW39999   0.970   7.667   5.995 -0.2246 -0.7802 -0.3573
12853SOL    HW140000   1.049   7.615   5.982  0.9299  0.5099  1.1715
12853SOL    HW240001   0.997   7.758   5.978 -0.7408 -0.0359  2.2659
12854SOL     OW40002   3.255   7.517   2.678 -0.0681  0.3248 -0.3853
12854SOL    HW140003   3.214   7.597   2.710  0.2268  0.0338  0.7765
12854SOL    HW240004   3.277   7.468   2.757  0.3924 -0.5892 -1.0555
12855SOL     OW40005   3.796   1.193   9.003  0.4619 -0.1629  0.4636
12855SOL    HW140006   3.726   1.133   8.978  0.7232 -0.4620  0.4362
12855SOL    HW240007   3.856   1.139   9.055  0.5094  0.1686  0.7583
12856SOL     OW40008   4.816   0.287   6.090  0.7643 -0.3665 -0.2548
12856SOL    HW140009   4.748   0.349   6.063 -0.3917 -1.9048 -0.9969
12856SOL    HW240010   4.834   0.235   6.012  1.1284 -1.5057  0.5637
12857SOL     OW40011   4.596   2.616  10.893 -0.1754 -0.1094 -0.2874
12857SOL    HW140012   4.580   2.523  10.879 -1.7715  0.4209 -2.5055
12857SOL    HW240013   4.606   2.625  10.987  0.1052 -2.5321 -0.0373
12858SOL     OW40014   2.374   6.391   1.495 -0.6365  0.5925 -0.4673
12858SOL    HW140015   2.326   6.473   1.489 -1.1093  0.2932 -0.9220
12858SOL    HW240016   2.449   6.410   1.551 -0.6084  1.3919 -0.7660
12859SOL     OW40017   2.021   4.390  10.167 -0.5364  0.2759  0.4649
12859SOL    HW140018   1.991   4.417  10.080 -1.5160  1.2737  1.0819
12859SOL    HW240019   2.025   4.295  10.163  0.6687  0.3592 -1.0496
12860SOL     OW40020   6.612   3.166   2.833  0.1683 -0.6018  0.0635
12860SOL    HW140021   6.673   3.164   2.906  0.9973  0.2988 -0.5857
12860SOL    HW240022   6.596   3.073   2.813  1.0079 -0.8552  0.5091
12861SOL     OW40023   5.410   2.993   7.244 -0.1342  0.1547 -0.1258
12861SOL    HW140024   5.445   3.049   7.313  0.3277 -1.5850  1.1436
12861SOL    HW240025   5.338   3.043   7.206  0.6897  1.8576  0.4641
12862SOL     OW40026   6.461   1.480   5.237 -0.2848 -0.5249  0.0912
12862SOL    HW140027   6.535   1.517   5.188  0.0301 -0.6767  0.4520
12862SOL    HW240028   6.430   1.553   5.291 -1.2940 -0.0471 -1.0793
12863SOL     OW40029   7.596   6.752   7.190  0.2375 -0.0186 -0.2278
12863SOL    HW140030   7.507   6.722   7.174 -0.0616  1.0603 -0.7063
12863SOL    HW240031   7.590   6.848   7.184  1.4019  0.0700 -0.1709
12864SOL     OW40032   0.702   2.447   2.442  0.1513  0.0209 -0.5747
12864SOL    HW140033   0.777   2.410   2.488 -1.5618 -0.9273  1.6653
12864SOL    HW240034   0.652   2.371   2.411 -1.4038  0.4928  0.6529
12865SOL     OW40035   6.387   2.551   0.541 -0.3817  0.0757  0.2413
12865SOL    HW140036   6.374   2.459   0.565 -3.3021  0.0992 -0.8723
12865SOL    HW240037   6.325   2.599   0.596 -1.9333  0.8606 -2.0203
12866SOL     OW40038   3.621   6.420   2.234  0.7854  0.1692 -0.0988
12866SOL    HW140039   3.530   6.451   2.236  0.9114  0.5688 -0.4631
12866SOL    HW240040   3.673   6.495   2.263  1.0527  0.1566 -0.5255
12867SOL     OW40041   7.278   2.911   4.693 -0.4093 -0.0265  0.2472
12867SOL    HW140042   7.286   2.870   4.779  0.2395  1.2451  0.8135
12867SOL    HW240043   7.326   2.853   4.634 -0.2730 -0.5514  0.8643
12868SOL     OW40044   7.651   4.281   2.059 -0.2431 -0.3516  0.3748
12868SOL    HW140045   7.595   4.321   1.992  0.1993  1.2406  0.9103
12868SOL    HW240046   7.620   4.191   2.065 -1.5877  0.0097 -0.5737
12869SOL     OW40047   2.373   0.147   7.008 -0.3580 -0.4582  0.5530
12869SOL    HW140048   2.323   0.220   7.044 -0.0732 -0.7610  1.5917
12869SOL    HW240049   2.426   0.115   7.081 -0.0548 -1.3487 -0.0331
12870SOL     OW40050   2.277   4.738   7.542 -0.1616 -0.1191  0.3273
12870SOL    HW140051   2.271   4.698   7.629 -0.7973 -1.7737 -0.4461
12870SOL    HW240052   2.367   4.724   7.515 -0.4752 -1.4176 -0.0956
12871SOL     OW40053   0.754   5.838   1.320  0.3336 -0.3733 -0.0769
12871SOL    HW140054   0.724   5.794   1.400  1.4962 -0.5116  0.3051
12871SOL    HW240055   0.815   5.905   1.352  1.2574 -0.8067 -0.8682
12872SOL     OW40056   7.457   7.945   4.092 -0.6181 -0.5273 -0.5859
12872SOL    HW140057   7.445   7.967   4.000 -0.3380 -0.0703 -0.5180
12872SOL    HW240058   7.546   7.974   4.112 -1.8947  2.9942  0.8312
12873SOL     OW40059   7.238   7.118  11.575 -0.0599 -0.2925  0.3177
12873SOL    HW140060   7.149   7.087  11.595  0.7101 -1.3214  2.4073
12873SOL    HW240061   7.280   7.128  11.661  1.6775  0.7500 -0.5988
12874SOL     OW40062   1.145   6.986   5.705  0.6567  0.1165 -0.1005
12874SOL    HW140063   1.198   7.062   5.683  1.4784 -0.6583 -0.8797
12874SOL    HW240064   1.190   6.912   5.663 -1.9474 -0.3767 -2.3081
12875SOL     OW40065   0.370   2.883   6.413 -0.1041  0.6422 -0.3282
12875SOL    HW140066   0.275   2.877   6.420 -0.0379 -0.8987 -0.3869
12875SOL    HW240067   0.395   2.953   6.473 -1.1882  0.4152  0.4009
12876SOL     OW40068   2.528   3.893   9.957  0.3262 -0.4513 -0.0015
12876SOL    HW140069   2.560   3.891   9.867 -0.9041 -0.0667 -0.4619
12876SOL    HW240070   2.436   3.918   9.949  0.1929 -0.4667  1.3612
12877SOL     OW40071   2.851   0.061   9.309 -0.6313  0.0662 -0.1365
12877SOL    HW140072   2.927   0.050   9.365 -0.0566  2.7516 -0.2428
12877SOL    HW240073   2.777   0.035   9.363  0.1717 -0.2953  0.8031
12878SOL     OW40074   3.254   5.528   1.906 -0.2479 -0.2339 -0.3606
12878SOL    HW140075   3.236   5.442   1.945 -0.3837 -0.2717 -0.5057
12878SOL    HW240076   3.193   5.534   1.833  0.1440 -0.2471 -0.6909
12879SOL     OW40077   1.799   5.233   9.109  0.5886  0.1404 -0.5016
12879SOL    HW140078   1.892   5.249   9.091  0.4489 -0.1938 -1.6056
12879SOL    HW240079   1.756   5.315   9.085  0.5990  0.2922  0.0026
12880SOL     OW40080   1.969   3.048   5.053  0.1989 -0.0460  0.2095
12880SOL    HW140081   1.949   3.140   5.068  0.8245 -0.1382  1.7643
12880SOL    HW240082   2.058   3.037   5.085  0.2755 -1.1252 -0.3149
12881SOL     OW40083   1.043   0.548   3.509  0.5546 -0.1965  0.4032
12881SOL    HW140084   1.038   0.481   3.576  0.2809  0.1373  0.7210
12881SOL    HW240085   1.131   0.539   3.471  0.6582 -0.4725  0.7115
12882SOL     OW40086   4.054   6.180  10.172 -0.0037 -0.4583 -0.1224
12882SOL    HW140087   3.971   6.156  10.131 -1.0490  0.6545  1.2458
12882SOL    HW240088   4.092   6.097  10.199 -0.7819 -0.9688 -0.5399
12883SOL     OW40089   0.812   0.458  11.387 -0.4449  0.7507  0.2489
12883SOL    HW140090   0.860   0.376  11.371  0.2147  1.6588 -3.2507
12883SOL    HW240091   0.720   0.435  11.374 -0.4038  0.2849  0.7399
12884SOL     OW40092   3.323   5.316   3.833 -0.4160 -0.1798  0.1470
12884SOL    HW140093   3.235   5.315   3.796 -0.4251 -0.8119  0.1784
12884SOL    HW240094   3.379   5.277   3.765 -0.4543 -1.4723  0.8184
12885SOL     OW40095   2.029   1.161  11.491  0.6478  0.2993  0.0758
12885SOL    HW140096   2.092   1.135  11.558  0.2874 -0.2976  0.1921
12885SOL    HW240097   1.972   1.084  11.481 -0.2649  0.9455  0.2079
12886SOL     OW40098   3.970   1.741   8.625  0.6733  0.3377 -0.2956
12886SOL    HW140099   4.027   1.665   8.632  1.6101  0.8480 -1.8300
12886SOL    HW240100   3.886   1.706   8.596 -0.0017 -0.4704  2.3882
12887SOL     OW40101   1.492   5.707  11.294 -0.3025 -0.5194  0.0172
12887SOL    HW140102   1.527   5.747  11.215  0.8616 -0.0546  0.7351
12887SOL    HW240103   1.416   5.761  11.317  0.0728  0.0759 -0.1190
12888SOL     OW40104   6.443   0.510   1.888 -0.3145  0.3677 -0.0717
12888SOL    HW140105   6.532   0.508   1.853  0.4593 -0.7562  1.8016
12888SOL    HW240106   6.418   0.418   1.897 -1.9831  0.6637 -1.2345
12889SOL     OW40107   2.417   1.067   4.359  0.1207 -0.0714 -0.2956
12889SOL    HW140108   2.323   1.071   4.341  0.2715  1.4743 -0.9467
12889SOL    HW240109   2.442   1.158   4.376  1.5498 -0.4101 -0.4058
12890SOL     OW40110   1.522   2.829   3.583  0.0155 -0.5486  0.1090
12890SOL    HW140111   1.478   2.897   3.634  2.3782  1.5890 -0.4761
12890SOL    HW240112   1.546   2.762   3.647 -2.0383 -0.6916  0.7793
12891SOL     OW40113   7.361   0.900   0.691 -0.1921  0.4654 -0.1210
12891SOL    HW140114   7.386   0.977   0.639  1.6799 -0.9910 -1.5209
12891SOL    HW240115   7.442   0.852   0.705 -0.9956 -0.3389  2.3869
12892SOL     OW40116   3.912   0.544  12.295 -0.2278 -0.2006  0.3207
12892SOL    HW140117   3.994   0.582  12.327 -1.0849  3.7462 -1.5134
12892SOL    HW240118   3.936   0.493  12.218  0.6432 -0.1845  0.5805
12893SOL     OW40119   4.724   2.988   1.356  0.4171  0.1080  0.1841
12893SOL    HW140120   4.802   2.935   1.371 -0.4445 -0.5104  3.0857
12893SOL    HW240121   4.757   3.071   1.321  2.1788 -0.7820 -0.3500
12894SOL     OW40122   1.567   3.160   8.452 -0.6170 -0.1864  0.4011
12894SOL    HW140123   1.526   3.219   8.515 -0.5392 -0.2578  0.5198
12894SOL    HW240124   1.551   3.201   8.367 -0.9092 -0.1988  0.4475
12895SOL     OW40125   4.006   0.173   3.726 -0.5318 -0.2368 -0.4032
12895SOL    HW140126   3.916   0.191   3.754 -0.0772  1.1411  0.2200
12895SOL    HW240127   4.057   0.248   3.757  0.8089 -0.9050 -0.9146
12896SOL     OW40128   5.927   1.974   9.040 -0.2970 -0.1954 -0.0724
12896SOL    HW140129   5.989   1.969   8.967 -0.2878 -1.1138 -0.0228
12896SOL    HW240130   5.944   2.058   9.082 -0.1187  0.2284 -0.9668
12897SOL     OW40131   2.725   3.044   7.795 -0.4230  0.3202 -0.4764
12897SOL    HW140132   2.810   3.049   7.752 -0.1483  0.6420  0.0889
12897SOL    HW240133   2.690   3.134   7.790 -0.5952  0.2566 -0.4440
12898SOL     OW40134   5.713   7.958   9.530  0.3478  0.5565  0.3390
12898SOL    HW140135   5.689   8.036   9.480 -1.6297  0.6755  1.3673
12898SOL    HW240136   5.741   7.991   9.615  0.2643  0.1903  0.5112
12899SOL     OW40137   4.255   5.785   7.455  0.5244  0.2558  0.6325
12899SOL    HW140138   4.164   5.794   7.429  0.4852  0.5639  0.8716
12899SOL    HW240139   4.257   5.814   7.546  0.8092 -0.0254  0.7195
12900SOL     OW40140   2.932   4.359   8.427  0.6810 -0.1997  0.1741
12900SOL    HW140141   2.906   4.275   8.389  1.0929 -0.1270 -0.2909
12900SOL    HW240142   3.027   4.363   8.413  0.8135 -0.0672  1.0269
12901SOL     OW40143   2.455   2.573   0.462  0.4486  0.0373  0.0361
12901SOL    HW140144   2.458   2.668   0.472 -1.2412  0.3270 -1.6855
12901SOL    HW240145   2.525   2.553   0.400  1.6632 -0.0523  1.3767
12902SOL     OW40146   5.928   1.575   7.740  0.1908 -0.3105  0.0246
12902SOL    HW140147   6.016   1.588   7.777  0.5088  2.5204 -1.4932
12902SOL    HW240148   5.869   1.597   7.812  0.7453 -0.0646  0.4182
12903SOL     OW40149   6.949   5.123   8.432 -0.3461 -0.2703 -0.4452
12903SOL    HW140150   7.016   5.151   8.494 -0.3916 -0.2475 -0.4059
12903SOL    HW240151   6.873   5.102   8.487 -0.5882  0.3355 -0.5294
12904SOL     OW40152   1.021   3.016  11.730  0.1590  0.2021 -0.1680
12904SOL    HW140153   1.103   3.057  11.701 -0.6354  0.9195 -1.5197
12904SOL    HW240154   0.995   2.961  11.657  0.0119 -0.9286  0.7146
12905SOL     OW40155   3.463   7.040   2.074  0.6749 -0.8483 -0.8389
12905SOL    HW140156   3.525   7.028   2.002 -0.4392  1.4171 -2.2901
12905SOL    HW240157   3.379   7.012   2.038  0.2875 -0.8366  0.0206
12906SOL     OW40158   5.027   3.672  10.675 -0.0033 -0.4923 -0.1643
12906SOL    HW140159   5.107   3.624  10.655  0.7714 -0.0570  1.6833
12906SOL    HW240160   5.048   3.763  10.655  0.5593 -0.1462  1.7795
12907SOL     OW40161   1.356   4.901   4.732 -0.0907 -0.1523 -0.1486
12907SOL    HW140162   1.399   4.920   4.648 -1.1992  2.1875 -0.2729
12907SOL    HW240163   1.428   4.882   4.792  0.8696  0.1392 -1.1625
12908SOL     OW40164   1.323   5.327   9.450  0.1537 -0.0060  0.1273
12908SOL    HW140165   1.270   5.401   9.481  2.1114  1.9966 -1.0297
12908SOL    HW240166   1.406   5.337   9.495 -0.0242 -2.5254  1.1754
12909SOL     OW40167   0.783   1.223   3.477 -0.3330 -0.5884 -0.3809
12909SOL    HW140168   0.865   1.200   3.433 -0.5104  1.7651 -2.1730
12909SOL    HW240169   0.793   1.316   3.498 -1.8453 -0.7029  1.0221
12910SOL     OW40170   7.445   7.359   2.402 -0.3104 -0.1115  0.3904
12910SOL    HW140171   7.442   7.301   2.478  0.9361 -1.0778 -0.2454
12910SOL    HW240172   7.366   7.338   2.353 -2.5492  2.3995  2.6342
12911SOL     OW40173   3.449   6.385   1.364 -0.4857  0.1977  0.2586
12911SOL    HW140174   3.474   6.465   1.318  1.6430 -0.4309  0.2197
12911SOL    HW240175   3.367   6.358   1.323  0.9410  0.0484 -2.7783
12912SOL     OW40176   3.694   0.589  11.686  0.5392  0.5220  0.2590
12912SOL    HW140177   3.721   0.672  11.725 -1.0532  0.1538  2.3274
12912SOL    HW240178   3.728   0.522  11.746 -1.4640 -0.1059  0.7668
12913SOL     OW40179   3.516   6.042   9.854  0.5375 -0.4307 -0.1474
12913SOL    HW140180   3.484   5.985   9.924 -0.9404  1.0072  0.4058
12913SOL    HW240181   3.544   6.122   9.898 -3.1608  1.7088 -1.2774
12914SOL     OW40182   3.577   6.202   4.598 -0.1590  0.4956  0.4600
12914SOL    HW140183   3.653   6.157   4.561 -1.4054 -1.5143  0.1922
12914SOL    HW240184   3.512   6.200   4.528 -1.4531 -0.4861  1.6197
12915SOL     OW40185   1.500   2.318   4.804 -1.0102 -0.6756 -0.1994
12915SOL    HW140186   1.547   2.235   4.810 -1.5051 -0.9478 -0.0694
12915SOL    HW240187   1.472   2.336   4.894 -2.3201 -1.1913 -0.4958
12916SOL     OW40188   1.534   0.126  11.307  0.2421 -0.2724  0.3327
12916SOL    HW140189   1.559   0.219  11.315 -0.6041 -0.0400  0.3503
12916SOL    HW240190   1.533   0.110  11.213  0.7079 -0.3555  0.3399
12917SOL     OW40191   5.300   2.739   6.684  0.0889  0.1905 -0.3956
12917SOL    HW140192   5.370   2.717   6.623  0.0906 -0.1745 -0.2620
12917SOL    HW240193   5.343   2.788   6.753  0.4863 -1.2937  0.4506
12918SOL     OW40194   7.214   1.667   3.076 -0.2115  0.0946 -0.3466
12918SOL    HW140195   7.307   1.687   3.076  0.1705 -1.4708  1.1757
12918SOL    HW240196   7.182   1.699   2.991  1.9568 -0.5062 -1.4529
12919SOL     OW40197   2.038   0.128   1.988  0.2240 -0.5606 -0.0607
12919SOL    HW140198   2.006   0.216   2.008 -1.0717 -1.0670  0.2167
12919SOL    HW240199   1.961   0.072   1.998  0.5470 -1.4705 -2.1267
12920SOL     OW40200   2.487   5.114   4.919  0.1088  0.3516 -0.1951
12920SOL    HW140201   2.568   5.068   4.940  0.8355  1.9203  0.6156
12920SOL    HW240202   2.434   5.107   4.999  0.0556  0.5566 -0.2114
12921SOL     OW40203   7.631   7.055  10.812  0.5022  0.9380 -0.4472
12921SOL    HW140204   7.542   7.084  10.794 -0.2249 -1.0352 -0.3245
12921SOL    HW240205   7.642   7.066  10.907 -1.2061 -2.5956  0.3263
12922SOL     OW40206   6.568   4.460   8.019 -0.3544  0.0514 -0.5504
12922SOL    HW140207   6.587   4.427   8.107 -2.4460  1.4172  0.4971
12922SOL    HW240208   6.473   4.452   8.011 -0.5659  2.6548 -1.4947
12923SOL     OW40209   6.505   0.715  12.115  0.1025  0.4649  0.4879
12923SOL    HW140210   6.487   0.801  12.079 -1.6380 -0.2326 -0.4145
12923SOL    HW240211   6.597   0.700  12.096 -0.0416  1.3314 -1.0896
12924SOL     OW40212   2.384   3.531   3.582  0.2378  0.0550 -0.2862
12924SOL    HW140213   2.440   3.456   3.600  0.8888  0.5298 -0.2643
12924SOL    HW240214   2.443   3.596   3.544 -0.6487 -0.0677 -1.9389
12925SOL     OW40215   1.470   4.996   6.016  0.1608  0.1423 -0.3265
12925SOL    HW140216   1.471   5.079   6.062 -0.7152 -0.5284  0.9933
12925SOL    HW240217   1.382   4.990   5.980 -0.3995 -0.9334  1.0848
12926SOL     OW40218   3.253   6.048  12.064 -0.2405 -0.5473 -0.0486
12926SOL    HW140219   3.244   6.131  12.111  0.8878 -1.1509  1.3310
12926SOL    HW240220   3.231   5.982  12.130  0.8770 -1.4016 -0.5020
12927SOL     OW40221   1.121   2.793   4.774 -0.3000  0.2188 -0.0015
12927SOL    HW140222   1.128   2.697   4.777 -0.7819  0.1910  0.5997
12927SOL    HW240223   1.211   2.824   4.774 -0.0854 -0.2060  2.0821
12928SOL     OW40224   5.400   7.835  10.030 -0.3547 -0.6732 -0.5699
12928SOL    HW140225   5.338   7.763  10.043  0.2702 -1.0299  0.6593
12928SOL    HW240226   5.417   7.867  10.118 -0.8109  1.1789 -1.1160
12929SOL     OW40227   7.900   0.599   0.385  0.0608  0.2343  0.2181
12929SOL    HW140228   7.828   0.540   0.365  0.7621 -0.0827 -1.5367
12929SOL    HW240229   7.961   0.547   0.436 -0.1107 -0.0300  0.1532
12930SOL     OW40230   2.997   7.022   3.514  0.1302  0.8568 -0.1773
12930SOL    HW140231   2.955   6.943   3.549  0.3825  0.8620  0.1430
12930SOL    HW240232   3.057   7.050   3.584 -0.3929  1.6658 -0.0367
12931SOL     OW40233   1.147   5.314   8.567  0.5544  0.3615 -0.0493
12931SOL    HW140234   1.232   5.301   8.525  0.3022  0.2758 -0.5452
12931SOL    HW240235   1.164   5.378   8.636  1.0157  0.3620 -0.1569
12932SOL     OW40236   5.805   5.535   3.342  0.3063  0.7485 -0.6574
12932SOL    HW140237   5.830   5.537   3.434  0.6723  1.0557 -0.7604
12932SOL    HW240238   5.726   5.589   3.337 -1.6619 -1.8313  0.0239
12933SOL     OW40239   4.883   5.659   4.957  0.8642 -0.0247  0.6314
12933SOL    HW140240   4.968   5.618   4.944  0.5653 -0.0746 -1.7151
12933SOL    HW240241   4.830   5.591   4.999  1.7432 -0.2553  1.3979
12934SOL     OW40242   0.850   6.649   4.199 -0.0577  0.1682 -0.0668
12934SOL    HW140243   0.863   6.635   4.105 -1.1040  0.8837 -0.3436
12934SOL    HW240244   0.829   6.562   4.234  2.5448 -0.5266 -0.0510
12935SOL     OW40245   2.895   5.995   0.494 -0.0228 -0.0516 -0.1007
12935SOL    HW140246   2.955   5.959   0.558 -1.3805 -2.0204  0.1465
12935SOL    HW240247   2.899   5.935   0.420 -1.5845 -0.2132 -0.1001
12936SOL     OW40248   0.214   6.525   5.747  0.0009 -0.7430  0.2160
12936SOL    HW140249   0.165   6.512   5.665 -1.5071  0.3126  0.9019
12936SOL    HW240250   0.174   6.464   5.809 -0.5752  0.2043  0.8116
12937SOL     OW40251   7.596   2.617   0.834 -0.1160  0.0077  0.3837
12937SOL    HW140252   7.573   2.647   0.746  1.3704  1.8897  0.5583
12937SOL    HW240253   7.626   2.527   0.822 -1.8944 -0.4786 -0.6758
12938SOL     OW40254   5.479   6.600  10.084  0.3471  0.6290 -0.1209
12938SOL    HW140255   5.511   6.533  10.145 -0.5767 -2.7118 -2.9516
12938SOL    HW240256   5.558   6.643  10.052  1.3655 -1.5324 -0.6843
12939SOL     OW40257   0.764   1.046   8.627 -0.0257  0.0710 -0.3679
12939SOL    HW140258   0.771   1.038   8.722  1.3299  2.1820 -0.2137
12939SOL    HW240259   0.838   0.995   8.594  1.9763  2.5131  0.0105
12940SOL     OW40260   3.178   3.356   0.747  0.2357  0.1204 -0.2759
12940SOL    HW140261   3.123   3.419   0.702  1.2623  0.1753 -1.5304
12940SOL    HW240262   3.196   3.396   0.832 -0.5570  0.7024 -0.3724
12941SOL     OW40263   7.088   2.365   2.874  0.3272  0.3187  0.0208
12941SOL    HW140264   7.164   2.310   2.890  0.1568 -0.2910 -1.1275
12941SOL    HW240265   7.109   2.448   2.917  1.1598 -0.2037  0.6508
12942SOL     OW40266   1.290   0.109   9.012  0.0318  1.4286 -0.1890
12942SOL    HW140267   1.289   0.016   9.036 -0.5621  1.4514 -0.1150
12942SOL    HW240268   1.330   0.152   9.087 -1.1368  1.4091  0.4744
12943SOL     OW40269   7.498   4.754   7.925 -0.1166  0.1995 -0.7001
12943SOL    HW140270   7.466   4.832   7.878 -3.2868  0.0116  0.8984
12943SOL    HW240271   7.454   4.681   7.882 -0.1086 -0.3292  0.1771
12944SOL     OW40272   1.405   4.043  10.234  0.1370  0.4534 -0.6590
12944SOL    HW140273   1.429   4.134  10.251  1.0780 -0.0531  0.9960
12944SOL    HW240274   1.488   3.995  10.240 -0.7467 -0.9688  2.2015
12945SOL     OW40275   5.604   0.946   2.576 -0.1868 -0.2114 -0.4835
12945SOL    HW140276   5.521   0.988   2.597  1.8870  2.5525  3.3997
12945SOL    HW240277   5.638   0.996   2.502  0.4564  2.6842  1.5991
12946SOL     OW40278   7.530   2.838   3.417  0.4160 -0.6437  0.0845
12946SOL    HW140279   7.619   2.853   3.384 -0.2870  1.5272 -1.0138
12946SOL    HW240280   7.475   2.836   3.338 -0.7394 -0.1131  0.8422
12947SOL     OW40281   1.159   1.825   5.312  0.7302  0.5219  0.3220
12947SOL    HW140282   1.066   1.821   5.292  0.5121  3.0419  0.6203
12947SOL    HW240283   1.192   1.897   5.260  2.5410 -0.3005  0.2562
12948SOL     OW40284   7.861   6.394   1.125 -0.3232 -0.2166  0.2114
12948SOL    HW140285   7.895   6.474   1.164  3.5820 -1.0187 -1.1714
12948SOL    HW240286   7.904   6.323   1.173 -0.3103 -1.3520 -1.4027
12949SOL     OW40287   2.563   6.859   9.867  0.2588  0.3965  0.9263
12949SOL    HW140288   2.473   6.827   9.869  0.3512  0.0582  0.1658
12949SOL    HW240289   2.591   6.859   9.959  0.0394 -1.1504  1.0310
12950SOL     OW40290   2.942   1.605   5.239  0.0722  0.5514  0.4894
12950SOL    HW140291   2.895   1.568   5.165 -0.7673  1.0571  0.7586
12950SOL    HW240292   2.973   1.529   5.288 -0.3375  0.2100  0.2252
12951SOL     OW40293   1.251   3.108   7.907 -0.0714  0.2883 -0.3048
12951SOL    HW140294   1.168   3.065   7.926 -1.0906  1.7947 -1.2121
12951SOL    HW240295   1.289   3.127   7.993 -1.8321  1.7783  0.1855
12952SOL     OW40296   6.415   1.092   0.722  0.1876  0.0814 -0.2620
12952SOL    HW140297   6.459   1.168   0.760  3.3865 -2.3768  1.3997
12952SOL    HW240298   6.432   1.098   0.628  2.1739  0.4176  0.0910
12953SOL     OW40299   5.781   5.423   9.136  0.2310 -0.4521  0.0137
12953SOL    HW140300   5.853   5.452   9.191 -1.2839  0.6775  1.4920
12953SOL    HW240301   5.715   5.390   9.197 -0.8687 -0.6618 -1.2305
12954SOL     OW40302   5.879   6.299   4.863 -0.2527 -0.3487  0.1056
12954SOL    HW140303   5.870   6.204   4.875 -0.8316 -0.2754  0.2427
12954SOL    HW240304   5.793   6.335   4.882  0.1612  0.2901  0.8424
12955SOL     OW40305   1.869   4.137  12.342  0.0933 -0.8509 -0.1293
12955SOL    HW140306   1.921   4.155  12.264  0.9805 -0.6534  0.4911
12955SOL    HW240307   1.803   4.206  12.343 -0.9010 -1.7425 -1.5200
12956SOL     OW40308   0.089   2.527  10.322 -0.1824 -0.9727  0.7649
12956SOL    HW140309   0.057   2.439  10.303  0.6479 -1.0682 -0.2968
12956SOL    HW240310   0.157   2.515  10.388  0.4788 -1.2390  0.0552
12957SOL     OW40311   3.514   1.918   7.652 -0.0536  0.3390 -0.1113
12957SOL    HW140312   3.609   1.930   7.647 -0.0713  0.4388 -0.2079
12957SOL    HW240313   3.503   1.827   7.681  0.0816  0.6144  0.8450
12958SOL     OW40314   2.990   2.561   6.722 -0.1940  0.1120 -0.2671
12958SOL    HW140315   2.909   2.510   6.719 -0.4438  0.3915  1.0542
12958SOL    HW240316   2.988   2.605   6.807  1.1489  0.4568 -0.3806
12959SOL     OW40317   6.930   1.813   9.587 -0.4236  0.1205  0.1111
12959SOL    HW140318   6.862   1.772   9.533  0.0930 -1.0824  0.3439
12959SOL    HW240319   6.974   1.740   9.630  0.3893  0.9454  0.7284
12960SOL     OW40320   4.436   4.080   6.299  0.1406 -0.1205  0.1916
12960SOL    HW140321   4.468   4.116   6.216 -1.8243  0.5026 -0.3391
12960SOL    HW240322   4.396   3.996   6.276 -0.5910  0.1462  0.4535
12961SOL     OW40323   6.036   7.727   1.506  0.2669 -0.0031 -0.3532
12961SOL    HW140324   6.130   7.708   1.508  0.6482  1.6629 -0.5193
12961SOL    HW240325   6.028   7.802   1.446 -1.4546 -1.4206 -2.0483
12962SOL     OW40326   7.814   5.292   7.234  0.3939  0.3468 -0.1554
12962SOL    HW140327   7.854   5.325   7.314 -1.0629  1.1326  0.2983
12962SOL    HW240328   7.814   5.367   7.175 -1.3067  0.7129  0.2401
12963SOL     OW40329   2.818   5.389   9.491 -0.0110  0.1242  0.2849
12963SOL    HW140330   2.905   5.392   9.452  0.4103  1.3459  1.2595
12963SOL    HW240331   2.770   5.326   9.438  1.2195  0.0453 -0.7702
12964SOL     OW40332   0.825   2.874   1.371 -0.1564  0.7463  0.0586
12964SOL    HW140333   0.860   2.825   1.446 -1.1354 -0.5354 -0.2743
12964SOL    HW240334   0.866   2.834   1.295  0.5317  1.7822 -0.1347
12965SOL     OW40335   6.220   0.633  11.430 -0.0571  0.5322 -0.3116
12965SOL    HW140336   6.304   0.623  11.384  1.2910 -1.4165  2.3043
12965SOL    HW240337   6.232   0.711  11.484  0.3540 -0.0654  0.4903
12966SOL     OW40338   5.648   7.617   0.062  0.6607 -0.3517 -0.2961
12966SOL    HW140339   5.666   7.524   0.047  0.3146 -0.7205  1.3042
12966SOL    HW240340   5.556   7.627   0.037  0.6209 -0.5091 -0.2173
12967SOL     OW40341   7.441   0.601  10.062  0.4560 -0.3711  0.0648
12967SOL    HW140342   7.531   0.582  10.090  0.3301 -3.1397 -1.0706
12967SOL    HW240343   7.442   0.590   9.967 -1.3194 -1.8149  0.1537
12968SOL     OW40344   3.316   4.372   6.901  0.2737 -0.4154 -0.8318
12968SOL    HW140345   3.365   4.334   6.974 -1.3931 -0.2351  0.4441
12968SOL    HW240346   3.339   4.465   6.904 -2.0550  0.2151  1.5088
12969SOL     OW40347   3.229   0.523  11.814 -0.6060  0.1196  0.4375
12969SOL    HW140348   3.284   0.544  11.738 -1.3810  0.5079 -0.0239
12969SOL    HW240349   3.288   0.478  11.874  0.2766  0.7031  0.0352
12970SOL     OW40350   0.407   3.784  11.012 -0.4134  0.6783  0.0921
12970SOL    HW140351   0.501   3.771  11.027 -0.0282  0.2607 -2.3336
12970SOL    HW240352   0.403   3.860  10.954 -1.7151  1.6160  1.3439
12971SOL     OW40353   2.041   7.420   2.528  0.3661  0.1391 -0.2627
12971SOL    HW140354   2.077   7.508   2.541 -0.3903  0.2817  1.1147
12971SOL    HW240355   2.114   7.362   2.545  0.1137  0.4317  2.2580
12972SOL     OW40356   5.294   1.039  11.438 -0.1578  0.6714  0.1740
12972SOL    HW140357   5.251   1.037  11.524  0.0038 -0.2238  0.2461
12972SOL    HW240358   5.335   1.125  11.434  0.9856  0.2298  1.5794
12973SOL     OW40359   3.779   2.016   9.726  0.0696  0.1850  0.0979
12973SOL    HW140360   3.825   2.053   9.801  0.8835 -1.2147  0.3289
12973SOL    HW240361   3.718   1.953   9.764 -0.0558  0.0093 -0.3843
12974SOL     OW40362   3.323   6.629   1.055 -0.2376 -0.5820 -0.3940
12974SOL    HW140363   3.390   6.680   1.100 -2.8695  1.4034  1.6000
12974SOL    HW240364   3.329   6.658   0.964  0.2833  1.1447  0.1491
12975SOL     OW40365   4.658   7.338   6.835 -0.5286 -0.1789 -0.6095
12975SOL    HW140366   4.598   7.333   6.760 -1.7098 -0.0969  0.2920
12975SOL    HW240367   4.600   7.353   6.910  0.8059  2.6737 -0.0161
12976SOL     OW40368   1.058   1.724   2.505 -0.5725  0.1092 -0.6887
12976SOL    HW140369   1.066   1.702   2.412 -3.2573 -0.1806 -0.9323
12976SOL    HW240370   0.982   1.674   2.535 -0.8798  1.5978  1.2133
12977SOL     OW40371   1.032   6.382   5.956  0.3274  0.6100  0.7882
12977SOL    HW140372   1.095   6.326   6.001  0.2573  0.7401  1.0529
12977SOL    HW240373   1.072   6.401   5.871  0.0628 -0.3750  0.4288
12978SOL     OW40374   1.641   1.913   1.742 -0.1606  0.0960  0.1093
12978SOL    HW140375   1.588   1.992   1.732  1.1201  1.0894  0.7499
12978SOL    HW240376   1.690   1.928   1.823  0.6858 -1.0174 -0.1746
12979SOL     OW40377   0.293   1.264   5.213 -0.5144  0.8209 -0.2371
12979SOL    HW140378   0.224   1.329   5.227 -1.5278 -0.0737 -0.9179
12979SOL    HW240379   0.285   1.205   5.288 -1.2058  0.1129 -0.8561
12980SOL     OW40380   5.512   6.792  12.477  0.1071 -0.3400 -0.7308
12980SOL    HW140381   5.537   6.707  12.513  0.9353  0.2324  0.0958
12980SOL    HW240382   5.507   6.851  12.553  0.7866  0.6286 -1.3964
12981SOL     OW40383   2.794   2.337   8.297 -0.2551  0.6847  0.4476
12981SOL    HW140384   2.854   2.408   8.274 -0.6171  0.4754 -1.2892
12981SOL    HW240385   2.712   2.380   8.319 -0.8813  0.8119 -1.9027
12982SOL     OW40386   5.261   7.044   7.511 -0.0089  0.3539 -0.4215
12982SOL    HW140387   5.235   7.113   7.449  0.4236  0.5541 -0.3792
12982SOL    HW240388   5.355   7.033   7.497 -0.1980 -0.7567 -0.9619
12983SOL     OW40389   0.529   4.720   4.494 -0.3035  0.0432  0.4159
12983SOL    HW140390   0.454   4.695   4.440 -0.1140 -0.1847  0.2569
12983SOL    HW240391   0.542   4.646   4.553 -0.5948  0.3497  0.8721
12984SOL     OW40392   3.098   6.905   1.550 -0.2219  0.2594 -0.7249
12984SOL    HW140393   3.108   6.987   1.597 -2.0093  0.0774  0.0538
12984SOL    HW240394   3.148   6.842   1.601 -0.1764  0.5456 -0.4149
12985SOL     OW40395   1.947   4.073   0.908  0.0367 -0.4742 -0.7250
12985SOL    HW140396   1.885   4.115   0.967 -1.4997 -1.4967 -1.5511
12985SOL    HW240397   1.893   4.038   0.836  1.2143 -3.3799 -0.3641
12986SOL     OW40398   4.826   3.396   2.445  0.0606 -0.4147 -0.1016
12986SOL    HW140399   4.833   3.446   2.363  1.8488 -1.1347 -0.4454
12986SOL    HW240400   4.733   3.379   2.455 -0.1886 -0.6084 -2.2069
12987SOL     OW40401   7.939   7.834   1.100  0.8222  0.1196  0.1216
12987SOL    HW140402   7.997   7.872   1.034  2.7372 -2.0337  0.4346
12987SOL    HW240403   7.980   7.854   1.184  2.1339 -2.7268  0.2859
12988SOL     OW40404   1.767   3.910   3.117  0.0004  0.1427 -0.0915
12988SOL    HW140405   1.816   3.829   3.129 -0.8815 -0.7903 -2.1088
12988SOL    HW240406   1.683   3.893   3.160  0.9268  1.2616  2.2757
12989SOL     OW40407   7.468   0.212  11.850 -0.3634 -0.1729 -0.5637
12989SOL    HW140408   7.502   0.207  11.940 -1.8319 -0.1398  0.0209
12989SOL    HW240409   7.417   0.131  11.839 -1.3223  0.4514 -0.8672
12990SOL     OW40410   0.162   1.313   0.380 -0.0785  0.2730 -0.2481
12990SOL    HW140411   0.157   1.384   0.316 -2.1553 -0.0724 -0.5391
12990SOL    HW240412   0.131   1.236   0.332  1.8326 -0.7980  0.1515
12991SOL     OW40413   3.888   7.569   2.434  0.0780 -0.4433  0.5298
12991SOL    HW140414   3.826   7.639   2.417 -0.4198 -0.9512  0.2385
12991SOL    HW240415   3.973   7.606   2.411 -0.3241 -0.3677 -0.9077
12992SOL     OW40416   4.175   6.033   3.969 -0.2239 -0.0916 -0.4360
12992SOL    HW140417   4.242   6.101   3.968 -0.9118  0.5885 -1.8074
12992SOL    HW240418   4.209   5.966   3.909  0.5426 -1.1002  1.0494
12993SOL     OW40419   5.914   2.478   0.488 -0.2865  0.4931  0.2110
12993SOL    HW140420   5.858   2.483   0.411 -1.7711  0.3814  1.2452
12993SOL    HW240421   5.935   2.570   0.508  1.0250  0.4748 -0.9352
12994SOL     OW40422   1.521   0.901   4.653 -0.0996 -0.4185  0.1997
12994SOL    HW140423   1.508   0.814   4.617 -0.8120 -0.0543 -0.4490
12994SOL    HW240424   1.534   0.957   4.576  0.4093  0.0412  0.6116
12995SOL     OW40425   1.146   2.501   8.414 -0.4245 -0.0236 -0.1269
12995SOL    HW140426   1.153   2.519   8.508 -0.0421 -1.2368  0.1008
12995SOL    HW240427   1.236   2.490   8.385 -0.4525  1.5613 -0.9250
12996SOL     OW40428   5.862   2.969   2.401 -0.1965 -0.0641  0.3479
12996SOL    HW140429   5.858   3.060   2.427 -0.9130  0.0250 -0.0376
12996SOL    HW240430   5.771   2.938   2.405 -0.0001 -0.6854  0.2378
12997SOL     OW40431   5.709   5.830   9.332  0.1169  0.3992  0.1268
12997SOL    HW140432   5.735   5.840   9.423 -1.0210 -0.5500  0.5795
12997SOL    HW240433   5.789   5.844   9.282  0.4756  2.3948  1.1627
12998SOL     OW40434   1.255   3.871  12.449 -0.4431  0.0700 -0.0842
12998SOL    HW140435   1.268   3.851  12.356 -2.1403  1.7743 -0.7660
12998SOL    HW240436   1.200   3.949  12.448 -0.3587  0.2095  2.3800
12999SOL     OW40437   4.130   6.844   9.256 -0.7016 -0.4992  0.6045
12999SOL    HW140438   4.153   6.816   9.345 -1.0445 -0.9244  0.5584
12999SOL    HW240439   4.043   6.809   9.241 -1.2913  0.9002  0.6733
13000SOL     OW40440   4.273   6.877   6.222  0.3202 -0.4459  0.7925
13000SOL    HW140441   4.258   6.879   6.317 -1.8772 -1.6887  0.5231
13000SOL    HW240442   4.216   6.945   6.187 -0.0074 -1.0028  0.2335
13001SOL     OW40443   6.060   0.727   7.224  0.3188 -0.1425 -0.1748
13001SOL    HW140444   6.109   0.782   7.164 -1.1523  1.9205  0.4139
13001SOL    HW240445   5.980   0.704   7.176 -1.3253  2.3140  1.1683
13002SOL     OW40446   7.320   5.184  11.760  0.3979 -0.0267 -0.3548
13002SOL    HW140447   7.328   5.274  11.790  0.4834 -0.5808  1.3652
13002SOL    HW240448   7.409   5.151  11.756  0.4906  0.3294 -2.3008
13003SOL     OW40449   6.711   3.897   6.077  0.1131 -1.0936  0.2810
13003SOL    HW140450   6.707   3.930   6.167 -1.8897  1.8234 -0.7494
13003SOL    HW240451   6.633   3.842   6.068 -0.4118 -0.3210 -0.0047
13004SOL     OW40452   1.751   7.801   5.914  0.2471  0.3837 -0.2343
13004SOL    HW140453   1.797   7.798   5.830  1.4352 -1.3780  0.4318
13004SOL    HW240454   1.723   7.711   5.930 -1.8151  1.0540  0.3177
13005SOL     OW40455   1.397   3.292   6.848  0.1523 -0.4336 -0.1604
13005SOL    HW140456   1.304   3.269   6.841 -0.1134 -0.2025  1.9130
13005SOL    HW240457   1.406   3.373   6.799 -0.8393 -0.2336 -0.0244
13006SOL     OW40458   5.784   4.711   1.342  0.1930 -0.0612 -1.0061
13006SOL    HW140459   5.761   4.788   1.289 -0.2613 -0.3500 -1.2341
13006SOL    HW240460   5.701   4.667   1.357  0.1773  0.4798  0.6983
13007SOL     OW40461   4.987   4.637   0.881 -0.5945 -0.2606 -0.3738
13007SOL    HW140462   4.997   4.542   0.872  0.6366 -0.2126  0.2602
13007SOL    HW240463   5.056   4.674   0.826 -0.2831  0.2324  0.3273
13008SOL     OW40464   0.448   5.709   0.283 -0.7138 -0.7479 -0.0691
13008SOL    HW140465   0.504   5.767   0.334 -0.5589  0.0095 -1.0713
13008SOL    HW240466   0.435   5.632   0.339  0.7377 -0.6308  0.4563
13009SOL     OW40467   2.711   0.082  10.080  0.1596  0.7533  0.0922
13009SOL    HW140468   2.656   0.028  10.136  0.3401  0.5896  0.1148
13009SOL    HW240469   2.663   0.088   9.998 -0.0839  0.9550  0.2484
13010SOL     OW40470   0.323   4.664   7.728 -0.1979  0.4237  0.0696
13010SOL    HW140471   0.408   4.620   7.722 -0.2902  0.1968  0.4095
13010SOL    HW240472   0.327   4.711   7.811 -0.0696  1.1254 -0.3269
13011SOL     OW40473   0.390   6.638   0.859 -0.4493  0.5109  0.3517
13011SOL    HW140474   0.313   6.585   0.880 -1.9529  2.7364  0.7310
13011SOL    HW240475   0.361   6.729   0.866  2.0597  1.4566 -0.1112
13012SOL     OW40476   2.118   1.489   4.639  0.1932  0.2287  0.5206
13012SOL    HW140477   2.098   1.559   4.578 -0.2872  1.2720  1.8221
13012SOL    HW240478   2.154   1.533   4.716  1.8671 -1.1289  0.5907
13013SOL     OW40479   0.654   1.648  11.205 -0.2760 -0.1531 -0.3604
13013SOL    HW140480   0.734   1.700  11.196 -1.7472  2.5449  0.9386
13013SOL    HW240481   0.681   1.571  11.253  1.8165 -0.1047 -1.3616
13014SOL     OW40482   3.346   4.869   8.602 -0.2095 -0.1446 -0.3981
13014SOL    HW140483   3.318   4.948   8.647 -0.8238 -0.8725  0.5192
13014SOL    HW240484   3.325   4.885   8.510 -1.2147  0.3770 -0.0835
13015SOL     OW40485   5.973   6.455   3.933  0.0993 -0.2884  0.0771
13015SOL    HW140486   5.962   6.360   3.939  0.0241 -0.2524  0.5850
13015SOL    HW240487   5.897   6.491   3.979  0.7034 -0.0021  0.8905
13016SOL     OW40488   0.394   5.590  11.085 -0.3743 -0.5526  0.1668
13016SOL    HW140489   0.441   5.522  11.134 -0.4374 -0.1734  0.7569
13016SOL    HW240490   0.301   5.573  11.103 -0.3557  0.1595  0.9355
13017SOL     OW40491   0.565   3.446   9.327  0.0660  0.2644  0.2340
13017SOL    HW140492   0.595   3.509   9.392 -1.2484 -0.7269  1.9083
13017SOL    HW240493   0.473   3.466   9.314 -0.6474 -1.8089  1.5409
13018SOL     OW40494   0.254   2.545   6.779  0.1066  0.0639  0.3948
13018SOL    HW140495   0.237   2.461   6.820  0.6609 -0.3657 -0.2312
13018SOL    HW240496   0.175   2.563   6.728 -0.0541 -0.0289  0.6103
13019SOL     OW40497   4.376   0.227   1.322 -0.2468 -0.2210 -0.3050
13019SOL    HW140498   4.443   0.269   1.268 -1.1681  0.0266 -1.2741
13019SOL    HW240499   4.330   0.300   1.364  0.8288 -0.4181  1.3161
13020SOL     OW40500   0.813   4.733   0.046  0.2182  0.0441 -0.1700
13020SOL    HW140501   0.844   4.774   0.127  0.3386  1.4317 -0.8829
13020SOL    HW240502   0.800   4.806  -0.014  0.6111 -0.9953 -1.5681
13021SOL     OW40503   0.251   6.815   9.372  0.1978  0.8406 -0.1483
13021SOL    HW140504   0.299   6.836   9.292 -0.8561 -0.2055 -1.0894
13021SOL    HW240505   0.311   6.758   9.421  1.1118  2.0198  0.1508
13022SOL     OW40506   7.935   2.065   9.868  0.0957  0.3530  0.0812
13022SOL    HW140507   7.942   2.035   9.959  0.7235  0.3782  0.0437
13022SOL    HW240508   8.001   2.134   9.860 -0.3407  0.7428 -0.2412
13023SOL     OW40509   1.073   5.377  12.019  0.6416 -0.2982  0.2728
13023SOL    HW140510   1.122   5.296  12.009 -0.5498 -0.9406 -0.5694
13023SOL    HW240511   1.026   5.387  11.937 -0.7805  0.1863  1.1120
13024SOL     OW40512   7.402   4.024   9.555 -0.0596 -0.0267 -0.3147
13024SOL    HW140513   7.318   4.041   9.598  0.3429 -0.5243  0.6799
13024SOL    HW240514   7.438   3.948   9.601  0.5981 -0.2786 -1.2235
13025SOL     OW40515   5.334   3.122   3.240  0.0827  0.0909 -0.0800
13025SOL    HW140516   5.397   3.190   3.265  0.0149  0.1601 -0.0977
13025SOL    HW240517   5.387   3.052   3.203  0.0247  0.9111 -1.8496
13026SOL     OW40518   4.613   0.997   7.538 -0.1942  0.1992 -0.4660
13026SOL    HW140519   4.636   0.930   7.473  1.9816  1.3743 -1.0039
13026SOL    HW240520   4.554   1.056   7.493 -0.5453 -0.2710 -0.6233
13027SOL     OW40521   2.447   7.117   3.462 -0.1636  0.4638  0.1081
13027SOL    HW140522   2.542   7.116   3.451 -0.1727  0.2996  0.0322
13027SOL    HW240523   2.433   7.135   3.555 -0.0332 -0.5261  0.3356
13028SOL     OW40524   6.832   7.039  12.122  0.4017 -0.2262  0.3523
13028SOL    HW140525   6.777   6.963  12.138  0.9452 -0.3593  1.6953
13028SOL    HW240526   6.812   7.064  12.032  1.1194 -2.7165 -0.5845
13029SOL     OW40527   2.210   6.330   3.587 -0.3551  0.4100  0.2479
13029SOL    HW140528   2.258   6.248   3.576  0.2083  0.6043  1.1962
13029SOL    HW240529   2.123   6.304   3.616  0.3578  0.1884  2.3261
13030SOL     OW40530   5.146   6.762   6.989 -0.9027 -0.5803 -0.0444
13030SOL    HW140531   5.116   6.809   7.066  0.7213 -0.1246  0.3520
13030SOL    HW240532   5.122   6.819   6.915  0.1705  0.4433  0.3613
13031SOL     OW40533   7.499   2.243   3.344 -0.4306  0.0123  0.0027
13031SOL    HW140534   7.432   2.214   3.282 -0.3541  0.9642 -0.5400
13031SOL    HW240535   7.452   2.255   3.427 -1.2967  2.1144 -0.7143
13032SOL     OW40536   3.110   1.877  11.135 -0.2037 -0.2499  0.2080
13032SOL    HW140537   3.078   1.940  11.200 -0.9384 -1.8548  1.4938
13032SOL    HW240538   3.074   1.908  11.052 -0.6942  0.9069  0.8259
13033SOL     OW40539   5.293   7.984   6.690  0.3757 -0.3624 -0.5759
13033SOL    HW140540   5.263   8.021   6.773 -1.1219 -1.1328 -0.7429
13033SOL    HW240541   5.213   7.957   6.645  1.1685 -0.1305 -2.2032
13034SOL     OW40542   5.597   5.993   9.952 -0.6609  0.1790 -0.2795
13034SOL    HW140543   5.563   5.932   9.887 -1.9666  1.7622 -1.1404
13034SOL    HW240544   5.529   6.060   9.961 -0.6030 -0.0464  2.8618
13035SOL     OW40545   2.167   1.002   0.746 -0.3185  0.6335  0.7409
13035SOL    HW140546   2.147   0.934   0.811  0.6435  1.4544  1.9389
13035SOL    HW240547   2.139   0.964   0.663  0.0657 -1.1867  1.3945
13036SOL     OW40548   5.298   2.990  11.200 -0.0427  0.2916  0.0497
13036SOL    HW140549   5.389   2.992  11.169 -0.2637  0.8629 -0.5931
13036SOL    HW240550   5.305   2.987  11.295  0.6536  0.4878  0.0100
13037SOL     OW40551   3.493   0.053  10.032  0.0995 -0.2799  0.2535
13037SOL    HW140552   3.469  -0.020   9.975 -0.0730 -0.0112 -0.0232
13037SOL    HW240553   3.432   0.123  10.007 -1.8548 -1.0057  2.6328
13038SOL     OW40554   4.928   2.358  10.365  0.2878 -0.1334 -0.4341
13038SOL    HW140555   5.023   2.350  10.366  0.4823  1.5162  1.3513
13038SOL    HW240556   4.910   2.426  10.300  0.6901  1.9184  1.4541
13039SOL     OW40557   6.703   5.380   9.805  0.0845 -0.0410  0.2103
13039SOL    HW140558   6.612   5.408   9.794 -0.4046 -0.8368  1.9560
13039SOL    HW240559   6.733   5.361   9.716 -1.6402 -0.3426 -0.3380
13040SOL     OW40560   5.820   2.731   9.229  0.3840  0.1394  0.4109
13040SOL    HW140561   5.853   2.697   9.146  0.7992  0.2558  0.5251
13040SOL    HW240562   5.778   2.656   9.271  0.6783 -0.0601  0.3481
13041SOL     OW40563   7.059   2.482   6.515 -0.1740 -0.5894 -0.4942
13041SOL    HW140564   7.090   2.394   6.493  0.0260 -0.0618 -2.5187
13041SOL    HW240565   7.137   2.536   6.514 -0.2895 -0.3833  0.8069
13042SOL     OW40566   7.644   3.318  10.104 -0.1995 -0.0268  0.2261
13042SOL    HW140567   7.643   3.236  10.054  1.6540 -0.0226  0.1058
13042SOL    HW240568   7.613   3.384  10.042  0.9745 -0.2137 -0.6067
13043SOL     OW40569   5.887   0.257   9.197  0.3450  0.0512 -0.0697
13043SOL    HW140570   5.903   0.163   9.211 -0.5143 -0.4320 -1.9528
13043SOL    HW240571   5.953   0.283   9.132  1.2480  1.0511  1.1854
13044SOL     OW40572   7.495   7.030   4.427 -0.0585 -0.0771 -0.0576
13044SOL    HW140573   7.490   7.089   4.352 -0.7888 -1.1854 -0.9042
13044SOL    HW240574   7.463   7.083   4.501 -3.9472 -0.2850 -1.3534
13045SOL     OW40575   5.396   2.646  10.716  0.3413  0.1580  0.1793
13045SOL    HW140576   5.484   2.664  10.749  0.6066 -0.0866 -0.3951
13045SOL    HW240577   5.340   2.707  10.765  0.5443 -1.0550  1.9966
13046SOL     OW40578   2.380   3.735   5.940  0.3674  0.5602  0.6632
13046SOL    HW140579   2.470   3.757   5.915  0.6521  0.9810  1.9472
13046SOL    HW240580   2.389   3.659   5.997 -0.2376 -0.2688 -0.3169
13047SOL     OW40581   4.843   3.627   6.578 -0.1784 -0.3955  0.7075
13047SOL    HW140582   4.754   3.591   6.580 -0.0704 -0.6843  0.3710
13047SOL    HW240583   4.895   3.564   6.628 -0.0412 -0.5718  0.3477
13048SOL     OW40584   4.539   2.104   2.232  0.1368  0.0716  0.2020
13048SOL    HW140585   4.492   2.184   2.257 -2.0280 -1.7518  2.5709
13048SOL    HW240586   4.620   2.107   2.283 -0.3505  0.3804  0.9739
13049SOL     OW40587   1.673   1.541   2.504 -0.0613 -0.3577 -0.1534
13049SOL    HW140588   1.586   1.545   2.465  0.4968  0.7313 -1.3662
13049SOL    HW240589   1.715   1.466   2.462 -0.2989 -0.7165  0.2326
13050SOL     OW40590   2.680   0.952   0.178 -0.6968 -0.4896  0.2944
13050SOL    HW140591   2.744   0.969   0.109 -0.2766  1.3493  1.0745
13050SOL    HW240592   2.682   0.857   0.190  0.4680 -0.6622 -1.0248
13051SOL     OW40593   7.211   5.404   3.821  0.0171 -0.0202 -0.0744
13051SOL    HW140594   7.205   5.489   3.776 -1.4409  0.5135  1.0287
13051SOL    HW240595   7.206   5.426   3.914  2.9617 -1.0942  0.4506
13052SOL     OW40596   7.686   0.533   3.032 -0.5142 -0.3018  0.5971
13052SOL    HW140597   7.751   0.479   2.986 -1.0897  0.0199 -0.6319
13052SOL    HW240598   7.634   0.572   2.962 -0.9693  0.7773  1.5190
13053SOL     OW40599   1.261   7.675  11.195 -0.1118 -0.2640  0.3048
13053SOL    HW140600   1.206   7.609  11.237 -0.3445  0.1543  0.6574
13053SOL    HW240601   1.242   7.756  11.241 -0.3158  0.1933 -0.5546
13054SOL     OW40602   4.360   5.413   5.886  0.2487  0.1831  0.4487
13054SOL    HW140603   4.422   5.448   5.821  0.5541 -0.2153  0.5189
13054SOL    HW240604   4.307   5.350   5.837 -0.5552  1.0145  0.2346
13055SOL     OW40605   1.747   4.178   1.052 -0.1765 -0.6882 -0.0233
13055SOL    HW140606   1.677   4.123   1.087 -0.1469  0.2684  1.6731
13055SOL    HW240607   1.701   4.253   1.015 -0.1287  0.9574  2.8923
13056SOL     OW40608   0.201   3.747   1.377  0.5758  0.4935  0.5037
13056SOL    HW140609   0.203   3.738   1.282 -0.9077  1.6676  0.3203
13056SOL    HW240610   0.285   3.712   1.406  1.6816  1.4394 -1.3569
13057SOL     OW40611   0.216   5.178   4.118  0.1162  0.1900 -0.0478
13057SOL    HW140612   0.202   5.189   4.212  3.7578 -1.6424  0.8689
13057SOL    HW240613   0.280   5.244   4.094  1.7842 -1.4684 -0.3988
13058SOL     OW40614   5.181   5.020   1.363  0.5766  0.1139  0.4869
13058SOL    HW140615   5.136   5.004   1.446  0.7014 -1.7625  0.2564
13058SOL    HW240616   5.273   5.032   1.388  1.0934 -3.0591  0.5453
13059SOL     OW40617   2.961   2.558  11.441  0.1293  0.0451  0.5730
13059SOL    HW140618   2.999   2.494  11.501  1.0389  0.9486  0.9957
13059SOL    HW240619   3.036   2.607  11.407 -0.1751 -1.4217 -2.5366
13060SOL     OW40620   1.680   2.069   4.988 -0.4821 -0.4361  0.0802
13060SOL    HW140621   1.773   2.085   4.969 -0.2712  1.4155  2.1569
13060SOL    HW240622   1.659   2.132   5.057 -2.8477 -1.9637  0.8883
13061SOL     OW40623   0.376   5.270   1.378  0.1802 -0.0348  0.0604
13061SOL    HW140624   0.364   5.350   1.327 -0.0652 -0.7065 -0.9612
13061SOL    HW240625   0.440   5.219   1.329 -1.4541 -1.5411 -0.6558
13062SOL     OW40626   3.969   0.416   1.551 -0.2314  0.3185 -0.3649
13062SOL    HW140627   3.930   0.332   1.527 -1.6654  1.0073 -0.5694
13062SOL    HW240628   3.903   0.460   1.604  1.2409  0.5731  1.3417
13063SOL     OW40629   2.588   3.836   2.872  0.0823  0.0733 -0.0961
13063SOL    HW140630   2.642   3.908   2.840 -0.8715  0.2828 -1.3064
13063SOL    HW240631   2.501   3.875   2.884 -0.5381 -0.9495 -1.1281
13064SOL     OW40632   0.796   6.693   3.674 -0.1842  0.2100  0.5043
13064SOL    HW140633   0.891   6.684   3.661 -0.2124  0.4488  0.1361
13064SOL    HW240634   0.776   6.781   3.642 -0.7686 -0.3725 -0.7820
13065SOL     OW40635   7.271   6.234   5.367  0.0796 -0.2134  0.0539
13065SOL    HW140636   7.236   6.179   5.437  1.1894 -1.2449 -0.1719
13065SOL    HW240637   7.346   6.185   5.333 -0.4555  0.2423 -1.8955
13066SOL     OW40638   0.030   6.779   5.678  0.3233  0.9650 -0.7367
13066SOL    HW140639   0.014   6.740   5.764  0.9195  0.0578 -1.0329
13066SOL    HW240640  -0.036   6.740   5.621  1.4682 -0.3241 -1.2314
13067SOL     OW40641   3.942   7.413   0.715 -0.4292  0.1433 -0.2791
13067SOL    HW140642   3.867   7.457   0.675 -0.5254  0.4399  0.2133
13067SOL    HW240643   3.945   7.448   0.804  0.0023 -0.2296 -0.1445
13068SOL     OW40644   7.588   7.678   4.012  0.3741 -0.3438  0.6017
13068SOL    HW140645   7.555   7.646   4.095  0.2805 -0.1853  0.6263
13068SOL    HW240646   7.595   7.773   4.024  1.0843 -0.4028  0.6829
13069SOL     OW40647   5.295   1.614   5.661  0.2823  0.7218  0.4158
13069SOL    HW140648   5.280   1.630   5.754 -0.2255  0.7854  0.3298
13069SOL    HW240649   5.390   1.611   5.652  0.3991 -2.4963  1.4708
13070SOL     OW40650   5.415   4.269   0.629  0.3194 -0.4157  0.4873
13070SOL    HW140651   5.362   4.297   0.554 -0.8019 -1.6878  0.7720
13070SOL    HW240652   5.466   4.347   0.652 -1.9305  1.1127  0.6561
13071SOL     OW40653   0.703   4.375   0.119 -0.4115 -0.4465  0.0900
13071SOL    HW140654   0.794   4.406   0.123 -0.3027 -0.8512  3.7182
13071SOL    HW240655   0.711   4.279   0.117 -0.7504 -0.4732  0.0020
13072SOL     OW40656   0.439   6.461  11.048  0.3139  0.1116 -0.3615
13072SOL    HW140657   0.382   6.400  11.001  0.6097 -0.8356  0.4777
13072SOL    HW240658   0.521   6.461  10.998  0.3181 -0.1845 -0.3518
13073SOL     OW40659   0.500   6.212   2.346 -0.0812  0.1680  0.0559
13073SOL    HW140660   0.553   6.208   2.267  1.8256 -1.0291  1.2986
13073SOL    HW240661   0.557   6.250   2.412 -0.0026 -2.7990  1.9141
13074SOL     OW40662   4.144   5.391   7.073  0.1669  0.2983 -0.1684
13074SOL    HW140663   4.230   5.426   7.095 -0.0111  0.4693  0.2574
13074SOL    HW240664   4.163   5.320   7.011  0.6651 -0.1034  0.4333
13075SOL     OW40665   4.530   7.853  12.370  0.8192  0.2005 -0.2809
13075SOL    HW140666   4.625   7.849  12.374  0.8911  1.4055 -0.3632
13075SOL    HW240667   4.507   7.936  12.413 -0.3715 -1.2003  1.9831
13076SOL     OW40668   6.196   5.519   4.064  0.6784 -0.3174  0.0274
13076SOL    HW140669   6.245   5.436   4.065 -0.0414 -0.7552 -0.4664
13076SOL    HW240670   6.255   5.581   4.021  0.9859 -0.7267 -0.1487
13077SOL     OW40671   4.290   0.317   3.151 -0.5986  0.6537 -0.1975
13077SOL    HW140672   4.359   0.383   3.152 -0.4173  0.4910 -1.2367
13077SOL    HW240673   4.275   0.299   3.059 -1.5163  0.1425  0.0414
13078SOL     OW40674   5.105   6.240   3.603  0.0935 -0.0718  0.7650
13078SOL    HW140675   5.189   6.249   3.649 -0.4813 -0.9213  2.0492
13078SOL    HW240676   5.046   6.205   3.669 -1.3030  0.5696 -0.1136
13079SOL     OW40677   4.004   1.058   9.122 -0.1778  0.4093  0.0829
13079SOL    HW140678   4.081   1.002   9.114 -0.3276  0.3642 -1.4117
13079SOL    HW240679   3.996   1.076   9.216  1.9783  0.8835  0.2273
13080SOL     OW40680   2.301   5.252   2.431 -0.2749  0.6529  0.9966
13080SOL    HW140681   2.390   5.226   2.451 -0.0899  0.5725  0.1025
13080SOL    HW240682   2.263   5.177   2.385  0.0087  1.5772 -0.8649
13081SOL     OW40683   2.770   3.130   4.948 -0.1648  0.0722 -0.0624
13081SOL    HW140684   2.701   3.175   4.997 -0.8271  1.1699 -1.8814
13081SOL    HW240685   2.806   3.067   5.009 -2.7951 -0.5387  0.9819
13082SOL     OW40686   7.418   3.188  11.986 -0.3796 -0.0017  0.1743
13082SOL    HW140687   7.485   3.213  12.049 -1.7597  0.3949  1.5633
13082SOL    HW240688   7.398   3.097  12.007 -0.2245 -0.1460 -0.2896
13083SOL     OW40689   6.115   6.884   6.244  0.1242  0.4053  0.0516
13083SOL    HW140690   6.170   6.917   6.316 -0.1563  1.8137 -0.3442
13083SOL    HW240691   6.064   6.960   6.217 -2.0811 -0.8499  0.4290
13084SOL     OW40692   0.233   5.035  11.169 -0.4748 -0.0692  0.1684
13084SOL    HW140693   0.218   4.943  11.193 -1.7721  0.5044  1.7889
13084SOL    HW240694   0.169   5.084  11.221 -0.1192  1.7323 -0.9934
13085SOL     OW40695   1.436   2.339   2.853 -0.5069 -0.2593 -0.4775
13085SOL    HW140696   1.531   2.331   2.848 -0.2392  1.2439  1.2777
13085SOL    HW240697   1.403   2.256   2.817  1.3520  0.1583 -3.4220
13086SOL     OW40698   7.182   3.790   6.693  0.7443 -0.2151 -0.0879
13086SOL    HW140699   7.252   3.855   6.682  0.2376  0.2203 -0.8598
13086SOL    HW240700   7.181   3.742   6.611  0.1819 -0.2608 -0.0579
13087SOL     OW40701   1.736   3.663   0.763 -0.6995  0.5740  0.2407
13087SOL    HW140702   1.730   3.707   0.678 -1.6349  1.3429  0.6919
13087SOL    HW240703   1.671   3.707   0.818 -2.4035 -1.9902  0.4380
13088SOL     OW40704   1.424   3.815   1.971  0.3510  0.3401  0.2510
13088SOL    HW140705   1.352   3.785   2.027  0.7522 -1.2709 -0.0419
13088SOL    HW240706   1.503   3.805   2.025  0.5295  0.6512  0.0551
13089SOL     OW40707   5.606   3.698  11.392 -0.1503 -0.1900  0.5348
13089SOL    HW140708   5.661   3.710  11.314 -0.4745 -0.5626  0.2452
13089SOL    HW240709   5.538   3.764  11.384  0.6098  0.7171  1.2298
13090SOL     OW40710   7.108   7.349  11.863  0.2826 -0.0863 -0.2659
13090SOL    HW140711   7.197   7.385  11.872 -0.1626  1.1397 -0.5699
13090SOL    HW240712   7.078   7.336  11.953 -0.6295  3.1669  0.0353
13091SOL     OW40713   2.629   6.209   4.872  0.1865 -0.5044 -0.2297
13091SOL    HW140714   2.657   6.144   4.807  2.0907  0.5558 -0.5438
13091SOL    HW240715   2.685   6.191   4.948 -0.7718 -0.5880  0.4644
13092SOL     OW40716   7.277   1.951   2.205 -0.4176  0.6785  0.5810
13092SOL    HW140717   7.258   1.997   2.124  0.8636 -0.3778 -0.3478
13092SOL    HW240718   7.224   1.871   2.201 -0.2016  0.5263  0.6869
13093SOL     OW40719   5.845   2.260   9.566  0.2283 -0.4862  0.3310
13093SOL    HW140720   5.938   2.264   9.589  0.5867  1.1830 -1.1465
13093SOL    HW240721   5.799   2.281   9.647  1.0986 -1.8903  1.2233
13094SOL     OW40722   4.395   5.026  10.402 -0.0363 -0.1540 -0.1262
13094SOL    HW140723   4.371   5.028  10.494  3.1539  0.6380  0.7988
13094SOL    HW240724   4.378   5.116  10.371  0.1960 -0.0398  0.0763
13095SOL     OW40725   2.568   6.699   7.829  0.7218 -0.0473  0.3715
13095SOL    HW140726   2.603   6.757   7.761  1.2273 -0.6233  0.1287
13095SOL    HW240727   2.483   6.736   7.851  0.8450  0.5284 -0.0996
13096SOL     OW40728   3.724   4.368   5.903 -0.1307 -0.1012 -0.2513
13096SOL    HW140729   3.632   4.347   5.920  0.0569 -1.1028 -0.3979
13096SOL    HW240730   3.758   4.396   5.988 -0.2941 -0.8462  0.0695
13097SOL     OW40731   6.154   4.655   3.744  0.2165  1.1675 -0.1141
13097SOL    HW140732   6.092   4.728   3.748  0.0467  1.0586 -0.6673
13097SOL    HW240733   6.217   4.681   3.677  0.9161  1.3855  0.6159
13098SOL     OW40734   6.129   7.500   4.396 -0.0428  0.7338  0.7063
13098SOL    HW140735   6.135   7.443   4.320 -4.3605  2.0656 -0.9483
13098SOL    HW240736   6.093   7.445   4.465  0.1443  0.4204  0.5549
13099SOL     OW40737   1.420   0.686   9.411 -0.1873 -0.2160 -0.2930
13099SOL    HW140738   1.453   0.714   9.325 -1.1982 -1.5798 -1.1493
13099SOL    HW240739   1.328   0.667   9.397  0.0638 -2.3454  0.6346
13100SOL     OW40740   2.293   1.638   1.365 -0.0625  0.0402  0.0553
13100SOL    HW140741   2.355   1.645   1.437 -0.4251 -0.2721  0.3981
13100SOL    HW240742   2.210   1.615   1.406 -0.6455  1.4059 -0.3001
13101SOL     OW40743   1.042   5.834   3.761 -0.0523 -0.3065 -0.0392
13101SOL    HW140744   1.080   5.817   3.847  1.5063 -0.1735 -0.6669
13101SOL    HW240745   0.991   5.914   3.772 -1.1462 -1.1092  1.0952
13102SOL     OW40746   7.983   6.790   4.030 -0.3349 -0.1018  0.0519
13102SOL    HW140747   8.009   6.881   4.026  0.3689 -0.3088 -0.2201
13102SOL    HW240748   7.895   6.788   3.991 -0.3033  0.4324 -0.0434
13103SOL     OW40749   2.222   1.907   2.248 -0.4639  0.1453 -0.1074
13103SOL    HW140750   2.227   1.890   2.342 -0.0601  0.6128 -0.0454
13103SOL    HW240751   2.154   1.847   2.217 -0.7848  0.1778  0.5232
13104SOL     OW40752   5.619   6.787   3.773 -0.2916 -0.2592  0.1158
13104SOL    HW140753   5.530   6.812   3.751 -0.1935 -0.0024  0.0107
13104SOL    HW240754   5.666   6.869   3.782 -0.5217 -0.3116  2.1868
13105SOL     OW40755   4.747   5.951  12.180  0.6392  0.2315  0.2741
13105SOL    HW140756   4.758   6.045  12.189  0.5264  0.4951 -1.8772
13105SOL    HW240757   4.772   5.932  12.090 -0.8691 -1.5380  0.1619
13106SOL     OW40758   2.323   1.963   4.924 -0.1895  0.0881  0.1584
13106SOL    HW140759   2.394   1.943   4.985  0.3449  0.4597 -0.3313
13106SOL    HW240760   2.308   2.057   4.935 -0.6804 -0.0090  0.3354
13107SOL     OW40761   7.037   3.207   5.056  0.2403  0.5748 -0.1505
13107SOL    HW140762   7.120   3.208   5.009  1.0588 -1.3370  1.1386
13107SOL    HW240763   7.057   3.245   5.142 -0.4023  0.7989 -0.0884
13108SOL     OW40764   1.654   6.864  10.645 -0.0715  0.2529  0.3232
13108SOL    HW140765   1.710   6.805  10.696 -0.0206  0.7309  0.8216
13108SOL    HW240766   1.696   6.949  10.653 -1.1608  0.7347  1.1628
13109SOL     OW40767   6.271   7.045  11.433 -0.7952  0.0574 -0.4654
13109SOL    HW140768   6.241   7.132  11.459 -2.1319 -0.6161  0.3674
13109SOL    HW240769   6.231   7.029  11.348 -0.6884  0.1889 -0.5399
13110SOL     OW40770   7.139   2.014   5.011 -0.3538 -1.0468 -0.9923
13110SOL    HW140771   7.159   2.072   4.937  0.0033  0.1069 -0.0224
13110SOL    HW240772   7.048   1.989   4.999 -1.0309  1.0711 -0.5681
13111SOL     OW40773   3.544   6.382   9.680  0.4514 -0.7674 -0.1253
13111SOL    HW140774   3.599   6.342   9.748  1.0185 -0.2726 -0.2842
13111SOL    HW240775   3.456   6.349   9.698  0.4522 -0.0803  1.2909
13112SOL     OW40776   1.867   4.288   8.885 -0.0983 -0.1281 -0.0598
13112SOL    HW140777   1.920   4.297   8.963  0.4867 -0.0621 -0.4560
13112SOL    HW240778   1.911   4.342   8.819 -1.3293  0.9402 -0.0722
13113SOL     OW40779   7.964   5.434   0.399  0.3274  0.5150 -0.3986
13113SOL    HW140780   8.000   5.406   0.315 -1.1986 -0.9636 -0.6313
13113SOL    HW240781   8.016   5.386   0.464  0.6960  0.6879 -0.5627
13114SOL     OW40782   6.619   4.150   3.938 -0.2869 -0.1917 -0.4589
13114SOL    HW140783   6.606   4.239   3.907  1.5239  0.9579  1.7480
13114SOL    HW240784   6.531   4.116   3.953 -0.9981  1.3229 -1.0383
13115SOL     OW40785   4.994   7.682   5.556  0.1266 -1.1914 -0.4092
13115SOL    HW140786   5.032   7.749   5.498 -1.0361  0.1211  0.2748
13115SOL    HW240787   4.957   7.617   5.496 -0.0892 -0.4117 -1.1452
13116SOL     OW40788   2.853   7.441   3.587  0.4896 -0.3248  0.1267
13116SOL    HW140789   2.897   7.451   3.502  0.8063 -3.0628 -0.1272
13116SOL    HW240790   2.817   7.528   3.606  1.7480  0.7593 -2.0420
13117SOL     OW40791   4.511   5.987  12.014 -0.5173  0.9033 -0.2738
13117SOL    HW140792   4.547   6.075  12.002 -1.0164  1.1405 -0.0655
13117SOL    HW240793   4.499   5.980  12.109 -2.9659  1.6290 -0.4747
13118SOL     OW40794   4.435   0.449   5.564  0.4096 -0.7364  0.2984
13118SOL    HW140795   4.373   0.447   5.637 -0.6989  1.6510 -0.4737
13118SOL    HW240796   4.387   0.413   5.490  0.9022 -1.4122  0.2951
13119SOL     OW40797   4.552   6.431  11.685 -0.5222  0.0184 -0.5230
13119SOL    HW140798   4.609   6.495  11.643 -0.4672  0.0722 -0.3689
13119SOL    HW240799   4.576   6.347  11.645  0.2141 -0.0802  0.0952
13120SOL     OW40800   2.635   7.409  10.910 -0.6973  0.2098  0.5647
13120SOL    HW140801   2.615   7.316  10.898  0.3955 -0.3080  2.3405
13120SOL    HW240802   2.731   7.412  10.915 -0.6482  1.6161 -0.6452
13121SOL     OW40803   7.534   4.674   8.844  0.6210 -0.6548 -0.0126
13121SOL    HW140804   7.481   4.675   8.764 -1.6127 -0.5905  1.3939
13121SOL    HW240805   7.480   4.627   8.908  0.7381  2.2591  2.4585
13122SOL     OW40806   1.952   6.717   8.602 -0.0028 -0.1053  0.4243
13122SOL    HW140807   1.955   6.682   8.691  0.5708  0.3802  0.6041
13122SOL    HW240808   2.044   6.725   8.577 -0.1539  0.3087  0.0039
13123SOL     OW40809   7.323   3.352  10.784 -0.3438 -1.0766  0.0937
13123SOL    HW140810   7.283   3.287  10.727 -0.7273 -0.5365 -0.2602
13123SOL    HW240811   7.289   3.436  10.753  0.5149 -0.6632  0.2394
13124SOL     OW40812   4.239   1.208   9.606  0.0533 -0.2571  0.4751
13124SOL    HW140813   4.249   1.189   9.699  0.5891  3.6861  1.3613
13124SOL    HW240814   4.323   1.182   9.567 -0.1214 -1.7832  1.0365
13125SOL     OW40815   1.308   0.239   1.475  0.3543  0.0962  0.0230
13125SOL    HW140816   1.369   0.258   1.546  0.7044  0.4104 -0.3586
13125SOL    HW240817   1.344   0.161   1.433 -0.1288 -0.3937  0.4985
13126SOL     OW40818   4.395   0.952   3.723 -0.1212 -0.3239  0.5978
13126SOL    HW140819   4.413   1.046   3.722 -1.2966 -0.0765 -0.7397
13126SOL    HW240820   4.482   0.911   3.715  0.3554  0.6582  0.5975
13127SOL     OW40821   1.373   3.892   6.802 -0.1522 -0.2825  0.3899
13127SOL    HW140822   1.288   3.867   6.839 -0.5775  0.3041 -0.1731
13127SOL    HW240823   1.421   3.810   6.793 -1.9680 -1.1553 -2.5697
13128SOL     OW40824   4.297   6.255   4.305  0.3303  0.6885  0.2669
13128SOL    HW140825   4.387   6.224   4.321 -0.0402 -1.7358 -1.6316
13128SOL    HW240826   4.249   6.231   4.384  1.0144  0.3705  0.5955
13129SOL     OW40827   3.197   0.019   0.145 -0.4831 -0.1527 -0.0624
13129SOL    HW140828   3.207   0.008   0.050  2.1264  0.4438  0.0560
13129SOL    HW240829   3.104   0.006   0.162 -0.6587 -2.6673 -2.3869
13130SOL     OW40830   1.558   3.816   9.966 -0.0334 -0.3092  0.5681
13130SOL    HW140831   1.484   3.797  10.024 -0.3247 -0.4256  0.1612
13130SOL    HW240832   1.529   3.892   9.915  0.8084  0.7491  1.6165
13131SOL     OW40833   3.603   7.458   6.527 -0.2755 -0.1434  0.4501
13131SOL    HW140834   3.578   7.504   6.447  0.0116  0.8477  0.9152
13131SOL    HW240835   3.581   7.367   6.510  0.8628 -0.1446 -1.2010
13132SOL     OW40836   1.580   6.243   2.828 -0.4843  0.0824 -0.1267
13132SOL    HW140837   1.622   6.328   2.821 -0.8318  0.3578  0.9762
13132SOL    HW240838   1.500   6.252   2.776 -0.5154  0.4308 -0.0230
13133SOL     OW40839   3.624   6.436   8.591 -0.2964 -0.2233 -0.1174
13133SOL    HW140840   3.573   6.401   8.518  0.4578  0.2619 -0.8984
13133SOL    HW240841   3.561   6.442   8.664 -1.0311 -0.8196 -0.6875
13134SOL     OW40842   1.616   7.917   4.114  0.5346  0.4475 -0.6630
13134SOL    HW140843   1.703   7.943   4.084  0.4560  0.5349 -0.8166
13134SOL    HW240844   1.589   7.986   4.174  1.2806 -0.4299  0.7307
13135SOL     OW40845   4.479   1.928   7.853  0.4434 -0.5407  0.3485
13135SOL    HW140846   4.516   1.967   7.773 -0.2296 -0.8177 -0.1098
13135SOL    HW240847   4.438   2.001   7.899  2.1694 -0.0898  1.2360
13136SOL     OW40848   6.199   0.123   2.676  0.1437 -0.2602  0.3628
13136SOL    HW140849   6.187   0.197   2.735 -1.6159  0.6546 -1.0079
13136SOL    HW240850   6.220   0.163   2.591  1.8284 -1.4893  0.1488
13137SOL     OW40851   6.638   4.660   8.640  0.0905  1.1408 -0.2902
13137SOL    HW140852   6.697   4.602   8.689 -0.3243  0.7928 -0.1942
13137SOL    HW240853   6.695   4.702   8.575 -0.0035 -1.2214 -2.0418
13138SOL     OW40854   7.529   1.640   1.039  0.3820  0.1459  0.1636
13138SOL    HW140855   7.552   1.705   1.105  0.2647  0.9309 -0.5453
13138SOL    HW240856   7.439   1.614   1.060  0.3528  0.3761  0.3240
13139SOL     OW40857   5.100   4.133   7.371 -0.5611  0.0680  0.0192
13139SOL    HW140858   5.030   4.094   7.319 -0.1130 -0.1918 -0.3976
13139SOL    HW240859   5.147   4.057   7.407 -1.4004  0.2338  1.5414
13140SOL     OW40860   0.003   1.991   1.003  0.1253  0.1843 -0.7431
13140SOL    HW140861  -0.026   1.941   0.927 -0.8979 -0.7799  0.2379
13140SOL    HW240862   0.024   2.078   0.968 -0.3889 -0.2056 -2.1072
13141SOL     OW40863   2.758   6.559   4.448  0.2622  0.2585  0.1589
13141SOL    HW140864   2.763   6.576   4.542  0.6018  0.2175  0.1484
13141SOL    HW240865   2.841   6.590   4.414 -0.5369  1.9417 -0.3890
13142SOL     OW40866   3.829   4.180   9.619 -0.1684  0.1162  0.0914
13142SOL    HW140867   3.877   4.118   9.564  2.2689  1.1338  0.9366
13142SOL    HW240868   3.870   4.265   9.601 -1.1201  0.9116  1.4705
13143SOL     OW40869   2.891   7.070   3.859 -0.4322  0.3515  0.5340
13143SOL    HW140870   2.829   7.109   3.922 -0.9790  1.3685 -0.6097
13143SOL    HW240871   2.835   7.024   3.796 -0.0631  1.5709 -0.7144
13144SOL     OW40872   0.583   0.105  10.903 -0.5621  0.6415 -0.2254
13144SOL    HW140873   0.645   0.143  10.965 -0.9769  0.6639  0.1843
13144SOL    HW240874   0.509   0.078  10.957  0.2089 -1.8943 -0.3070
13145SOL     OW40875   7.729   4.928   2.959  0.3305 -0.4714 -0.5010
13145SOL    HW140876   7.800   4.981   2.923  0.5649  0.9602  1.8698
13145SOL    HW240877   7.772   4.857   3.006  0.1390 -0.5505 -0.4424
13146SOL     OW40878   7.885   6.262   7.574  0.4843  0.0994 -0.4740
13146SOL    HW140879   7.811   6.201   7.572  1.4108 -1.1527  1.0545
13146SOL    HW240880   7.865   6.325   7.505 -2.7723  0.7461  0.8416
13147SOL     OW40881   5.201   4.463   8.366 -0.4573  0.1160  0.5657
13147SOL    HW140882   5.154   4.533   8.411 -2.1239 -0.7154  0.2085
13147SOL    HW240883   5.191   4.483   8.273  1.3917  0.8288  0.4829
13148SOL     OW40884   1.616   1.930   0.862  0.4698 -0.3848  0.2634
13148SOL    HW140885   1.622   1.920   0.767  1.0998 -2.5933  0.4682
13148SOL    HW240886   1.662   2.012   0.881  0.5583 -0.0413 -1.3108
13149SOL     OW40887   0.494   1.039   8.788 -0.0830  0.0959 -0.0194
13149SOL    HW140888   0.454   1.040   8.875  0.2719 -0.9627  0.1733
13149SOL    HW240889   0.423   1.065   8.729 -1.0923 -1.7281  0.3229
13150SOL     OW40890   5.284   3.353  11.084 -0.0812  0.4121  0.6483
13150SOL    HW140891   5.357   3.295  11.064 -0.1843  0.2233  0.8142
13150SOL    HW240892   5.279   3.355  11.179  0.9308  1.9650  0.7108
13151SOL     OW40893   7.665   3.250   6.807  0.4706 -0.4535 -0.3497
13151SOL    HW140894   7.683   3.325   6.864 -0.5677  0.2229 -0.8625
13151SOL    HW240895   7.578   3.269   6.771 -0.2453 -2.3766  0.2395
13152SOL     OW40896   5.023   4.832   8.949  0.3459 -0.2610 -0.2309
13152SOL    HW140897   5.062   4.761   9.000 -2.7893 -0.9520  1.4820
13152SOL    HW240898   4.994   4.896   9.014  2.3783  2.3405 -1.6835
13153SOL     OW40899   5.575   5.079   3.798  0.1343 -0.8828  0.3015
13153SOL    HW140900   5.646   5.129   3.757  0.9614 -1.4574  0.9890
13153SOL    HW240901   5.498   5.134   3.787  0.1634 -1.2524 -2.5125
13154SOL     OW40902   6.604   5.715   5.698  0.3032 -0.1802  0.0032
13154SOL    HW140903   6.538   5.717   5.767 -2.5015 -0.4546 -2.4724
13154SOL    HW240904   6.619   5.807   5.677  2.0317 -0.0284  1.6046
13155SOL     OW40905   5.561   3.875  11.674 -0.5238  0.0634 -0.3909
13155SOL    HW140906   5.544   3.797  11.728 -1.1536 -0.2885 -1.0793
13155SOL    HW240907   5.643   3.854  11.628 -0.1137  0.2652  0.2459
13156SOL     OW40908   6.076   2.160  10.227  0.0109 -0.5851 -0.2698
13156SOL    HW140909   5.988   2.173  10.191  0.5845  3.5122 -0.6716
13156SOL    HW240910   6.063   2.158  10.322 -0.6485 -2.2988 -0.3617
13157SOL     OW40911   6.798   7.368   2.718  0.1090  0.5701 -0.6315
13157SOL    HW140912   6.832   7.313   2.788 -1.3754 -0.4416 -0.6671
13157SOL    HW240913   6.725   7.415   2.757  0.4597  1.4404 -0.9959
13158SOL     OW40914   5.857   6.696   2.918 -0.2325 -0.2217  0.3800
13158SOL    HW140915   5.881   6.605   2.937 -1.0458 -0.6684 -0.6312
13158SOL    HW240916   5.838   6.734   3.003  2.9573 -0.1046  1.1820
13159SOL     OW40917   4.884   2.122   5.643  0.6067  0.0015  0.0262
13159SOL    HW140918   4.953   2.188   5.647  0.6287 -0.0587  2.3590
13159SOL    HW240919   4.930   2.039   5.661  0.1061 -0.1572  0.6319
13160SOL     OW40920   4.364   7.528   6.521  0.4008 -0.4514  0.4105
13160SOL    HW140921   4.451   7.539   6.482  0.3456  0.8354  0.6003
13160SOL    HW240922   4.315   7.476   6.457  0.5919  0.8319 -0.8189
13161SOL     OW40923   5.211   6.001  12.264 -1.0083  0.2369  0.0977
13161SOL    HW140924   5.206   6.029  12.356  2.8041  0.0231  0.5303
13161SOL    HW240925   5.181   5.911  12.265  0.0945 -0.1607  1.4364
13162SOL     OW40926   0.873   2.162  11.749  0.4024 -0.1734 -0.2831
13162SOL    HW140927   0.824   2.215  11.812  0.8413 -0.9881  0.7880
13162SOL    HW240928   0.956   2.208  11.738  0.2218  0.1090 -0.4598
13163SOL     OW40929   0.266   4.652   1.557 -0.5653 -0.2321  0.2914
13163SOL    HW140930   0.331   4.596   1.598 -1.3059  0.0676  1.9320
13163SOL    HW240931   0.271   4.734   1.605 -0.4882  0.6483 -1.1556
13164SOL     OW40932   0.758   5.406   1.466  0.0999 -0.3475 -0.3132
13164SOL    HW140933   0.851   5.386   1.478  0.5164  0.8927 -1.2406
13164SOL    HW240934   0.712   5.326   1.493  1.5080 -1.5454 -1.3437
13165SOL     OW40935   3.194   5.990   9.149 -0.1083 -0.6577 -0.6387
13165SOL    HW140936   3.232   5.927   9.088 -0.9685 -0.8358 -1.0129
13165SOL    HW240937   3.167   6.064   9.094 -1.2563 -0.9914 -0.5635
13166SOL     OW40938   0.195   0.370   5.599  0.1280 -0.7404  0.2988
13166SOL    HW140939   0.290   0.369   5.597  0.1072 -1.1518 -0.8969
13166SOL    HW240940   0.168   0.298   5.541 -0.9078 -0.5270  0.4848
13167SOL     OW40941   7.355   4.491   2.193 -0.2126  0.0112  0.2037
13167SOL    HW140942   7.385   4.540   2.270 -4.1176  1.0727  1.2847
13167SOL    HW240943   7.343   4.558   2.125  2.7001 -0.8491 -1.3033
13168SOL     OW40944   3.850   7.458   1.301 -0.5156  0.4715 -0.2766
13168SOL    HW140945   3.898   7.376   1.290  0.4774  0.9198  0.4834
13168SOL    HW240946   3.829   7.487   1.212 -2.3097 -1.3857 -0.5232
13169SOL     OW40947   6.741   6.520   9.144 -0.0448 -0.0650  0.3299
13169SOL    HW140948   6.718   6.553   9.231 -0.3186 -0.3015  0.3458
13169SOL    HW240949   6.663   6.474   9.114  1.0412 -2.7588  1.2736
13170SOL     OW40950   3.183   4.586   3.681 -0.0712  0.0557  0.4577
13170SOL    HW140951   3.138   4.551   3.604 -0.2857  0.4719  0.3939
13170SOL    HW240952   3.119   4.645   3.721  0.6736  1.2286 -0.0493
13171SOL     OW40953   0.012   1.711   8.324  0.4311 -0.0143 -0.0510
13171SOL    HW140954   0.089   1.764   8.342  0.7063 -0.4915  0.1924
13171SOL    HW240955   0.042   1.642   8.266  0.7696 -1.6139  1.8922
13172SOL     OW40956   0.133   1.430   1.273  0.3653  0.2467  0.2804
13172SOL    HW140957   0.117   1.515   1.313 -0.4067  0.1480  0.1791
13172SOL    HW240958   0.168   1.450   1.186 -1.1487  0.4699 -0.2898
13173SOL     OW40959   2.678   4.449   0.744 -0.3487  0.2815  0.1116
13173SOL    HW140960   2.688   4.370   0.692  2.7828  1.0952 -0.7406
13173SOL    HW240961   2.586   4.449   0.771 -0.9964 -2.4300 -1.7245
13174SOL     OW40962   6.352   0.694   8.486 -0.1805  0.3939 -0.1689
13174SOL    HW140963   6.261   0.714   8.464 -0.5204  1.7053  2.1722
13174SOL    HW240964   6.403   0.762   8.441 -0.0731 -1.3209 -2.9135
13175SOL     OW40965   4.487   0.564   8.440 -0.4267  0.5725 -0.3765
13175SOL    HW140966   4.472   0.573   8.534 -0.2749 -0.0795 -0.2824
13175SOL    HW240967   4.406   0.595   8.399 -1.1280 -0.6504  0.0327
13176SOL     OW40968   0.505   7.177   7.838  0.3284  0.2066  0.4681
13176SOL    HW140969   0.433   7.240   7.846  1.0843  1.1274  0.2213
13176SOL    HW240970   0.583   7.231   7.823  1.7973 -0.4156  4.4625
13177SOL     OW40971   7.575   3.908  12.162  0.2063  0.1877  0.1646
13177SOL    HW140972   7.536   3.964  12.096  3.4643  2.2345 -0.2461
13177SOL    HW240973   7.596   3.827  12.116 -1.8449 -0.2979 -0.0024
13178SOL     OW40974   6.329   2.840   0.130 -0.0748  0.0951 -0.1391
13178SOL    HW140975   6.361   2.816   0.217  0.1334  3.2267  0.7713
13178SOL    HW240976   6.358   2.768   0.073 -0.7733 -2.3852  2.3982
13179SOL     OW40977   3.174   4.999   4.006 -0.0388  0.5728  0.5073
13179SOL    HW140978   3.167   5.038   4.093 -0.7074 -2.3274  1.9057
13179SOL    HW240979   3.252   4.944   4.010 -1.4918 -1.6782  0.3244
13180SOL     OW40980   1.756   2.274  10.861 -0.9567 -0.3911  0.0561
13180SOL    HW140981   1.756   2.233  10.775 -1.7880  0.9657 -0.6198
13180SOL    HW240982   1.813   2.218  10.914 -2.0806 -2.4457 -0.7780
13181SOL     OW40983   2.061   4.845   9.157 -0.5413  0.1931 -0.0370
13181SOL    HW140984   2.057   4.908   9.085  1.6636 -0.1753 -0.5282
13181SOL    HW240985   2.154   4.835   9.176 -0.8604 -2.3858  0.4979
13182SOL     OW40986   4.305   4.630   4.665 -0.3843  0.1155 -0.0122
13182SOL    HW140987   4.312   4.536   4.654 -0.8519 -0.3010  2.6293
13182SOL    HW240988   4.233   4.642   4.728 -0.0543  2.2053  0.0588
13183SOL     OW40989   4.328   2.029   2.471 -0.0575  0.1311  0.7793
13183SOL    HW140990   4.246   1.996   2.507  0.1468 -0.4845  0.7045
13183SOL    HW240991   4.305   2.109   2.425 -0.7704 -0.5552 -0.0647
13184SOL     OW40992   3.121   5.247   1.184  0.1496 -0.1542  0.0801
13184SOL    HW140993   3.194   5.187   1.201  0.5855  0.6223  1.1151
13184SOL    HW240994   3.045   5.190   1.174  0.3702 -0.8808  1.9940
13185SOL     OW40995   5.627   6.119   8.082 -0.2990  0.0598  0.2539
13185SOL    HW140996   5.549   6.100   8.134 -1.3408 -0.3613 -1.4017
13185SOL    HW240997   5.595   6.167   8.006  0.7489 -1.6562 -1.3746
13186SOL     OW40998   2.191   2.015   3.669  0.6888 -0.6731 -0.4686
13186SOL    HW140999   2.214   2.043   3.758 -0.5757 -0.8547 -0.0629
13186SOL    HW241000   2.108   2.059   3.651  0.0124 -2.0659 -0.8473
13187SOL     OW41001   2.789   1.844   1.994 -0.1366  0.1177 -0.7525
13187SOL    HW141002   2.788   1.921   2.050  0.0894  0.4928 -1.2629
13187SOL    HW241003   2.800   1.878   1.905 -0.4924 -0.4747 -1.0276
13188SOL     OW41004   0.932   7.191   9.159  0.3792  0.1399 -0.2455
13188SOL    HW141005   0.916   7.254   9.089  0.2290 -0.7503 -1.0294
13188SOL    HW241006   0.907   7.107   9.122  1.5497 -0.5277  0.4337
13189SOL     OW41007   1.170   4.643   4.058  0.2574 -0.1085  0.1937
13189SOL    HW141008   1.145   4.680   4.143  1.8453 -0.6725  0.9309
13189SOL    HW241009   1.175   4.549   4.074 -2.5113 -0.6302 -1.3515
13190SOL     OW41010   5.921   6.986   8.690 -0.3358  0.0769 -0.1083
13190SOL    HW141011   5.961   7.069   8.718  0.1550  0.6638 -2.2981
13190SOL    HW241012   5.838   6.982   8.736 -0.1701  1.5838  0.3772
13191SOL     OW41013   1.697   5.638   8.070  0.0404  0.2835 -0.1391
13191SOL    HW141014   1.755   5.577   8.024  0.0552 -0.6246  1.0189
13191SOL    HW241015   1.754   5.711   8.094  0.5926 -0.3283  0.4736
13192SOL     OW41016   1.973   5.992   7.448  0.3565 -0.5143 -0.0843
13192SOL    HW141017   1.944   6.018   7.361  0.3622  2.1673  0.6065
13192SOL    HW241018   1.912   5.924   7.475  0.0412 -1.0236 -1.9379
13193SOL     OW41019   3.965   4.940   2.999 -0.4137  0.0631  0.4073
13193SOL    HW141020   3.987   4.934   2.906  0.7467 -0.0968  0.6705
13193SOL    HW241021   4.036   4.893   3.043 -1.1714 -0.2183  1.3507
13194SOL     OW41022   2.528   1.271   6.782  0.6202 -0.1592 -0.1140
13194SOL    HW141023   2.502   1.360   6.759 -0.3367 -0.3786  0.0874
13194SOL    HW241024   2.562   1.235   6.700 -0.4280 -0.1032 -0.5970
13195SOL     OW41025   5.418   1.784  11.411  0.6152 -0.0541 -0.3231
13195SOL    HW141026   5.464   1.794  11.328 -0.4412  2.4618 -0.6957
13195SOL    HW241027   5.333   1.825  11.397 -1.5969 -3.8759  0.5781
13196SOL     OW41028   0.006   5.509   7.925  0.6407 -0.0239  0.2603
13196SOL    HW141029  -0.083   5.542   7.941  1.1780  1.6335  0.0319
13196SOL    HW241030  -0.007   5.420   7.893 -0.9397  0.2039  0.1781
13197SOL     OW41031   5.774   0.851   8.454 -0.2881 -0.2644 -0.4536
13197SOL    HW141032   5.758   0.834   8.361 -0.7879 -0.2725 -0.3661
13197SOL    HW241033   5.838   0.784   8.480  1.5434  1.0684 -1.3065
13198SOL     OW41034   7.776   5.556   5.981  0.2588  0.0874  0.0121
13198SOL    HW141035   7.759   5.507   6.061  0.6076 -0.5522 -0.2971
13198SOL    HW241036   7.692   5.593   5.956  0.3496  1.2557  1.2907
13199SOL     OW41037   5.968   4.182   7.825  0.4796 -0.1815  0.4544
13199SOL    HW141038   6.031   4.165   7.756 -0.8519  0.2830 -0.9528
13199SOL    HW241039   6.002   4.136   7.901  0.6803 -3.0225 -1.1913
13200SOL     OW41040   2.288   4.568  12.394 -0.5302  0.0069  0.1024
13200SOL    HW141041   2.316   4.576  12.303  1.1369 -0.1644  0.5669
13200SOL    HW241042   2.367   4.544  12.441 -1.7410 -1.7190  1.3563
13201SOL     OW41043   4.769   5.454   6.577 -0.2389  0.5423 -0.1264
13201SOL    HW141044   4.835   5.403   6.530 -1.3855 -0.9085 -0.2258
13201SOL    HW241045   4.696   5.393   6.591 -1.0311  1.7168  1.1495
13202SOL     OW41046   0.300   7.839   2.530 -0.2074  0.7104  0.4457
13202SOL    HW141047   0.312   7.931   2.506  0.5361  0.6122  0.4162
13202SOL    HW241048   0.335   7.833   2.619 -0.2801  0.4544  0.4571
13203SOL     OW41049   3.351   0.747   7.121 -0.5014  0.6603 -0.4189
13203SOL    HW141050   3.353   0.819   7.058  0.1331  0.6753 -0.3808
13203SOL    HW241051   3.332   0.788   7.205  0.6889  0.8938 -0.2510
13204SOL     OW41052   5.226   0.256  11.164 -0.0628 -0.1255 -0.1373
13204SOL    HW141053   5.258   0.196  11.097  0.3461 -1.1902  0.9692
13204SOL    HW241054   5.294   0.255  11.231 -0.7996  0.3381  0.6392
13205SOL     OW41055   3.413   5.843  10.558  0.1238 -0.3228  0.2082
13205SOL    HW141056   3.504   5.873  10.559 -0.1491  0.7148 -1.6707
13205SOL    HW241057   3.415   5.763  10.506 -0.0538 -0.2263  0.0527
13206SOL     OW41058   5.885   5.567   7.568  0.0115 -0.1795  0.6449
13206SOL    HW141059   5.953   5.504   7.545 -0.3275 -0.6798  0.9950
13206SOL    HW241060   5.906   5.645   7.516 -0.1244 -0.9109 -0.5364
13207SOL     OW41061   6.656   7.479   0.432  0.1590 -0.0195 -0.7792
13207SOL    HW141062   6.636   7.388   0.455  0.0583 -0.4307 -2.4215
13207SOL    HW241063   6.691   7.475   0.343  1.0674  1.4531 -0.5229
13208SOL     OW41064   5.242   7.648   2.588  0.2439 -0.7853 -0.2649
13208SOL    HW141065   5.215   7.739   2.576  1.0638 -0.2383  1.5612
13208SOL    HW241066   5.217   7.628   2.679 -0.5405 -2.6273 -0.8381
13209SOL     OW41067   7.886   4.239   1.888 -0.1452  0.5154  0.1996
13209SOL    HW141068   7.841   4.169   1.840 -2.4167  0.7873  1.7878
13209SOL    HW241069   7.928   4.195   1.962 -2.6991  0.8661  1.9731
13210SOL     OW41070   4.032   6.452   8.783 -0.0138 -0.4138  0.3459
13210SOL    HW141071   4.035   6.535   8.736  0.6449  0.1283  1.3154
13210SOL    HW241072   3.960   6.404   8.742 -1.3269  1.1848  0.6563
13211SOL     OW41073   0.271   0.997   2.752  0.3073  0.3204 -0.8083
13211SOL    HW141074   0.296   0.906   2.768  0.2756  0.2463 -1.1632
13211SOL    HW241075   0.293   1.043   2.833  2.4158  0.4181 -1.3740
13212SOL     OW41076   4.105   4.732   9.832 -0.1703 -0.0122  0.8207
13212SOL    HW141077   4.034   4.668   9.825 -0.8129  0.6177  1.3850
13212SOL    HW241078   4.137   4.743   9.743 -0.8320 -0.2568  0.5466
13213SOL     OW41079   4.974   4.817   5.126  0.1060  0.1581 -1.1164
13213SOL    HW141080   4.994   4.819   5.219 -0.6069  0.4081 -0.9623
13213SOL    HW241081   5.004   4.902   5.093 -2.1883  1.2876 -0.5455
13214SOL     OW41082   1.087   4.455   1.468  0.1102 -0.0860  0.4423
13214SOL    HW141083   1.097   4.418   1.380  0.4760  0.3682  0.2879
13214SOL    HW241084   1.105   4.548   1.456 -0.1585  0.0302  0.9449
13215SOL     OW41085   6.039   6.491   2.448 -0.2097  0.2704  0.2569
13215SOL    HW141086   6.061   6.584   2.445  1.4703 -0.0436  1.5373
13215SOL    HW241087   5.963   6.485   2.506  0.3284  0.7537  1.0248
13216SOL     OW41088   0.485   6.499   8.046 -0.3499 -0.1044  0.8102
13216SOL    HW141089   0.572   6.520   8.012 -0.4784 -0.6025  0.1513
13216SOL    HW241090   0.489   6.520   8.139  0.3704  0.1949  0.7123
13217SOL     OW41091   3.390   6.126   2.076 -0.0448  0.2866 -0.4078
13217SOL    HW141092   3.370   6.145   1.984 -0.1784  2.7339  0.0594
13217SOL    HW241093   3.484   6.142   2.084 -0.3026  1.5935  0.1880
13218SOL     OW41094   6.822   6.276   9.363  0.1710  0.1785 -0.4625
13218SOL    HW141095   6.901   6.253   9.411  1.3863  1.2459 -1.8607
13218SOL    HW241096   6.845   6.265   9.271 -1.8988 -1.2307 -0.8895
13219SOL     OW41097   4.132   0.403   7.601  0.5221 -0.0631  0.2650
13219SOL    HW141098   4.089   0.326   7.636 -0.5176 -0.2387 -1.3268
13219SOL    HW241099   4.186   0.370   7.528 -0.8865  0.8030 -1.2381
13220SOL     OW41100   4.724   0.835   1.531 -0.5456 -0.1706  0.8265
13220SOL    HW141101   4.747   0.903   1.467 -2.0690  0.8313  1.2825
13220SOL    HW241102   4.803   0.782   1.539  0.5463  1.2689  0.1045
13221SOL     OW41103   6.419   5.258   5.042  0.3433  0.1296 -0.4230
13221SOL    HW141104   6.382   5.342   5.018  1.5394  0.9133  0.3702
13221SOL    HW241105   6.360   5.193   5.003 -0.5507  1.3224 -1.0989
13222SOL     OW41106   7.711   3.573   5.570 -1.0171  0.2884 -0.4619
13222SOL    HW141107   7.690   3.590   5.478 -0.6845  2.9010 -0.1227
13222SOL    HW241108   7.626   3.568   5.614 -1.1612  1.9779 -0.4881
13223SOL     OW41109   3.659   4.367   7.573  0.3958 -0.0793  0.1341
13223SOL    HW141110   3.624   4.299   7.630  3.0234 -0.7254  1.1411
13223SOL    HW241111   3.667   4.325   7.488 -0.3610 -0.2109  0.1265
13224SOL     OW41112   0.835   6.040   3.842 -0.3110  0.2926 -0.4905
13224SOL    HW141113   0.811   5.988   3.919 -0.6846  0.0005 -0.8029
13224SOL    HW241114   0.754   6.081   3.814 -0.0810  0.7900 -0.4447
13225SOL     OW41115   4.809   5.579  12.006 -0.7785 -0.1896  0.5410
13225SOL    HW141116   4.771   5.666  11.993 -0.7291 -0.0369  1.3527
13225SOL    HW241117   4.899   5.587  11.974 -1.5555 -0.7093 -1.9150
13226SOL     OW41118   3.769   4.068  12.089 -0.1549  0.4634 -0.5819
13226SOL    HW141119   3.735   3.983  12.061  2.2953 -0.3066 -1.4991
13226SOL    HW241120   3.761   4.124  12.011  2.6908 -0.4338 -1.6569
13227SOL     OW41121   2.266   3.767   6.294 -0.4139  0.7855  0.7450
13227SOL    HW141122   2.204   3.840   6.292  1.0124  2.0421 -0.7765
13227SOL    HW241123   2.352   3.810   6.299  0.5404 -0.7140 -1.3537
13228SOL     OW41124   4.079   7.394  12.464  0.0632 -0.0795 -0.5477
13228SOL    HW141125   4.156   7.351  12.503 -0.1606 -0.1395 -0.1605
13228SOL    HW241126   4.079   7.482  12.502 -0.3880 -0.2712 -0.0755
13229SOL     OW41127   4.787   4.100   8.154  0.0614  0.4291  0.0304
13229SOL    HW141128   4.795   4.194   8.136 -1.0216  0.9151  1.8345
13229SOL    HW241129   4.713   4.072   8.102 -0.4796  0.9002  0.5280
13230SOL     OW41130   7.558   7.021   7.221 -0.6387  0.3731  0.0911
13230SOL    HW141131   7.546   7.076   7.298  0.4325 -0.8112  1.1606
13230SOL    HW241132   7.507   7.064   7.152  0.3669  2.8346  0.7775
13231SOL     OW41133   0.055   1.277   4.028  0.5595 -0.1485  0.1168
13231SOL    HW141134   0.074   1.344   4.095  0.0428 -0.6554  0.7820
13231SOL    HW241135   0.120   1.293   3.960 -0.0960  1.5951 -0.1546
13232SOL     OW41136   0.472   2.307   3.271 -0.7270  0.7477  0.1413
13232SOL    HW141137   0.551   2.345   3.310 -1.3905  0.2076  2.0918
13232SOL    HW241138   0.400   2.354   3.312 -1.4705 -0.4456  0.2452
13233SOL     OW41139   1.367   2.750   2.871 -0.2801 -0.7978 -0.3603
13233SOL    HW141140   1.456   2.731   2.841 -0.2743 -0.8627 -0.3022
13233SOL    HW241141   1.327   2.799   2.799  0.5395  1.2907  0.5249
13234SOL     OW41142   0.939   5.095   6.603  0.1120 -0.0211 -0.1408
13234SOL    HW141143   1.030   5.080   6.626  0.0431 -0.1760  0.0271
13234SOL    HW241144   0.929   5.190   6.606  0.2279 -0.0130 -0.0113
13235SOL     OW41145   3.450   7.589   1.074 -0.0137  0.3907 -0.0869
13235SOL    HW141146   3.384   7.521   1.060  0.8245 -0.3753 -0.3584
13235SOL    HW241147   3.459   7.632   0.989 -0.2913  0.6210 -0.0023
13236SOL     OW41148   1.942   1.342   1.240 -0.2301  0.1571  0.3519
13236SOL    HW141149   1.979   1.420   1.197  0.5111  0.4527  1.5009
13236SOL    HW241150   1.848   1.347   1.220  0.2283 -0.5439 -2.5326
13237SOL     OW41151   4.567   2.637   4.720  0.3231 -0.2181 -0.3508
13237SOL    HW141152   4.521   2.682   4.791  2.2542  0.9594  0.2464
13237SOL    HW241153   4.652   2.614   4.758  1.0485 -0.3851 -2.0122
13238SOL     OW41154   4.434   0.967   1.758 -0.5656  0.7011  0.2309
13238SOL    HW141155   4.342   0.991   1.747 -0.8727 -0.2166  0.6552
13238SOL    HW241156   4.432   0.872   1.771  0.2514  0.9100  2.2408
13239SOL     OW41157   0.763   0.652  11.564  0.2532  0.0832  0.0564
13239SOL    HW141158   0.775   0.580  11.502  1.1932  1.2036 -1.1034
13239SOL    HW241159   0.762   0.609  11.650 -0.7280 -1.4595 -0.6842
13240SOL     OW41160   5.976   5.667   0.273  0.3297 -0.5970  0.3093
13240SOL    HW141161   6.008   5.581   0.247  1.6642 -0.0816  0.1672
13240SOL    HW241162   6.005   5.677   0.364  2.0883  0.5381 -0.3203
13241SOL     OW41163   2.005   5.074  12.209  0.2681 -0.3283  0.7041
13241SOL    HW141164   1.981   4.986  12.181 -1.5089 -0.2055  1.7084
13241SOL    HW241165   1.948   5.132  12.158  0.9561  0.2076  0.5333
13242SOL     OW41166   4.282   6.453   0.192 -0.0903  0.2445  0.5083
13242SOL    HW141167   4.316   6.415   0.111  0.3281  2.3334 -0.3415
13242SOL    HW241168   4.338   6.416   0.260  0.5070 -0.4026 -0.2991
13243SOL     OW41169   3.683   5.678   2.448 -0.0930 -0.8490  0.0866
13243SOL    HW141170   3.713   5.596   2.408  1.4710 -0.1202 -0.2672
13243SOL    HW241171   3.620   5.649   2.514  0.2843 -2.3286 -0.1536
13244SOL     OW41172   7.403   2.141   0.104 -0.1010 -0.4004 -0.4296
13244SOL    HW141173   7.390   2.050   0.080  2.1896 -0.3855 -2.0341
13244SOL    HW241174   7.363   2.191   0.033  0.8231 -0.2356 -0.8531
13245SOL     OW41175   0.211   1.951   5.191  0.9058  0.5665  0.0522
13245SOL    HW141176   0.208   1.855   5.184  0.0559  0.6529 -1.2336
13245SOL    HW241177   0.173   1.981   5.108  0.2522  2.0124  0.8461
13246SOL     OW41178   5.889   1.161   6.292 -0.5720 -0.5000 -0.1394
13246SOL    HW141179   5.912   1.223   6.362 -0.7581  0.6713 -1.0797
13246SOL    HW241180   5.968   1.157   6.238 -1.0618  0.0979 -0.9176
13247SOL     OW41181   3.038   1.376  10.512 -0.1222 -0.8583  0.0815
13247SOL    HW141182   3.128   1.369  10.545 -0.4114 -0.2506  1.0518
13247SOL    HW241183   3.034   1.464  10.473 -0.6933 -0.3041  1.3510
13248SOL     OW41184   6.785   1.515  12.189 -0.2417 -0.7794 -0.0496
13248SOL    HW141185   6.776   1.523  12.284 -0.9533 -0.6614 -0.1231
13248SOL    HW241186   6.728   1.441  12.166  0.3227 -1.1371 -0.3275
13249SOL     OW41187   0.778   0.496   4.782  0.2112  0.1397  0.1504
13249SOL    HW141188   0.799   0.567   4.722  1.0436 -0.2494 -0.0452
13249SOL    HW241189   0.731   0.432   4.729 -0.1342  0.3391  0.2152
13250SOL     OW41190   1.107   5.586   3.631 -0.1411 -0.7860  0.4734
13250SOL    HW141191   1.084   5.673   3.664 -0.9671 -0.7434 -0.2071
13250SOL    HW241192   1.187   5.564   3.679  0.6598  0.7698 -0.0734
13251SOL     OW41193   3.684   2.824   3.750 -0.0280 -0.0864  0.5227
13251SOL    HW141194   3.696   2.905   3.700 -2.1161  1.9852  3.0784
13251SOL    HW241195   3.590   2.820   3.767 -0.2725 -3.9640 -0.7248
13252SOL     OW41196   4.529   5.243   0.324 -0.2910  0.2866 -0.9202
13252SOL    HW141197   4.518   5.150   0.305 -0.5088 -0.1857  1.2746
13252SOL    HW241198   4.444   5.282   0.303 -0.5185 -0.1971 -0.9043
13253SOL     OW41199   2.281   4.612   0.779 -0.7333  0.1413  0.4576
13253SOL    HW141200   2.280   4.619   0.684  0.0228  1.5948  0.5165
13253SOL    HW241201   2.333   4.534   0.798  0.3952  0.6822 -0.3214
13254SOL     OW41202   1.096   5.246   8.015 -0.1049 -0.0128 -0.3664
13254SOL    HW141203   1.087   5.293   8.098  0.6594 -0.6730  0.1049
13254SOL    HW241204   1.156   5.299   7.964 -0.3960  0.2750 -0.4139
13255SOL     OW41205   6.735   2.111  10.199  0.0213  0.8202 -0.2169
13255SOL    HW141206   6.793   2.057  10.254 -1.3670 -0.8287 -0.2702
13255SOL    HW241207   6.750   2.079  10.110 -1.5962 -0.3120 -0.1267
13256SOL     OW41208   0.099   4.824   9.583 -0.3013 -0.2571  0.2284
13256SOL    HW141209   0.159   4.771   9.635 -0.6709  0.0545  0.9952
13256SOL    HW241210   0.109   4.792   9.494  1.2723  0.0401  0.2784
13257SOL     OW41211   2.378   6.707   4.593  0.0795 -0.5715 -0.4032
13257SOL    HW141212   2.426   6.644   4.649  0.8472 -0.7589 -1.2535
13257SOL    HW241213   2.338   6.652   4.526  0.2148 -0.2166 -0.7723
13258SOL     OW41214   0.929   0.595   5.334  0.9992  0.3207 -0.2317
13258SOL    HW141215   1.007   0.636   5.373  0.4854  1.5392 -0.4539
13258SOL    HW241216   0.964   0.528   5.275  1.8391 -0.0389  0.6384
13259SOL     OW41217   5.055   2.291   2.577 -0.1189 -0.1679  0.0357
13259SOL    HW141218   5.150   2.286   2.588 -0.0170  0.1731 -0.6490
13259SOL    HW241219   5.042   2.339   2.495 -0.9185  2.8946  1.7950
13260SOL     OW41220   1.339   1.695  12.352  0.1946 -0.0076 -0.2864
13260SOL    HW141221   1.283   1.624  12.383 -1.4399  0.2752 -2.3312
13260SOL    HW241222   1.291   1.732  12.277  1.6109  2.3903 -0.1154
13261SOL     OW41223   3.001   0.883   6.397 -0.2869  0.3305 -0.1842
13261SOL    HW141224   2.982   0.791   6.378  0.7978 -0.1329  0.8567
13261SOL    HW241225   2.940   0.906   6.467  0.5582 -0.1150  0.7209
13262SOL     OW41226   5.915   3.149   8.583  0.0357 -0.0348 -0.4388
13262SOL    HW141227   5.992   3.094   8.593  0.6454  0.6070 -1.4586
13262SOL    HW241228   5.925   3.190   8.497  0.0940  2.3812  0.6155
13263SOL     OW41229   7.498   3.280   7.128  0.3953 -0.1873 -0.0857
13263SOL    HW141230   7.572   3.342   7.127  1.2644 -1.1971 -0.3902
13263SOL    HW241231   7.440   3.312   7.059  1.1353 -0.0649 -0.6625
13264SOL     OW41232   5.277   6.840  11.463 -0.3757 -0.0768 -0.2526
13264SOL    HW141233   5.288   6.878  11.550  0.0559 -0.2064 -0.2484
13264SOL    HW241234   5.359   6.859  11.418 -0.4278 -0.3959 -0.4839
13265SOL     OW41235   0.812   6.521   1.122  0.0947 -0.0775  0.2183
13265SOL    HW141236   0.744   6.583   1.149  1.5762  2.0780 -0.7225
13265SOL    HW241237   0.870   6.515   1.198  0.6236  0.7062 -0.1115
13266SOL     OW41238   4.167   5.923   1.514 -0.1918  0.5122  0.6343
13266SOL    HW141239   4.225   5.912   1.589  0.6546  3.5022  0.5271
13266SOL    HW241240   4.087   5.959   1.551 -0.9603 -0.9045  0.4210
13267SOL     OW41241   3.919   2.839   4.780  0.5296 -0.0871  0.7976
13267SOL    HW141242   3.842   2.862   4.729  1.5090 -0.3663 -0.9111
13267SOL    HW241243   3.969   2.920   4.787  0.4353 -0.0661  1.2735
13268SOL     OW41244   1.401   3.883   2.572  0.2593  0.0785 -0.3715
13268SOL    HW141245   1.440   3.907   2.488  2.0162 -0.4204  0.2530
13268SOL    HW241246   1.476   3.858   2.627 -0.4731  3.0946  2.2936
13269SOL     OW41247   2.416   3.764  11.206  0.3005 -0.6941 -0.1896
13269SOL    HW141248   2.360   3.781  11.131  0.1689 -1.2114 -0.2098
13269SOL    HW241249   2.356   3.735  11.275  0.4498 -0.4604  0.0434
13270SOL     OW41250   7.652   0.650   3.515  0.3411  0.0306  0.1773
13270SOL    HW141251   7.658   0.601   3.433  2.2610  0.1372  0.2243
13270SOL    HW241252   7.650   0.742   3.489 -1.6697  0.0285  0.1681
13271SOL     OW41253   1.488   3.119   8.855 -0.1502  0.2331  0.1894
13271SOL    HW141254   1.450   3.031   8.846  1.3804 -0.3483 -1.1556
13271SOL    HW241255   1.541   3.114   8.934  2.2633 -1.0535 -1.3977
13272SOL     OW41256   3.304   2.470   8.637 -0.3190  0.0081 -0.0372
13272SOL    HW141257   3.244   2.432   8.574  0.2316 -1.4913  0.3003
13272SOL    HW241258   3.306   2.563   8.615 -1.1761 -0.2537 -1.3446
13273SOL     OW41259   5.351   2.011   8.795  0.3552 -0.0365  0.4461
13273SOL    HW141260   5.418   1.969   8.849  0.9014 -1.6333 -1.3473
13273SOL    HW241261   5.272   1.959   8.809  0.5381 -0.5545 -0.3391
13274SOL     OW41262   7.152   4.828   9.383  0.1590  0.3415  0.2048
13274SOL    HW141263   7.119   4.900   9.437  1.3308  0.4220  0.8536
13274SOL    HW241264   7.247   4.835   9.390  0.3043 -0.7643 -0.4196
13275SOL     OW41265   3.155   7.447  12.112 -0.0460  0.0028 -0.5460
13275SOL    HW141266   3.126   7.531  12.146 -1.9164 -0.7228 -0.2080
13275SOL    HW241267   3.217   7.469  12.042  1.9390  1.5671  1.5679
13276SOL     OW41268   1.203   5.317  10.559  0.1419 -0.0524 -0.0164
13276SOL    HW141269   1.152   5.373  10.617 -0.8114 -0.3679 -0.5294
13276SOL    HW241270   1.258   5.378  10.509 -0.5644  0.4018 -0.2569
13277SOL     OW41271   2.444   5.445   0.792 -0.1462  0.2577  0.6226
13277SOL    HW141272   2.407   5.516   0.740  0.0540 -0.2592 -0.2468
13277SOL    HW241273   2.394   5.367   0.766  1.7096 -0.5354 -0.8573
13278SOL     OW41274   2.223   0.884  11.234 -0.1335  0.1727  0.0645
13278SOL    HW141275   2.151   0.878  11.297 -0.7772 -0.8858 -0.7375
13278SOL    HW241276   2.212   0.808  11.177  1.2315  0.3598 -0.5023
13279SOL     OW41277   1.147   3.445   1.420 -0.1618  0.1587  0.2112
13279SOL    HW141278   1.170   3.536   1.441 -0.9021  0.4365 -0.1701
13279SOL    HW241279   1.184   3.431   1.333 -0.9931  0.4501 -0.1954
13280SOL     OW41280   0.888   7.015   0.256 -0.2085 -0.2330  0.0929
13280SOL    HW141281   0.926   6.930   0.277 -0.3641 -0.1499  0.7053
13280SOL    HW241282   0.956   7.078   0.279 -0.3882 -0.1413  0.3743
13281SOL     OW41283   1.525   4.991   2.076 -0.0157 -0.1812 -0.1739
13281SOL    HW141284   1.521   5.084   2.097  1.6789  0.0594 -0.7572
13281SOL    HW241285   1.553   4.988   1.984 -2.2553 -1.2589 -0.8948
13282SOL     OW41286   6.166   6.865   8.154 -0.2741 -0.2922  0.1893
13282SOL    HW141287   6.070   6.859   8.157 -0.1738 -1.6727  1.8836
13282SOL    HW241288   6.183   6.957   8.135 -1.9339  0.0119  0.0138
13283SOL     OW41289   6.533   6.801   5.228 -0.0654  0.7251  0.9565
13283SOL    HW141290   6.622   6.832   5.246  0.1819  0.0908  0.8522
13283SOL    HW241291   6.537   6.767   5.138 -0.6870  1.6699  0.5506
13284SOL     OW41292   7.405   6.704   7.929  0.0608  0.9483 -0.0413
13284SOL    HW141293   7.494   6.676   7.948  0.0453  0.1228 -1.0506
13284SOL    HW241294   7.350   6.648   7.983  0.0527 -0.7701 -1.6994
13285SOL     OW41295   4.715   7.751   6.137  0.2338 -0.2250 -0.2988
13285SOL    HW141296   4.761   7.669   6.156  1.2581  0.1969 -0.8608
13285SOL    HW241297   4.785   7.814   6.117 -0.5380  0.7837  0.0930
13286SOL     OW41298   0.392   3.518  12.292 -0.1624 -0.2094  0.2965
13286SOL    HW141299   0.438   3.539  12.374  0.4306  0.9736 -0.3223
13286SOL    HW241300   0.416   3.588  12.232 -1.1271 -0.7027 -0.7004
13287SOL     OW41301   0.168   0.461   2.294  0.6359 -0.5204  0.3956
13287SOL    HW141302   0.083   0.450   2.336 -0.5408 -1.6431 -2.0522
13287SOL    HW241303   0.232   0.448   2.364 -1.1780 -0.9628  2.0445
13288SOL     OW41304   2.372   2.927  10.270 -0.4569 -0.0612 -0.0686
13288SOL    HW141305   2.464   2.903  10.260 -0.0619  0.8414  1.1895
13288SOL    HW241306   2.371   2.992  10.340 -2.1607 -0.6789  0.5322
13289SOL     OW41307   6.925   7.044   7.044 -0.0456  0.1755  0.0125
13289SOL    HW141308   6.967   7.029   6.960 -0.2054  1.0343 -0.2315
13289SOL    HW241309   6.964   7.126   7.076  1.5448 -1.1845  1.7564
13290SOL     OW41310   4.917   4.314  12.195  0.3375 -0.2511 -0.2711
13290SOL    HW141311   4.998   4.356  12.223 -0.5654  0.7430  0.9715
13290SOL    HW241312   4.892   4.258  12.268 -0.2676 -0.2904 -0.5015
13291SOL     OW41313   3.013   4.320   6.215 -0.0292  0.1596 -0.5352
13291SOL    HW141314   3.100   4.312   6.254  0.2402 -1.3725 -1.3627
13291SOL    HW241315   3.025   4.376   6.139  0.4055 -0.7127 -1.1139
13292SOL     OW41316   3.879   6.472   2.018  0.2112 -0.1319  0.1323
13292SOL    HW141317   3.899   6.497   2.108  0.8753 -0.8832  0.2082
13292SOL    HW241318   3.820   6.540   1.986 -0.6678 -0.2895  1.3852
13293SOL     OW41319   0.844   0.777   9.843  0.0453 -0.1045 -0.5723
13293SOL    HW141320   0.775   0.715   9.867 -0.1758  0.2054 -0.3974
13293SOL    HW241321   0.913   0.722   9.805 -0.5729 -0.3460 -1.3761
13294SOL     OW41322   2.313   4.212  10.782  0.0100  0.1467  0.3053
13294SOL    HW141323   2.236   4.252  10.741  0.9198  1.1634 -0.4525
13294SOL    HW241324   2.295   4.219  10.876 -0.9098  0.1993  0.1422
13295SOL     OW41325   2.494   6.505   2.090 -0.4585  0.1107  0.1065
13295SOL    HW141326   2.455   6.420   2.069 -0.9155  0.6103 -1.1355
13295SOL    HW241327   2.577   6.506   2.042 -2.0961  1.7793 -2.9510
13296SOL     OW41328   0.425   0.662   9.215  0.0098 -0.4820  0.1702
13296SOL    HW141329   0.341   0.686   9.175  0.2993 -0.4180 -0.4109
13296SOL    HW241330   0.445   0.736   9.274 -0.2608 -0.4221  0.1878
13297SOL     OW41331   7.766   0.038   1.598  0.1399 -0.6545  0.0042
13297SOL    HW141332   7.691   0.058   1.655  0.7477  2.3006 -0.0480
13297SOL    HW241333   7.728   0.033   1.511 -0.1560 -0.2421  0.1041
13298SOL     OW41334   2.134   4.968   2.543 -0.1111 -0.4320  0.4539
13298SOL    HW141335   2.151   4.952   2.451  1.4724 -1.1077  0.8324
13298SOL    HW241336   2.044   4.999   2.546 -0.0672 -0.0474 -1.3470
13299SOL     OW41337   3.715   0.043  12.025  0.2945  0.1035  0.1764
13299SOL    HW141338   3.676   0.114  12.077 -0.1263  0.1342 -0.1759
13299SOL    HW241339   3.728   0.082  11.938 -1.0640 -0.5952 -0.3745
13300SOL     OW41340   7.172   4.553   5.999  0.1778 -0.2935  0.4457
13300SOL    HW141341   7.192   4.540   6.092 -0.3311 -1.8270  0.3750
13300SOL    HW241342   7.258   4.551   5.955  0.2609 -2.3764  0.6107
13301SOL     OW41343   2.522   6.204   2.249 -0.3365  0.8039  0.2980
13301SOL    HW141344   2.473   6.221   2.169 -0.4228  0.8898  0.3681
13301SOL    HW241345   2.613   6.225   2.227 -0.1511 -0.4409 -0.1687
13302SOL     OW41346   2.203   1.108   5.435 -0.1442 -0.3996  0.1237
13302SOL    HW141347   2.221   1.188   5.484 -2.1965 -0.7928  1.7007
13302SOL    HW241348   2.253   1.040   5.481  2.5829  0.0576 -1.9476
13303SOL     OW41349   7.129   7.773  11.930 -0.1410 -0.1524  0.5172
13303SOL    HW141350   7.094   7.695  11.887 -0.4667 -0.1648  0.7996
13303SOL    HW241351   7.153   7.743  12.018 -1.1369  0.2733  0.9451
13304SOL     OW41352   6.559   1.892   5.288 -0.2511  0.1577  0.4417
13304SOL    HW141353   6.644   1.905   5.246  0.0090  1.5827  1.3251
13304SOL    HW241354   6.578   1.839   5.366 -0.3962 -0.6566 -0.0677
13305SOL     OW41355   2.689   4.918  10.182 -0.0455  0.1631  0.1967
13305SOL    HW141356   2.716   5.003  10.146  3.5679 -0.7573  0.3640
13305SOL    HW241357   2.678   4.862  10.105  1.5369 -0.1994  0.2079
13306SOL     OW41358   6.629   5.966   7.518 -0.2595 -0.1216  0.4703
13306SOL    HW141359   6.555   6.027   7.518 -0.1888 -0.0286 -0.4764
13306SOL    HW241360   6.681   5.992   7.594 -0.8853  0.1919  0.7997
13307SOL     OW41361   4.516   3.194  12.289  0.2412  0.2628  0.2527
13307SOL    HW141362   4.523   3.103  12.315  2.2337  0.1907 -0.3377
13307SOL    HW241363   4.482   3.191  12.200 -0.2305  0.1355  0.4352
13308SOL     OW41364   4.712   6.147   2.128  0.3580 -0.0391 -0.1090
13308SOL    HW141365   4.766   6.073   2.154  0.9296  0.9456  1.6641
13308SOL    HW241366   4.759   6.186   2.054  0.1019 -1.3526 -0.9919
13309SOL     OW41367   1.284   7.757  10.935 -0.3333 -0.3642 -0.4866
13309SOL    HW141368   1.251   7.846  10.949  0.4695 -0.2789  1.0242
13309SOL    HW241369   1.284   7.718  11.022 -0.8255 -1.9235 -1.1463
13310SOL     OW41370   5.082   0.077   0.412  0.5977 -0.3043  0.0971
13310SOL    HW141371   5.125  -0.002   0.381  0.7964 -0.0813 -0.2074
13310SOL    HW241372   4.989   0.061   0.400  0.7039  0.1454 -1.5575
13311SOL     OW41373   7.386   3.611   4.699  0.1374  0.0715  0.3969
13311SOL    HW141374   7.347   3.603   4.786 -0.7027 -1.5671 -0.0927
13311SOL    HW241375   7.456   3.545   4.698 -1.4161 -1.6867 -0.9177
13312SOL     OW41376   2.249   5.474   5.994 -0.2477  0.6295  0.4904
13312SOL    HW141377   2.244   5.444   6.085  0.3156 -0.4439  0.1827
13312SOL    HW241378   2.175   5.535   5.985 -1.5632 -0.7962  1.1124
13313SOL     OW41379   5.845   0.698  10.774 -0.2743  0.5915  0.5969
13313SOL    HW141380   5.873   0.677  10.863 -2.9209 -1.2540  1.1130
13313SOL    HW241381   5.800   0.619  10.743 -0.3989  1.5690 -1.9823
13314SOL     OW41382   2.374   2.726  10.608  0.4918 -0.2421 -0.7431
13314SOL    HW141383   2.411   2.809  10.579  0.2010 -0.2743 -1.2194
13314SOL    HW241384   2.425   2.702  10.686  0.3617  0.5457 -0.4074
13315SOL     OW41385   6.430   6.511   8.673  0.2854 -0.4959  0.0137
13315SOL    HW141386   6.467   6.598   8.689  0.9829 -0.8939  0.6194
13315SOL    HW241387   6.506   6.456   8.653 -0.1706 -0.9322 -0.5707
13316SOL     OW41388   3.546   0.203   1.174  0.5026 -0.5457 -0.1933
13316SOL    HW141389   3.485   0.166   1.238 -0.4290 -0.4241 -0.9951
13316SOL    HW241390   3.594   0.128   1.139 -0.7375 -0.9196 -1.1486
13317SOL     OW41391   5.137   0.351  10.917  0.4650  0.1255  0.0371
13317SOL    HW141392   5.141   0.350  11.013 -0.6478  0.6164  0.1116
13317SOL    HW241393   5.162   0.262  10.891  0.2843 -0.1601  0.8168
13318SOL     OW41394   7.286   3.699  11.647 -0.1530 -0.2866  0.7531
13318SOL    HW141395   7.246   3.702  11.559  0.8652  1.2064  0.3157
13318SOL    HW241396   7.334   3.616  11.648 -0.3683 -0.4338 -0.0074
13319SOL     OW41397   1.942   5.701   1.752  0.2149 -0.6878  0.4861
13319SOL    HW141398   2.034   5.720   1.731 -0.2306 -0.8589 -1.9981
13319SOL    HW241399   1.913   5.777   1.802  1.3270  0.0560  0.0540
13320SOL     OW41400   1.255   4.784   8.097 -0.4416  0.2973  0.5709
13320SOL    HW141401   1.193   4.711   8.102 -1.1888  0.8367 -0.5016
13320SOL    HW241402   1.309   4.765   8.020  0.1599  0.2604  1.0009
13321SOL     OW41403   5.486   3.508   5.632  0.2188  0.5608 -0.3115
13321SOL    HW141404   5.403   3.495   5.586 -0.4525 -0.5532  1.1519
13321SOL    HW241405   5.463   3.558   5.710  0.9219  0.2545  0.1032
13322SOL     OW41406   3.529   6.252   8.368 -0.3323 -0.2155 -0.5281
13322SOL    HW141407   3.470   6.196   8.317 -0.6436 -0.5823  0.2290
13322SOL    HW241408   3.616   6.230   8.336 -0.4591 -1.1047 -0.2724
13323SOL     OW41409   4.719   0.968  10.001 -0.5957  0.4936  0.3484
13323SOL    HW141410   4.644   0.930   9.956 -0.4746  0.8604 -0.1803
13323SOL    HW241411   4.717   0.929  10.089 -0.7922 -0.2887  0.0065
13324SOL     OW41412   2.936   4.848   9.852 -0.5728 -0.3248  0.3259
13324SOL    HW141413   2.985   4.812   9.925 -1.1734 -0.0702  0.8666
13324SOL    HW241414   2.951   4.943   9.857  0.3906 -0.4124 -0.6361
13325SOL     OW41415   4.102   4.206   4.829  0.4378 -0.0863  0.4779
13325SOL    HW141416   4.189   4.167   4.837  1.6392  2.4074  0.6034
13325SOL    HW241417   4.068   4.208   4.919  1.1677  0.7683  0.7559
13326SOL     OW41418   2.595   4.556   4.149 -0.2210 -0.6915 -0.1663
13326SOL    HW141419   2.529   4.593   4.207 -0.4712 -1.2292 -0.1019
13326SOL    HW241420   2.650   4.501   4.206  0.2420 -0.3037 -0.2312
13327SOL     OW41421   4.836   3.208   4.511 -0.0428 -0.0704  0.1794
13327SOL    HW141422   4.742   3.205   4.524 -0.1862 -0.9887 -0.8861
13327SOL    HW241423   4.873   3.200   4.599 -0.9142  2.9543  0.9451
13328SOL     OW41424   3.791   5.520   8.038 -0.8301  0.0138  0.1360
13328SOL    HW141425   3.845   5.460   7.985 -1.0532 -0.2546  0.2146
13328SOL    HW241426   3.701   5.499   8.014 -0.9441 -0.2457  0.7703
13329SOL     OW41427   6.298   4.511   5.774  0.0434 -0.2767 -0.0569
13329SOL    HW141428   6.349   4.484   5.698  2.5565 -0.0430  1.4283
13329SOL    HW241429   6.256   4.431   5.805  0.9863 -0.8754 -0.2971
13330SOL     OW41430   6.858   2.233   2.267 -0.4490 -0.2075 -0.4742
13330SOL    HW141431   6.880   2.140   2.267  0.0650 -0.0847 -0.7289
13330SOL    HW241432   6.826   2.250   2.356  0.2852 -0.4255 -0.1658
13331SOL     OW41433   7.866   7.637  11.785  0.2532 -0.3611 -0.3163
13331SOL    HW141434   7.959   7.618  11.772  1.0567  3.2725 -0.9618
13331SOL    HW241435   7.863   7.683  11.869 -0.6095  1.3553 -1.2506
13332SOL     OW41436   1.131   0.536   0.529 -0.2821  0.3413 -0.5080
13332SOL    HW141437   1.064   0.486   0.481 -1.2251 -0.7791  1.8378
13332SOL    HW241438   1.194   0.471   0.557 -0.9139  0.5612  1.6068
13333SOL     OW41439   1.791   3.892   9.567  0.1007 -0.1636 -0.4582
13333SOL    HW141440   1.861   3.899   9.631  0.0691 -0.8618 -0.3425
13333SOL    HW241441   1.774   3.983   9.539  1.0457  0.0055 -0.4943
13334SOL     OW41442   2.860   4.030  11.671 -0.3642 -0.1751 -0.1067
13334SOL    HW141443   2.929   3.964  11.668 -0.5765 -0.3925 -0.2182
13334SOL    HW241444   2.810   4.010  11.750 -0.4417 -0.1616 -0.1514
13335SOL     OW41445   5.364   3.945   1.798 -0.5152  0.3891  0.1227
13335SOL    HW141446   5.299   3.913   1.735 -2.9348  1.9874  1.6351
13335SOL    HW241447   5.442   3.962   1.745 -1.7780 -0.2265 -2.0851
13336SOL     OW41448   2.187   1.082   7.030  0.1391 -0.2828  0.0696
13336SOL    HW141449   2.266   1.059   7.079  0.7703 -1.4215 -1.3884
13336SOL    HW241450   2.122   1.017   7.056 -0.2318  0.4095  0.9598
13337SOL     OW41451   1.913   7.572   7.305 -0.1168  0.0619 -0.5788
13337SOL    HW141452   1.998   7.615   7.312  0.8088 -1.3948 -2.0205
13337SOL    HW241453   1.895   7.568   7.211 -1.3742 -0.4364 -0.3444
13338SOL     OW41454   3.317   0.175   8.960  0.3840  0.6724 -0.4781
13338SOL    HW141455   3.242   0.119   8.980 -0.4961  1.2378 -1.9861
13338SOL    HW241456   3.358   0.193   9.045 -0.6744 -0.3584  0.2724
13339SOL     OW41457   2.586   2.109  12.103 -0.5342  0.3202  0.6085
13339SOL    HW141458   2.606   2.201  12.092 -0.4945  0.4333  1.5292
13339SOL    HW241459   2.616   2.088  12.192 -2.7125  0.0277  1.3386
13340SOL     OW41460   5.461   2.444  11.286  0.1946  0.1942  0.2618
13340SOL    HW141461   5.410   2.371  11.321  0.3753 -0.3905 -0.6854
13340SOL    HW241462   5.428   2.520  11.335 -1.4664 -0.1937 -0.1737
13341SOL     OW41463   6.164   0.827   3.319  0.0005  0.2505  0.2440
13341SOL    HW141464   6.076   0.795   3.300 -0.1881  1.3387 -0.8322
13341SOL    HW241465   6.150   0.910   3.364  0.4894 -0.8139  2.5121
13342SOL     OW41466   6.587   1.132   9.640  0.3548  0.1001  0.1852
13342SOL    HW141467   6.523   1.061   9.629  2.0342 -1.7598  1.6862
13342SOL    HW241468   6.661   1.105   9.586  1.5223  0.0116  1.7758
13343SOL     OW41469   4.208   1.622   9.835 -0.0306 -0.4195  0.2266
13343SOL    HW141470   4.145   1.641   9.766 -0.1408 -1.0821  0.1452
13343SOL    HW241471   4.155   1.596   9.910  0.0651  0.7147  0.7060
13344SOL     OW41472   7.759   2.710  11.871  0.7678  0.2740 -0.3820
13344SOL    HW141473   7.714   2.690  11.953  0.0173 -1.0442 -1.0881
13344SOL    HW241474   7.820   2.638  11.859  1.2816  0.7556 -0.7119
13345SOL     OW41475   5.442   7.611   2.362  0.1869 -0.5742  0.0106
13345SOL    HW141476   5.425   7.648   2.275 -1.6600 -0.5550  0.3426
13345SOL    HW241477   5.368   7.639   2.415  1.2009 -0.7406  1.5610
13346SOL     OW41478   5.108   2.590   5.465 -0.2526  0.5811  0.0178
13346SOL    HW141479   5.030   2.535   5.474 -0.7431  1.1379 -0.6399
13346SOL    HW241480   5.098   2.631   5.379  0.6558  0.8443  0.0265
13347SOL     OW41481   2.905   0.772   5.957  0.3407  0.0025 -0.1212
13347SOL    HW141482   2.924   0.862   5.929 -0.5635  0.4651  0.6768
13347SOL    HW241483   2.960   0.759   6.034  0.9057 -0.3446 -0.5788
13348SOL     OW41484   1.077   2.076   3.345 -0.4018 -0.3973 -0.3749
13348SOL    HW141485   1.103   1.996   3.300 -0.1100 -0.0200 -0.8818
13348SOL    HW241486   1.139   2.142   3.316  0.5157 -0.3881  1.4736
13349SOL     OW41487   0.916   3.176   3.667  0.6917 -0.3258  0.6179
13349SOL    HW141488   0.824   3.203   3.671  1.1750  1.3354  1.4452
13349SOL    HW241489   0.921   3.098   3.722 -0.4300 -1.1690 -0.4226
13350SOL     OW41490   1.041   0.440   1.084 -0.5515  0.2475  1.1908
13350SOL    HW141491   1.071   0.376   1.148  0.0584 -1.0572 -0.3234
13350SOL    HW241492   1.122   0.467   1.039 -1.1177  0.0230  0.0087
13351SOL     OW41493   7.959   5.216   1.175 -0.0363  0.0642 -0.6319
13351SOL    HW141494   7.993   5.150   1.115  0.0955  0.1163 -0.6143
13351SOL    HW241495   8.003   5.198   1.258  0.1337  0.2820 -0.6724
13352SOL     OW41496   2.505   1.629   3.292  0.0446  0.4979  0.0136
13352SOL    HW141497   2.592   1.644   3.331 -0.6553  0.9875  1.4332
13352SOL    HW241498   2.454   1.706   3.317 -0.9430 -0.0188 -0.3890
13353SOL     OW41499   0.591   0.824   7.131  0.1524  0.3664 -0.0395
13353SOL    HW141500   0.668   0.769   7.146 -1.9452 -2.5222  0.9973
13353SOL    HW241501   0.583   0.829   7.036  0.8810 -0.4126 -0.1515
13354SOL     OW41502   5.703   0.379   1.614  0.5466 -0.5238 -0.3419
13354SOL    HW141503   5.736   0.397   1.703 -0.5920 -0.6926  0.1315
13354SOL    HW241504   5.752   0.440   1.558 -0.9779  1.9223  0.8270
13355SOL     OW41505   7.129   0.160   9.469  0.7102  0.3708 -0.1911
13355SOL    HW141506   7.047   0.191   9.507  0.3259 -0.4793 -0.3137
13355SOL    HW241507   7.189   0.234   9.478 -0.4691  1.5079 -1.4301
13356SOL     OW41508   0.021   4.837  10.578  0.4040 -0.4707  0.0093
13356SOL    HW141509  -0.035   4.835  10.500  0.4961 -1.0583 -0.0396
13356SOL    HW241510  -0.039   4.849  10.651  0.2655 -0.5434 -0.0932
13357SOL     OW41511   2.348   1.359   3.693 -0.3723 -0.1166  0.0949
13357SOL    HW141512   2.300   1.303   3.754 -0.1996 -2.1812 -1.5389
13357SOL    HW241513   2.377   1.299   3.624  0.5073  1.8920 -1.3651
13358SOL     OW41514   0.797   4.147   3.388  0.5313 -0.5738  0.0680
13358SOL    HW141515   0.709   4.163   3.422  0.3225 -1.0442 -0.2502
13358SOL    HW241516   0.854   4.160   3.464  0.2817  0.6643  0.0592
13359SOL     OW41517   4.318   4.043   7.858 -0.0626  0.5206  0.0360
13359SOL    HW141518   4.289   4.079   7.774  0.7810 -2.3323 -1.6054
13359SOL    HW241519   4.277   4.100   7.923 -2.4716  1.6283 -2.2436
13360SOL     OW41520   3.819   2.505   3.561 -0.0113 -0.0788 -0.1418
13360SOL    HW141521   3.759   2.577   3.540 -0.4118 -0.0945  0.9246
13360SOL    HW241522   3.763   2.438   3.600  0.4450 -0.7758 -0.6551
13361SOL     OW41523   6.506   1.812  10.662  0.1825  0.4228 -0.0366
13361SOL    HW141524   6.436   1.748  10.656  0.3673  0.0132  1.6810
13361SOL    HW241525   6.482   1.880  10.599 -1.0907 -0.3150 -0.3785
13362SOL     OW41526   4.678   5.067  12.234 -0.4140 -0.2498  0.6040
13362SOL    HW141527   4.693   5.160  12.252 -1.4427  0.0489 -0.0137
13362SOL    HW241528   4.722   5.051  12.151 -0.7135 -0.1774  0.4309
13363SOL     OW41529   3.819   0.386  10.528 -0.2614  1.0269 -0.4355
13363SOL    HW141530   3.734   0.412  10.493 -1.4078  1.3505  2.3335
13363SOL    HW241531   3.807   0.386  10.623  1.4157 -3.5695  0.0423
13364SOL     OW41532   7.720   1.254   7.479  0.2793 -0.1577  0.2310
13364SOL    HW141533   7.657   1.185   7.502  0.0708 -0.3584 -0.8896
13364SOL    HW241534   7.772   1.216   7.408 -0.2480  1.0552 -0.8327
13365SOL     OW41535   1.175   0.088   3.694 -0.4741  0.6070 -0.3524
13365SOL    HW141536   1.226   0.077   3.775  1.4365 -0.2737 -1.6038
13365SOL    HW241537   1.200   0.175   3.663 -0.0070  0.3349 -0.7583
13366SOL     OW41538   0.300   5.500  11.474  0.3246  0.1876 -0.1871
13366SOL    HW141539   0.281   5.591  11.454  2.2247  0.4543 -0.9846
13366SOL    HW241540   0.380   5.503  11.526  1.7777 -1.0983 -2.2188
13367SOL     OW41541   7.346   0.274  11.415  0.0670  0.4433 -0.5703
13367SOL    HW141542   7.313   0.294  11.502 -1.8085  1.5775 -1.4825
13367SOL    HW241543   7.432   0.314  11.412  0.4997 -0.2785  0.9868
13368SOL     OW41544   0.391   0.185   5.750 -0.0737 -0.1489 -0.0808
13368SOL    HW141545   0.305   0.168   5.713  1.1665 -1.0547 -2.8316
13368SOL    HW241546   0.434   0.100   5.752  0.8663  0.3190  0.9833
13369SOL     OW41547   4.857   6.390  10.677  0.1341  0.0053 -0.6225
13369SOL    HW141548   4.863   6.294  10.669  2.0892  0.1064 -0.7953
13369SOL    HW241549   4.874   6.407  10.770 -0.8540  0.1634 -0.4608
13370SOL     OW41550   2.467   4.854   5.214  0.1348  0.0832 -0.0977
13370SOL    HW141551   2.465   4.850   5.309 -0.0653  0.5998 -0.0767
13370SOL    HW241552   2.432   4.769   5.185 -1.1412  0.4568  0.2876
13371SOL     OW41553   3.972   4.161  12.265  0.7533  0.0802 -0.2544
13371SOL    HW141554   4.043   4.161  12.201  0.7174  0.5647 -0.2965
13371SOL    HW241555   3.898   4.121  12.219  0.0453  2.4467 -1.2931
13372SOL     OW41556   7.658   2.064  11.864  0.0073 -0.3336 -0.2468
13372SOL    HW141557   7.744   2.044  11.827 -0.2079 -2.2091  0.1804
13372SOL    HW241558   7.664   2.156  11.892  0.9782  0.3881 -2.6034
13373SOL     OW41559   5.166   5.877   8.511  0.0969  0.1359 -0.4417
13373SOL    HW141560   5.180   5.848   8.601 -0.2986  1.3387  0.0294
13373SOL    HW241561   5.242   5.846   8.463  0.4574 -0.2598  0.3709
13374SOL     OW41562   4.931   4.244   4.907  0.1785 -0.2873 -0.2054
13374SOL    HW141563   4.918   4.276   4.817  0.4716 -1.4890 -0.6971
13374SOL    HW241564   5.025   4.232   4.915  0.0882 -0.9064 -0.0060
13375SOL     OW41565   5.839   0.382   2.113  0.2340  0.0813 -0.2687
13375SOL    HW141566   5.820   0.392   2.207  0.3429 -0.3009 -0.2030
13375SOL    HW241567   5.884   0.298   2.107  3.2732  1.5847 -0.2123
13376SOL     OW41568   2.153   0.057  12.387  0.0451 -0.3493  0.0572
13376SOL    HW141569   2.245   0.055  12.360 -0.1174  0.0325 -0.5435
13376SOL    HW241570   2.122   0.143  12.360  0.0604  0.3609  2.1519
13377SOL     OW41571   2.467   2.006   0.307  0.1607  0.3371 -0.1082
13377SOL    HW141572   2.539   1.961   0.352 -0.7143  1.6643  2.9051
13377SOL    HW241573   2.391   1.948   0.319  0.2012  0.0274 -1.2331
13378SOL     OW41574   0.099   5.649  10.685  0.4596 -0.3889  0.5648
13378SOL    HW141575   0.138   5.669  10.600 -0.7993  0.8251  0.2385
13378SOL    HW241576   0.047   5.570  10.670 -1.5058  1.0096 -0.4055
13379SOL     OW41577   6.152   7.308   7.321  0.4366  0.4403  0.5346
13379SOL    HW141578   6.232   7.316   7.372  1.1151  0.5624 -0.5132
13379SOL    HW241579   6.148   7.390   7.270 -0.4984  0.5543  0.7806
13380SOL     OW41580   5.660   6.799   5.353 -0.5646  0.2181 -0.0863
13380SOL    HW141581   5.628   6.756   5.274 -1.4321 -0.0719  0.4212
13380SOL    HW241582   5.685   6.728   5.412 -0.3573  0.4268  0.0835
13381SOL     OW41583   2.028   1.966   0.711 -0.1539  0.4284  0.1258
13381SOL    HW141584   2.054   1.883   0.750  0.5342  0.5013 -0.1642
13381SOL    HW241585   1.960   2.000   0.769 -0.8941 -0.6312 -0.0891
13382SOL     OW41586   3.926   4.646  11.002  0.5872 -0.4886 -0.4823
13382SOL    HW141587   4.014   4.617  10.976  0.8836  0.5381 -0.6623
13382SOL    HW241588   3.884   4.671  10.919  1.1034  1.6304 -0.1493
13383SOL     OW41589   2.891   7.546   1.566 -0.3996  0.3268 -0.1929
13383SOL    HW141590   2.897   7.489   1.490 -1.9636 -0.1529  0.0025
13383SOL    HW241591   2.876   7.633   1.530 -2.5706 -0.1033 -0.4783
13384SOL     OW41592   7.849   2.122   5.256  0.0782  0.4500 -0.1743
13384SOL    HW141593   7.842   2.179   5.333  0.8733  0.4405 -0.0877
13384SOL    HW241594   7.905   2.169   5.195 -0.2399  0.2888 -0.6043
13385SOL     OW41595   0.025   6.090   5.473  0.4335  0.2627 -0.1063
13385SOL    HW141596  -0.071   6.080   5.472  0.5033 -0.7294  0.6459
13385SOL    HW241597   0.042   6.140   5.553  0.5691  0.0404  0.0040
13386SOL     OW41598   0.729   6.661   2.201  0.5948  0.1693 -0.2777
13386SOL    HW141599   0.789   6.650   2.275 -0.6572  0.3942  0.8156
13386SOL    HW241600   0.692   6.573   2.188 -1.2871  0.6469  1.2845
13387SOL     OW41601   7.198   5.537   7.932 -0.2616 -0.4058 -0.0767
13387SOL    HW141602   7.176   5.454   7.974 -0.8134 -0.4726 -0.4822
13387SOL    HW241603   7.294   5.540   7.932 -0.2516 -0.6214  0.7494
13388SOL     OW41604   2.359   2.415   5.047  0.1438  0.0111  1.1431
13388SOL    HW141605   2.410   2.478   4.997 -0.6501 -0.1894  0.0470
13388SOL    HW241606   2.410   2.401   5.127  1.9810 -0.4212 -0.0305
13389SOL     OW41607   7.653   3.998   3.656  0.5614 -0.0937 -0.2611
13389SOL    HW141608   7.619   4.086   3.673  0.1829 -0.2331 -0.2793
13389SOL    HW241609   7.656   3.957   3.742 -2.0453 -1.0455 -0.5303
13390SOL     OW41610   0.381   6.648   9.541 -0.3036 -0.0959  0.3347
13390SOL    HW141611   0.319   6.610   9.603  2.2355 -1.8501  1.9920
13390SOL    HW241612   0.460   6.594   9.549  1.4385  1.9266 -1.6954
13391SOL     OW41613   3.251   7.111   2.913 -0.4575  0.2981 -0.0473
13391SOL    HW141614   3.167   7.075   2.940 -1.0213  0.0365 -2.0017
13391SOL    HW241615   3.315   7.067   2.969 -1.4645 -0.8609  0.2391
13392SOL     OW41616   3.210   0.933   5.868  0.5820 -0.0005  0.0045
13392SOL    HW141617   3.124   0.975   5.874  1.0315  0.9946 -0.2536
13392SOL    HW241618   3.193   0.850   5.825 -0.5221 -0.6791  1.6317
13393SOL     OW41619   1.143   2.182  11.190 -0.3345  0.0186  0.6449
13393SOL    HW141620   1.062   2.139  11.220  0.1259 -0.5310  1.1080
13393SOL    HW241621   1.149   2.262  11.242  0.3619 -0.8331  1.9190
13394SOL     OW41622   6.311   0.688   5.882  0.5188 -0.4588  0.2799
13394SOL    HW141623   6.235   0.733   5.917  0.4562 -1.1125  0.9806
13394SOL    HW241624   6.280   0.648   5.801  0.8135  1.5539 -0.9120
13395SOL     OW41625   5.253   4.787  12.191 -0.7527  0.1345 -0.0274
13395SOL    HW141626   5.243   4.862  12.133 -2.8403  0.4611  0.6887
13395SOL    HW241627   5.228   4.819  12.278 -0.1955 -1.0083  0.5860
13396SOL     OW41628   3.648   1.009   4.521 -0.2922 -0.2730 -0.1162
13396SOL    HW141629   3.564   0.989   4.563 -1.0749  0.9204 -1.0581
13396SOL    HW241630   3.628   1.079   4.460  1.3603 -0.1430 -0.5458
13397SOL     OW41631   3.304   5.035   0.258 -0.5603 -0.3168 -0.2332
13397SOL    HW141632   3.310   4.940   0.242  0.7837 -0.9774  3.1982
13397SOL    HW241633   3.255   5.042   0.339  0.2230  1.8555  0.1257
13398SOL     OW41634   4.317   0.577   7.684 -0.1741  0.5522 -0.2338
13398SOL    HW141635   4.240   0.541   7.641  1.1681 -0.1802 -2.1616
13398SOL    HW241636   4.330   0.521   7.761  0.4529 -1.6528 -1.8436
13399SOL     OW41637   7.639   6.458   9.245 -0.8268  0.7004 -0.4818
13399SOL    HW141638   7.680   6.530   9.196 -0.1082 -0.4103 -1.5640
13399SOL    HW241639   7.587   6.411   9.180 -1.9276  0.6766  0.3855
13400SOL     OW41640   1.112   1.306   0.379  0.0838  0.3411  0.1043
13400SOL    HW141641   1.038   1.301   0.319 -0.4152 -0.1034  0.7517
13400SOL    HW241642   1.189   1.293   0.323 -0.4364 -1.3980 -0.2773
13401SOL     OW41643   0.556   7.682   3.529 -0.1775 -0.1397  0.1079
13401SOL    HW141644   0.485   7.745   3.536  0.4771  0.4386  2.5150
13401SOL    HW241645   0.518   7.599   3.557 -0.1335 -0.0027  0.5884
13402SOL     OW41646   7.404   7.513   7.353  0.0933  0.6051  0.3488
13402SOL    HW141647   7.492   7.548   7.369  0.0184  0.8236  0.2824
13402SOL    HW241648   7.417   7.448   7.285  0.4685 -0.5685  1.4968
13403SOL     OW41649   1.343   0.929  11.533  0.1006  0.1554  0.1232
13403SOL    HW141650   1.383   0.996  11.587 -1.2134  0.8877  0.2324
13403SOL    HW241651   1.413   0.900  11.474  0.6030  1.8766 -0.1775
13404SOL     OW41652   3.982   7.959   5.568 -0.4160  0.6624  0.3665
13404SOL    HW141653   3.985   7.887   5.631 -0.8068  0.5552  0.2615
13404SOL    HW241654   3.971   8.037   5.622  0.6121  0.7185  0.5275
13405SOL     OW41655   0.184   3.697   5.790  0.3770  0.0892  0.4918
13405SOL    HW141656   0.133   3.746   5.725  0.4213 -0.4210  0.0681
13405SOL    HW241657   0.261   3.752   5.807 -0.5585  1.1460  1.5639
13406SOL     OW41658   4.110   7.638   7.686 -0.1294 -0.3029  0.3707
13406SOL    HW141659   4.093   7.659   7.594  1.0577  0.4184  0.2898
13406SOL    HW241660   4.067   7.554   7.700  1.5354 -1.5669 -1.5060
13407SOL     OW41661   2.202   7.669   7.686 -0.1090 -0.0993 -0.3097
13407SOL    HW141662   2.217   7.664   7.592 -1.2980 -1.8085 -0.4617
13407SOL    HW241663   2.118   7.712   7.695 -0.7044 -1.2391 -0.1480
13408SOL     OW41664   0.942   4.772   3.929 -0.2973 -0.0058 -0.1946
13408SOL    HW141665   1.019   4.719   3.951 -0.8014 -1.1718 -1.1321
13408SOL    HW241666   0.970   4.826   3.856 -0.3157 -0.3299 -0.4451
13409SOL     OW41667   0.742   3.861  10.151  0.1919  0.0234 -0.0203
13409SOL    HW141668   0.756   3.927  10.084 -1.0211 -0.4840 -0.8064
13409SOL    HW241669   0.794   3.786  10.123  0.2078  0.0386 -0.0316
13410SOL     OW41670   1.918   3.113  12.089 -0.6863  0.8439  0.1161
13410SOL    HW141671   1.878   3.139  12.006  0.9827  1.5135 -0.5138
13410SOL    HW241672   1.969   3.189  12.116  0.5690 -0.1372  0.6157
13411SOL     OW41673   3.018   0.999   8.130 -0.3523 -0.0654  0.2503
13411SOL    HW141674   3.078   0.926   8.113 -0.5898  0.0420 -1.2146
13411SOL    HW241675   2.994   0.990   8.222  0.4127 -1.2349  0.3543
13412SOL     OW41676   2.654   0.788   8.052  0.1233  0.0320  0.9789
13412SOL    HW141677   2.698   0.743   7.978  1.3121 -0.0019  1.6801
13412SOL    HW241678   2.654   0.880   8.027 -2.8322 -0.3113 -0.7280
13413SOL     OW41679   7.636   5.194   3.105 -0.6857 -0.4096 -0.2793
13413SOL    HW141680   7.689   5.124   3.067 -0.0966 -1.4005  2.1909
13413SOL    HW241681   7.578   5.222   3.034  0.8032 -1.6403 -2.0582
13414SOL     OW41682   2.414   0.635   6.698 -0.0515 -0.0403 -0.0744
13414SOL    HW141683   2.352   0.675   6.759 -1.4044 -0.4765 -1.0942
13414SOL    HW241684   2.390   0.672   6.613 -1.2311 -2.7445 -1.0348
13415SOL     OW41685   0.379   4.467   2.776  1.0353  0.3840  0.1361
13415SOL    HW141686   0.345   4.381   2.750 -0.7290  1.0692  0.0081
13415SOL    HW241687   0.393   4.513   2.693 -2.6070  1.8373  0.1573
13416SOL     OW41688   5.443   5.618  11.415  0.0355  0.3790 -0.1160
13416SOL    HW141689   5.374   5.621  11.481 -0.0321 -0.8921 -0.0956
13416SOL    HW241690   5.422   5.540  11.363  0.7208  0.7256 -0.9309
13417SOL     OW41691   1.993   4.293   9.431 -0.5124  0.2671  0.4925
13417SOL    HW141692   2.023   4.372   9.476  0.4952  1.5649 -2.2563
13417SOL    HW241693   2.073   4.242   9.416 -1.1063 -1.2116  1.9351
13418SOL     OW41694   4.124   6.235  10.645 -0.3877 -0.4258 -0.4838
13418SOL    HW141695   4.216   6.233  10.669 -0.1872 -1.6859 -1.2441
13418SOL    HW241696   4.123   6.272  10.557 -0.8279  1.4163  0.2476
13419SOL     OW41697   5.216   2.020   5.253 -0.6580  0.1580  0.0985
13419SOL    HW141698   5.240   1.929   5.236 -0.3878  0.6654 -2.7055
13419SOL    HW241699   5.121   2.018   5.266 -0.3907 -0.7401  2.3303
13420SOL     OW41700   0.546   2.399   5.461 -0.0542  0.8222 -0.3657
13420SOL    HW141701   0.584   2.347   5.532 -0.0978  0.7712 -0.3795
13420SOL    HW241702   0.589   2.367   5.382 -1.7268 -0.8211 -0.6785
13421SOL     OW41703   2.562   5.400  11.516  0.0452  0.2822  0.1051
13421SOL    HW141704   2.585   5.309  11.537  0.0039  0.0204 -0.9376
13421SOL    HW241705   2.640   5.435  11.472 -0.3639  0.3887 -0.5451
13422SOL     OW41706   5.222   1.855   2.648  0.1512 -0.0204  0.0849
13422SOL    HW141707   5.153   1.807   2.693  0.6318 -0.7333  0.0784
13422SOL    HW241708   5.287   1.873   2.716  1.0237 -1.3673 -0.3624
13423SOL     OW41709   6.225   5.319   5.261  0.4359 -0.1659  0.5417
13423SOL    HW141710   6.247   5.370   5.183  0.9603 -0.6225  0.3821
13423SOL    HW241711   6.303   5.265   5.277  0.3490 -0.0608  1.3999
13424SOL     OW41712   5.498   1.159   9.692 -0.0149  0.1200 -0.0175
13424SOL    HW141713   5.479   1.249   9.667  0.1574  0.0585 -0.3780
13424SOL    HW241714   5.450   1.146   9.774  0.7517  0.8474  0.5627
13425SOL     OW41715   6.330   4.942   2.985 -0.3646 -0.2669 -0.4853
13425SOL    HW141716   6.348   5.017   2.928 -1.1372  1.1786  1.0850
13425SOL    HW241717   6.407   4.886   2.975 -0.2295  0.1884 -2.4962
13426SOL     OW41718   1.791   1.954   6.750 -0.1199 -0.0646  0.3579
13426SOL    HW141719   1.886   1.964   6.741 -0.2051  1.6985  1.1863
13426SOL    HW241720   1.774   1.866   6.716  1.7322 -0.2187 -0.3046
13427SOL     OW41721   5.205   7.699   2.038  0.3504 -0.7315  0.2308
13427SOL    HW141722   5.167   7.612   2.041 -1.2459 -0.0245  2.1264
13427SOL    HW241723   5.199   7.724   1.945  0.1640 -2.3330 -0.2128
13428SOL     OW41724   6.617   5.491   6.800  0.4356 -0.6953  0.2877
13428SOL    HW141725   6.709   5.470   6.787  0.1412 -3.1260  1.4552
13428SOL    HW241726   6.615   5.546   6.877  0.8992 -0.8873  0.4408
13429SOL     OW41727   5.886   1.105  11.967  0.3369  0.1325  0.2481
13429SOL    HW141728   5.855   1.163  11.897  1.4510  1.2146  0.6165
13429SOL    HW241729   5.943   1.043  11.922  1.2293  0.9657  0.2012
13430SOL     OW41730   2.028   7.947   9.961 -0.6154 -0.3487 -0.4753
13430SOL    HW141731   1.932   7.946   9.968 -0.4704 -0.3192  2.6570
13430SOL    HW241732   2.046   8.027   9.911 -2.2043 -0.0202 -0.5977
13431SOL     OW41733   5.679   5.066   5.595  0.2708  0.1549 -0.3238
13431SOL    HW141734   5.664   5.161   5.594  0.6889  0.2464  0.7672
13431SOL    HW241735   5.654   5.039   5.683  0.3609 -0.7203 -0.5597
13432SOL     OW41736   6.690   5.262   8.031  0.5516  0.3864  0.2844
13432SOL    HW141737   6.665   5.195   7.967  0.1879  1.5732 -0.8639
13432SOL    HW241738   6.634   5.245   8.107 -0.4401  0.1600 -0.4833
13433SOL     OW41739   6.135   3.304   2.545 -0.4605  0.1221  0.3168
13433SOL    HW141740   6.216   3.282   2.592 -0.3587  0.0581  0.1096
13433SOL    HW241741   6.110   3.389   2.580  0.6650  0.9813 -0.8909
13434SOL     OW41742   6.944   7.437   2.503  0.3444 -0.0951  0.1083
13434SOL    HW141743   7.021   7.397   2.544  0.4882  1.5126  1.4869
13434SOL    HW241744   6.873   7.420   2.564 -0.3396 -1.2028 -0.9615
13435SOL     OW41745   6.636   4.563  12.152 -0.4665 -0.0954  0.1012
13435SOL    HW141746   6.587   4.629  12.200  1.1831  0.7936  0.6346
13435SOL    HW241747   6.572   4.494  12.134 -1.6008  0.4156  1.8948
13436SOL     OW41748   2.286   0.470   8.942 -0.2865 -0.0816  0.3535
13436SOL    HW141749   2.284   0.388   8.892 -0.8802  0.5971 -0.7881
13436SOL    HW241750   2.235   0.451   9.021  0.4474 -1.1045  0.5933
13437SOL     OW41751   3.518   4.210   2.744 -0.1295 -0.0725  1.1214
13437SOL    HW141752   3.480   4.298   2.746 -0.6164 -0.2474  0.3368
13437SOL    HW241753   3.599   4.217   2.794  0.9401  1.3543 -0.6872
13438SOL     OW41754   0.744   6.534   5.917  0.0601 -0.1253  0.1727
13438SOL    HW141755   0.832   6.527   5.953 -0.3641  0.7097  1.4399
13438SOL    HW241756   0.720   6.626   5.931 -0.1045  0.2917 -2.3514
13439SOL     OW41757   5.625   4.984   7.085  0.4031 -0.4774 -0.1907
13439SOL    HW141758   5.543   5.031   7.100  0.2171 -1.2686  1.5135
13439SOL    HW241759   5.599   4.893   7.076  1.0869 -0.7630  0.5669
13440SOL     OW41760   6.733   0.375   7.028 -0.4069 -0.1679 -0.0211
13440SOL    HW141761   6.806   0.371   7.090 -0.9988  1.0089  0.7807
13440SOL    HW241762   6.760   0.442   6.965 -0.8799  0.4306  0.4048
13441SOL     OW41763   2.675   0.675   6.082 -0.0989 -0.0154  0.1058
13441SOL    HW141764   2.675   0.699   6.174 -0.5133  0.1952  0.0563
13441SOL    HW241765   2.757   0.710   6.047 -0.6526  1.2838  0.0560
13442SOL     OW41766   5.580   2.239  12.441  0.1459  0.5886 -0.2727
13442SOL    HW141767   5.495   2.243  12.397  0.2039  0.3953 -0.4062
13442SOL    HW241768   5.588   2.323  12.485 -0.7111  0.1118  0.8471
13443SOL     OW41769   6.222   6.099   1.684 -0.1727  0.2383  0.0463
13443SOL    HW141770   6.241   6.026   1.626  1.4543 -0.6846  1.6217
13443SOL    HW241771   6.282   6.168   1.658 -0.3085  0.2867 -0.1425
13444SOL     OW41772   6.362   3.451   1.489 -0.1056  0.6838 -0.2865
13444SOL    HW141773   6.403   3.483   1.570 -0.2179  1.9759 -0.7220
13444SOL    HW241774   6.271   3.435   1.514  0.3492 -1.1635  0.4061
13445SOL     OW41775   5.009   4.958   9.328  0.2165 -0.3217 -0.1533
13445SOL    HW141776   5.047   4.877   9.362 -2.0516 -0.3837  2.6455
13445SOL    HW241777   4.934   4.930   9.275 -0.3477 -0.1331  0.5151
13446SOL     OW41778   3.352   7.269  10.120  0.0111 -0.2565  0.0957
13446SOL    HW141779   3.415   7.322  10.168  0.2610 -0.8854  0.4746
13446SOL    HW241780   3.393   7.183  10.114  0.2099 -0.0581 -1.7126
13447SOL     OW41781   3.191   6.234   4.258  0.2957 -0.8256 -0.6844
13447SOL    HW141782   3.241   6.281   4.325  0.8931 -1.4444 -0.6815
13447SOL    HW241783   3.235   6.256   4.176  3.0288 -4.2061 -0.3992
13448SOL     OW41784   1.744   6.830   7.678  0.3494 -0.2416 -0.0844
13448SOL    HW141785   1.693   6.772   7.736 -0.3951  1.0573  0.6160
13448SOL    HW241786   1.685   6.903   7.661  1.1113  0.1074 -1.3122
13449SOL     OW41787   6.850   1.992  10.590 -0.5173 -0.3761  0.1938
13449SOL    HW141788   6.762   1.978  10.555  0.0776 -0.9342 -1.1582
13449SOL    HW241789   6.907   1.986  10.514  0.7125 -0.1591  1.0684
13450SOL     OW41790   4.735   7.732   9.698 -0.2946 -0.5922  0.4166
13450SOL    HW141791   4.650   7.741   9.741 -0.0433 -0.0219  0.8088
13450SOL    HW241792   4.769   7.647   9.728  0.2235  0.1401  2.0059
13451SOL     OW41793   1.823   3.660  11.998  0.2494  0.1879  0.0120
13451SOL    HW141794   1.829   3.574  11.956  0.9553 -0.1965  0.8839
13451SOL    HW241795   1.902   3.707  11.969  1.1463 -0.3505  1.4579
13452SOL     OW41796   7.296   0.583  12.333  0.5699 -0.0668 -0.3241
13452SOL    HW141797   7.345   0.580  12.415  0.6144  2.0498 -0.2263
13452SOL    HW241798   7.221   0.524  12.349  1.0057 -0.3308  0.9241
13453SOL     OW41799   3.120   7.983   1.395  0.9362 -0.2476  0.1072
13453SOL    HW141800   3.101   7.890   1.400  0.3858 -0.1093  0.6734
13453SOL    HW241801   3.210   7.992   1.427  0.0747 -0.2757  2.7462
13454SOL     OW41802   2.916   2.500  10.720 -0.5919  0.2546 -0.0867
13454SOL    HW141803   3.012   2.505  10.723 -0.5487 -0.0739 -0.7116
13454SOL    HW241804   2.897   2.467  10.633 -1.2757  0.2274  0.0696
13455SOL     OW41805   2.870   2.353   3.306 -0.1814 -0.1153 -0.4746
13455SOL    HW141806   2.873   2.395   3.220 -0.5253 -1.6695 -1.2826
13455SOL    HW241807   2.801   2.400   3.353 -0.5726  0.2051 -1.3475
13456SOL     OW41808   0.881   7.374   8.970 -0.0159  0.4858  0.0688
13456SOL    HW141809   0.813   7.381   8.904 -0.0950 -0.4602  0.0335
13456SOL    HW241810   0.863   7.446   9.031 -2.4854 -1.0509  1.3354
13457SOL     OW41811   0.258   6.295   8.477 -0.6197 -1.1210  0.2613
13457SOL    HW141812   0.228   6.205   8.469  0.0822 -1.1895 -2.5274
13457SOL    HW241813   0.255   6.330   8.388  1.9189  0.6706  0.7671
13458SOL     OW41814   2.042   2.756   0.907 -0.0755 -0.2754 -0.4799
13458SOL    HW141815   2.072   2.845   0.889 -2.1433  0.5384 -0.1816
13458SOL    HW241816   2.058   2.708   0.826  1.2381  0.2855 -0.5852
13459SOL     OW41817   4.826   7.040   3.912 -0.1969  0.4347  0.7005
13459SOL    HW141818   4.811   6.953   3.875 -0.3936  0.1868  1.3505
13459SOL    HW241819   4.759   7.050   3.980  0.6560  0.5435  1.5558
13460SOL     OW41820   5.071   4.862   5.390 -0.1835 -0.3555 -0.5827
13460SOL    HW141821   5.106   4.949   5.411 -2.2927  0.7039 -1.2460
13460SOL    HW241822   5.027   4.834   5.470  1.4195 -1.3831  0.0114
13461SOL     OW41823   7.864   1.008   4.057 -0.1305 -0.2141  0.0633
13461SOL    HW141824   7.944   1.049   4.025  0.3156 -0.0010  1.3994
13461SOL    HW241825   7.860   1.030   4.150 -0.5394 -2.1178  0.5550
13462SOL     OW41826   6.353   1.734   7.881 -0.2286  0.1287  0.0807
13462SOL    HW141827   6.344   1.740   7.786 -0.4237  1.7780  0.1711
13462SOL    HW241828   6.447   1.745   7.897 -0.4471  2.1723  0.1743
13463SOL     OW41829   6.298   0.493   9.974 -0.1843  0.2853  0.2522
13463SOL    HW141830   6.252   0.508  10.057 -0.1001  0.9780  0.1809
13463SOL    HW241831   6.284   0.573   9.924  0.8446  0.3804  0.1050
13464SOL     OW41832   5.861   1.776  12.250 -0.3387  0.0440 -0.1430
13464SOL    HW141833   5.948   1.748  12.279  0.7965  0.8893 -2.4821
13464SOL    HW241834   5.846   1.858  12.296  1.2572  1.1850 -1.5618
13465SOL     OW41835   1.727   6.840   5.323 -0.4270 -0.5864 -0.0109
13465SOL    HW141836   1.714   6.888   5.406  1.4287  0.3134 -0.1797
13465SOL    HW241837   1.741   6.909   5.258  1.5775 -1.3101 -0.4049
13466SOL     OW41838   0.152   6.420   7.256 -0.2938 -0.3525 -0.4713
13466SOL    HW141839   0.116   6.436   7.343 -0.5181 -2.1792 -0.1992
13466SOL    HW241840   0.141   6.326   7.242  2.0733 -0.5404 -1.4404
13467SOL     OW41841   0.043   5.562   8.845  0.3970  0.3780  0.2176
13467SOL    HW141842   0.019   5.483   8.797  0.6732  0.2870  0.2280
13467SOL    HW241843   0.079   5.620   8.778 -1.3616  1.1682 -0.1047
13468SOL     OW41844   1.362   2.067  12.296 -0.7185  0.3691 -0.3710
13468SOL    HW141845   1.324   2.151  12.272  0.4961  0.7871 -0.9014
13468SOL    HW241846   1.313   2.003  12.244 -0.2449  0.9637 -1.5796
13469SOL     OW41847   1.753   3.783   3.668  0.3706 -0.2457 -0.9934
13469SOL    HW141848   1.823   3.834   3.708 -1.5161  1.9746 -0.2999
13469SOL    HW241849   1.732   3.715   3.733  0.8269  0.0438 -0.5427
13470SOL     OW41850   2.712   0.109   7.633 -0.6638  0.0970  0.2073
13470SOL    HW141851   2.767   0.153   7.698 -0.7081 -0.2423  0.4823
13470SOL    HW241852   2.735   0.150   7.550 -1.6452  1.5568  0.6119
13471SOL     OW41853   4.916   3.695  11.407  0.0057 -0.0441 -0.9230
13471SOL    HW141854   4.844   3.749  11.437 -0.3303 -1.8684  1.9062
13471SOL    HW241855   4.874   3.615  11.375  0.6694 -0.7727 -0.0400
13472SOL     OW41856   2.509   7.478   8.824  0.3678 -0.0411  0.5372
13472SOL    HW141857   2.497   7.550   8.885  1.3448 -0.3086  1.0657
13472SOL    HW241858   2.574   7.510   8.761  1.3062 -0.6807  1.1600
13473SOL     OW41859   6.882   5.185  12.478 -0.2543  0.1704  0.3471
13473SOL    HW141860   6.857   5.276  12.493  0.6954  0.5099 -0.0486
13473SOL    HW241861   6.926   5.159  12.559  0.8463  0.5690 -0.1007
13474SOL     OW41862   6.796   7.345   5.398 -0.3093  0.1682 -0.1816
13474SOL    HW141863   6.714   7.316   5.440 -0.1024  1.4703  1.2132
13474SOL    HW241864   6.823   7.422   5.449  1.1760  0.4649 -1.3497
13475SOL     OW41865   4.863   3.885   3.407 -0.0896  0.3955 -0.0433
13475SOL    HW141866   4.767   3.883   3.416 -0.1465  1.0657 -0.4435
13475SOL    HW241867   4.878   3.906   3.315  0.4485  0.3147  0.0243
13476SOL     OW41868   2.388   6.338   4.919 -0.1761  0.4270 -0.2289
13476SOL    HW141869   2.370   6.384   5.000 -0.0223  0.0114  0.0487
13476SOL    HW241870   2.475   6.300   4.932 -0.8642 -1.1331  0.1269
13477SOL     OW41871   1.344   6.199  12.136 -0.5207 -0.9879  0.1001
13477SOL    HW141872   1.347   6.105  12.120 -0.8664 -1.1256  0.8092
13477SOL    HW241873   1.262   6.228  12.095 -1.0944 -1.2331  1.0552
13478SOL     OW41874   2.485   3.272   4.429  0.1669  0.1739 -0.4327
13478SOL    HW141875   2.549   3.271   4.500 -2.1528  2.6654  1.9717
13478SOL    HW241876   2.423   3.202   4.451 -0.6302  1.0369  0.1835
13479SOL     OW41877   2.425   0.904   0.457 -0.5456  0.2946  0.1484
13479SOL    HW141878   2.357   0.954   0.502 -1.1335 -0.6206  0.3108
13479SOL    HW241879   2.496   0.966   0.443 -1.1420  1.0904  0.5980
13480SOL     OW41880   7.682   4.874   3.301  0.4250  0.0982 -0.1585
13480SOL    HW141881   7.710   4.855   3.390 -2.4602  1.7339  1.2357
13480SOL    HW241882   7.660   4.789   3.264  0.7627 -0.5252  1.0204
13481SOL     OW41883   3.896   4.535   9.777 -0.6970 -0.6376 -0.3922
13481SOL    HW141884   3.894   4.546   9.682 -2.8662 -1.7069 -0.5385
13481SOL    HW241885   3.813   4.491   9.797  0.4424 -1.9086  1.8164
13482SOL     OW41886   4.138   2.137   9.576  0.2308 -0.5378  0.2417
13482SOL    HW141887   4.227   2.172   9.574  0.5670 -1.3850 -0.5385
13482SOL    HW241888   4.120   2.111   9.486 -1.1091  0.3096  0.2340
13483SOL     OW41889   1.207   7.083  10.712  0.2034  0.7166 -0.1636
13483SOL    HW141890   1.239   7.008  10.661 -0.9469  0.1216 -0.0537
13483SOL    HW241891   1.262   7.084  10.790  2.0934  1.7318 -1.4464
13484SOL     OW41892   7.766   5.544   7.068  0.1706  0.9671 -0.0272
13484SOL    HW141893   7.831   5.586   7.125  0.5225  1.5427 -0.8238
13484SOL    HW241894   7.819   5.498   7.002 -0.2249 -0.0133  0.3305
13485SOL     OW41895   1.971   2.981   3.109 -0.1392 -0.3815 -0.4895
13485SOL    HW141896   1.993   3.050   3.046 -1.5620  0.4033 -0.1888
13485SOL    HW241897   1.916   2.920   3.059 -0.4215 -0.2974 -0.2882
13486SOL     OW41898   6.189   7.531   5.649  0.1996 -0.7532  0.4712
13486SOL    HW141899   6.095   7.523   5.632  0.2921 -0.6928 -0.0915
13486SOL    HW241900   6.211   7.453   5.699  0.1007 -1.4552 -0.5377
13487SOL     OW41901   1.948   2.277   4.486 -0.1997 -0.1684  0.0681
13487SOL    HW141902   1.981   2.283   4.397 -0.5792 -1.0667 -0.1420
13487SOL    HW241903   1.870   2.222   4.479  0.2642 -0.9794  1.0820
13488SOL     OW41904   3.056   5.670  10.049 -0.0830  0.4380  0.1738
13488SOL    HW141905   3.051   5.702   9.959  1.9094  2.7460  0.7641
13488SOL    HW241906   3.136   5.618  10.052  0.1494  0.8145  0.7098
13489SOL     OW41907   1.779   1.947   5.272  0.4113  0.5614  0.2953
13489SOL    HW141908   1.752   1.952   5.364 -1.0327  0.3640 -0.0819
13489SOL    HW241909   1.696   1.940   5.224  1.1861 -0.3881 -0.9531
13490SOL     OW41910   4.346   5.132   0.050 -0.2760 -0.7348  0.0008
13490SOL    HW141911   4.273   5.072   0.040 -0.7004 -0.2607  0.1736
13490SOL    HW241912   4.382   5.142  -0.039 -0.2609 -1.1615 -0.0416
13491SOL     OW41913   7.745   7.798  12.358  0.0473  0.0732 -0.4954
13491SOL    HW141914   7.667   7.854  12.366 -0.7838 -1.0933 -0.2322
13491SOL    HW241915   7.731   7.749  12.277  0.7837  0.2372 -0.7314
13492SOL     OW41916   6.123   3.012   4.394 -0.1176 -0.3511 -0.0550
13492SOL    HW141917   6.132   3.020   4.489 -0.6322 -1.1247  0.0727
13492SOL    HW241918   6.030   2.993   4.380  0.1560 -1.4005 -0.6052
13493SOL     OW41919   6.710   1.828   4.605  0.1727  0.1064  0.2034
13493SOL    HW141920   6.790   1.809   4.556 -1.0538 -1.2270 -1.3900
13493SOL    HW241921   6.641   1.832   4.538 -1.2510  0.3475  1.6204
13494SOL     OW41922   2.061   0.228  11.930 -0.2078 -0.2039  0.1713
13494SOL    HW141923   2.021   0.289  11.991 -1.1776  0.9737 -1.5604
13494SOL    HW241924   2.098   0.283  11.861 -2.9179 -1.4768 -2.5565
13495SOL     OW41925   2.533   5.803   1.915  0.4311  0.6320  0.6406
13495SOL    HW141926   2.512   5.832   2.004  0.7037  2.3202  0.2035
13495SOL    HW241927   2.620   5.763   1.923  0.2487  0.3422  1.2117
13496SOL     OW41928   3.486   4.596   3.699  0.0917 -0.2528 -0.0631
13496SOL    HW141929   3.452   4.520   3.747  0.2148 -0.5474 -0.4364
13496SOL    HW241930   3.417   4.617   3.636  0.0643 -0.0637  0.0300
13497SOL     OW41931   3.260   3.849   5.618 -0.1380 -0.0879 -0.0101
13497SOL    HW141932   3.173   3.860   5.582  0.3577  0.8365 -0.9979
13497SOL    HW241933   3.265   3.912   5.690 -0.1610  0.1047 -0.1792
13498SOL     OW41934   3.047   5.789   9.816 -0.3904  0.2202  0.2865
13498SOL    HW141935   2.960   5.819   9.789 -0.7389 -1.0512 -0.0655
13498SOL    HW241936   3.107   5.857   9.785 -1.2717  1.2486  0.7703
13499SOL     OW41937   1.108   7.031   4.726  0.4967  0.3634  0.3765
13499SOL    HW141938   1.024   7.021   4.772  0.6158 -1.1096  0.3220
13499SOL    HW241939   1.100   7.115   4.681 -0.5463  0.7320  1.1928
13500SOL     OW41940   3.243   7.744   4.124 -0.1257  0.5892 -0.1370
13500SOL    HW141941   3.315   7.796   4.089  0.7449  0.2511  1.0775
13500SOL    HW241942   3.285   7.682   4.184 -1.3906  0.1710  0.3575
13501SOL     OW41943   5.692   0.549   3.848 -0.5808 -0.0324  0.0208
13501SOL    HW141944   5.674   0.605   3.924 -2.3547  0.9456 -1.0497
13501SOL    HW241945   5.764   0.593   3.803 -1.5229  1.0630 -0.4543
13502SOL     OW41946   6.870   5.394   8.800  0.0803  0.0154  0.1639
13502SOL    HW141947   6.955   5.361   8.827  0.5209  0.6469 -0.4352
13502SOL    HW241948   6.869   5.485   8.827 -0.5581 -0.0820  0.4959
13503SOL     OW41949   7.801   7.779   7.649  0.0048 -0.0680 -0.1553
13503SOL    HW141950   7.834   7.714   7.711  0.8329  0.4030 -0.0873
13503SOL    HW241951   7.879   7.809   7.603 -0.4418  0.4979 -0.5510
13504SOL     OW41952   5.180   7.900  11.485  0.4290  0.0277  0.2114
13504SOL    HW141953   5.128   7.930  11.411  1.8497  1.0665 -0.4248
13504SOL    HW241954   5.145   7.948  11.560  0.2179  0.4129 -0.1312
13505SOL     OW41955   4.500   4.467   2.900 -0.2850 -0.2767 -0.0529
13505SOL    HW141956   4.472   4.380   2.873 -0.3041 -0.3291  0.1346
13505SOL    HW241957   4.543   4.504   2.823  1.3814 -1.1525  0.4066
13506SOL     OW41958   2.649   4.956   3.190  0.0472  0.5483  0.1872
13506SOL    HW141959   2.641   5.052   3.194  2.2789  1.0931 -3.4662
13506SOL    HW241960   2.742   4.939   3.203 -0.3917 -1.2461  1.3443
13507SOL     OW41961   0.576   4.320   4.114  0.0206  0.5152  0.5910
13507SOL    HW141962   0.535   4.393   4.068  2.4692  0.8900 -1.2077
13507SOL    HW241963   0.636   4.361   4.176 -0.4093  0.0080  1.3496
13508SOL     OW41964   5.913   7.110   7.823 -0.2289  0.1643  0.1477
13508SOL    HW141965   5.994   7.117   7.772 -0.1605 -0.1644  0.2125
13508SOL    HW241966   5.905   7.196   7.866 -0.2035  0.3855 -0.2862
13509SOL     OW41967   6.319   6.113  11.135 -0.1332 -0.3474 -0.4027
13509SOL    HW141968   6.277   6.034  11.169  0.5281 -0.0703  1.1067
13509SOL    HW241969   6.286   6.184  11.190  0.8069  0.1441 -0.4455
13510SOL     OW41970   5.039   5.222   3.521 -0.1120  0.1494 -0.3890
13510SOL    HW141971   5.024   5.193   3.611  0.0546 -0.8365 -0.6671
13510SOL    HW241972   5.006   5.150   3.467  0.6642  0.3151 -1.0984
13511SOL     OW41973   5.800   3.351  11.344 -0.0145  0.2372 -0.2798
13511SOL    HW141974   5.852   3.376  11.421 -1.1413  1.5942  0.0937
13511SOL    HW241975   5.763   3.266  11.367  1.6695 -0.5750 -0.3942
13512SOL     OW41976   6.031   4.636   0.958 -0.6406 -0.1504 -0.7162
13512SOL    HW141977   6.080   4.706   1.001 -2.2920  0.6500 -0.0941
13512SOL    HW241978   5.951   4.677   0.928 -0.6829 -1.2988 -2.2994
13513SOL     OW41979   2.774   2.893   5.149 -0.4873  0.3170  0.0632
13513SOL    HW141980   2.726   2.862   5.225  0.5103  0.8284  0.9211
13513SOL    HW241981   2.825   2.968   5.181  0.9186 -0.2293 -0.7872
13514SOL     OW41982   5.051   5.231   4.208 -0.6094  0.2350 -0.0207
13514SOL    HW141983   5.002   5.277   4.276 -0.6177 -0.0947  0.1997
13514SOL    HW241984   4.985   5.184   4.158 -0.5763  0.2672 -0.0957
13515SOL     OW41985   5.586   5.080   9.043  0.2222 -0.1909  0.2949
13515SOL    HW141986   5.664   5.055   9.091  0.9338  0.6499 -0.3969
13515SOL    HW241987   5.595   5.037   8.958  0.1357  0.2129  0.0755
13516SOL     OW41988   5.862   5.813  12.260 -0.1699 -0.1414  0.2900
13516SOL    HW141989   5.847   5.749  12.330 -0.4982 -1.9110 -1.3135
13516SOL    HW241990   5.776   5.853  12.245 -0.3752 -0.6312  0.1202
13517SOL     OW41991   3.859   3.707   6.455  0.3155  0.4200 -0.1509
13517SOL    HW141992   3.804   3.778   6.488 -1.5732 -1.3710  0.6880
13517SOL    HW241993   3.911   3.679   6.530  2.1865  1.7941 -0.8287
13518SOL     OW41994   6.439   4.573   4.271 -0.3530 -0.2177  0.1998
13518SOL    HW141995   6.373   4.620   4.219  1.4474  1.6407 -0.5785
13518SOL    HW241996   6.492   4.528   4.206  0.2671 -0.1331  0.6395
13519SOL     OW41997   5.769   5.182  11.934 -0.7041 -0.5454 -0.0761
13519SOL    HW141998   5.750   5.214  12.022 -1.5278 -0.6294 -0.2213
13519SOL    HW241999   5.837   5.241  11.902 -0.4069 -0.5012  0.6035
13520SOL     OW42000   2.354   3.521   2.832  0.2327  0.0710  0.2718
13520SOL    HW142001   2.401   3.488   2.909  0.7893  0.1287 -0.0369
13520SOL    HW242002   2.416   3.511   2.760 -0.6101 -0.8540 -0.3495
13521SOL     OW42003   6.981   6.430   3.075 -0.0035 -0.3980  0.0103
13521SOL    HW142004   6.894   6.465   3.055 -0.0434 -0.1411  0.6291
13521SOL    HW242005   6.970   6.335   3.071 -0.1374 -0.3596 -0.6446
13522SOL     OW42006   4.337   7.030   0.139  0.0870 -0.2571  0.6152
13522SOL    HW142007   4.306   6.981   0.215 -3.3420  1.0398  0.2290
13522SOL    HW242008   4.306   6.980   0.064  0.1004  0.4069  0.1588
13523SOL     OW42009   5.263   2.833  10.874  0.4624  0.4630 -0.3886
13523SOL    HW142010   5.257   2.894  10.800 -1.0945 -0.9135 -1.4910
13523SOL    HW242011   5.172   2.815  10.898  0.8920 -0.7902  0.4304
13524SOL     OW42012   7.100   4.607  10.464 -0.7629 -0.2302 -0.8099
13524SOL    HW142013   7.007   4.623  10.450 -0.4722  0.9845 -1.5648
13524SOL    HW242014   7.123   4.666  10.536 -0.8683 -1.6385  0.4222
13525SOL     OW42015   1.396   0.127   7.690 -0.1147 -0.0389 -0.1507
13525SOL    HW142016   1.345   0.075   7.753 -0.8531  0.5522 -0.2534
13525SOL    HW242017   1.331   0.162   7.630  0.5411 -0.1987 -0.9635
13526SOL     OW42018   3.511   4.757   3.025  0.1927  0.0823 -0.1657
13526SOL    HW142019   3.562   4.676   3.035  0.8843  0.2874 -1.6925
13526SOL    HW242020   3.546   4.815   3.092 -1.5379 -1.3983  2.1838
13527SOL     OW42021   6.824   2.582   9.311  0.8758  0.6440 -0.2778
13527SOL    HW142022   6.895   2.609   9.253  0.0398  0.1932 -1.5589
13527SOL    HW242023   6.851   2.613   9.398  3.3652 -0.8481 -0.4081
13528SOL     OW42024   1.116   5.829  12.053  0.0424  0.3280  0.5107
13528SOL    HW142025   1.164   5.895  12.104 -0.7489  0.9755  0.4371
13528SOL    HW242026   1.095   5.761  12.117  0.1664  0.5307  0.7716
13529SOL     OW42027   6.651   0.742   1.696  0.4346 -0.2134  0.4492
13529SOL    HW142028   6.698   0.669   1.735  0.3004 -0.2080  0.6212
13529SOL    HW242029   6.571   0.704   1.661  1.6562 -0.6775 -2.0419
13530SOL     OW42030   3.309   1.013   0.222 -0.8025  0.4664 -0.3940
13530SOL    HW142031   3.260   0.931   0.214  1.7209 -1.2943  0.7382
13530SOL    HW242032   3.297   1.040   0.314 -1.3270  1.1891 -0.6659
13531SOL     OW42033   6.498   2.181   3.407  0.0407 -0.3294  0.0838
13531SOL    HW142034   6.499   2.158   3.314  1.1685 -0.8745  0.2113
13531SOL    HW242035   6.540   2.268   3.410 -1.4334  0.4215 -0.0647
13532SOL     OW42036   4.675   1.906   1.720  0.9693 -0.5447  0.1400
13532SOL    HW142037   4.723   1.867   1.794  1.4519  1.1916  0.7967
13532SOL    HW242038   4.740   1.961   1.676 -0.2138  1.2955  0.6126
13533SOL     OW42039   6.387   3.605   9.551 -0.1337 -0.0417 -0.1520
13533SOL    HW142040   6.305   3.587   9.596 -0.0107  0.3255  0.2254
13533SOL    HW242041   6.376   3.567   9.463 -1.1198  0.9429 -0.4707
13534SOL     OW42042   5.858   7.483   8.996  0.3600 -0.3670 -0.6158
13534SOL    HW142043   5.835   7.566   8.954  0.0055  1.1687  2.3422
13534SOL    HW242044   5.775   7.451   9.030  0.7189 -1.2866 -0.5962
13535SOL     OW42045   6.951   0.385   7.785  0.2243 -0.5451 -0.4843
13535SOL    HW142046   7.011   0.459   7.798 -2.3334  1.5089  0.5406
13535SOL    HW242047   6.933   0.353   7.873 -1.3936 -0.0358 -0.5974
13536SOL     OW42048   5.487   7.379  10.161  0.2678 -1.0902 -0.4233
13536SOL    HW142049   5.497   7.348  10.071 -1.6539 -0.1405 -1.0072
13536SOL    HW242050   5.441   7.308  10.206 -0.2551 -0.8928 -0.6369
13537SOL     OW42051   2.279   5.313   6.274  0.2606  0.6190  1.1164
13537SOL    HW142052   2.361   5.275   6.305 -0.4016 -0.7961  1.2244
13537SOL    HW242053   2.239   5.244   6.222 -1.1037  1.0946  1.4969
13538SOL     OW42054   5.700   1.052   1.437  0.2001 -0.2546  0.4151
13538SOL    HW142055   5.639   1.108   1.485 -0.3550 -0.2578 -0.2834
13538SOL    HW242056   5.774   1.109   1.417 -0.9918  0.6730 -1.5736
13539SOL     OW42057   4.222   0.364   2.669 -0.5953 -0.2644  0.3848
13539SOL    HW142058   4.276   0.367   2.590 -1.8708 -0.1766 -0.5148
13539SOL    HW242059   4.139   0.404   2.643 -0.6217  0.9061  2.1317
13540SOL     OW42060   7.707   6.795   3.917 -0.4456 -0.1479 -0.5074
13540SOL    HW142061   7.645   6.761   3.982 -0.3526  1.1205  0.2781
13540SOL    HW242062   7.696   6.890   3.921  1.6998  0.1258 -0.2049
13541SOL     OW42063   5.272   4.054   0.335 -0.0251 -0.6786 -0.2059
13541SOL    HW142064   5.182   4.057   0.304 -0.0020  0.9463 -0.2079
13541SOL    HW242065   5.268   4.003   0.415 -1.0182 -0.3293 -0.0188
13542SOL     OW42066   0.973   4.454   8.392  0.0035 -0.5824  0.0478
13542SOL    HW142067   1.042   4.433   8.455  0.4410  0.0029 -0.2245
13542SOL    HW242068   0.926   4.527   8.432  2.4287  2.1995 -1.7494
13543SOL     OW42069   5.830   5.429   0.548 -0.0462 -0.4266 -0.5924
13543SOL    HW142070   5.783   5.357   0.507 -2.2821 -0.2260  1.4048
13543SOL    HW242071   5.798   5.430   0.638 -0.1441  3.0880 -0.5478
13544SOL     OW42072   0.089   1.141   2.963  0.2157 -0.7411 -0.1649
13544SOL    HW142073   0.184   1.149   2.957  0.0207  1.5083 -2.0019
13544SOL    HW242074   0.069   1.162   3.055  1.4420 -0.2695  0.0171
13545SOL     OW42075   5.210   4.603   4.878  0.1363  0.2817 -0.0062
13545SOL    HW142076   5.280   4.537   4.868 -0.5902 -0.4640 -0.2853
13545SOL    HW242077   5.172   4.584   4.964  1.6275  2.0467  1.1286
13546SOL     OW42078   3.936   1.364   3.924 -0.8234 -0.7243  0.0566
13546SOL    HW142079   4.004   1.390   3.986  0.3197  0.7304 -1.6847
13546SOL    HW242080   3.973   1.288   3.879 -0.5182 -0.2390 -0.5404
13547SOL     OW42081   0.563   7.253   3.980  0.2405 -0.3803 -0.3387
13547SOL    HW142082   0.504   7.278   4.051  1.2643 -1.0933  0.7882
13547SOL    HW242083   0.508   7.204   3.919 -0.5189 -0.2607  0.2425
13548SOL     OW42084   4.485   0.834   7.138 -0.4167  0.0135 -0.0313
13548SOL    HW142085   4.428   0.780   7.193 -1.1270  0.5290 -0.2342
13548SOL    HW242086   4.448   0.922   7.145 -0.2582  0.1712 -0.9683
13549SOL     OW42087   3.417   3.705   2.063  0.5533 -0.0660 -0.1629
13549SOL    HW142088   3.346   3.719   2.125  1.4879  1.2087  0.6768
13549SOL    HW242089   3.484   3.768   2.089  1.8083 -0.9180 -1.2090
13550SOL     OW42090   7.106   5.073   4.056  0.2797 -0.3635  0.0375
13550SOL    HW142091   7.185   5.034   4.019  1.0099  0.4282  0.7140
13550SOL    HW242092   7.129   5.094   4.147  0.0918  1.9782 -0.3788
13551SOL     OW42093   6.618   1.819   7.910  0.0197  0.1558  0.4284
13551SOL    HW142094   6.613   1.910   7.882  0.4915  0.4883  1.3955
13551SOL    HW242095   6.689   1.817   7.973 -0.1833 -0.8272  0.6422
13552SOL     OW42096   2.833   7.641   4.213  0.0099  0.4312 -0.1862
13552SOL    HW142097   2.856   7.612   4.125 -0.4400 -2.5713  0.5822
13552SOL    HW242098   2.776   7.717   4.200 -1.7390 -1.1664 -2.5909
13553SOL     OW42099   1.485   1.860   8.582 -0.0372 -0.5938  0.2224
13553SOL    HW142100   1.408   1.875   8.636 -0.5696 -0.9810 -0.4238
13553SOL    HW242101   1.555   1.907   8.627 -0.5725 -0.5185  0.9942
13554SOL     OW42102   5.863   7.654   5.312 -0.7209  0.3031  0.1810
13554SOL    HW142103   5.919   7.665   5.234  1.6843 -1.2180  1.5736
13554SOL    HW242104   5.907   7.705   5.380  1.5309 -4.0577  2.4116
13555SOL     OW42105   7.680   7.721   2.238 -0.3218 -0.1821  0.2864
13555SOL    HW142106   7.689   7.711   2.333 -1.9608  0.9940  0.6009
13555SOL    HW242107   7.617   7.653   2.213 -1.4767  0.8336  0.3835
13556SOL     OW42108   0.868   2.485   4.599 -0.0497  0.3965  0.2272
13556SOL    HW142109   0.953   2.443   4.589 -1.8995 -3.3149 -1.7766
13556SOL    HW242110   0.828   2.442   4.675 -0.9961  0.3609 -0.2657
13557SOL     OW42111   3.274   5.192  10.868  0.0334 -0.4333 -0.4797
13557SOL    HW142112   3.323   5.274  10.859 -0.5913 -0.1182 -1.0469
13557SOL    HW242113   3.295   5.161  10.957  1.6905 -0.5954 -0.8925
13558SOL     OW42114   4.874   4.409   0.618  0.4531  0.4239  0.3912
13558SOL    HW142115   4.958   4.378   0.586  0.0616  0.6765 -0.9598
13558SOL    HW242116   4.876   4.394   0.712  1.7700 -0.1096  0.2879
13559SOL     OW42117   6.610   6.813  11.327  0.2590 -0.4035 -0.2774
13559SOL    HW142118   6.704   6.801  11.315  0.0852 -0.9299 -1.2038
13559SOL    HW242119   6.602   6.856  11.413  1.3372 -0.2990 -0.2155
13560SOL     OW42120   7.588   0.045  12.392  0.3424 -0.0592  0.2082
13560SOL    HW142121   7.509   0.090  12.422 -0.2105 -0.2483 -0.9037
13560SOL    HW242122   7.621   0.098  12.320  1.4625  0.2217  0.8992
13561SOL     OW42123   2.449   1.479  11.768  0.1348  0.1317  0.4112
13561SOL    HW142124   2.447   1.534  11.690  0.1309 -0.0205  0.3017
13561SOL    HW242125   2.504   1.526  11.830  1.5781 -0.5610 -0.3092
13562SOL     OW42126   1.589   4.110   2.570 -0.0205  0.6503 -0.7769
13562SOL    HW142127   1.518   4.152   2.618  0.9602  0.7794  0.6319
13562SOL    HW242128   1.641   4.067   2.638  1.1052  0.3448 -1.7995
13563SOL     OW42129   2.747   4.489  11.669  0.0084  0.0024  0.2555
13563SOL    HW142130   2.736   4.401  11.634  0.7850  0.2947 -0.7696
13563SOL    HW242131   2.823   4.482  11.728 -0.0748 -0.0661  0.3544
13564SOL     OW42132   5.848   3.203   1.259 -0.3674  0.5545 -1.0940
13564SOL    HW142133   5.874   3.227   1.170 -1.0631  1.8931 -0.9465
13564SOL    HW242134   5.754   3.219   1.263 -0.4151  0.1397 -0.2212
13565SOL     OW42135   0.954   5.559   7.988  0.1228  0.3115 -0.2003
13565SOL    HW142136   0.959   5.487   8.051 -1.3467  0.3612  0.0051
13565SOL    HW242137   0.977   5.519   7.904  0.9788 -0.0087  0.1829
13566SOL     OW42138   3.347   1.617   9.147 -1.0379 -0.1345  0.0231
13566SOL    HW142139   3.417   1.552   9.154 -1.0963 -0.1467  0.5485
13566SOL    HW242140   3.269   1.565   9.126 -1.3299 -0.4092  1.5939
13567SOL     OW42141   7.460   7.697   7.986 -0.2193  0.0242 -0.1014
13567SOL    HW142142   7.386   7.670   8.040 -0.2176  1.1860  0.5179
13567SOL    HW242143   7.439   7.787   7.960  0.4725 -0.0106 -0.8264
13568SOL     OW42144   5.696   4.575   8.703  0.0306  1.1013  0.0091
13568SOL    HW142145   5.775   4.598   8.654  0.1126  2.3723  0.6797
13568SOL    HW242146   5.660   4.660   8.731  0.5022  0.4157  2.9231
13569SOL     OW42147   2.706   1.623   2.677 -0.4879  0.5614 -0.1071
13569SOL    HW142148   2.797   1.654   2.678  0.0440 -0.5867  3.8750
13569SOL    HW242149   2.712   1.531   2.700 -2.6865  0.9721  2.6627
13570SOL     OW42150   6.186   1.155  10.102  0.7171  0.3284 -0.4020
13570SOL    HW142151   6.208   1.115  10.018  0.6870 -0.4860 -0.0288
13570SOL    HW242152   6.098   1.122  10.122  1.1237 -0.2854  0.4234
13571SOL     OW42153   0.255   2.512   7.658 -0.3487 -0.0766 -0.0434
13571SOL    HW142154   0.275   2.448   7.590 -0.5531 -0.9774  0.7169
13571SOL    HW242155   0.202   2.463   7.722  0.3122  0.5775  1.0427
13572SOL     OW42156   3.408   6.309   4.052 -0.0147  0.0173  0.0224
13572SOL    HW142157   3.434   6.244   3.987 -0.1371  2.6837 -2.9482
13572SOL    HW242158   3.490   6.349   4.081  0.0561 -1.2884  1.7909
13573SOL     OW42159   0.871   2.432  10.820  0.9965 -0.2451  0.3031
13573SOL    HW142160   0.959   2.467  10.807  1.2342 -1.5817 -2.2731
13573SOL    HW242161   0.876   2.341  10.790 -1.0221 -0.6920  1.1444
13574SOL     OW42162   3.479   3.607  10.611 -0.2160 -0.5590 -0.6749
13574SOL    HW142163   3.499   3.662  10.686 -0.4273 -1.8451  0.3445
13574SOL    HW242164   3.401   3.558  10.636 -1.9583  0.9505 -2.7924
13575SOL     OW42165   1.733   1.695   9.331  0.1434 -0.4023 -0.5917
13575SOL    HW142166   1.800   1.651   9.382  0.7363  0.1047 -0.9198
13575SOL    HW242167   1.781   1.742   9.263 -0.3903  1.3920  0.1986
13576SOL     OW42168   6.859   1.771  11.456 -0.2114  0.5468 -0.0475
13576SOL    HW142169   6.905   1.693  11.486  0.8356  1.6643  1.3754
13576SOL    HW242170   6.766   1.751  11.470  0.0666 -0.2548  0.7515
13577SOL     OW42171   1.753   4.333   9.238 -1.1971 -0.0348  0.2856
13577SOL    HW142172   1.846   4.344   9.215 -1.0987  0.3003  0.8417
13577SOL    HW242173   1.745   4.370   9.325 -2.0722  0.8515 -0.1593
13578SOL     OW42174   2.846   5.279   5.660 -0.0467  0.3560  0.0751
13578SOL    HW142175   2.918   5.238   5.708 -1.1819 -0.4729  1.1327
13578SOL    HW242176   2.820   5.354   5.715 -0.4159  0.2548  0.0436
13579SOL     OW42177   1.196   4.001   1.356  0.1396  0.6529 -0.0825
13579SOL    HW142178   1.216   4.088   1.323 -0.9973  1.2778  0.8032
13579SOL    HW242179   1.121   3.973   1.304  0.9165 -0.0946 -0.8247
13580SOL     OW42180   6.017   6.984   7.500  0.7655  0.1816 -0.0858
13580SOL    HW142181   6.060   6.908   7.540 -0.5886 -0.5066  0.1254
13580SOL    HW242182   6.074   7.058   7.523  1.1281 -0.4936  1.3483
13581SOL     OW42183   5.067   5.364  11.967  0.1754  0.8485 -0.2887
13581SOL    HW142184   5.136   5.430  11.954  0.0411  0.9193 -0.6633
13581SOL    HW242185   5.027   5.387  12.051  0.4899  0.9138 -0.1535
13582SOL     OW42186   3.821   7.432   5.025 -0.4783 -0.0809 -0.6251
13582SOL    HW142187   3.754   7.365   5.013  1.0545 -1.9063  0.4136
13582SOL    HW242188   3.889   7.409   4.961  0.9193 -0.7630  1.0117
13583SOL     OW42189   4.897   4.081  11.327 -0.3552 -0.3326  0.5239
13583SOL    HW142190   4.872   4.054  11.415  2.1574 -1.4479  0.9727
13583SOL    HW242191   4.850   4.021  11.269  1.3459 -2.5603  1.3254
13584SOL     OW42192   6.886   5.168   4.674 -0.0543  0.1064  0.6241
13584SOL    HW142193   6.888   5.162   4.579  0.5258  0.5161  0.6069
13584SOL    HW242194   6.969   5.210   4.698  0.9511 -2.2053  1.4758
13585SOL     OW42195   4.356   2.309   5.983  0.1508  0.6975 -0.1075
13585SOL    HW142196   4.281   2.298   6.041 -1.6439 -0.9288 -2.5422
13585SOL    HW242197   4.337   2.252   5.909  2.6677  2.0849 -1.9500
13586SOL     OW42198   1.928   7.773   8.453 -0.2183  0.2926  0.2910
13586SOL    HW142199   2.006   7.718   8.459 -0.7681 -0.3872  2.1607
13586SOL    HW242200   1.961   7.861   8.437  0.9719  0.0727  1.3762
13587SOL     OW42201   3.062   5.586   7.428 -0.0917  0.5047  0.2164
13587SOL    HW142202   3.111   5.513   7.389  0.1356 -0.3090  1.9234
13587SOL    HW242203   3.127   5.634   7.480 -1.1919 -1.5222  3.8608
13588SOL     OW42204   7.621   5.307  11.853  0.0365  0.2322 -0.7463
13588SOL    HW142205   7.660   5.382  11.809  0.1360  0.5398 -0.1465
13588SOL    HW242206   7.552   5.344  11.908 -0.9461 -0.2839 -1.6026
13589SOL     OW42207   5.475   6.142   0.475 -0.8438 -0.6089 -0.1163
13589SOL    HW142208   5.483   6.212   0.540 -1.3487 -0.3197 -0.3654
13589SOL    HW242209   5.552   6.154   0.419 -1.5065  0.4352 -0.8208
13590SOL     OW42210   4.529   5.414   6.227 -0.0876  0.3317 -0.5186
13590SOL    HW142211   4.454   5.471   6.209  1.2017  1.9762 -0.9764
13590SOL    HW242212   4.605   5.462   6.193  1.1857 -1.3091 -0.1709
13591SOL     OW42213   4.046   6.942   4.038 -0.1859 -0.1831  0.3793
13591SOL    HW142214   3.985   6.978   3.974 -1.2288 -1.2271  0.7562
13591SOL    HW242215   4.098   7.018   4.066 -2.1868  1.0328  1.0171
13592SOL     OW42216   2.105   1.720  10.495  0.2353 -0.5653 -0.5714
13592SOL    HW142217   2.057   1.637  10.490 -0.6662 -0.0821 -0.2054
13592SOL    HW242218   2.041   1.782  10.531  1.3840 -0.0894  0.7015
13593SOL     OW42219   6.182   2.371   2.626  0.5384 -0.0778  0.2295
13593SOL    HW142220   6.185   2.410   2.538 -0.2242 -0.0367  0.2183
13593SOL    HW242221   6.093   2.387   2.656  0.6835 -0.4441  0.8578
13594SOL     OW42222   1.531   3.451  10.563  0.5811  0.1811  0.0678
13594SOL    HW142223   1.588   3.519  10.598  0.2156 -0.5263  2.1822
13594SOL    HW242224   1.447   3.463  10.609  0.5355 -1.7099  0.5915
13595SOL     OW42225   6.979   2.280  12.063 -0.0572 -0.1885 -0.1270
13595SOL    HW142226   7.041   2.342  12.025  0.7114 -0.2047  1.0580
13595SOL    HW242227   6.994   2.199  12.014  0.2603  0.0368 -0.4098
13596SOL     OW42228   5.670   5.546  11.256  0.5668  0.0533 -0.0885
13596SOL    HW142229   5.608   5.585  11.317  0.8972 -0.4082  0.5503
13596SOL    HW242230   5.736   5.506  11.311 -0.2578 -2.2606 -0.6573
13597SOL     OW42231   6.545   0.709   4.826 -0.3943 -0.0716 -0.1477
13597SOL    HW142232   6.596   0.749   4.755 -1.2837 -1.7438 -1.8164
13597SOL    HW242233   6.454   0.732   4.805 -0.6205  0.0252  0.8942
13598SOL     OW42234   5.687   3.336   7.238  0.7341 -0.2258 -0.0422
13598SOL    HW142235   5.667   3.348   7.145 -1.9589 -1.4976  0.2805
13598SOL    HW242236   5.648   3.411   7.282  0.0403 -0.7402  0.2419
13599SOL     OW42237   3.551   5.909   2.364  0.4547 -0.4039 -0.4622
13599SOL    HW142238   3.607   5.966   2.313 -0.3421 -0.9505 -2.0175
13599SOL    HW242239   3.608   5.838   2.392  1.7705  1.6128  2.5356
13600SOL     OW42240   6.377   5.458   8.702 -0.3305  0.5545 -0.4245
13600SOL    HW142241   6.364   5.537   8.755 -1.8637 -0.3855  0.6905
13600SOL    HW242242   6.301   5.454   8.645 -0.4893 -0.3285 -0.1657
13601SOL     OW42243   1.750   4.384   3.025 -0.5336 -0.3692  0.9069
13601SOL    HW142244   1.809   4.310   3.038 -0.2544 -0.7117 -1.7855
13601SOL    HW242245   1.808   4.456   3.000 -1.0725 -0.1884  0.1542
13602SOL     OW42246   2.638   7.272   9.627 -0.1966 -0.1612 -0.6796
13602SOL    HW142247   2.643   7.364   9.652 -1.9365 -0.1128 -0.4113
13602SOL    HW242248   2.721   7.235   9.658  0.0032  1.0487  0.3101
13603SOL     OW42249   2.805   0.265   7.440  0.3394  0.4394  0.5477
13603SOL    HW142250   2.806   0.316   7.359  2.1554 -2.5161 -1.4847
13603SOL    HW242251   2.896   0.238   7.452 -0.5683 -2.8444  0.9990
13604SOL     OW42252   7.390   4.928   4.287 -0.1563  0.0157  0.0560
13604SOL    HW142253   7.470   4.901   4.331  0.9046  1.6325 -0.8061
13604SOL    HW242254   7.327   4.859   4.308  1.5174 -1.4475  0.5241
13605SOL     OW42255   3.786   0.883  10.871  0.4679  0.0235 -0.1775
13605SOL    HW142256   3.791   0.810  10.809  1.1032  0.1805 -0.3262
13605SOL    HW242257   3.705   0.869  10.919  1.1146 -1.3996  0.5576
13606SOL     OW42258   7.724   2.453  10.451 -0.0837  0.3458 -0.4284
13606SOL    HW142259   7.630   2.469  10.459 -0.5912 -1.6263 -1.7351
13606SOL    HW242260   7.732   2.358  10.446  1.9014  0.5019 -1.2005
13607SOL     OW42261   1.124   1.904   0.503  0.2077 -0.4729 -0.4883
13607SOL    HW142262   1.088   1.859   0.427  3.2308 -1.3138 -1.5887
13607SOL    HW242263   1.203   1.854   0.526  1.1858  1.6221  1.1540
13608SOL     OW42264   1.545   7.014   5.767  0.0503  0.3107  0.1304
13608SOL    HW142265   1.530   6.926   5.803 -2.0851  0.6398  0.1736
13608SOL    HW242266   1.608   7.054   5.827 -0.2887 -0.5838  1.1211
13609SOL     OW42267   6.901   4.822  12.095  0.4663 -0.1456 -0.0219
13609SOL    HW142268   6.881   4.872  12.175  0.1346  0.6517 -0.5962
13609SOL    HW242269   6.984   4.857  12.064 -0.7820  1.5779 -1.5954
13610SOL     OW42270   7.848   7.345   3.364 -0.2102  0.1643 -0.1521
13610SOL    HW142271   7.864   7.256   3.394  0.4380  0.7726  1.3987
13610SOL    HW242272   7.757   7.344   3.334  0.1030 -1.2519 -1.1230
13611SOL     OW42273   4.295   6.053   8.805 -0.0598  0.1663 -0.1422
13611SOL    HW142274   4.297   5.988   8.735 -0.8452 -0.3593  0.3172
13611SOL    HW242275   4.388   6.073   8.822  0.1411  0.4151 -1.4205
13612SOL     OW42276   5.853   7.352   6.233 -0.1228 -0.4393  0.4145
13612SOL    HW142277   5.853   7.258   6.215 -1.1080 -0.2926 -0.4433
13612SOL    HW242278   5.761   7.375   6.244  0.0344  0.5511 -0.1672
13613SOL     OW42279   0.849   2.691   0.100  0.4254  0.1920 -0.2778
13613SOL    HW142280   0.879   2.614   0.051 -1.9670  0.6360 -2.6706
13613SOL    HW242281   0.756   2.697   0.080  0.0445  2.3850  1.7756
13614SOL     OW42282   2.854   3.079   0.124  0.1464 -0.1061 -0.2901
13614SOL    HW142283   2.944   3.071   0.155 -0.4062 -2.3990  0.9249
13614SOL    HW242284   2.857   3.053   0.032  0.8128  0.5808 -0.4743
13615SOL     OW42285   0.414   4.478  12.136 -0.2195  0.3747  0.3511
13615SOL    HW142286   0.457   4.400  12.102  0.8605  1.1637 -0.1628
13615SOL    HW242287   0.406   4.463  12.230  1.8830  0.4916  0.5869
13616SOL     OW42288   0.581   6.150   5.100  0.0051  0.8579 -0.3781
13616SOL    HW142289   0.590   6.113   5.013 -0.1813 -0.4556  0.1419
13616SOL    HW242290   0.659   6.121   5.147  0.3009  1.8867 -0.2135
13617SOL     OW42291   4.027   5.372   4.700  0.5045 -0.3611 -0.2727
13617SOL    HW142292   4.025   5.297   4.759 -1.1503 -0.8799 -0.9477
13617SOL    HW242293   3.939   5.377   4.664  1.2992  0.2949 -2.2600
13618SOL     OW42294   6.983   4.359  11.794  0.5589  0.0422  0.5217
13618SOL    HW142295   6.932   4.439  11.805  1.4959  0.8704 -0.8803
13618SOL    HW242296   7.020   4.342  11.881 -1.1812  0.0173  1.3050
13619SOL     OW42297   6.499   5.858   4.161 -0.4604  0.1686  0.3880
13619SOL    HW142298   6.565   5.869   4.092 -1.3126 -0.5334 -0.5647
13619SOL    HW242299   6.546   5.818   4.234 -0.3090 -2.8238 -1.2066
13620SOL     OW42300   3.011   6.979   0.015 -0.5918 -0.0874 -0.2742
13620SOL    HW142301   3.020   7.017   0.103  1.2044 -0.5921 -0.1890
13620SOL    HW242302   3.100   6.954  -0.009 -1.0878 -0.2123 -2.1459
13621SOL     OW42303   7.637   2.566   2.236 -0.0869  0.6937  0.0782
13621SOL    HW142304   7.651   2.565   2.141  1.7312 -0.1759  0.3186
13621SOL    HW242305   7.543   2.550   2.246 -0.6512  2.6324 -1.5897
13622SOL     OW42306   7.259   4.224   1.223 -0.3062 -0.5358  0.0401
13622SOL    HW142307   7.185   4.264   1.270 -0.6979  0.0682 -1.0564
13622SOL    HW242308   7.288   4.293   1.163  0.1926 -1.2942 -0.5946
13623SOL     OW42309   2.405   2.228   4.078 -1.0092 -0.7062  0.1798
13623SOL    HW142310   2.380   2.304   4.025 -2.0456 -2.4325 -1.9559
13623SOL    HW242311   2.360   2.154   4.037 -1.0769 -2.3399  2.9422
13624SOL     OW42312   1.454   5.488   3.918  0.1199 -0.1744 -0.6095
13624SOL    HW142313   1.492   5.502   3.831 -0.0923  1.0145 -0.5231
13624SOL    HW242314   1.362   5.513   3.908 -0.3318 -1.6888 -0.4620
13625SOL     OW42315   4.669   4.391   9.066  0.6880 -0.0165  0.2738
13625SOL    HW142316   4.764   4.384   9.054  0.6475  0.5058 -0.3990
13625SOL    HW242317   4.637   4.301   9.056  1.0277 -0.0804 -0.2929
13626SOL     OW42318   7.773   0.481   0.772 -0.0295 -0.0938 -0.4648
13626SOL    HW142319   7.716   0.539   0.822 -0.6413 -0.6680 -0.4838
13626SOL    HW242320   7.861   0.516   0.787 -0.3539  0.6418 -0.2207
13627SOL     OW42321   7.519   7.012  10.054  0.2807  0.3253  0.5409
13627SOL    HW142322   7.571   7.040   9.978  1.8218 -1.1979  0.9769
13627SOL    HW242323   7.563   6.933  10.085 -1.3822 -0.0903  1.9480
13628SOL     OW42324   3.341   4.364   3.777  0.2222  0.0976 -0.3331
13628SOL    HW142325   3.364   4.346   3.686  2.9101  3.1477 -0.4555
13628SOL    HW242326   3.264   4.421   3.771  1.0633  1.2139 -0.8203
13629SOL     OW42327   7.465   7.976   1.040 -0.4656  0.5970  0.1407
13629SOL    HW142328   7.551   7.983   0.999 -1.4203  0.4632 -2.0175
13629SOL    HW242329   7.461   7.886   1.071  0.5120  0.8725  1.1168
13630SOL     OW42330   1.621   0.829  11.638 -0.1256  0.1293 -0.3170
13630SOL    HW142331   1.612   0.916  11.675 -1.6843  0.1923 -0.8010
13630SOL    HW242332   1.569   0.773  11.696 -2.3904  0.1866 -2.1798
13631SOL     OW42333   1.641   0.581  10.098 -0.5487 -0.4184  0.0156
13631SOL    HW142334   1.563   0.559  10.149 -1.0947  0.1283 -0.5673
13631SOL    HW242335   1.607   0.610  10.013  0.2587  0.3864 -0.0461
13632SOL     OW42336   7.517   6.998   5.137  0.1526  0.3876  0.4022
13632SOL    HW142337   7.453   6.927   5.128  1.1463 -1.4366  4.9178
13632SOL    HW242338   7.469   7.068   5.181  0.1793  0.8510 -0.3024
13633SOL     OW42339   2.385   7.847   9.976  0.4354 -0.0463  0.7418
13633SOL    HW142340   2.433   7.847  10.059  0.2109  1.6027  0.9149
13633SOL    HW242341   2.429   7.914   9.924 -0.7960  0.4943  0.3720
13634SOL     OW42342   3.540   3.047   9.234  0.1943 -0.5655  0.2676
13634SOL    HW142343   3.622   3.027   9.190  0.4042 -2.2632  1.3145
13634SOL    HW242344   3.560   3.038   9.327 -0.5427  1.6823  0.7095
13635SOL     OW42345   2.333   6.631   1.873 -0.4412  0.0351 -0.2122
13635SOL    HW142346   2.392   6.706   1.880 -0.4678  0.0849 -0.5120
13635SOL    HW242347   2.385   6.556   1.904 -0.4036  0.1694  0.0541
13636SOL     OW42348   0.941   2.037  11.513  0.0594  0.2721 -0.8615
13636SOL    HW142349   1.030   2.014  11.540 -0.7491 -3.0213 -0.5306
13636SOL    HW242350   0.899   2.069  11.593 -0.0042 -1.6259 -0.0793
13637SOL     OW42351   7.029   0.384   9.793 -0.5520 -0.0176  0.4136
13637SOL    HW142352   6.973   0.367   9.868 -3.1487  2.0861 -0.8752
13637SOL    HW242353   7.025   0.304   9.741 -1.3252 -0.3567  0.9717
13638SOL     OW42354   1.445   3.121   1.190  0.2504 -0.3791  0.0157
13638SOL    HW142355   1.536   3.092   1.179  0.3299 -0.1484  0.0478
13638SOL    HW242356   1.449   3.181   1.265 -0.1546 -1.3851  0.8700
13639SOL     OW42357   1.589   4.773   0.365  0.1188  0.3283  0.1279
13639SOL    HW142358   1.596   4.855   0.414  0.3236  1.4027 -1.6210
13639SOL    HW242359   1.677   4.757   0.331 -0.0216 -0.3841  0.0820
13640SOL     OW42360   1.990   6.959  10.795 -0.2730  0.4321 -0.2417
13640SOL    HW142361   1.922   7.025  10.810 -0.6059 -0.0230  0.2904
13640SOL    HW242362   1.942   6.877  10.788  0.2462  0.0610  0.4578
13641SOL     OW42363   1.619   4.945  11.677 -0.2357 -0.0723  1.0427
13641SOL    HW142364   1.640   4.872  11.619  1.4025  1.0915  0.0951
13641SOL    HW242365   1.548   4.912  11.732  0.4274 -2.3540  0.6305
13642SOL     OW42366   0.443   5.014   7.010 -0.3414  0.1323 -0.1778
13642SOL    HW142367   0.441   5.061   6.927  0.7411 -0.5006 -0.5845
13642SOL    HW242368   0.433   4.922   6.986 -1.2581  0.0337  0.5125
13643SOL     OW42369   5.627   0.412   9.125 -0.0498  0.5566  0.3034
13643SOL    HW142370   5.716   0.380   9.132 -0.5932 -0.9698  0.5330
13643SOL    HW242371   5.607   0.448   9.212 -0.5541 -1.5949  1.1290
13644SOL     OW42372   7.935   2.930  11.500 -0.3683  0.0054  0.3042
13644SOL    HW142373   7.950   2.848  11.453 -0.0429 -0.3105  0.9389
13644SOL    HW242374   7.842   2.948  11.490 -0.4246 -0.4018  0.1034
13645SOL     OW42375   1.507   5.727   7.008 -0.0452  0.7118  0.1171
13645SOL    HW142376   1.505   5.643   6.962  1.2095  0.3892  0.5967
13645SOL    HW242377   1.505   5.793   6.938  0.8896  0.2372 -0.3781
13646SOL     OW42378   2.685   0.685   0.236 -0.1782 -0.0045 -0.3223
13646SOL    HW142379   2.758   0.628   0.212 -1.0974 -1.6532  0.6074
13646SOL    HW242380   2.608   0.628   0.230 -1.2110  1.3191  0.0543
13647SOL     OW42381   1.783   2.920   4.472  0.0346  0.0757  0.5482
13647SOL    HW142382   1.689   2.929   4.482  0.3793  2.1837  2.9259
13647SOL    HW242383   1.811   2.871   4.550  0.9796  0.1731  0.2807
13648SOL     OW42384   0.122   0.210   1.649  0.4519  0.1056 -0.1395
13648SOL    HW142385   0.102   0.293   1.606 -0.7320  0.4346  0.9937
13648SOL    HW242386   0.037   0.173   1.671  0.9804 -1.1153 -0.0573
13649SOL     OW42387   3.363   2.783   4.951 -0.0326  0.6388 -0.1678
13649SOL    HW142388   3.277   2.778   4.909  0.3562  0.5771 -0.9567
13649SOL    HW242389   3.344   2.771   5.044 -0.7879 -0.2864 -0.4264
13650SOL     OW42390   0.450   4.832   1.278 -0.2815  0.2788 -0.0236
13650SOL    HW142391   0.411   4.808   1.362  1.3740  0.8520  0.9379
13650SOL    HW242392   0.514   4.763   1.260 -1.5100 -0.5406 -1.4850
13651SOL     OW42393   2.542   1.407   1.502 -0.3965 -0.2806 -0.1501
13651SOL    HW142394   2.582   1.346   1.564  1.6944  0.9719 -0.1568
13651SOL    HW242395   2.568   1.494   1.534 -2.2859  0.6025 -0.7949
13652SOL     OW42396   7.213   2.385   9.087  0.0309 -0.0678  0.4389
13652SOL    HW142397   7.307   2.397   9.104 -0.0937  1.2814  0.2647
13652SOL    HW242398   7.209   2.329   9.010  0.7142  0.9083 -0.3138
13653SOL     OW42399   1.433   1.923  10.370  0.0216 -0.3785  0.0834
13653SOL    HW142400   1.493   1.881  10.309 -1.4972 -1.5694 -0.6495
13653SOL    HW242401   1.486   1.990  10.413  1.1712  0.4895 -2.4849
13654SOL     OW42402   0.895   4.697   3.184  0.3533  0.3330 -0.0608
13654SOL    HW142403   0.799   4.693   3.185  0.3590  0.0842 -0.2323
13654SOL    HW242404   0.918   4.708   3.092  0.4593  1.5386  0.0917
13655SOL     OW42405   0.506   5.140   6.740  0.2421  0.3850  0.0931
13655SOL    HW142406   0.546   5.218   6.777 -0.6218  0.5415  0.7127
13655SOL    HW242407   0.431   5.172   6.690  1.5267  0.2083 -2.0786
13656SOL     OW42408   7.694   4.510  11.017 -0.2477 -0.5838 -0.2183
13656SOL    HW142409   7.695   4.466  11.102  0.3029  0.2205  0.2117
13656SOL    HW242410   7.662   4.444  10.955  1.6648 -1.9774  0.1937
13657SOL     OW42411   6.830   7.654   1.828  0.2312  0.1170 -0.1114
13657SOL    HW142412   6.810   7.737   1.785 -1.8811 -0.7396 -0.9407
13657SOL    HW242413   6.825   7.589   1.757  0.9400 -0.8355  0.6878
13658SOL     OW42414   7.583   7.500  10.266 -0.4329  0.6854 -0.0169
13658SOL    HW142415   7.636   7.553  10.206  0.4239 -0.5537 -0.4125
13658SOL    HW242416   7.621   7.517  10.353  0.5996 -0.1020 -0.2814
13659SOL     OW42417   5.005   3.590   3.855  0.0640  0.0229  0.4789
13659SOL    HW142418   4.999   3.500   3.822 -1.7306  0.7802 -1.4427
13659SOL    HW242419   5.077   3.587   3.918  2.1094 -2.1051 -1.7341
13660SOL     OW42420   0.863   2.159   5.329  0.7469  0.3626  0.2977
13660SOL    HW142421   0.849   2.251   5.308 -0.1261  0.6900  2.1282
13660SOL    HW242422   0.957   2.152   5.346  0.8207  0.9008  0.1187
13661SOL     OW42423   2.625   3.402   9.632 -0.4971  0.1177  0.2535
13661SOL    HW142424   2.541   3.425   9.671 -0.9759 -0.0156 -0.6743
13661SOL    HW242425   2.669   3.487   9.620 -0.5179  0.1922  0.6810
13662SOL     OW42426   2.624   1.133   0.381 -0.3295 -0.6703 -0.6830
13662SOL    HW142427   2.660   1.091   0.303  2.3603 -0.3218  0.2718
13662SOL    HW242428   2.577   1.210   0.349 -0.3754 -1.2443 -2.0210
13663SOL     OW42429   3.714   5.139   0.095 -0.1145  0.4600 -0.4486
13663SOL    HW142430   3.795   5.150   0.045 -0.9563  2.0964 -1.5650
13663SOL    HW242431   3.729   5.187   0.176 -0.6577  2.6950 -1.5804
13664SOL     OW42432   7.869   3.284   2.142  0.2815  0.0069  0.2176
13664SOL    HW142433   7.849   3.200   2.182  0.1349  0.6187  1.4600
13664SOL    HW242434   7.790   3.337   2.156  0.8251  0.7510  0.5538
13665SOL     OW42435   5.117   7.449   2.075  0.1333  0.4697 -0.3628
13665SOL    HW142436   5.180   7.436   2.146 -0.2974  1.4767  0.2257
13665SOL    HW242437   5.052   7.380   2.086  1.4646 -1.0149 -1.3856
13666SOL     OW42438   7.970   0.899   2.961 -0.4081 -0.0880  0.8153
13666SOL    HW142439   8.030   0.836   3.002 -0.1134 -1.6569 -1.7542
13666SOL    HW242440   8.020   0.980   2.957  1.3343 -1.1342 -0.4955
13667SOL     OW42441   5.282   3.953   7.832 -0.0707  0.9675 -0.4654
13667SOL    HW142442   5.200   3.904   7.838  0.0121  0.6556 -1.6371
13667SOL    HW242443   5.319   3.927   7.747  0.0532  2.9375 -1.0595
13668SOL     OW42444   7.726   5.575   2.793  0.4665 -0.0856 -0.5770
13668SOL    HW142445   7.684   5.538   2.715  0.6944  0.9840 -1.2302
13668SOL    HW242446   7.653   5.597   2.851  0.0531  1.7022 -1.6777
13669SOL     OW42447   5.770   2.507   7.453 -0.0281 -0.2707 -0.3085
13669SOL    HW142448   5.701   2.455   7.412  0.0473 -0.4334 -0.2328
13669SOL    HW242449   5.785   2.580   7.393 -0.1222 -0.3470 -0.4250
13670SOL     OW42450   3.100   7.196   4.401 -0.3502 -0.4144  0.3506
13670SOL    HW142451   3.074   7.286   4.380 -2.6067 -0.6530  1.7883
13670SOL    HW242452   3.174   7.178   4.342 -1.3206  1.5688 -1.6213
13671SOL     OW42453   1.621   2.934   3.941  0.1353  0.0050  0.3171
13671SOL    HW142454   1.714   2.933   3.919 -0.2341 -1.3637 -1.4483
13671SOL    HW242455   1.607   2.854   3.991 -0.3950 -0.7272 -0.9728
13672SOL     OW42456   2.782   0.549   7.944 -0.4585  0.6898 -0.3480
13672SOL    HW142457   2.849   0.588   8.000 -0.4747 -1.5030  1.3019
13672SOL    HW242458   2.830   0.510   7.871  0.0148 -0.2059  0.4296
13673SOL     OW42459   3.464   0.856  12.391 -0.3245  0.6228  0.4626
13673SOL    HW142460   3.538   0.895  12.345 -1.4590  0.6299 -1.4475
13673SOL    HW242461   3.504   0.808  12.464  1.3508  2.5918  0.9511
13674SOL     OW42462   3.739   7.836   7.423  0.4166 -0.5966  0.1323
13674SOL    HW142463   3.678   7.900   7.387 -0.3575 -0.2743  1.9362
13674SOL    HW242464   3.784   7.800   7.346  0.5026  1.6980 -0.9570
13675SOL     OW42465   4.498   7.651   5.978  0.1606  0.1576  0.3965
13675SOL    HW142466   4.557   7.689   6.044  2.2635 -0.1084 -1.2133
13675SOL    HW242467   4.525   7.559   5.973  1.1798  0.5073 -1.8747
13676SOL     OW42468   4.301   5.957   6.976 -0.0897  0.4188 -0.3438
13676SOL    HW142469   4.307   5.926   7.066  0.2370 -2.2213 -1.1713
13676SOL    HW242470   4.381   6.007   6.962  0.8290 -0.8156  0.2944
13677SOL     OW42471   7.224   1.466   7.473 -0.2904  0.0473  0.3552
13677SOL    HW142472   7.207   1.375   7.449 -1.1735 -0.3578  2.2550
13677SOL    HW242473   7.318   1.469   7.492  0.5567  0.5019 -3.2395
13678SOL     OW42474   0.807   2.959   0.578 -0.2081  0.6247  0.1043
13678SOL    HW142475   0.893   2.935   0.613  0.7232  1.3309 -1.5902
13678SOL    HW242476   0.808   3.054   0.574 -0.9111  0.6200 -0.3294
13679SOL     OW42477   2.267   3.768   8.537 -0.0261  0.0599 -0.0759
13679SOL    HW142478   2.287   3.854   8.575 -1.6850  0.7686 -0.7151
13679SOL    HW242479   2.303   3.705   8.600  0.5342  1.2240  0.7991
13680SOL     OW42480   3.840   6.421  10.432 -0.2370  0.1842  0.4139
13680SOL    HW142481   3.936   6.419  10.431 -0.2331 -0.4832  1.0428
13680SOL    HW242482   3.817   6.426  10.525 -0.8161 -0.7958  0.3355
13681SOL     OW42483   7.790   3.551   5.232  0.0979 -0.1726 -0.1364
13681SOL    HW142484   7.762   3.603   5.156 -2.8060  1.3274  1.7735
13681SOL    HW242485   7.862   3.601   5.270  1.6189 -0.9628 -1.8187
13682SOL     OW42486   3.454   5.812   9.004 -0.2135 -0.4383 -0.1954
13682SOL    HW142487   3.383   5.750   9.016  0.9021 -1.6262  0.5707
13682SOL    HW242488   3.499   5.815   9.088 -1.6567  3.3640  0.6185
13683SOL     OW42489   2.287   6.511   0.637  0.1534 -0.0414  0.1903
13683SOL    HW142490   2.312   6.593   0.595 -0.5708  0.7636  1.2828
13683SOL    HW242491   2.342   6.445   0.595 -0.7976  0.6400 -2.3092
13684SOL     OW42492   1.799   3.590   1.809 -0.5345 -0.0637 -0.1055
13684SOL    HW142493   1.761   3.653   1.747 -0.6478 -0.9727 -0.9733
13684SOL    HW242494   1.782   3.505   1.770  1.9752 -0.5357 -0.2846
13685SOL     OW42495   6.006   4.721   5.358 -0.2780 -0.8093 -0.1882
13685SOL    HW142496   5.962   4.782   5.416  2.2702 -0.1242  1.1814
13685SOL    HW242497   6.025   4.771   5.278  0.1022 -0.3868  0.1662
13686SOL     OW42498   0.318   2.920   1.971 -0.3398  0.0735 -0.0128
13686SOL    HW142499   0.223   2.927   1.979 -0.6662 -1.4049 -1.8414
13686SOL    HW242500   0.338   2.834   2.009  0.6856  1.4446  2.8039
13687SOL     OW42501   7.092   1.821  10.178 -0.2468 -0.5208  0.0854
13687SOL    HW142502   7.062   1.759  10.245  0.0606 -1.2476 -0.4322
13687SOL    HW242503   7.131   1.766  10.110  0.7290  0.2922 -0.0392
13688SOL     OW42504   6.008   1.277   6.551  0.2155 -0.4186  0.1037
13688SOL    HW142505   5.928   1.284   6.603 -0.3267  1.0970 -0.8612
13688SOL    HW242506   6.057   1.206   6.592 -0.1495  0.7116  2.6967
13689SOL     OW42507   7.274   0.138   8.117  0.1568 -0.1658 -0.3290
13689SOL    HW142508   7.192   0.167   8.157  0.8332  1.5909 -0.1324
13689SOL    HW242509   7.304   0.067   8.173 -1.0188 -0.5545 -0.1653
13690SOL     OW42510   4.624   3.507   3.532 -0.4913  0.3020 -0.7871
13690SOL    HW142511   4.621   3.421   3.489 -2.8270 -0.1679  0.1953
13690SOL    HW242512   4.619   3.487   3.625 -1.4173  1.4984 -0.5597
13691SOL     OW42513   7.977   0.466   1.482 -0.2801  0.2119  0.4885
13691SOL    HW142514   7.893   0.509   1.502  0.0529  1.0984  0.0110
13691SOL    HW242515   8.041   0.537   1.480  0.1450 -0.1719 -1.1616
13692SOL     OW42516   4.443   5.583   1.859 -0.1829 -0.8294 -0.0013
13692SOL    HW142517   4.443   5.560   1.766  1.6631 -0.4896 -0.1379
13692SOL    HW242518   4.518   5.642   1.868 -1.1258  0.2124  1.4672
13693SOL     OW42519   7.445   4.964   7.768  0.1376 -0.0845  0.2019
13693SOL    HW142520   7.371   4.935   7.715 -0.0663 -2.0861  1.4535
13693SOL    HW242521   7.441   5.059   7.765 -2.5009 -0.1056  0.1848
13694SOL     OW42522   1.225   0.850   1.543  0.8953 -0.1409  0.1268
13694SOL    HW142523   1.166   0.777   1.559  1.8974 -1.3022 -1.3187
13694SOL    HW242524   1.299   0.812   1.497  1.6817  1.7055 -0.2165
13695SOL     OW42525   3.095   1.116   9.453 -0.0754  0.1651  0.0770
13695SOL    HW142526   3.169   1.168   9.422 -0.7301  0.9410 -0.2192
13695SOL    HW242527   3.131   1.062   9.523  0.4706  1.6016  0.9456
13696SOL     OW42528   0.860   3.468   6.466  0.2729 -0.1578 -0.0557
13696SOL    HW142529   0.903   3.508   6.541  0.7949  0.1745 -0.5268
13696SOL    HW242530   0.928   3.462   6.399  0.0754 -1.3529 -0.1786
13697SOL     OW42531   7.386   6.455   0.510  0.1001 -0.6517 -0.0910
13697SOL    HW142532   7.456   6.411   0.559 -1.0656 -0.6580  1.6939
13697SOL    HW242533   7.356   6.524   0.570 -2.5159 -1.7129 -0.0640
13698SOL     OW42534   0.404   4.486  10.603  0.5444 -0.2761 -0.1968
13698SOL    HW142535   0.313   4.512  10.619  0.5402  1.7759 -2.9254
13698SOL    HW242536   0.398   4.415  10.540  0.8549 -0.3687 -0.1212
13699SOL     OW42537   1.476   5.800   4.046  0.0072 -0.3704  0.0568
13699SOL    HW142538   1.449   5.873   3.990  0.3055 -0.7130 -0.5414
13699SOL    HW242539   1.459   5.722   3.993 -0.1404 -0.7242  0.6227
13700SOL     OW42540   2.543   3.088   6.235  0.0395  0.0836  0.3580
13700SOL    HW142541   2.578   3.152   6.297 -1.1265  0.7932  0.3151
13700SOL    HW242542   2.453   3.074   6.263 -0.1275 -0.5227 -0.4442
13701SOL     OW42543   0.150   7.323   3.898  0.3794  0.0055  0.0341
13701SOL    HW142544   0.110   7.333   3.811  1.1682  1.2335 -0.2099
13701SOL    HW242545   0.232   7.278   3.881 -0.7188 -2.3203  0.5105
13702SOL     OW42546   3.925   7.685   9.597 -0.0538  0.4006 -0.4169
13702SOL    HW142547   3.932   7.731   9.513  2.1881 -0.3428 -0.7222
13702SOL    HW242548   3.902   7.595   9.573  0.0531  0.3147 -0.1968
13703SOL     OW42549   5.732   6.817   7.035 -0.1148  0.3339  0.3074
13703SOL    HW142550   5.778   6.900   7.032 -2.0373  1.4462 -1.8866
13703SOL    HW242551   5.641   6.840   7.055 -0.8176 -1.1205 -0.9644
13704SOL     OW42552   2.188   5.425   1.875  0.2820  0.2226  0.2961
13704SOL    HW142553   2.243   5.491   1.917  1.6694 -1.2075  0.8349
13704SOL    HW242554   2.192   5.446   1.782  0.6682  0.9101  0.4611
13705SOL     OW42555   1.510   3.727   2.980  0.2441 -0.1069  0.5109
13705SOL    HW142556   1.457   3.784   2.924  1.6297  0.0265 -0.7384
13705SOL    HW242557   1.516   3.773   3.063  0.2545  0.9516 -0.0600
13706SOL     OW42558   0.463   0.743   7.894 -0.5622  0.1442 -0.1331
13706SOL    HW142559   0.465   0.835   7.867 -1.6482  0.6244  1.2808
13706SOL    HW242560   0.409   0.700   7.828 -0.2461  0.5594 -0.6757
13707SOL     OW42561   1.663   0.660   0.440  0.0825 -0.1092 -0.4685
13707SOL    HW142562   1.705   0.663   0.526 -1.8221 -0.8025  0.5496
13707SOL    HW242563   1.713   0.721   0.386 -1.6335  4.5768  2.5794
13708SOL     OW42564   6.202   3.368  10.734  0.5515 -0.4814 -0.0043
13708SOL    HW142565   6.220   3.453  10.774  1.3954 -0.5741 -0.1581
13708SOL    HW242566   6.197   3.386  10.640  1.0303 -0.6371 -0.0659
13709SOL     OW42567   5.101   1.084   8.590 -0.1255  0.6303 -0.1574
13709SOL    HW142568   5.047   1.147   8.637 -3.4534 -1.5275 -0.7273
13709SOL    HW242569   5.091   1.108   8.498  0.2435  0.4576 -0.2449
13710SOL     OW42570   0.276   0.946   5.956  0.1728 -0.1816  1.0039
13710SOL    HW142571   0.273   1.037   5.925 -0.4463 -0.2811  0.7602
13710SOL    HW242572   0.346   0.906   5.904 -0.5402 -0.2224  0.0459
13711SOL     OW42573   7.744   5.797   7.646  0.0036 -0.2754 -0.2709
13711SOL    HW142574   7.733   5.891   7.637  0.1742 -0.0553  1.5239
13711SOL    HW242575   7.830   5.779   7.608 -0.0074  0.2978 -0.5723
13712SOL     OW42576   1.527   5.634   8.474  0.4866  0.4653 -0.1242
13712SOL    HW142577   1.513   5.668   8.385 -3.3357  0.4198  0.2666
13712SOL    HW242578   1.508   5.708   8.531 -2.3536 -0.6790  0.6252
13713SOL     OW42579   7.116   5.777  10.264  0.1495 -0.3759 -0.2102
13713SOL    HW142580   7.130   5.867  10.294 -0.2262 -0.4416  0.1729
13713SOL    HW242581   7.046   5.743  10.321 -1.3231 -0.1599 -1.7862
13714SOL     OW42582   0.936   5.364   6.703  0.5679  0.0662  0.6125
13714SOL    HW142583   0.927   5.377   6.797  1.0066  1.1075  0.5301
13714SOL    HW242584   0.897   5.442   6.664  1.4351  0.2109 -0.0229
13715SOL     OW42585   1.721   6.137   0.062 -0.1245 -0.3704  0.2669
13715SOL    HW142586   1.805   6.160   0.022 -0.0414 -0.7568  0.2120
13715SOL    HW242587   1.716   6.191   0.141 -0.3707  0.5286 -0.3548
13716SOL     OW42588   1.630   2.539  12.335 -0.1093 -0.3091 -0.4980
13716SOL    HW142589   1.657   2.459  12.380  0.4659  0.0668 -0.1755
13716SOL    HW242590   1.711   2.589  12.323 -0.2090 -0.4563 -2.0616
13717SOL     OW42591   7.246   7.315   5.905  0.1136  0.2819 -0.2297
13717SOL    HW142592   7.313   7.380   5.882  0.8380 -0.0657  0.8550
13717SOL    HW242593   7.172   7.367   5.937  0.9297  0.5679  1.2532
13718SOL     OW42594   0.539   3.668   5.255  0.1620  0.3076 -0.0974
13718SOL    HW142595   0.569   3.615   5.181 -0.7949 -0.0945 -0.2233
13718SOL    HW242596   0.480   3.732   5.216 -1.5071 -0.8187  0.4314
13719SOL     OW42597   4.833   6.131   7.239  0.4490  0.5861  0.4320
13719SOL    HW142598   4.828   6.132   7.334 -0.9352  0.2725  0.3880
13719SOL    HW242599   4.785   6.052   7.213  0.6475  0.7683 -0.5274
13720SOL     OW42600   6.764   2.765   4.471 -0.4015  0.1381  0.0175
13720SOL    HW142601   6.712   2.844   4.460 -0.0359  0.2810 -0.6877
13720SOL    HW242602   6.744   2.712   4.395  0.0092 -0.0798  0.0580
13721SOL     OW42603   2.811   0.261   5.272  0.7919 -0.4310  0.1244
13721SOL    HW142604   2.847   0.176   5.299 -0.2164 -0.1802  2.5018
13721SOL    HW242605   2.727   0.267   5.317 -0.4326  0.7126 -2.1367
13722SOL     OW42606   7.299   1.604   1.765 -0.4068  0.2460 -1.0247
13722SOL    HW142607   7.268   1.548   1.836 -0.7114  3.7024  1.8889
13722SOL    HW242608   7.224   1.611   1.705 -1.9412  0.8880  0.8602
13723SOL     OW42609   7.653   5.793   9.424 -0.1519  0.7819 -1.1393
13723SOL    HW142610   7.659   5.803   9.519 -1.3314  3.0558 -1.2056
13723SOL    HW242611   7.616   5.706   9.410 -0.5194  0.6496  0.5241
13724SOL     OW42612   2.615   2.605  11.920 -0.4683  0.1025  0.0116
13724SOL    HW142613   2.650   2.537  11.861  0.6953  0.3828  0.3436
13724SOL    HW242614   2.521   2.592  11.918 -0.5329  0.4899 -2.3984
13725SOL     OW42615   1.292   6.453   3.795 -0.3648 -0.3713  0.4120
13725SOL    HW142616   1.212   6.409   3.824 -0.4591  0.6016  1.7182
13725SOL    HW242617   1.283   6.542   3.829  0.0665  0.5281 -1.6675
13726SOL     OW42618   6.344   5.169   0.556 -0.0531  0.3502 -0.2610
13726SOL    HW142619   6.389   5.095   0.597 -0.3298  0.2141 -0.1998
13726SOL    HW242620   6.355   5.155   0.462  2.3403  1.7240 -0.2851
13727SOL     OW42621   4.156   6.472   7.201 -0.6969  0.3355  0.2949
13727SOL    HW142622   4.140   6.491   7.108 -1.9371  0.3419  0.4886
13727SOL    HW242623   4.203   6.388   7.200 -1.0845  0.1173 -0.3251
13728SOL     OW42624   0.829   6.956   4.255  0.0627  0.2003 -0.0777
13728SOL    HW142625   0.867   6.905   4.183  0.3362  0.5244 -0.1603
13728SOL    HW242626   0.885   6.937   4.330  0.0391  0.2149 -0.0563
13729SOL     OW42627   5.381   2.655   3.959 -0.1758 -0.1575  0.0155
13729SOL    HW142628   5.364   2.700   3.877  0.5857 -0.3160 -0.2276
13729SOL    HW242629   5.322   2.697   4.022 -1.9551 -1.1097 -0.9406
13730SOL     OW42630   4.742   6.266   2.492  0.4345 -0.1730  0.1794
13730SOL    HW142631   4.647   6.254   2.487  0.5853 -1.3047 -0.3600
13730SOL    HW242632   4.762   6.248   2.584  0.1909 -0.5091  0.1716
13731SOL     OW42633   3.414   4.994   4.595 -0.1656  0.1731 -0.1218
13731SOL    HW142634   3.378   4.906   4.597  0.1036  0.0497 -0.5055
13731SOL    HW242635   3.418   5.016   4.502  2.7074 -0.6605 -0.2978
13732SOL     OW42636   7.821   4.288   7.968  0.2575  0.1898  0.1517
13732SOL    HW142637   7.734   4.249   7.981  1.3471 -2.4730 -0.0006
13732SOL    HW242638   7.827   4.302   7.873 -0.1787  0.9269  0.2194
13733SOL     OW42639   3.770   1.408   6.029  0.9202 -0.0309  0.0554
13733SOL    HW142640   3.847   1.383   6.082 -0.4094 -0.3447  1.9468
13733SOL    HW242641   3.728   1.326   6.008  0.7622  0.1792 -0.4532
13734SOL     OW42642   5.348   4.946  10.496 -0.2717  0.1117  0.1835
13734SOL    HW142643   5.300   4.882  10.445 -0.5553  0.5400 -0.0967
13734SOL    HW242644   5.354   4.908  10.584  0.2838 -0.6630 -0.1766
13735SOL     OW42645   3.892   4.924   9.025  0.4649  0.2994 -0.3691
13735SOL    HW142646   3.919   4.978   9.099  1.3954  1.1703 -1.2971
13735SOL    HW242647   3.800   4.946   9.011  0.2855  0.1299  0.5178
13736SOL     OW42648   4.684   3.313   5.932 -0.5582 -0.3401  0.2925
13736SOL    HW142649   4.726   3.248   5.990  0.6672  0.5349  0.4284
13736SOL    HW242650   4.636   3.370   5.991 -0.3470 -0.1973  0.3274
13737SOL     OW42651   3.782   3.025   6.144 -0.3067 -0.2289  0.1332
13737SOL    HW142652   3.730   3.027   6.224 -0.0189 -1.3700  0.3716
13737SOL    HW242653   3.867   2.989   6.171  0.2314  0.5592 -0.4547
13738SOL     OW42654   7.581   6.297   5.294 -0.3586 -0.4316 -0.1451
13738SOL    HW142655   7.665   6.342   5.292 -1.4463  1.8792  1.4054
13738SOL    HW242656   7.600   6.210   5.328  1.3622  0.1105  0.3505
13739SOL     OW42657   7.463   6.470   3.839 -0.0017  0.1047  0.0064
13739SOL    HW142658   7.449   6.565   3.831  2.9772  0.6104 -0.2732
13739SOL    HW242659   7.493   6.457   3.929 -1.3805 -0.7624  0.3675
13740SOL     OW42660   2.082   2.829   1.485  0.1097  0.5366 -0.2280
13740SOL    HW142661   2.138   2.887   1.537  1.3541  0.5589 -1.5323
13740SOL    HW242662   2.114   2.838   1.395 -1.0226 -0.6105 -0.7828
13741SOL     OW42663   5.106   7.250   8.785  0.2620  0.1117 -0.0434
13741SOL    HW142664   5.136   7.173   8.833 -2.2823 -2.1063 -1.7349
13741SOL    HW242665   5.181   7.273   8.729  0.7405 -1.8352 -0.2819
13742SOL     OW42666   2.723   0.521  11.629  0.4199 -0.2049 -0.2567
13742SOL    HW142667   2.651   0.506  11.569  0.1677 -0.8428  0.1975
13742SOL    HW242668   2.802   0.502  11.578  0.2676  0.4613 -0.7418
13743SOL     OW42669   4.119   3.867   9.007  0.5263  0.1085 -0.1298
13743SOL    HW142670   4.039   3.816   8.996  0.3731  0.5615 -1.2479
13743SOL    HW242671   4.088   3.953   9.035  0.6108  0.2899 -0.5837
13744SOL     OW42672   7.652   3.603   2.715  0.4294  0.0781  0.4967
13744SOL    HW142673   7.671   3.534   2.779 -1.1128  0.1160  1.0330
13744SOL    HW242674   7.613   3.556   2.641 -1.2973  0.3951  1.1531
13745SOL     OW42675   0.703   4.905  10.804  0.1790  0.4030 -0.2773
13745SOL    HW142676   0.635   4.857  10.757 -0.1132 -0.2601  0.7903
13745SOL    HW242677   0.783   4.885  10.757  0.3385 -2.4307  0.9634
13746SOL     OW42678   7.970   4.030  11.012 -0.1781 -1.2008  0.2278
13746SOL    HW142679   7.969   4.110  11.065 -1.7715 -1.2032  0.2426
13746SOL    HW242680   7.927   3.965  11.066  1.0890 -2.1044  0.2038
13747SOL     OW42681   3.222   1.959   4.968  0.7137  0.0706  0.3875
13747SOL    HW142682   3.184   2.005   4.893 -0.1176 -0.6727  0.3342
13747SOL    HW242683   3.170   1.879   4.975  0.0028  0.6551  2.4773
13748SOL     OW42684   1.682   3.684   9.695 -0.0360 -0.9413 -0.1642
13748SOL    HW142685   1.728   3.752   9.646  1.5216 -1.4583  0.5173
13748SOL    HW242686   1.592   3.687   9.662  0.0136  1.3384 -0.2619
13749SOL     OW42687   4.970   5.634   0.048 -0.1617 -0.4717  0.4563
13749SOL    HW142688   5.016   5.706   0.091  2.6818 -1.0440 -1.3420
13749SOL    HW242689   4.986   5.558   0.104  1.2877 -0.6863 -0.2006
13750SOL     OW42690   2.229   7.080   1.510  0.0939 -0.5368  0.0332
13750SOL    HW142691   2.318   7.052   1.535  1.2259  0.3253 -2.6142
13750SOL    HW242692   2.187   7.000   1.480  0.9891 -0.5718 -1.2462
13751SOL     OW42693   7.813   4.768  11.905  0.0855  0.4214  0.7364
13751SOL    HW142694   7.830   4.729  11.819  0.0415  2.0935 -0.0654
13751SOL    HW242695   7.852   4.707  11.967 -1.1123 -1.5640 -0.3484
13752SOL     OW42696   1.526   5.854  10.059  0.4371  0.0654 -0.5443
13752SOL    HW142697   1.439   5.819  10.079  0.9410 -1.6554 -1.1539
13752SOL    HW242698   1.583   5.778  10.064  1.7916  1.0279 -0.9366
13753SOL     OW42699   6.757   5.955  11.569  0.1444 -0.3365  0.0709
13753SOL    HW142700   6.675   6.004  11.583 -0.8195 -2.0614  0.7609
13753SOL    HW242701   6.811   6.015  11.518 -1.2940  1.1189  0.1361
13754SOL     OW42702   6.900   3.980   9.066 -0.2504  0.2560 -0.1378
13754SOL    HW142703   6.903   4.023   8.981 -2.4744 -0.5478 -0.7123
13754SOL    HW242704   6.913   3.887   9.046 -0.9529  0.0434  0.3441
13755SOL     OW42705   1.926   4.649  10.280 -0.0073 -0.0802  0.4955
13755SOL    HW142706   1.974   4.667  10.199 -0.6270  0.6500  0.2760
13755SOL    HW242707   1.960   4.565  10.310 -0.4095 -0.8230 -1.0208
13756SOL     OW42708   2.999   2.523   5.995  0.0185 -0.1440 -0.1366
13756SOL    HW142709   3.075   2.497   6.048  0.1731 -0.2738 -0.4219
13756SOL    HW242710   3.022   2.609   5.960 -0.1054 -0.0349  0.0458
13757SOL     OW42711   2.794   1.738   6.448 -0.4806 -0.0224 -0.0924
13757SOL    HW142712   2.761   1.720   6.360 -0.8891  0.9928 -0.1605
13757SOL    HW242713   2.873   1.685   6.455  0.0768  0.5740 -1.4225
13758SOL     OW42714   2.260   3.774   6.646  0.2143 -0.3941  0.1853
13758SOL    HW142715   2.210   3.722   6.583 -1.6664 -0.1731  1.4049
13758SOL    HW242716   2.265   3.861   6.606 -0.3793 -0.4282  0.0199
13759SOL     OW42717   3.514   7.941   1.578 -0.1767 -0.2323  0.2662
13759SOL    HW142718   3.580   7.996   1.621  0.4370 -1.2520  0.6452
13759SOL    HW242719   3.430   7.981   1.602  0.2775  1.2315 -0.4221
13760SOL     OW42720   5.281   3.094   6.336  0.2516  0.2673  0.0203
13760SOL    HW142721   5.309   3.003   6.330 -0.9136 -0.0830 -0.4573
13760SOL    HW242722   5.349   3.137   6.387  0.3194 -1.0840  1.1105
13761SOL     OW42723   0.874   2.377   6.246  0.2552  0.2275  0.1257
13761SOL    HW142724   0.906   2.427   6.171  2.5202 -1.0179  0.1649
13761SOL    HW242725   0.855   2.443   6.313 -0.5979  1.2595 -1.0935
13762SOL     OW42726   1.517   2.467   8.695  0.2421  0.4969 -0.0306
13762SOL    HW142727   1.509   2.385   8.646 -1.3907 -0.8410  2.2339
13762SOL    HW242728   1.462   2.529   8.649 -1.7745 -0.9048  0.3597
13763SOL     OW42729   0.243   0.371   0.071  0.7046  0.2837  0.1764
13763SOL    HW142730   0.262   0.300   0.132  0.0835  0.6765  0.8525
13763SOL    HW242731   0.291   0.446   0.106 -1.9332  1.3082  1.9491
13764SOL     OW42732   3.624   6.973  12.338 -0.1760 -0.8660  0.3983
13764SOL    HW142733   3.632   7.003  12.247  0.7352  0.2458  0.8289
13764SOL    HW242734   3.647   6.880  12.334 -0.7123 -0.9775 -0.5925
13765SOL     OW42735   4.002   2.087   5.039  0.2614  0.2346 -0.1170
13765SOL    HW142736   4.081   2.050   5.079 -0.1929  0.2666  0.8556
13765SOL    HW242737   4.033   2.162   4.988  1.2725 -1.7667 -2.6291
13766SOL     OW42738   7.333   2.569  11.643 -1.0114  0.6140 -0.3171
13766SOL    HW142739   7.273   2.644  11.637 -0.8971  0.6293 -1.7420
13766SOL    HW242740   7.334   2.532  11.554 -2.2162 -1.9950  0.6443
13767SOL     OW42741   4.526   0.140   2.899 -0.3787 -0.4821 -0.1360
13767SOL    HW142742   4.520   0.067   2.960  0.7725 -0.0041  0.5922
13767SOL    HW242743   4.610   0.182   2.921 -1.0680  1.1104 -0.4488
13768SOL     OW42744   4.434   4.614  10.332  0.1825  0.2704  0.0361
13768SOL    HW142745   4.356   4.668  10.334 -0.3764 -0.5302  0.5630
13768SOL    HW242746   4.504   4.671  10.362  0.2475  1.6358 -2.4372
13769SOL     OW42747   3.486   6.678   0.042 -0.3719 -0.0406 -0.4350
13769SOL    HW142748   3.510   6.703  -0.047 -2.5999 -1.6673 -1.5891
13769SOL    HW242749   3.563   6.631   0.075 -0.5181 -1.9825 -2.6323
13770SOL     OW42750   5.394   4.202   3.928 -0.0300 -0.0753 -0.4621
13770SOL    HW142751   5.479   4.183   3.888 -0.0932  1.8990 -1.6592
13770SOL    HW242752   5.412   4.202   4.022  2.0078  2.9752 -0.7190
13771SOL     OW42753   7.234   4.139   6.951 -0.4163 -0.3813  0.1066
13771SOL    HW142754   7.311   4.187   6.921  0.1058 -0.0618  1.8126
13771SOL    HW242755   7.164   4.166   6.892  0.3960  0.7037 -0.4016
13772SOL     OW42756   6.779   1.535   7.875 -0.0760 -0.2939  0.9904
13772SOL    HW142757   6.752   1.449   7.845  0.3007  0.1101 -0.6062
13772SOL    HW242758   6.731   1.596   7.818 -0.2526  0.5551  2.0219
13773SOL     OW42759   3.234   7.385   1.669 -0.1061 -0.4360 -0.0687
13773SOL    HW142760   3.177   7.434   1.728 -0.3843  0.0363 -0.7208
13773SOL    HW242761   3.298   7.450   1.639  1.0155 -1.0366  0.9292
13774SOL     OW42762   5.615   6.242   2.467 -0.0404 -0.0242 -0.5760
13774SOL    HW142763   5.654   6.163   2.432  1.2010  0.2816  0.0466
13774SOL    HW242764   5.660   6.256   2.551 -1.1161  0.6545 -0.0853
13775SOL     OW42765   7.944   2.443   0.693  0.5463 -0.5733  0.4408
13775SOL    HW142766   8.006   2.503   0.734  0.1445 -0.9470  1.6477
13775SOL    HW242767   7.981   2.356   0.708  0.2509 -0.7320  0.2624
13776SOL     OW42768   5.214   7.595   4.529  0.3140  0.8067  0.1664
13776SOL    HW142769   5.252   7.626   4.611 -0.7085 -0.6324  1.2426
13776SOL    HW242770   5.163   7.668   4.497  0.4855  1.2916  0.9768
13777SOL     OW42771   6.934   3.565  10.564 -0.3014  0.1860  0.4685
13777SOL    HW142772   6.870   3.572  10.635  0.4163 -2.1676  1.4354
13777SOL    HW242773   6.904   3.490  10.512  0.9296 -0.1405  0.1911
13778SOL     OW42774   4.267   0.718   1.340 -0.2376  0.1818  0.4847
13778SOL    HW142775   4.199   0.736   1.406 -0.4200  2.1787 -0.1485
13778SOL    HW242776   4.345   0.761   1.374 -0.2542  0.9617 -0.3985
13779SOL     OW42777   2.339   6.613   8.485 -0.4013  0.2530  0.8270
13779SOL    HW142778   2.430   6.583   8.490  0.2470  1.8957 -0.1877
13779SOL    HW242779   2.291   6.539   8.448  0.9248  0.0400 -0.5729
13780SOL     OW42780   1.512   7.576   9.195  0.3862  0.5558 -0.0805
13780SOL    HW142781   1.574   7.604   9.128 -1.1637  0.6462 -1.5348
13780SOL    HW242782   1.433   7.553   9.147 -0.5067 -0.2026  1.6545
13781SOL     OW42783   5.201   5.140   5.774  0.1382 -0.1364  0.2997
13781SOL    HW142784   5.271   5.185   5.727  0.4907 -1.9623 -1.0470
13781SOL    HW242785   5.246   5.085   5.838 -0.1358 -0.3465  0.3129
13782SOL     OW42786   2.189   2.379   6.597  0.6383 -0.3002  0.5218
13782SOL    HW142787   2.243   2.432   6.538  1.0945  0.6948  1.7801
13782SOL    HW242788   2.251   2.319   6.639  0.6628  0.3195  1.3992
13783SOL     OW42789   1.161   5.369  12.358 -0.4813  0.0587  0.1246
13783SOL    HW142790   1.092   5.304  12.344 -0.5166  0.1030  0.0939
13783SOL    HW242791   1.133   5.446  12.308 -0.3454  0.0327  0.0082
13784SOL     OW42792   4.625   3.967   7.952  0.0059 -0.3739  0.4796
13784SOL    HW142793   4.548   3.910   7.950 -2.6427  2.8259  1.7314
13784SOL    HW242794   4.603   4.040   7.895  1.9991  0.8441  1.1508
13785SOL     OW42795   1.020   4.797   7.222 -0.3693 -0.0484 -0.0580
13785SOL    HW142796   1.030   4.871   7.281  1.1866 -0.6328  0.4819
13785SOL    HW242797   0.948   4.746   7.259 -1.8550  1.4517 -0.7731
13786SOL     OW42798   4.163   3.874   5.046 -0.4676 -0.4217  0.3114
13786SOL    HW142799   4.069   3.858   5.049 -0.5462 -0.0748 -0.1090
13786SOL    HW242800   4.203   3.787   5.043 -0.7198 -0.6087  1.5455
13787SOL     OW42801   2.856   6.909   2.447  0.1865 -0.6678  0.1612
13787SOL    HW142802   2.797   6.834   2.434  3.0141 -2.8439 -1.3020
13787SOL    HW242803   2.929   6.874   2.498  0.8756  1.5637  0.8216
13788SOL     OW42804   2.841   3.504   2.738  0.0303 -0.2666 -0.1204
13788SOL    HW142805   2.793   3.527   2.658  0.3385 -0.1515 -0.2740
13788SOL    HW242806   2.817   3.573   2.801 -1.8546 -1.4725  0.5747
13789SOL     OW42807   0.114   7.299  11.069  0.4989 -0.3325 -1.0046
13789SOL    HW142808   0.167   7.318  10.991 -2.0082  0.2365 -2.6822
13789SOL    HW242809   0.092   7.206  11.060  0.4116 -0.3302 -0.8156
13790SOL     OW42810   0.454   0.914   9.369  0.1099 -0.4959 -0.5285
13790SOL    HW142811   0.369   0.957   9.367 -0.2701 -1.2162 -2.2915
13790SOL    HW242812   0.479   0.912   9.461 -2.0317 -0.7362  0.0889
13791SOL     OW42813   3.810   6.610   7.043 -0.3304  0.2112 -0.4471
13791SOL    HW142814   3.762   6.605   6.960  1.3790  1.4896 -1.5787
13791SOL    HW242815   3.823   6.703   7.058  2.5083 -0.0654 -0.6770
13792SOL     OW42816   6.994   7.180  10.464 -0.5261 -0.0823  1.2416
13792SOL    HW142817   6.942   7.124  10.521 -2.9313  1.8753  1.1341
13792SOL    HW242818   7.008   7.260  10.515  0.0497  0.4756  0.2406
13793SOL     OW42819   2.760   4.314   7.156 -0.3096 -0.4765 -0.0747
13793SOL    HW142820   2.667   4.317   7.135 -0.6887 -1.4614  1.3078
13793SOL    HW242821   2.804   4.306   7.072 -1.4766 -0.0171 -0.7466
13794SOL     OW42822   6.847   0.294   2.107  0.1873  0.2817 -0.4297
13794SOL    HW142823   6.923   0.314   2.162 -0.0674  0.1512 -0.0280
13794SOL    HW242824   6.879   0.306   2.017  0.1887  1.9965 -0.2340
13795SOL     OW42825   0.378   3.371   5.217  0.5276  0.0538  0.7001
13795SOL    HW142826   0.313   3.387   5.150  1.0307  1.6414  0.5680
13795SOL    HW242827   0.401   3.457   5.251  1.9710 -0.5226  1.3014
13796SOL     OW42828   5.212   4.766   9.982  0.4852  0.2761  0.7018
13796SOL    HW142829   5.172   4.687  10.018 -0.6571  0.4216 -0.2024
13796SOL    HW242830   5.187   4.766   9.890  3.4123 -0.1437 -0.2095
13797SOL     OW42831   6.024   0.268   6.444  0.1905 -0.2494  0.3274
13797SOL    HW142832   6.101   0.300   6.397  0.0276  0.1726  0.3442
13797SOL    HW242833   6.008   0.333   6.512 -0.4419 -0.1063  0.0460
13798SOL     OW42834   2.436   5.452   2.272 -0.0539  0.5584  0.0200
13798SOL    HW142835   2.465   5.521   2.332  1.4764 -1.8980  2.2969
13798SOL    HW242836   2.351   5.424   2.305  0.7315 -0.7094  1.0226
13799SOL     OW42837   6.055   2.444   5.007 -0.2235 -0.4984 -0.0084
13799SOL    HW142838   6.127   2.451   5.070 -0.0267  1.9446 -0.3844
13799SOL    HW242839   6.060   2.354   4.974  0.5631 -1.3946  2.3635
13800SOL     OW42840   1.196   1.682   7.525 -0.3504  0.1813 -0.1660
13800SOL    HW142841   1.192   1.764   7.476  0.3098  0.2041 -0.1928
13800SOL    HW242842   1.270   1.693   7.585 -0.3048 -0.3604 -0.1141
13801SOL     OW42843   4.657   5.566   3.617  0.2470 -0.1081  0.9376
13801SOL    HW142844   4.736   5.512   3.610  0.2685  0.0740 -0.4034
13801SOL    HW242845   4.586   5.507   3.593 -0.0354 -0.2402  2.0378
13802SOL     OW42846   3.688   0.762   3.269 -0.4546  0.4476 -0.1943
13802SOL    HW142847   3.613   0.704   3.283  0.6115 -0.7450  0.9312
13802SOL    HW242848   3.686   0.822   3.344 -0.1659  0.2476 -0.0213
13803SOL     OW42849   0.355   1.957   6.127  0.0854  0.4825 -0.0886
13803SOL    HW142850   0.283   2.011   6.159 -0.8243 -1.4652  1.3035
13803SOL    HW242851   0.429   1.981   6.182 -0.4323 -0.0089  0.8296
13804SOL     OW42852   3.489   7.885   5.010  0.1609  0.1210  0.0514
13804SOL    HW142853   3.525   7.887   5.099 -1.6796 -0.6894  0.8625
13804SOL    HW242854   3.474   7.977   4.989  0.9410  0.3441  0.4235
13805SOL     OW42855   6.686   4.541  11.520 -0.3174  0.4500 -0.3715
13805SOL    HW142856   6.637   4.574  11.595 -3.2487 -1.0630 -1.4501
13805SOL    HW242857   6.674   4.446  11.524  1.0788  0.1877 -1.7115
13806SOL     OW42858   0.641   0.244  10.230 -0.1781 -0.3315 -0.1468
13806SOL    HW142859   0.616   0.322  10.180  1.0259 -1.0720 -1.9877
13806SOL    HW242860   0.715   0.274  10.284  1.2258 -0.4813 -1.8984
13807SOL     OW42861   1.709   3.081  11.083 -0.4769 -0.0591 -0.1135
13807SOL    HW142862   1.641   3.033  11.036 -0.5244  0.3864 -0.5092
13807SOL    HW242863   1.791   3.056  11.039 -0.3847 -0.5997  0.3651
13808SOL     OW42864   7.840   2.598   3.445 -0.2288 -0.4080 -0.1197
13808SOL    HW142865   7.756   2.557   3.424 -0.5767 -0.0374  0.5101
13808SOL    HW242866   7.879   2.617   3.360 -1.1756  0.2012 -0.4413
13809SOL     OW42867   0.145   0.303   4.914 -0.0927  0.0667  0.1768
13809SOL    HW142868   0.174   0.227   4.964 -0.0120  0.7845  1.2514
13809SOL    HW242869   0.221   0.360   4.909 -0.1571  0.0958 -0.6069
13810SOL     OW42870   1.175   4.825   8.571 -0.2651  0.0961  0.5605
13810SOL    HW142871   1.193   4.865   8.485  0.2248  0.6748  0.9183
13810SOL    HW242872   1.144   4.898   8.625  0.0806 -0.1256  1.0639
13811SOL     OW42873   4.365   5.827   8.639  0.1808  0.5441 -0.1936
13811SOL    HW142874   4.405   5.769   8.704 -0.8021  0.4151  0.3223
13811SOL    HW242875   4.294   5.776   8.601 -1.2360  1.6463  0.8571
13812SOL     OW42876   0.080   7.649   5.849  0.0633 -0.0190  0.8941
13812SOL    HW142877   0.087   7.699   5.768 -2.2186 -0.1625  0.5576
13812SOL    HW242878   0.097   7.558   5.823  2.4921  0.2778  1.2045
13813SOL     OW42879   1.057   1.285  11.139  0.2668 -0.0902 -0.1451
13813SOL    HW142880   1.051   1.281  11.235  0.2119  1.5591 -0.0468
13813SOL    HW242881   1.149   1.309  11.122  0.3805 -0.7806 -0.5308
13814SOL     OW42882   6.219   1.264   3.917 -0.0100  0.3947 -0.3556
13814SOL    HW142883   6.154   1.201   3.886 -0.4096 -0.3668  1.8261
13814SOL    HW242884   6.302   1.216   3.916 -0.5068 -0.7166  2.4888
13815SOL     OW42885   5.615   4.771  11.928 -0.3926  0.0925 -0.5291
13815SOL    HW142886   5.523   4.746  11.916 -0.7258  0.7873  0.4125
13815SOL    HW242887   5.665   4.692  11.906 -1.1645 -0.0557 -1.8194
13816SOL     OW42888   1.440   5.459   6.827  0.3016 -0.3146  0.1403
13816SOL    HW142889   1.358   5.408   6.827 -0.2302  0.4869  1.6240
13816SOL    HW242890   1.470   5.456   6.736  0.7968 -4.0355  0.2698
13817SOL     OW42891   5.413   1.956   2.817 -0.8430 -0.4159 -0.1841
13817SOL    HW142892   5.463   1.932   2.895  1.0252 -0.2768 -1.2822
13817SOL    HW242893   5.352   2.024   2.848  0.5012  0.3203  0.9881
13818SOL     OW42894   5.042   1.112   1.904 -0.0101  0.0911  0.0867
13818SOL    HW142895   4.990   1.157   1.839  0.3811  1.4289  0.6640
13818SOL    HW242896   5.018   1.153   1.987  1.3384  0.1726  0.4659
13819SOL     OW42897   6.725   4.568   9.109 -0.6931  0.0502  0.2334
13819SOL    HW142898   6.794   4.632   9.124  0.3970 -1.3585  1.4787
13819SOL    HW242899   6.740   4.536   9.020  0.5732 -0.5656  0.6463
13820SOL     OW42900   4.351   4.495  10.123  0.2481  0.1287 -0.2150
13820SOL    HW142901   4.392   4.528  10.203 -1.0753 -0.6655  0.8522
13820SOL    HW242902   4.337   4.573  10.069 -0.0147  0.8955  0.9057
13821SOL     OW42903   3.294   3.606   0.226 -0.2197 -0.0385  0.5789
13821SOL    HW142904   3.301   3.516   0.258  1.2907  0.4166  1.6632
13821SOL    HW242905   3.372   3.619   0.172 -0.0331  0.8120  1.0217
13822SOL     OW42906   6.739   2.532   0.392 -0.6644  0.6695 -0.2945
13822SOL    HW142907   6.653   2.498   0.367 -1.4035 -0.4279  3.1044
13822SOL    HW242908   6.801   2.466   0.360 -1.0624  1.2365 -2.3603
13823SOL     OW42909   1.911   2.611  10.806  0.0066  0.1541 -0.1097
13823SOL    HW142910   1.828   2.658  10.810  1.2070  2.2888  1.4057
13823SOL    HW242911   1.974   2.677  10.779  1.2491 -1.4292 -1.2327
13824SOL     OW42912   5.182   2.486   3.176  0.4371 -0.1364 -0.4094
13824SOL    HW142913   5.139   2.546   3.115  0.7851  0.3849 -0.1512
13824SOL    HW242914   5.153   2.399   3.149 -0.2944  0.1688 -0.6108
13825SOL     OW42915   5.012   1.402  10.996 -0.3179  0.2630  0.2072
13825SOL    HW142916   5.063   1.325  10.971 -0.7632 -0.0842  0.3676
13825SOL    HW242917   4.929   1.367  11.028 -0.1744  0.7502  1.1523
13826SOL     OW42918   0.500   7.504   4.252  0.5311 -0.0385 -0.6890
13826SOL    HW142919   0.521   7.574   4.189  2.4627  1.0957  1.1000
13826SOL    HW242920   0.451   7.549   4.322  1.9063 -0.3959  0.5449
13827SOL     OW42921   5.195   6.535   1.129 -0.1139  0.2664  0.5203
13827SOL    HW142922   5.171   6.626   1.109  0.1841 -0.1885 -2.1722
13827SOL    HW242923   5.216   6.537   1.223 -2.2478  2.4720  1.0729
13828SOL     OW42924   4.661   5.143   6.535 -0.4713 -0.8712  0.1689
13828SOL    HW142925   4.675   5.084   6.461 -0.6810  0.7932 -1.2839
13828SOL    HW242926   4.729   5.121   6.598  1.4501 -0.5907 -1.7179
13829SOL     OW42927   7.187   1.543   0.030  0.7229 -0.2959  0.5917
13829SOL    HW142928   7.100   1.505   0.041  0.6564 -0.2296  0.2993
13829SOL    HW242929   7.179   1.600  -0.046  1.0921 -0.5038  0.3938
13830SOL     OW42930   2.858   5.050   4.615 -0.7275  0.2675  0.3717
13830SOL    HW142931   2.847   5.018   4.525 -2.9144 -1.8633  1.2800
13830SOL    HW242932   2.781   5.106   4.630  0.8417  2.6221  0.2407
13831SOL     OW42933   7.963   3.821   0.728 -0.0527 -0.3508 -0.2466
13831SOL    HW142934   7.908   3.765   0.782  0.2354 -0.6618 -0.2748
13831SOL    HW242935   7.921   3.907   0.733  0.7142 -0.0409  1.5546
13832SOL     OW42936   0.055   0.280   8.231 -0.4350  0.1219 -0.1495
13832SOL    HW142937  -0.008   0.215   8.202  0.2184 -0.5635 -0.0440
13832SOL    HW242938   0.070   0.261   8.323 -2.4545  2.2498  0.7172
13833SOL     OW42939   1.559   6.084   2.137 -0.2380 -0.1753 -0.0826
13833SOL    HW142940   1.468   6.062   2.159 -0.0084 -1.0008  0.0520
13833SOL    HW242941   1.609   6.062   2.216  0.0332  0.6443 -0.0154
13834SOL     OW42942   1.307   7.127   7.503 -0.0061 -0.4250 -0.5879
13834SOL    HW142943   1.329   7.212   7.541  0.6417 -0.3599 -1.0909
13834SOL    HW242944   1.344   7.129   7.415 -0.3911 -1.0530 -0.7745
13835SOL     OW42945   3.305   4.860   7.598 -0.7385 -0.2021  0.5622
13835SOL    HW142946   3.282   4.770   7.575 -0.8155  0.1875 -0.9949
13835SOL    HW242947   3.373   4.884   7.535 -0.8135  0.8837  0.8764
13836SOL     OW42948   7.767   7.280   1.047  0.5284 -0.4469  0.3953
13836SOL    HW142949   7.786   7.369   1.075  2.9402  0.3404 -3.0443
13836SOL    HW242950   7.851   7.235   1.052  0.0257 -1.5847 -0.7984
13837SOL     OW42951   6.150   2.017   9.230 -0.4733  0.2122  0.2874
13837SOL    HW142952   6.150   1.945   9.168  1.5543 -0.2146  0.6987
13837SOL    HW242953   6.225   1.999   9.288 -0.8145  1.8630  1.3198
13838SOL     OW42954   7.538   3.519   8.503 -0.1807  0.1263  0.1629
13838SOL    HW142955   7.458   3.490   8.459  1.2297  0.4962 -2.8637
13838SOL    HW242956   7.553   3.453   8.571 -2.9953  0.0809  0.8841
13839SOL     OW42957   6.500   3.208   0.034  0.7685  0.1936 -0.0036
13839SOL    HW142958   6.518   3.287  -0.016 -1.0335  0.5811 -0.0718
13839SOL    HW242959   6.495   3.138  -0.031  1.8176  0.0957  0.0046
13840SOL     OW42960   2.195   4.215   3.729 -0.4242  0.0866 -0.1565
13840SOL    HW142961   2.252   4.223   3.653  1.0702  2.2598  1.0889
13840SOL    HW242962   2.157   4.128   3.721 -0.0070  0.0742 -3.1381
13841SOL     OW42963   1.134   0.544   7.430  0.4102 -0.3894 -0.0539
13841SOL    HW142964   1.162   0.476   7.490  1.7426  0.2044  0.0407
13841SOL    HW242965   1.163   0.513   7.344  1.0072  0.0367 -0.0121
13842SOL     OW42966   0.533   4.109   3.477 -0.0555  0.0060  0.1843
13842SOL    HW142967   0.480   4.186   3.499 -0.4069 -0.2253  0.1506
13842SOL    HW242968   0.472   4.049   3.434  0.6123  0.4349 -1.4264
13843SOL     OW42969   3.609   2.239   4.669  0.8459 -0.0643 -0.1156
13843SOL    HW142970   3.654   2.313   4.711 -0.8077 -0.3277  2.3136
13843SOL    HW242971   3.534   2.279   4.625  0.8197 -0.1420 -0.1407
13844SOL     OW42972   5.029   0.612   0.315 -0.2029  0.2670  0.2635
13844SOL    HW142973   5.008   0.592   0.406 -1.5285 -0.1054 -0.0999
13844SOL    HW242974   4.994   0.700   0.301  2.4897  1.5525  0.8591
13845SOL     OW42975   3.242   6.766  11.772  0.0529  0.3493  0.0277
13845SOL    HW142976   3.296   6.843  11.789  1.6025 -0.7453  0.2652
13845SOL    HW242977   3.270   6.736  11.685  0.1741 -0.5086  0.3592
13846SOL     OW42978   3.155   2.854  12.412 -0.3618 -0.4131  0.6369
13846SOL    HW142979   3.188   2.859  12.323 -1.4564  0.0619  0.2488
13846SOL    HW242980   3.060   2.859  12.404 -0.4653  0.0691  1.8593
13847SOL     OW42981   1.804   1.345   2.371  0.3754  0.1848 -0.3570
13847SOL    HW142982   1.860   1.268   2.376 -1.3503 -1.0750  0.4108
13847SOL    HW242983   1.800   1.367   2.278  1.1854 -0.4027 -0.5372
13848SOL     OW42984   0.905   3.577   6.971  0.1480  0.6072 -0.3902
13848SOL    HW142985   0.993   3.543   6.990  0.0950  0.3300 -0.6387
13848SOL    HW242986   0.865   3.587   7.057  0.4652  0.8527 -0.2667
13849SOL     OW42987   3.015   2.605   8.898  0.0142 -0.7190 -0.3539
13849SOL    HW142988   3.040   2.596   8.990  0.8802  1.0960 -0.3521
13849SOL    HW242989   2.958   2.682   8.896  1.7276  0.5951 -1.5680
13850SOL     OW42990   2.436   5.494   5.520  0.0926 -0.1645  0.6668
13850SOL    HW142991   2.465   5.406   5.542 -0.0823  0.2960  3.0196
13850SOL    HW242992   2.410   5.532   5.604 -0.4562  1.9051 -0.3771
13851SOL     OW42993   3.621   1.048   0.204  0.1036 -0.5804  0.2338
13851SOL    HW142994   3.525   1.046   0.208  0.0125 -0.0922 -1.1421
13851SOL    HW242995   3.643   1.140   0.189  0.8055 -0.6688  0.6550
13852SOL     OW42996   3.677   6.824   3.002 -0.3030  0.7005 -0.3113
13852SOL    HW142997   3.645   6.734   3.008 -0.0279  0.3535 -2.9226
13852SOL    HW242998   3.709   6.832   2.913  0.3179  3.2131  0.0639
13853SOL     OW42999   6.667   0.756   5.359  0.1653  0.0706 -0.1505
13853SOL    HW143000   6.624   0.788   5.279  0.9755  2.6225  0.3444
13853SOL    HW243001   6.671   0.833   5.416  1.3112 -1.2281  1.5986
13854SOL     OW43002   3.767   7.322   2.101 -0.2342  0.5749  0.1340
13854SOL    HW143003   3.701   7.348   2.037 -0.0084  1.1267  0.1163
13854SOL    HW243004   3.846   7.370   2.075  0.2002 -0.1469  0.1044
13855SOL     OW43005   5.580   7.053  10.765 -0.5072 -0.2080  0.2297
13855SOL    HW143006   5.559   7.138  10.805  1.0913  1.0593 -1.4736
13855SOL    HW243007   5.666   7.065  10.726 -0.4851 -2.4626 -0.5776
13856SOL     OW43008   5.473   1.933   7.837  0.4991 -0.2809 -0.2975
13856SOL    HW143009   5.413   1.955   7.766 -0.8114 -1.2583  0.4539
13856SOL    HW243010   5.421   1.946   7.917  2.0449  1.1527  0.5440
13857SOL     OW43011   4.334   4.844   5.997 -0.2988 -0.1154  0.4215
13857SOL    HW143012   4.267   4.854   5.929 -0.7159  0.7984  0.9528
13857SOL    HW243013   4.411   4.889   5.962 -0.4858  0.2800  0.5236
13858SOL     OW43014   7.849   4.055  12.150  0.0150 -0.7267 -0.2656
13858SOL    HW143015   7.778   3.991  12.152  0.3711 -1.1064  1.2089
13858SOL    HW243016   7.924   4.009  12.187  0.5069  0.2878  0.0255
13859SOL     OW43017   7.402   5.894   1.456  0.1266 -0.1941  0.3247
13859SOL    HW143018   7.331   5.958   1.454  0.9251  0.7479  0.9080
13859SOL    HW243019   7.443   5.907   1.542  2.4793  0.9607 -0.8937
13860SOL     OW43020   6.074   0.802  10.705  0.4668 -1.1214  0.1646
13860SOL    HW143021   5.985   0.770  10.719  0.0790 -0.2770 -0.2688
13860SOL    HW243022   6.064   0.897  10.699  1.2530 -1.0953 -0.9860
13861SOL     OW43023   3.663   5.171   8.965  0.0963 -0.0575 -0.0030
13861SOL    HW143024   3.668   5.134   8.877  0.8941 -1.5291  0.6307
13861SOL    HW243025   3.747   5.216   8.976 -0.1474  0.4292 -0.1152
13862SOL     OW43026   5.417   1.029   9.448 -0.1313 -0.0412  0.0932
13862SOL    HW143027   5.423   1.105   9.391 -1.0665  0.6447  0.8730
13862SOL    HW243028   5.455   1.058   9.531 -0.7897 -0.3060  0.4981
13863SOL     OW43029   1.104   4.129   1.609 -0.3350 -0.3521 -0.3018
13863SOL    HW143030   1.168   4.198   1.624 -2.0456  1.0768  0.8035
13863SOL    HW243031   1.131   4.090   1.525  0.6865  1.6659 -0.9894
13864SOL     OW43032   1.179   4.617  11.569  0.2406 -0.3685 -0.2554
13864SOL    HW143033   1.106   4.597  11.511 -0.4187  1.9307 -0.3308
13864SOL    HW243034   1.142   4.609  11.657  0.5928 -1.5308 -0.1939
13865SOL     OW43035   5.737   3.663  10.370 -0.3040  0.0277  0.5436
13865SOL    HW143036   5.738   3.759  10.376 -1.1056  0.1857 -1.1993
13865SOL    HW243037   5.665   3.644  10.310  1.1861 -1.5646 -0.8446
13866SOL     OW43038   1.065   3.962   3.780 -0.0678 -0.3878 -0.7400
13866SOL    HW143039   1.023   3.948   3.865 -2.4034 -0.5388 -1.8288
13866SOL    HW243040   1.158   3.966   3.799 -0.6011  1.6729  2.1165
13867SOL     OW43041   3.108   3.228   3.311 -0.1157  0.3780  0.1622
13867SOL    HW143042   3.033   3.278   3.342  0.1181 -0.0463  1.4923
13867SOL    HW243043   3.183   3.286   3.324 -0.1145  0.5119 -0.4248
13868SOL     OW43044   2.897   5.827   0.289 -0.0671 -0.3132  0.5551
13868SOL    HW143045   2.875   5.895   0.226  1.4514 -0.7961 -0.5658
13868SOL    HW243046   2.947   5.762   0.239  0.5170 -1.1142  2.0734
13869SOL     OW43047   2.191   4.186   0.032  0.6425 -0.1286 -0.2943
13869SOL    HW143048   2.242   4.108   0.009  0.5065 -0.1340 -0.5869
13869SOL    HW243049   2.133   4.200  -0.043  0.7270  0.3069 -0.2832
13870SOL     OW43050   4.357   0.298   7.446 -0.0250 -0.1905  0.3111
13870SOL    HW143051   4.428   0.338   7.496  1.5751 -0.5859 -1.5593
13870SOL    HW243052   4.362   0.205   7.465  0.5921 -0.3436 -0.5467
13871SOL     OW43053   6.253   3.744   0.415  0.2014 -0.3275 -0.1531
13871SOL    HW143054   6.217   3.816   0.468  1.4486  0.7765 -0.7470
13871SOL    HW243055   6.312   3.698   0.474 -0.1533 -0.5139  0.0603
13872SOL     OW43056   0.765   5.599   3.913 -0.6298 -0.1899 -0.1063
13872SOL    HW143057   0.685   5.594   3.966 -0.5668  0.5459  0.0730
13872SOL    HW243058   0.814   5.520   3.937 -1.2268 -0.5634 -0.0980
13873SOL     OW43059   7.151   3.885   2.887 -0.9783  0.3986  0.0271
13873SOL    HW143060   7.170   3.978   2.872  1.8235 -0.0269  0.2692
13873SOL    HW243061   7.139   3.879   2.982  0.7129  0.2969  0.2665
13874SOL     OW43062   4.134   2.586   7.426 -0.3650 -0.0933 -0.4204
13874SOL    HW143063   4.046   2.617   7.449 -0.4032 -1.1520  0.9940
13874SOL    HW243064   4.184   2.667   7.410 -1.2928  0.5667 -0.0939
13875SOL     OW43065   0.172   0.400   6.880  0.7390 -0.4867 -0.0220
13875SOL    HW143066   0.176   0.387   6.785  1.4768 -0.3667 -0.0127
13875SOL    HW243067   0.211   0.486   6.894  0.8050 -0.5843  0.4092
13876SOL     OW43068   2.005   2.174   8.835  0.3691  0.1521 -0.6170
13876SOL    HW143069   1.923   2.169   8.883 -0.7960  1.7285 -2.2726
13876SOL    HW243070   2.049   2.091   8.851 -1.1849 -0.4004  0.9469
13877SOL     OW43071   6.134   4.522   7.692 -0.5246  0.1087 -0.0696
13877SOL    HW143072   6.077   4.460   7.646 -0.3545 -0.0829 -0.0217
13877SOL    HW243073   6.074   4.590   7.725 -0.4879  1.1243 -1.9542
13878SOL     OW43074   1.531   7.887  10.892 -0.6128 -0.3790  0.5855
13878SOL    HW143075   1.477   7.817  10.929  0.8650 -1.0312  1.5902
13878SOL    HW243076   1.587   7.844  10.829  0.1660 -0.0893  1.0640
13879SOL     OW43077   7.002   0.974   7.462  0.2916 -0.0290  0.3558
13879SOL    HW143078   7.094   0.975   7.488 -0.0972  0.2272  1.7834
13879SOL    HW243079   6.960   0.915   7.524 -0.5209 -0.0729 -0.2244
13880SOL     OW43080   5.599   5.846  11.639  0.0135 -0.1856 -0.4620
13880SOL    HW143081   5.573   5.893  11.560  1.7448  0.5252 -0.6515
13880SOL    HW243082   5.638   5.765  11.606  1.1248  0.3018 -0.3849
13881SOL     OW43083   6.065   6.556   9.115  0.3550 -0.1934  0.1500
13881SOL    HW143084   6.108   6.473   9.136 -1.3403 -1.1297  0.1195
13881SOL    HW243085   6.060   6.556   9.020 -1.7402 -1.2592  0.1895
13882SOL     OW43086   4.709   7.423   2.729 -0.2291 -0.6024  0.1409
13882SOL    HW143087   4.798   7.443   2.700 -0.1543  1.0508  1.4003
13882SOL    HW243088   4.714   7.332   2.759  1.4191 -0.1193  1.4947
13883SOL     OW43089   5.522   0.217   4.926  0.0388 -0.3384  0.1102
13883SOL    HW143090   5.611   0.250   4.915  0.7946 -2.1867  0.4208
13883SOL    HW243091   5.468   0.276   4.873  1.4599  0.6821 -0.2498
13884SOL     OW43092   4.300   0.879   0.828  0.0697  0.1803  0.6468
13884SOL    HW143093   4.285   0.858   0.921 -2.7448  1.7042  0.6567
13884SOL    HW243094   4.254   0.963   0.815  1.1431  0.4537 -1.9362
13885SOL     OW43095   3.346   1.601   0.064 -0.1114 -0.1916 -0.3084
13885SOL    HW143096   3.441   1.614   0.060 -0.2722  1.8042  0.8520
13885SOL    HW243097   3.310   1.690   0.068 -2.1935 -0.7887 -2.7476
13886SOL     OW43098   5.320   3.908  10.846  0.5374 -0.9653 -0.3456
13886SOL    HW143099   5.374   3.853  10.790  2.0053  0.1568 -0.1166
13886SOL    HW243100   5.247   3.935  10.791  0.0689 -2.6689 -0.6149
13887SOL     OW43101   3.684   6.414   4.120  0.1801 -0.7081  0.3582
13887SOL    HW143102   3.753   6.368   4.166 -0.7525 -0.2565  2.3087
13887SOL    HW243103   3.717   6.504   4.112  0.9182 -1.0676 -1.1815
13888SOL     OW43104   5.015   4.070   0.227 -0.3622  0.5562 -0.8711
13888SOL    HW143105   4.999   4.040   0.138  0.5872  0.2179 -0.9421
13888SOL    HW243106   5.020   4.165   0.220 -0.7548  0.5608 -1.0979
13889SOL     OW43107   2.648   0.296   9.554 -0.5413 -0.3593 -0.0744
13889SOL    HW143108   2.731   0.250   9.561 -0.5254 -0.3555 -0.2235
13889SOL    HW243109   2.641   0.318   9.461 -0.3637  0.2791  0.0618
13890SOL     OW43110   5.666   3.899   5.841 -1.2156  0.3590 -0.0732
13890SOL    HW143111   5.711   3.947   5.771 -0.7843 -0.3661 -0.3082
13890SOL    HW243112   5.737   3.864   5.895 -1.4313 -1.4055 -0.8520
13891SOL     OW43113   4.278   4.665   5.383 -0.2228  0.3043  0.8590
13891SOL    HW143114   4.328   4.710   5.315 -2.0350 -0.6226 -1.2343
13891SOL    HW243115   4.336   4.662   5.458  2.1144  0.9170 -0.8140
13892SOL     OW43116   6.966   1.184   2.136  0.1904  0.2854  0.2449
13892SOL    HW143117   6.907   1.203   2.209 -0.2398 -0.8730  0.2293
13892SOL    HW243118   6.925   1.225   2.060 -1.3841 -1.6553 -0.0342
13893SOL     OW43119   2.141   1.586  10.916  0.1611 -0.3741 -0.3903
13893SOL    HW143120   2.175   1.502  10.885  0.7114 -0.3517  0.1270
13893SOL    HW243121   2.189   1.651  10.865  1.0090 -0.3394  0.4227
13894SOL     OW43122   1.190   2.585   8.693  0.4746 -0.7576 -0.5102
13894SOL    HW143123   1.121   2.642   8.728 -0.4857 -1.6723 -0.8743
13894SOL    HW243124   1.193   2.512   8.755  0.9159 -0.8617 -0.6584
13895SOL     OW43125   2.153   0.559   0.366  0.2103  0.9104  0.5813
13895SOL    HW143126   2.130   0.480   0.317  1.6459  0.1653  1.0279
13895SOL    HW243127   2.245   0.574   0.344  0.0514  2.2591  0.7877
13896SOL     OW43128   1.675   0.199   9.402  0.1381 -0.5869 -0.3092
13896SOL    HW143129   1.702   0.184   9.493  0.8646  0.9543 -0.2438
13896SOL    HW243130   1.742   0.256   9.366 -0.5520 -0.5533 -1.6077
13897SOL     OW43131   1.133   5.575   6.404 -0.0179 -0.4949  0.1398
13897SOL    HW143132   1.201   5.534   6.350  2.0888 -1.5546  3.2431
13897SOL    HW243133   1.181   5.606   6.482 -3.0659 -1.1741  2.4711
13898SOL     OW43134   3.259   5.078   1.560 -0.3984 -0.4958  0.0641
13898SOL    HW143135   3.342   5.126   1.566 -0.1915 -0.6320 -1.4116
13898SOL    HW243136   3.284   4.987   1.550 -0.7914 -0.9170  2.3893
13899SOL     OW43137   5.498   7.818   4.347 -0.2801 -0.4300  0.0296
13899SOL    HW143138   5.498   7.767   4.427 -2.8899 -1.7341 -0.6906
13899SOL    HW243139   5.566   7.777   4.292 -0.2664 -1.1904  0.6050
13900SOL     OW43140   6.834   7.453   5.165 -0.1219 -0.1717 -0.2411
13900SOL    HW143141   6.751   7.439   5.120 -0.5803  1.3852  0.0620
13900SOL    HW243142   6.825   7.406   5.248 -0.1500 -1.1684 -0.8029
13901SOL     OW43143   3.927   1.265  11.757  0.1782  0.1057  0.3372
13901SOL    HW143144   3.836   1.269  11.728 -0.4628  0.5166  2.2161
13901SOL    HW243145   3.954   1.175  11.739 -1.6876 -1.0127  2.5912
13902SOL     OW43146   6.767   2.710   2.647  0.0743 -0.6424 -0.2436
13902SOL    HW143147   6.763   2.790   2.595 -0.9641 -0.4326  0.1433
13902SOL    HW243148   6.860   2.701   2.668  0.0759  1.2306  0.8515
13903SOL     OW43149   1.368   7.099   4.466 -0.0561  0.0980  0.4823
13903SOL    HW143150   1.422   7.175   4.485  0.1890  0.0103  0.1447
13903SOL    HW243151   1.405   7.029   4.518  0.3241 -0.0281  0.0436
13904SOL     OW43152   7.312   1.004   3.942 -0.0631 -0.0667  0.0980
13904SOL    HW143153   7.256   1.059   3.998  1.0360 -0.5791  1.7881
13904SOL    HW243154   7.345   1.063   3.875  1.4492  1.5288  2.1187
13905SOL     OW43155   5.187   1.667   8.592 -0.6287  0.1539  0.1434
13905SOL    HW143156   5.180   1.690   8.685 -0.1146 -1.0000  0.4844
13905SOL    HW243157   5.158   1.746   8.546 -1.5736  0.5045  1.2820
13906SOL     OW43158   2.802   3.197  11.691 -0.1686  0.1325 -0.0731
13906SOL    HW143159   2.815   3.106  11.717  2.7168  0.1078 -1.1743
13906SOL    HW243160   2.837   3.247  11.765 -0.7524  0.3120  0.0800
13907SOL     OW43161   5.606   4.103   6.020 -0.4759 -0.2773 -0.1088
13907SOL    HW143162   5.600   4.038   5.951 -1.3191 -0.8782  0.5084
13907SOL    HW243163   5.695   4.137   6.014 -0.2323 -1.0274 -0.8417
13908SOL     OW43164   4.258   7.419   8.693  0.1443 -0.1523  0.1242
13908SOL    HW143165   4.319   7.462   8.752  1.3087 -0.6899 -0.6631
13908SOL    HW243166   4.237   7.337   8.737 -0.1360  0.0961  0.4626
13909SOL     OW43167   6.369   2.686  11.671 -0.3970  1.0427  0.3809
13909SOL    HW143168   6.288   2.653  11.630 -1.4193  1.2115  2.1821
13909SOL    HW243169   6.421   2.607  11.688 -1.1501  0.7088  1.1850
13910SOL     OW43170   7.627   2.291   7.563  0.2669 -0.5276  0.2257
13910SOL    HW143171   7.570   2.232   7.513  2.1773 -1.6279 -0.7486
13910SOL    HW243172   7.595   2.283   7.653 -1.6735 -0.4040 -0.3929
13911SOL     OW43173   4.307   5.460   3.588  0.2882  0.3365  0.9620
13911SOL    HW143174   4.350   5.388   3.543 -0.1202  1.8532 -2.1084
13911SOL    HW243175   4.216   5.432   3.597  0.0778  0.5149 -0.4386
13912SOL     OW43176   5.750   3.056  11.490  1.1666  0.4737  0.0879
13912SOL    HW143177   5.710   3.041  11.576 -0.6208  0.1131 -0.7586
13912SOL    HW243178   5.815   2.987  11.481 -1.1451 -1.8100 -0.2914
13913SOL     OW43179   0.547   2.387   0.817  0.0463  0.1654  0.1971
13913SOL    HW143180   0.617   2.376   0.753  0.1208  1.1055  0.1136
13913SOL    HW243181   0.563   2.472   0.857  1.0444 -1.1338  2.7761
13914SOL     OW43182   7.922   4.036   5.144  0.2735  0.3705  0.1278
13914SOL    HW143183   7.897   4.082   5.225  0.0300  0.9649 -0.2800
13914SOL    HW243184   7.990   4.090   5.105  0.3573  0.1085 -0.0950
13915SOL     OW43185   1.094   3.228   5.665  0.0849 -0.4645  0.4792
13915SOL    HW143186   1.138   3.281   5.599 -1.9365 -1.7307 -2.0501
13915SOL    HW243187   1.027   3.286   5.701  0.2287 -0.2195  0.3571
13916SOL     OW43188   1.614   0.377  11.330 -0.4547 -0.2959  0.2068
13916SOL    HW143189   1.646   0.454  11.377  0.5720 -1.6430  1.8431
13916SOL    HW243190   1.588   0.410  11.244  0.3390  1.7888  0.7068
13917SOL     OW43191   4.032   5.462   8.603 -0.2414 -0.3646  0.1826
13917SOL    HW143192   3.938   5.460   8.581 -0.0557  1.0983 -0.8247
13917SOL    HW243193   4.041   5.536   8.662  0.4803  0.3293 -0.7722
13918SOL     OW43194   5.537   0.472  10.074 -0.3403 -0.1777 -0.4046
13918SOL    HW143195   5.589   0.532  10.127 -2.7072  2.1674 -0.5149
13918SOL    HW243196   5.456   0.459  10.124 -1.0631 -0.9646 -1.7010
13919SOL     OW43197   4.224   2.570   5.339 -0.1446 -0.1628  0.3399
13919SOL    HW143198   4.152   2.629   5.360  0.9500  1.0624  0.8220
13919SOL    HW243199   4.249   2.533   5.424 -0.3528 -0.7604  0.1404
13920SOL     OW43200   1.032   0.294   5.432  0.4228  0.5990  0.2451
13920SOL    HW143201   1.059   0.360   5.496  0.5117 -0.2877  1.1410
13920SOL    HW243202   1.079   0.317   5.352  1.2484  1.0215  0.8392
13921SOL     OW43203   7.677   7.330   7.163 -0.7276  0.2875  0.1618
13921SOL    HW143204   7.699   7.288   7.080  0.7796  0.7326  0.2916
13921SOL    HW243205   7.603   7.281   7.197 -1.0783 -0.1752 -1.2369
13922SOL     OW43206   6.383   5.318   6.394 -0.3608 -0.3787  0.4036
13922SOL    HW143207   6.410   5.361   6.475  1.3214  0.7453 -0.7070
13922SOL    HW243208   6.296   5.355   6.376 -0.4724 -0.1522  1.3326
13923SOL     OW43209   7.491   7.948   3.804 -0.1757 -0.0353 -0.7465
13923SOL    HW143210   7.585   7.935   3.811 -0.2463 -0.0996  0.3151
13923SOL    HW243211   7.480   8.012   3.734  0.5713 -0.9178 -1.7094
13924SOL     OW43212   5.368   2.840   6.334 -0.0390  0.4342 -1.2358
13924SOL    HW143213   5.298   2.777   6.354 -0.8618  1.0773 -2.0071
13924SOL    HW243214   5.410   2.806   6.255  1.6055 -0.8040  0.1140
13925SOL     OW43215   2.792   4.087   4.910 -0.0106  0.2206 -0.5058
13925SOL    HW143216   2.827   4.168   4.871  1.0433 -0.4506 -1.0262
13925SOL    HW243217   2.711   4.070   4.862 -0.2710  0.9939 -0.3512
13926SOL     OW43218   4.369   6.004  11.760  0.4517 -0.1597  0.3215
13926SOL    HW143219   4.411   6.004  11.846  2.0268  1.2623 -0.3955
13926SOL    HW243220   4.315   6.083  11.760 -0.0619 -0.5057  0.2173
13927SOL     OW43221   7.677   7.679   8.764 -0.2603 -0.5906  0.2842
13927SOL    HW143222   7.599   7.635   8.797 -0.1090 -0.9190  0.2092
13927SOL    HW243223   7.674   7.766   8.803 -3.7523  1.6930 -4.0544
13928SOL     OW43224   7.949   0.131  10.933 -0.5569  0.3731  0.5250
13928SOL    HW143225   7.867   0.087  10.912  0.4031 -0.7363 -1.0624
13928SOL    HW243226   7.951   0.208  10.876  0.4884 -0.8221 -1.1559
13929SOL     OW43227   0.492   5.117   8.851  0.6285  0.4384  0.3970
13929SOL    HW143228   0.518   5.034   8.891 -1.0769 -1.4326 -2.0907
13929SOL    HW243229   0.406   5.135   8.888 -0.4805 -0.7426 -1.4415
13930SOL     OW43230   6.490   6.762   8.822 -0.4749 -0.5549  0.0340
13930SOL    HW143231   6.542   6.823   8.769  0.5161  1.2881  2.9269
13930SOL    HW243232   6.399   6.779   8.795 -0.0779  1.0053 -0.4050
13931SOL     OW43233   0.067   0.718   9.942  0.3665 -0.4161 -0.0957
13931SOL    HW143234   0.044   0.734   9.850  3.5199 -1.5260 -1.2114
13931SOL    HW243235   0.021   0.638   9.965 -2.0796  0.9462  0.0331
13932SOL     OW43236   3.821   7.208  10.195 -0.7455 -0.5150 -0.6495
13932SOL    HW143237   3.874   7.207  10.115  0.7355  1.9921  0.2020
13932SOL    HW243238   3.868   7.267  10.254 -3.2275 -0.1516  1.0888
13933SOL     OW43239   4.356   7.615   0.823  0.2496 -0.3376 -0.3366
13933SOL    HW143240   4.428   7.657   0.870 -0.0561  0.2785 -0.4194
13933SOL    HW243241   4.306   7.687   0.785 -0.9208 -0.7054  0.4509
13934SOL     OW43242   2.212   2.460   7.908 -0.2235 -0.2663  0.2489
13934SOL    HW143243   2.169   2.469   7.994 -0.6684 -1.7742  0.2171
13934SOL    HW243244   2.289   2.516   7.914 -2.3607  2.9584  0.1404
13935SOL     OW43245   7.136   1.709   2.185  0.1098  0.4635 -0.5765
13935SOL    HW143246   7.179   1.656   2.118  0.4115  0.1433 -0.1386
13935SOL    HW243247   7.055   1.739   2.144 -1.8787 -3.1876  0.2083
13936SOL     OW43248   5.684   3.501   8.941 -0.0347 -0.4687  0.2195
13936SOL    HW143249   5.667   3.575   8.883  1.8093  0.5360  0.8892
13936SOL    HW243250   5.703   3.428   8.882  1.8083  0.5364 -0.5207
13937SOL     OW43251   1.469   3.297   5.406 -0.2934 -0.3534 -0.5028
13937SOL    HW143252   1.474   3.350   5.485  1.2504 -1.8506  0.4998
13937SOL    HW243253   1.517   3.347   5.340  0.7319 -0.2552  0.2869
13938SOL     OW43254   0.740   6.939  10.874 -0.3232 -0.3055  0.0692
13938SOL    HW143255   0.652   6.948  10.838 -0.0822  2.2798 -0.0632
13938SOL    HW243256   0.745   7.006  10.942  1.6587 -0.1282 -0.1845
13939SOL     OW43257   6.966   0.414  10.316  0.7070  0.0096 -0.5673
13939SOL    HW143258   7.058   0.433  10.299  1.3312 -1.8902  0.3602
13939SOL    HW243259   6.966   0.375  10.403 -1.1307  0.8722 -0.1458
13940SOL     OW43260   4.396   7.690   2.975 -0.2724  0.1681 -0.6688
13940SOL    HW143261   4.314   7.671   3.020 -1.5649  2.6522 -1.7669
13940SOL    HW243262   4.419   7.607   2.932 -2.8253 -0.3701 -1.2102
13941SOL     OW43263   1.044   4.425   5.658  0.2401  0.3652  0.2889
13941SOL    HW143264   1.131   4.460   5.680  1.1473 -1.1933 -0.6297
13941SOL    HW243265   1.034   4.349   5.715 -1.2958  1.4894  1.5947
13942SOL     OW43266   6.164   6.323   5.965 -0.7304 -0.0091  0.3363
13942SOL    HW143267   6.248   6.283   5.943 -1.1652 -1.4282  1.1444
13942SOL    HW243268   6.183   6.417   5.967  1.4460 -0.3698  2.7977
13943SOL     OW43269   1.564   4.375   9.491  0.1451  0.3582 -0.8620
13943SOL    HW143270   1.518   4.443   9.441  0.5452  1.1880 -0.1240
13943SOL    HW243271   1.500   4.348   9.558 -0.9155 -1.7363 -2.5717
13944SOL     OW43272   2.128   3.893   2.681  0.6239 -0.1378 -0.2348
13944SOL    HW143273   2.061   3.895   2.612  2.0285 -1.6604 -1.7662
13944SOL    HW243274   2.210   3.911   2.634  1.4622  0.2570  1.3299
13945SOL     OW43275   6.072   6.917   1.724  0.1721  0.2766 -0.0349
13945SOL    HW143276   6.098   6.854   1.657 -1.6072  0.3782 -0.8737
13945SOL    HW243277   6.020   6.982   1.677 -3.1947 -0.9101  1.7074
13946SOL     OW43278   0.912   7.406   6.465 -0.2578  0.1522  0.3807
13946SOL    HW143279   0.979   7.460   6.507  1.1589  0.9113 -2.5781
13946SOL    HW243280   0.911   7.435   6.374 -2.5897 -1.8561 -0.3534
13947SOL     OW43281   7.321   0.298   0.686  0.1845 -0.6420 -0.3304
13947SOL    HW143282   7.409   0.315   0.653  0.3726 -0.8971  0.0365
13947SOL    HW243283   7.283   0.385   0.700  0.6309 -0.5252  0.1777
13948SOL     OW43284   7.859   1.480   8.161 -0.4935 -0.3046 -0.8093
13948SOL    HW143285   7.948   1.468   8.129 -0.9617 -1.4850 -1.7571
13948SOL    HW243286   7.834   1.394   8.196 -1.9653 -0.6195 -2.4825
13949SOL     OW43287   5.897   1.210   7.541 -0.9671 -0.2651  0.6730
13949SOL    HW143288   5.856   1.297   7.536  0.9524  0.8554  2.7195
13949SOL    HW243289   5.955   1.206   7.465 -1.1373  0.1910  0.5123
13950SOL     OW43290   6.458   6.300   8.920  0.3211  0.5659 -0.0632
13950SOL    HW143291   6.411   6.217   8.917  0.4461  0.3405  2.2307
13950SOL    HW243292   6.390   6.367   8.919  0.2416  0.5162 -2.5574
13951SOL     OW43293   4.227   3.448   8.560 -0.1899  0.4050  0.0028
13951SOL    HW143294   4.287   3.427   8.489 -1.7900 -0.2223 -1.2205
13951SOL    HW243295   4.182   3.528   8.530 -0.2146  0.6787  0.7491
13952SOL     OW43296   2.901   5.833  11.855 -0.1605 -0.1677  0.6968
13952SOL    HW143297   2.975   5.827  11.795 -0.7938 -0.3490 -0.0877
13952SOL    HW243298   2.909   5.757  11.912  0.5211  0.0768  0.9356
13953SOL     OW43299   1.540   4.999   0.138 -0.6003  0.3463  0.0158
13953SOL    HW143300   1.604   4.981   0.207  1.1806  1.9272 -1.1186
13953SOL    HW243301   1.500   5.082   0.163 -0.9587  0.2219 -0.1412
13954SOL     OW43302   3.096   4.475   5.997  0.4641 -0.4845  0.2165
13954SOL    HW143303   3.090   4.565   5.966  1.5075 -1.0426 -1.7941
13954SOL    HW243304   3.189   4.461   6.015  0.1501 -0.8237  1.7387
13955SOL     OW43305   4.414   7.561   2.308 -0.4932 -0.3951 -0.2929
13955SOL    HW143306   4.482   7.593   2.366 -1.6579  0.6594  0.5479
13955SOL    HW243307   4.435   7.598   2.223  0.0020 -0.1130 -0.0531
13956SOL     OW43308   3.737   0.901   3.007  0.1396 -0.2760  0.2264
13956SOL    HW143309   3.831   0.900   3.023  0.3251 -0.1350 -0.7653
13956SOL    HW243310   3.700   0.842   3.073  0.9827 -0.7836  0.2579
13957SOL     OW43311   3.114   6.576  11.561 -0.3104  0.2383 -0.5002
13957SOL    HW143312   3.092   6.489  11.594 -2.1373  1.2520  1.1492
13957SOL    HW243313   3.203   6.566  11.526  0.0574 -1.9763  0.8494
13958SOL     OW43314   4.508   0.304   4.217 -0.2851  0.1986  0.0278
13958SOL    HW143315   4.575   0.362   4.253  0.9157 -0.9778 -0.2070
13958SOL    HW243316   4.473   0.258   4.294  2.6296 -2.6818 -0.1388
13959SOL     OW43317   3.539   2.968   3.370  0.4251 -0.3002 -0.3879
13959SOL    HW143318   3.604   3.019   3.321  1.3138 -0.4080  0.6205
13959SOL    HW243319   3.550   2.879   3.338  0.6559 -0.2858 -0.3544
13960SOL     OW43320   5.423   5.358  10.077  0.0497  0.0397 -0.8638
13960SOL    HW143321   5.345   5.410  10.058 -0.2658  0.0051  0.3066
13960SOL    HW243322   5.475   5.413  10.136 -0.3279 -0.9705  0.4587
13961SOL     OW43323   7.097   5.210   0.235 -0.3291  0.3642  0.1197
13961SOL    HW143324   7.029   5.237   0.298 -0.9969  0.8860 -0.7996
13961SOL    HW243325   7.156   5.154   0.286 -2.1492 -1.1807  0.6503
13962SOL     OW43326   1.503   3.865   3.210 -0.2799  0.3655 -0.1701
13962SOL    HW143327   1.410   3.842   3.216  0.2603 -1.8350  0.7926
13962SOL    HW243328   1.535   3.855   3.300  1.3082 -0.9284 -0.8425
13963SOL     OW43329   0.758   6.788   5.601 -0.4945 -0.2876  0.4032
13963SOL    HW143330   0.699   6.733   5.548  2.0836 -1.0107 -1.9438
13963SOL    HW243331   0.773   6.737   5.680 -1.1083 -1.2128 -0.0503
13964SOL     OW43332   5.931   5.490   3.981 -0.0924  0.6154 -0.0602
13964SOL    HW143333   6.021   5.520   3.994  0.1545 -0.4297  0.7216
13964SOL    HW243334   5.912   5.436   4.057 -0.2157 -1.8910 -1.7483
13965SOL     OW43335   4.051   0.892   4.633 -0.1738 -0.0710  0.3474
13965SOL    HW143336   4.068   0.876   4.540  0.1171 -1.4186  0.6126
13965SOL    HW243337   4.051   0.987   4.641  0.7999  0.0551 -0.8478
13966SOL     OW43338   7.347   5.437   6.219 -0.1024 -0.1529 -0.2512
13966SOL    HW143339   7.304   5.400   6.142 -1.6259 -0.6493  0.7912
13966SOL    HW243340   7.276   5.453   6.281  0.7270  2.7755  0.0838
13967SOL     OW43341   5.469   5.269   3.151  0.2542  0.6088  0.0110
13967SOL    HW143342   5.472   5.274   3.247 -0.5106  3.0818 -0.0101
13967SOL    HW243343   5.376   5.270   3.130  0.4100 -0.2925 -0.7773
13968SOL     OW43344   6.739   3.661   2.596 -0.4156  0.1784 -0.3321
13968SOL    HW143345   6.732   3.676   2.501 -4.5873  0.2220 -0.2104
13968SOL    HW243346   6.742   3.750   2.633  1.0127  0.1616 -0.3391
13969SOL     OW43347   5.876   3.553  10.778  0.1265  0.0042  0.1366
13969SOL    HW143348   5.832   3.472  10.804  1.7112 -0.3743  1.8123
13969SOL    HW243349   5.896   3.542  10.686 -0.6388 -1.0415  0.0810
13970SOL     OW43350   5.641   3.787   1.224 -0.5848 -0.2668  0.3598
13970SOL    HW143351   5.602   3.868   1.190  1.3390  0.0276 -1.2931
13970SOL    HW243352   5.678   3.813   1.309 -0.8848  0.2961  0.3285
13971SOL     OW43353   3.159   5.198   5.023 -0.0936  0.0219 -0.2651
13971SOL    HW143354   3.125   5.179   4.935 -0.2225  0.6670 -0.3648
13971SOL    HW243355   3.233   5.139   5.033  0.1675  0.2188 -0.9719
13972SOL     OW43356   0.332   7.309   2.339  0.6642  0.3630 -0.9563
13972SOL    HW143357   0.342   7.289   2.432  1.2843 -1.7389 -1.4333
13972SOL    HW243358   0.397   7.255   2.296  0.3315  1.2482 -2.6438
13973SOL     OW43359   4.098   1.898   7.970 -0.1779 -0.4350 -0.6087
13973SOL    HW143360   4.154   1.928   8.041 -2.1911  1.9301  0.1196
13973SOL    HW243361   4.015   1.875   8.013 -1.8554  2.1721 -2.1746
13974SOL     OW43362   2.697   5.561   0.109 -0.3065  0.0549 -0.3506
13974SOL    HW143363   2.718   5.556   0.202  2.2011  0.6577 -0.8170
13974SOL    HW243364   2.709   5.472   0.077 -0.8776 -0.0923 -0.1633
13975SOL     OW43365   2.202   5.579   9.787 -0.5192  0.4300 -0.1624
13975SOL    HW143366   2.145   5.631   9.730 -2.5699 -1.6050 -0.1319
13975SOL    HW243367   2.243   5.515   9.728 -0.2656  0.2530  0.1979
13976SOL     OW43368   2.039   1.977   7.167 -0.2041 -0.0705  1.0220
13976SOL    HW143369   2.084   2.041   7.111  0.8310 -1.0253  0.7240
13976SOL    HW243370   2.016   2.026   7.245  0.2984  0.7519  0.6780
13977SOL     OW43371   6.069   1.786   1.781 -0.3545  0.0085  0.3367
13977SOL    HW143372   6.043   1.754   1.868  0.6927 -1.3707  0.1731
13977SOL    HW243373   5.987   1.814   1.741 -0.9739 -0.1112  1.4573
13978SOL     OW43374   7.137   4.471  10.116  0.0937  0.2027  0.5563
13978SOL    HW143375   7.196   4.537  10.080  1.2987  0.2017  2.4031
13978SOL    HW243376   7.052   4.515  10.123  0.8425  1.5400  1.6351
13979SOL     OW43377   1.122   2.594   2.151  0.1669  0.0093  0.2633
13979SOL    HW143378   1.044   2.629   2.109  0.7452  0.0001 -0.8523
13979SOL    HW243379   1.113   2.499   2.144 -0.2347 -0.0266  1.1194
13980SOL     OW43380   3.738   6.774   7.381 -0.3024 -0.1703  0.2433
13980SOL    HW143381   3.823   6.730   7.378  0.2759  0.9038  0.2187
13980SOL    HW243382   3.674   6.703   7.387  0.5624 -1.0135 -0.2823
13981SOL     OW43383   5.430   0.381   1.646 -0.1833  1.1460  0.0097
13981SOL    HW143384   5.523   0.372   1.625 -0.3764  0.1041 -0.4464
13981SOL    HW243385   5.390   0.410   1.564 -0.4794  0.1161 -0.2122
13982SOL     OW43386   6.711   6.805   9.888 -0.3241 -0.3124 -0.0645
13982SOL    HW143387   6.802   6.833   9.895 -0.1093 -0.8687 -0.4933
13982SOL    HW243388   6.661   6.886   9.877  0.2111 -0.0544 -0.6516
13983SOL     OW43389   2.083   5.980   6.216 -0.5606  0.5424 -0.7073
13983SOL    HW143390   2.002   5.930   6.224 -0.2457 -0.0198 -0.9863
13983SOL    HW243391   2.107   6.002   6.306 -1.8315  2.0438 -0.7010
13984SOL     OW43392   1.275   7.297   4.002 -0.1095 -0.4919 -0.1659
13984SOL    HW143393   1.186   7.325   4.020  0.0231 -0.0756 -0.1468
13984SOL    HW243394   1.314   7.282   4.088  1.2318  3.6761  0.1567
13985SOL     OW43395   2.751   1.142   8.529 -0.0741  0.1292  0.0308
13985SOL    HW143396   2.769   1.127   8.622  2.2095  0.2931 -0.3450
13985SOL    HW243397   2.775   1.233   8.514  0.9410 -0.2839 -0.9995
13986SOL     OW43398   2.918   7.175   9.610 -0.5805  0.0962  0.7903
13986SOL    HW143399   2.963   7.164   9.526 -2.3752 -0.3634 -0.1694
13986SOL    HW243400   2.986   7.162   9.676  1.3147  2.3321 -0.5567
13987SOL     OW43401   1.413   4.663  11.407  0.6692 -0.5337 -0.5040
13987SOL    HW143402   1.343   4.614  11.449  1.2237 -1.3064 -0.4603
13987SOL    HW243403   1.467   4.597  11.365  1.4186  0.0409 -0.4702
13988SOL     OW43404   3.374   0.618   0.802 -0.3650 -0.1904 -0.1678
13988SOL    HW143405   3.297   0.602   0.857 -0.0602 -1.5626 -0.0928
13988SOL    HW243406   3.424   0.536   0.806  0.7084  0.3979 -0.8437
13989SOL     OW43407   3.023   0.017   5.076 -0.5568 -0.0907  0.0952
13989SOL    HW143408   3.073  -0.063   5.073  0.4200  0.4155  1.6490
13989SOL    HW243409   3.076   0.081   5.029  0.2793  0.4284  1.6822
13990SOL     OW43410   6.029   6.638   7.247  0.0194  0.0289 -0.3963
13990SOL    HW143411   6.023   6.721   7.199 -1.1705 -0.3122 -0.8731
13990SOL    HW243412   5.944   6.596   7.233  1.1964 -2.1082 -1.6812
13991SOL     OW43413   1.084   6.882   1.266 -0.1656  0.2203  0.2193
13991SOL    HW143414   1.133   6.885   1.348  0.0368 -0.7247  0.1442
13991SOL    HW243415   1.019   6.812   1.279 -0.2849  0.2191 -0.3423
13992SOL     OW43416   7.748   2.658   7.337 -0.6003  0.2414 -0.0385
13992SOL    HW143417   7.681   2.715   7.299 -0.7415  0.5146  0.6007
13992SOL    HW243418   7.831   2.695   7.307 -0.7198  0.1758 -0.4568
13993SOL     OW43419   5.925   5.840   6.071 -0.0598 -0.7305 -0.9671
13993SOL    HW143420   5.845   5.853   6.123  0.9664 -1.6529  0.9329
13993SOL    HW243421   5.979   5.916   6.092  0.7091 -1.5309  0.0546
13994SOL     OW43422   7.421   5.144  12.305  0.3558 -0.4033  0.5948
13994SOL    HW143423   7.459   5.225  12.273 -1.3389  0.0313 -0.4662
13994SOL    HW243424   7.388   5.100  12.226 -0.1269 -1.3657  1.3088
13995SOL     OW43425   5.146   6.446  10.978  0.2220  0.3369  0.3530
13995SOL    HW143426   5.195   6.428  11.058 -1.5362  0.4079  1.4959
13995SOL    HW243427   5.160   6.540  10.962  3.0296 -0.2393 -1.2056
13996SOL     OW43428   7.281   6.323  11.669 -0.2277 -0.2062  0.3870
13996SOL    HW143429   7.249   6.243  11.627  0.1852 -0.4946  0.6166
13996SOL    HW243430   7.362   6.296  11.713  0.7814  0.6942 -0.8733
13997SOL     OW43431   3.567   7.958   5.284 -0.2480 -0.5116  0.7161
13997SOL    HW143432   3.584   7.981   5.376  0.1590 -0.4791  0.6301
13997SOL    HW243433   3.482   7.998   5.265  0.5053  1.0292  0.5272
13998SOL     OW43434   5.866   1.901   3.062  1.0744  0.2755  0.3426
13998SOL    HW143435   5.810   1.888   3.139  0.7955  3.1532  0.7406
13998SOL    HW243436   5.929   1.828   3.066 -0.0622 -0.6934  2.2302
13999SOL     OW43437   5.233   6.733   0.214 -0.6430 -0.6754  0.1353
13999SOL    HW143438   5.225   6.740   0.309 -0.3368  0.1169  0.1124
13999SOL    HW243439   5.185   6.653   0.192  1.4212 -2.3486  1.2423
14000SOL     OW43440   7.624   6.085  12.313 -0.1585  0.2533 -0.3114
14000SOL    HW143441   7.550   6.025  12.303  0.2927 -0.6615  1.4350
14000SOL    HW243442   7.698   6.037  12.275  0.2751 -0.4920  1.4086
14001SOL     OW43443   2.771   5.438   8.708 -0.3487 -0.6215  0.2521
14001SOL    HW143444   2.848   5.395   8.671 -0.7483 -0.4693 -0.8031
14001SOL    HW243445   2.719   5.464   8.631 -0.0987  1.8273  0.8259
14002SOL     OW43446   3.514   1.490  11.798  0.0525  0.7195  0.4374
14002SOL    HW143447   3.431   1.537  11.795  0.0410  0.6565 -0.2712
14002SOL    HW243448   3.579   1.554  11.768  0.0296  0.2728 -0.5877
14003SOL     OW43449   1.256   4.387  11.269 -0.0656  0.1133 -0.3267
14003SOL    HW143450   1.187   4.344  11.320  0.5565 -0.2755  0.1951
14003SOL    HW243451   1.331   4.328  11.275  0.7166  1.1216  0.1680
14004SOL     OW43452   0.138   4.248   3.410  0.0120 -0.0527 -0.3689
14004SOL    HW143453   0.229   4.252   3.380 -0.4080 -1.9131 -2.1209
14004SOL    HW243454   0.092   4.314   3.359  0.4414  1.4417  1.0712
14005SOL     OW43455   4.580   7.857   4.733  0.2717 -0.6811 -0.5073
14005SOL    HW143456   4.554   7.767   4.713  0.4185 -0.5574 -1.2676
14005SOL    HW243457   4.668   7.865   4.695  1.1854 -0.8854  1.4386
14006SOL     OW43458   3.309   1.358   0.858 -0.4853  0.1038 -0.0918
14006SOL    HW143459   3.377   1.404   0.809  0.0734 -0.8171 -0.2063
14006SOL    HW243460   3.278   1.290   0.799  0.4360 -1.2408  0.9115
14007SOL     OW43461   7.805   2.573   8.565  0.3517  0.2336 -0.2032
14007SOL    HW143462   7.847   2.495   8.529  1.2178  0.2395  0.7583
14007SOL    HW243463   7.760   2.542   8.644  1.1573  0.7728  0.4972
14008SOL     OW43464   5.169   1.285   4.617  0.4559 -0.1567 -0.0417
14008SOL    HW143465   5.253   1.301   4.575 -0.0056  1.5295 -0.4217
14008SOL    HW243466   5.154   1.191   4.608  1.9280 -0.3452 -0.6521
14009SOL     OW43467   5.501   0.094   9.816  0.0819 -0.2807 -0.0144
14009SOL    HW143468   5.461   0.101   9.729  1.7759 -0.1277 -0.8108
14009SOL    HW243469   5.527   0.002   9.822  0.0874 -0.2594  0.2901
14010SOL     OW43470   0.062   6.404  10.463  0.3320 -0.0426 -0.1892
14010SOL    HW143471   0.056   6.383  10.556  2.7886 -1.1174 -0.2050
14010SOL    HW243472   0.069   6.500  10.460  0.7120 -0.0375  0.7589
14011SOL     OW43473   2.040   7.307   1.525 -0.4690  0.0563 -0.2216
14011SOL    HW143474   2.081   7.221   1.535 -0.5447  0.1001  0.4979
14011SOL    HW243475   2.095   7.353   1.462 -0.0026 -0.2608 -0.0483
14012SOL     OW43476   3.583   0.090   7.959  0.6446 -0.2525  0.0362
14012SOL    HW143477   3.605   0.183   7.970 -1.3965  0.0818  2.2769
14012SOL    HW243478   3.574   0.057   8.048 -0.8337 -2.0283 -0.7007
14013SOL     OW43479   1.840   0.170   6.252  0.3346  0.6465  0.0623
14013SOL    HW143480   1.883   0.092   6.218 -0.5760  0.7822 -1.4767
14013SOL    HW243481   1.900   0.203   6.319  1.9250  0.0441 -1.0046
14014SOL     OW43482   2.612   5.214   3.270  0.0339 -1.0369  0.2746
14014SOL    HW143483   2.521   5.221   3.298  0.3753 -0.0734  1.2118
14014SOL    HW243484   2.636   5.303   3.244  0.3420 -1.5152 -1.2125
14015SOL     OW43485   2.708   7.755   9.654  0.6359  0.1585 -0.8605
14015SOL    HW143486   2.684   7.675   9.606  4.6893 -0.8689 -1.6461
14015SOL    HW243487   2.706   7.824   9.588 -0.0046  0.1038 -0.9056
14016SOL     OW43488   1.026   1.315  10.394 -0.0420  0.5659  0.5669
14016SOL    HW143489   1.082   1.241  10.371 -1.0524 -0.0309 -0.0172
14016SOL    HW243490   1.067   1.390  10.350  0.5886  0.2324  0.5744
14017SOL     OW43491   6.334   5.388   5.669  0.5534 -0.8087  0.3417
14017SOL    HW143492   6.412   5.364   5.719  0.8967  0.3294  0.3971
14017SOL    HW243493   6.311   5.309   5.620  2.8562 -0.6702 -1.1336
14018SOL     OW43494   3.840   1.421   7.920 -0.7431 -0.2156  0.0011
14018SOL    HW143495   3.914   1.359   7.925  1.0985  1.8154 -0.3868
14018SOL    HW243496   3.791   1.393   7.843  0.2326 -1.0130 -0.3650
14019SOL     OW43497   4.665   6.600   3.420 -0.8685 -0.2752  0.2103
14019SOL    HW143498   4.614   6.681   3.435 -0.1452 -0.1758  2.4610
14019SOL    HW243499   4.686   6.569   3.508  1.0066 -1.5783 -0.6569
14020SOL     OW43500   0.053   4.678   6.910  0.0281 -0.2968 -0.1466
14020SOL    HW143501  -0.011   4.632   6.965 -0.5271  0.5425 -0.0733
14020SOL    HW243502   0.118   4.611   6.889  0.6013 -0.4974  2.0227
14021SOL     OW43503   0.700   2.849   3.632  0.0600  0.1530  0.3651
14021SOL    HW143504   0.754   2.875   3.557 -0.5091  1.4769  0.3864
14021SOL    HW243505   0.620   2.901   3.623 -2.0066 -2.9032 -0.5819
14022SOL     OW43506   7.958   7.314   4.677 -0.2105  0.0442 -0.3410
14022SOL    HW143507   7.901   7.347   4.608  1.0861  1.7109 -0.6750
14022SOL    HW243508   7.900   7.301   4.752 -1.5619 -1.3471 -1.5616
14023SOL     OW43509   0.137   6.615   2.146  0.0861 -0.3317  0.6496
14023SOL    HW143510   0.172   6.644   2.061 -0.6967  1.3031  0.8459
14023SOL    HW243511   0.214   6.594   2.198  0.6919  0.8894  0.2803
14024SOL     OW43512   0.073   3.250   1.942 -0.2067 -0.4820 -0.2467
14024SOL    HW143513   0.006   3.287   2.000 -0.1629 -0.7749 -0.0086
14024SOL    HW243514   0.058   3.156   1.946 -0.8796 -0.4577 -1.5243
14025SOL     OW43515   3.826   6.697   1.236 -0.0238  0.5452  0.2641
14025SOL    HW143516   3.887   6.727   1.169 -0.1667 -2.3222 -1.3489
14025SOL    HW243517   3.872   6.627   1.281 -1.7805 -1.2790 -0.5916
14026SOL     OW43518   2.850   6.134   8.774  0.2902  0.3586  0.5594
14026SOL    HW143519   2.841   6.056   8.829 -0.8633 -0.8332 -1.2425
14026SOL    HW243520   2.923   6.182   8.813 -1.3073  0.3318  3.9701
14027SOL     OW43521   1.223   0.336   8.581  0.0904 -0.4363 -0.2092
14027SOL    HW143522   1.225   0.425   8.615 -0.6207 -0.3056 -0.4905
14027SOL    HW243523   1.299   0.293   8.621  0.2972  0.2202  0.1170
14028SOL     OW43524   4.905   4.330   8.969 -0.1033 -0.3101 -0.4032
14028SOL    HW143525   4.910   4.267   8.897  0.5969 -0.1990 -0.4614
14028SOL    HW243526   4.996   4.339   8.999 -0.2895  0.1824  0.0248
14029SOL     OW43527   1.129   1.992  10.841  0.2449 -0.0370 -0.0527
14029SOL    HW143528   1.219   2.015  10.866  0.3091 -0.2155 -0.1103
14029SOL    HW243529   1.135   1.975  10.747  0.2876 -0.6858  0.0605
14030SOL     OW43530   6.684   7.468  12.191 -0.0366 -0.5040  0.2705
14030SOL    HW143531   6.726   7.397  12.239  3.1525  0.9986  0.0081
14030SOL    HW243532   6.658   7.530  12.259  1.9639  0.3576  0.3378
14031SOL     OW43533   6.655   5.037   1.074 -0.0702 -0.7125  0.0599
14031SOL    HW143534   6.623   4.947   1.076 -2.6023  0.1112  0.7314
14031SOL    HW243535   6.594   5.083   1.016  0.9968  0.6237 -0.0399
14032SOL     OW43536   5.881   2.917   6.952  0.3534  0.3853 -0.6090
14032SOL    HW143537   5.803   2.922   7.008  0.4556 -0.6652 -0.3411
14032SOL    HW243538   5.920   3.004   6.957 -0.6527  0.8504 -0.5264
14033SOL     OW43539   1.467   1.386   1.118 -0.4408  0.6702  0.0670
14033SOL    HW143540   1.468   1.482   1.111  1.2050  0.6615 -0.2324
14033SOL    HW243541   1.374   1.363   1.111 -0.7971  2.1791 -0.7255
14034SOL     OW43542   4.130   2.112  11.954 -0.2547 -0.8419 -0.2075
14034SOL    HW143543   4.075   2.180  11.916 -2.4877 -2.3860  0.0953
14034SOL    HW243544   4.130   2.131  12.048  0.1785 -0.5714 -0.2560
14035SOL     OW43545   1.312   5.175  10.807 -0.2666 -0.2541 -0.2590
14035SOL    HW143546   1.262   5.200  10.729 -1.3580  0.8965  0.7812
14035SOL    HW243547   1.272   5.092  10.835 -1.3265  0.4364  0.3129
14036SOL     OW43548   2.518   0.660   7.382 -0.7991 -0.5244 -0.3266
14036SOL    HW143549   2.540   0.738   7.332  0.5121  0.0275  1.0321
14036SOL    HW243550   2.495   0.694   7.469 -0.3346 -1.6326  0.2458
14037SOL     OW43551   7.240   6.773   7.177 -0.0200 -0.1159 -0.3507
14037SOL    HW143552   7.147   6.796   7.177 -0.8142 -2.9424  0.6970
14037SOL    HW243553   7.257   6.739   7.265  1.6140 -1.0727 -0.9762
14038SOL     OW43554   1.212   3.800   8.067 -0.1666  0.0959 -0.1779
14038SOL    HW143555   1.252   3.850   8.138  0.9376 -2.1028  0.8642
14038SOL    HW243556   1.229   3.852   7.988  3.4067  0.1036  0.4175
14039SOL     OW43557   2.077   5.711   5.472  0.0151 -0.0460 -0.1466
14039SOL    HW143558   2.105   5.632   5.517 -0.8255 -0.6993 -0.7381
14039SOL    HW243559   1.984   5.720   5.494 -0.0564  0.4035 -0.6118
14040SOL     OW43560   6.921   1.739   8.002 -0.1665  0.5262 -0.3635
14040SOL    HW143561   6.865   1.670   7.965 -2.4101  2.2286 -0.4102
14040SOL    HW243562   7.006   1.725   7.962 -0.6778 -1.8722 -0.7645
14041SOL     OW43563   6.407   5.282   4.302 -0.0416 -0.4923  0.5114
14041SOL    HW143564   6.445   5.196   4.284 -1.7240 -1.1764 -0.0494
14041SOL    HW243565   6.404   5.325   4.216 -1.1837 -0.7640  0.3964
14042SOL     OW43566   6.716   1.391   2.041 -0.1417  0.1588  0.2833
14042SOL    HW143567   6.685   1.482   2.040  1.4761  0.7529  0.5072
14042SOL    HW243568   6.669   1.349   1.969  0.7880  1.8219 -1.3968
14043SOL     OW43569   1.750   6.274  11.110  0.3760 -0.0057  0.1107
14043SOL    HW143570   1.715   6.344  11.055 -0.9211 -1.2448 -0.7120
14043SOL    HW243571   1.685   6.204  11.104  1.2013 -0.9637  1.6094
14044SOL     OW43572   2.228   6.874   6.144 -0.1713 -0.0039 -0.6352
14044SOL    HW143573   2.269   6.789   6.159 -0.0398  0.1573 -0.0198
14044SOL    HW243574   2.266   6.906   6.062 -1.8675 -1.5056 -2.0806
14045SOL     OW43575   4.661   0.657   7.021  0.0545  0.1374  0.0870
14045SOL    HW143576   4.642   0.670   6.928 -1.3621 -2.5180 -0.1096
14045SOL    HW243577   4.597   0.712   7.067  0.3369  0.9639 -0.5015
14046SOL     OW43578   7.537   1.532  12.252 -0.1544  0.0634  0.0405
14046SOL    HW143579   7.590   1.607  12.226  0.2676 -0.4520 -0.6246
14046SOL    HW243580   7.466   1.570  12.304 -0.2671  0.9991 -0.7534
14047SOL     OW43581   1.232   0.948   0.326  0.1531 -0.2431 -0.1069
14047SOL    HW143582   1.236   1.042   0.342  0.0006 -0.3395  0.5197
14047SOL    HW243583   1.208   0.910   0.410 -0.1046 -0.8201 -0.4348
14048SOL     OW43584   2.565   3.687   3.299  0.2047  0.8962 -0.3741
14048SOL    HW143585   2.564   3.780   3.278 -0.5894  1.6232  2.3623
14048SOL    HW243586   2.478   3.655   3.274 -0.5952  1.6517  1.2523
14049SOL     OW43587   1.895   0.577  11.417  0.1290  0.2586 -0.5274
14049SOL    HW143588   1.910   0.501  11.474  2.4283  1.5305  0.7149
14049SOL    HW243589   1.802   0.595  11.425 -0.2358 -1.7114  0.0838
14050SOL     OW43590   4.359   6.871  10.759 -0.5443  0.2492  0.0367
14050SOL    HW143591   4.329   6.807  10.822  1.2596  1.4531  2.2680
14050SOL    HW243592   4.363   6.953  10.808  2.4423  0.9218 -1.1307
14051SOL     OW43593   6.019   0.589   6.370 -0.3115 -0.3507 -0.3461
14051SOL    HW143594   5.974   0.586   6.455  0.7761  1.0882  0.3219
14051SOL    HW243595   5.956   0.631   6.312 -0.8811 -0.8972 -0.1355
14052SOL     OW43596   6.670   1.005   1.656 -0.2054 -0.3999  0.3375
14052SOL    HW143597   6.684   0.911   1.668 -2.3185 -0.5193  2.4684
14052SOL    HW243598   6.635   1.014   1.568  0.1174 -1.5914  0.0809
14053SOL     OW43599   0.426   6.408   0.388 -0.7229  0.5159  0.0031
14053SOL    HW143600   0.506   6.363   0.416 -1.2966 -0.3302  0.3129
14053SOL    HW243601   0.415   6.478   0.452 -1.2353 -0.5152  1.0849
14054SOL     OW43602   0.530   3.731   4.180 -0.4040  0.1815 -0.0663
14054SOL    HW143603   0.568   3.769   4.260 -1.6664  2.6226 -0.5487
14054SOL    HW243604   0.497   3.806   4.131 -1.7973 -1.4653 -1.7840
14055SOL     OW43605   7.129   1.179   0.742 -0.0662  0.0366 -0.2020
14055SOL    HW143606   7.170   1.103   0.784  0.4897  0.0267 -0.7454
14055SOL    HW243607   7.195   1.248   0.748  0.0906 -0.0100 -1.1880
14056SOL     OW43608   7.943   4.614  11.702 -0.0276  0.5192 -0.8296
14056SOL    HW143609   8.037   4.635  11.706  0.3753 -1.2033 -0.7774
14056SOL    HW243610   7.935   4.528  11.743 -1.8016  1.0703  0.0780
14057SOL     OW43611   5.707   2.063   6.513  0.0381  0.5477 -0.5563
14057SOL    HW143612   5.802   2.067   6.512  0.0325  0.7047 -0.8222
14057SOL    HW243613   5.680   2.153   6.532 -0.0417 -0.0292  2.4001
14058SOL     OW43614   2.962   1.547  12.264 -0.1552 -0.4776  0.7012
14058SOL    HW143615   2.978   1.478  12.328  0.8059 -0.2102  0.7657
14058SOL    HW243616   3.046   1.593  12.257 -0.2439 -0.5034 -0.7505
14059SOL     OW43617   1.899   3.814   2.524  0.4746 -0.2412  0.3362
14059SOL    HW143618   1.862   3.848   2.443 -0.6076 -0.4560  0.7194
14059SOL    HW243619   1.959   3.745   2.496  0.9638  0.4333 -0.3275
14060SOL     OW43620   0.630   3.857   1.307  0.4601  0.1290 -0.4436
14060SOL    HW143621   0.664   3.946   1.311  0.5526  0.1346 -1.1494
14060SOL    HW243622   0.707   3.802   1.294  0.3450  0.0110 -0.6425
14061SOL     OW43623   4.048   1.368  10.212  0.3915  0.3201  0.1794
14061SOL    HW143624   4.084   1.321  10.136 -0.2200  0.6917 -0.3550
14061SOL    HW243625   4.010   1.300  10.267  0.1544  0.1156 -0.2295
14062SOL     OW43626   4.396   7.197   1.909  0.1484  0.1994  0.4636
14062SOL    HW143627   4.431   7.108   1.910 -0.4536 -0.0394  0.6592
14062SOL    HW243628   4.302   7.186   1.892 -0.5851  0.5459  3.5850
14063SOL     OW43629   0.419   2.842   1.204  0.4735 -0.9011  0.0846
14063SOL    HW143630   0.379   2.917   1.160 -1.5043 -1.5356  0.6891
14063SOL    HW243631   0.451   2.878   1.287 -0.9731 -0.7985  0.6206
14064SOL     OW43632   4.327   2.613  10.575  0.2703 -0.1277 -0.7249
14064SOL    HW143633   4.279   2.578  10.499  0.1774 -2.1161  0.1740
14064SOL    HW243634   4.372   2.536  10.612 -0.8645  0.4339  2.0819
14065SOL     OW43635   7.261   7.908   3.592 -0.1766 -0.1303  0.8507
14065SOL    HW143636   7.338   7.957   3.563 -0.0840 -0.5754  0.3291
14065SOL    HW243637   7.287   7.870   3.675  0.8827 -1.8671 -0.2111
14066SOL     OW43638   7.649   2.862   8.329 -0.2739 -0.0131 -0.5800
14066SOL    HW143639   7.583   2.911   8.378 -1.2271 -1.7591 -0.0289
14066SOL    HW243640   7.611   2.847   8.243  0.1889  0.5528 -0.8908
14067SOL     OW43641   5.390   5.886   0.565 -0.6625 -0.3109  0.3200
14067SOL    HW143642   5.410   5.968   0.520 -1.3761 -0.0106  0.5397
14067SOL    HW243643   5.458   5.879   0.632 -1.4309  0.8667  1.2774
14068SOL     OW43644   4.052   4.370   9.270 -0.0743  0.6553 -0.0360
14068SOL    HW143645   4.046   4.276   9.282  0.0055  0.6340 -0.1627
14068SOL    HW243646   4.027   4.384   9.179 -0.5775  0.8050  0.1219
14069SOL     OW43647   1.023   7.367   7.352 -0.7753  0.2447  0.1398
14069SOL    HW143648   0.961   7.369   7.425  0.1311 -0.6422  0.9667
14069SOL    HW243649   1.086   7.436   7.371 -1.6453  1.3842 -0.8813
14070SOL     OW43650   6.866   0.054  10.712  1.1431  0.2892  0.0168
14070SOL    HW143651   6.840  -0.017  10.653  0.7919  0.4760 -0.0575
14070SOL    HW243652   6.948   0.024  10.752  0.2078 -0.8563  1.1568
14071SOL     OW43653   7.643   5.374   5.570  0.7676  0.0953 -0.2892
14071SOL    HW143654   7.566   5.380   5.514  1.6006  0.5689 -1.4121
14071SOL    HW243655   7.662   5.281   5.575  0.2499 -0.0091 -0.1686
14072SOL     OW43656   1.368   3.847   7.586  0.0828  0.2784  0.0879
14072SOL    HW143657   1.418   3.796   7.523 -1.8738  0.3685 -1.6416
14072SOL    HW243658   1.429   3.915   7.616  1.0949  0.2133 -1.7016
14073SOL     OW43659   7.264   0.512   8.362  0.3759  0.1542 -0.0374
14073SOL    HW143660   7.345   0.463   8.354  0.1765 -0.4285  1.3112
14073SOL    HW243661   7.195   0.446   8.363 -0.1031  0.6184 -0.7345
14074SOL     OW43662   2.520   6.715   3.174 -0.0778 -0.0732 -0.3597
14074SOL    HW143663   2.446   6.664   3.140 -0.9284  0.6402  0.3681
14074SOL    HW243664   2.593   6.652   3.177 -0.7991 -0.9410 -0.5498
14075SOL     OW43665   0.039   0.310   5.825 -0.7046  0.1346  0.0340
14075SOL    HW143666   0.113   0.322   5.765  0.4415  3.6502  1.8647
14075SOL    HW243667   0.007   0.222   5.805  2.7194 -0.8374 -2.2217
14076SOL     OW43668   5.425   2.349   8.009 -0.1142 -0.2463 -0.2107
14076SOL    HW143669   5.344   2.307   7.981 -0.1766 -0.3156  0.0736
14076SOL    HW243670   5.421   2.437   7.970 -1.2198  0.4357  1.3310
14077SOL     OW43671   6.942   1.131   4.600  0.1814  0.9002  0.2641
14077SOL    HW143672   7.037   1.144   4.597  0.0645  1.8460  0.1676
14077SOL    HW243673   6.927   1.083   4.681  0.7810  0.3643  0.0646
14078SOL     OW43674   7.853   3.400   3.186  0.3355 -0.3254 -0.1716
14078SOL    HW143675   7.899   3.378   3.105  1.9491  1.0933  0.3123
14078SOL    HW243676   7.826   3.315   3.221  0.6066 -1.0402 -1.6231
14079SOL     OW43677   4.770   6.418   9.153 -0.0723 -0.1471  0.3559
14079SOL    HW143678   4.738   6.478   9.086 -1.7688  0.0191  1.2620
14079SOL    HW243679   4.773   6.332   9.110  2.6141  0.5247 -1.0272
14080SOL     OW43680   5.513   4.106  10.867  0.9431  0.1791 -0.2977
14080SOL    HW143681   5.438   4.048  10.850  1.9114 -1.1878 -0.0177
14080SOL    HW243682   5.477   4.194  10.856 -0.7194 -0.4397 -0.1258
14081SOL     OW43683   2.020   5.956   5.748  0.0209  0.2616  0.0847
14081SOL    HW143684   1.976   6.004   5.679  0.5863 -1.1517 -1.3306
14081SOL    HW243685   1.950   5.907   5.792  0.0285 -2.0482 -2.2074
14082SOL     OW43686   1.856   5.527   6.481 -0.4129 -0.4766  0.1937
14082SOL    HW143687   1.923   5.469   6.518 -1.0715 -1.4676 -0.1177
14082SOL    HW243688   1.883   5.541   6.390  0.3781  0.7051  0.5777
14083SOL     OW43689   7.179   2.327   3.737 -0.5812  0.0828 -0.2267
14083SOL    HW143690   7.120   2.276   3.792 -0.8072 -1.1474 -1.5417
14083SOL    HW243691   7.246   2.360   3.796 -1.3599 -0.3657  0.9252
14084SOL     OW43692   3.326   7.513  10.432  0.8470 -0.0626 -0.3074
14084SOL    HW143693   3.405   7.566  10.443 -0.2428  1.8825 -1.2829
14084SOL    HW243694   3.319   7.500  10.337  0.9944 -1.9054 -0.1083
14085SOL     OW43695   3.100   4.694   1.245  0.3471 -1.0961 -0.3309
14085SOL    HW143696   3.142   4.623   1.196 -0.1389 -1.6780  0.0756
14085SOL    HW243697   3.008   4.668   1.250  0.2199 -0.5812  0.0750
14086SOL     OW43698   7.240   4.267  10.250  0.0757  0.1839 -0.0138
14086SOL    HW143699   7.222   4.351  10.207 -2.6835 -0.4903 -0.3771
14086SOL    HW243700   7.202   4.276  10.337 -0.5612 -0.7769 -0.1754
14087SOL     OW43701   2.923   0.227   0.068 -0.0843  0.1261  0.4237
14087SOL    HW143702   2.922   0.148   0.121  0.1241  0.1865  0.5154
14087SOL    HW243703   2.975   0.205  -0.009  0.2077  0.2595  0.5807
14088SOL     OW43704   4.559   1.456   1.438 -0.6318  0.2323 -0.6156
14088SOL    HW143705   4.524   1.503   1.362 -2.2417 -0.5370 -0.3926
14088SOL    HW243706   4.558   1.364   1.413  1.2306  0.1446 -0.5533
14089SOL     OW43707   0.046   3.021   4.183 -0.0185 -0.2044  0.4163
14089SOL    HW143708   0.115   2.984   4.238  0.8309  0.3953 -0.2360
14089SOL    HW243709  -0.015   2.948   4.170 -0.6188 -0.1890  2.6893
14090SOL     OW43710   5.142   7.129   3.347  0.1160 -0.5630  0.4987
14090SOL    HW143711   5.193   7.085   3.278  0.0544  0.2352 -0.0688
14090SOL    HW243712   5.051   7.122   3.317 -0.0225 -1.1541  1.0401
14091SOL     OW43713   4.194   1.811  12.337 -0.2145 -0.3216  0.0067
14091SOL    HW143714   4.228   1.818  12.248 -2.1617  0.5305 -0.7177
14091SOL    HW243715   4.152   1.725  12.340  1.8402 -1.3574  0.8887
14092SOL     OW43716   5.307   5.179   4.596 -0.3303  0.7834 -0.0048
14092SOL    HW143717   5.244   5.130   4.543  0.9369  0.6458 -1.4761
14092SOL    HW243718   5.364   5.221   4.531  0.2808  1.9642  1.2682
14093SOL     OW43719   5.201   2.767   1.243 -0.2790 -0.2242 -0.2837
14093SOL    HW143720   5.250   2.753   1.161  1.2305 -1.3188  0.7577
14093SOL    HW243721   5.268   2.770   1.311 -1.4539  1.3113  0.8844
14094SOL     OW43722   7.550   1.051   0.476  0.1808 -0.0425 -0.2015
14094SOL    HW143723   7.481   1.009   0.425 -0.6235  1.0778 -0.0770
14094SOL    HW243724   7.599   1.102   0.412  0.0857  0.1987 -0.0810
14095SOL     OW43725   0.330   7.249   4.164 -0.3935  0.3647  0.1804
14095SOL    HW143726   0.268   7.288   4.225 -1.9772 -1.2885 -0.2866
14095SOL    HW243727   0.342   7.160   4.196 -0.4746 -0.2149 -1.3157
14096SOL     OW43728   6.583   7.485   8.249  0.1906 -0.2109  0.0124
14096SOL    HW143729   6.573   7.425   8.323  1.1410  1.1296  1.2952
14096SOL    HW243730   6.564   7.571   8.286 -0.2938  0.4004 -1.5685
14097SOL     OW43731   0.999   6.773  11.817 -0.0273 -0.2470 -0.3660
14097SOL    HW143732   0.981   6.852  11.870  0.0582 -1.9296  2.3764
14097SOL    HW243733   1.082   6.794  11.773  0.5857  0.8359  1.1713
14098SOL     OW43734   3.292   6.225   5.543  0.4733  0.2156 -0.6248
14098SOL    HW143735   3.322   6.145   5.500 -2.2622 -0.4621 -1.4268
14098SOL    HW243736   3.238   6.269   5.478 -1.1587  0.7945  1.0456
14099SOL     OW43737   6.614   2.397   7.072 -0.3780  0.5634  0.1176
14099SOL    HW143738   6.649   2.313   7.102 -3.5089  0.0832  3.1895
14099SOL    HW243739   6.583   2.380   6.983 -0.2959 -1.3446  0.4062
14100SOL     OW43740   0.792   3.558   6.174  0.2727  0.2438 -0.3954
14100SOL    HW143741   0.788   3.577   6.268 -0.8245  2.6250 -0.8350
14100SOL    HW243742   0.884   3.565   6.152  0.7889 -2.0392  0.7443
14101SOL     OW43743   1.686   5.617  10.199 -0.4286 -0.0035 -0.1831
14101SOL    HW143744   1.781   5.628  10.192  0.1047 -2.8996  1.2232
14101SOL    HW243745   1.669   5.614  10.293 -2.3208  2.6328 -0.3170
14102SOL     OW43746   4.149   6.775   1.847  0.2021  1.1928 -0.1100
14102SOL    HW143747   4.131   6.850   1.790  2.4267  1.2988 -0.7315
14102SOL    HW243748   4.141   6.698   1.790  0.9452  1.1914 -0.2212
14103SOL     OW43749   3.356   6.355   1.021 -0.1307  0.0043  0.1348
14103SOL    HW143750   3.333   6.444   1.048 -1.6758 -0.9912  2.4832
14103SOL    HW243751   3.444   6.363   0.984 -0.0782  2.4468  0.6123
14104SOL     OW43752   3.230   4.080   8.719 -0.1759  0.0732  0.1004
14104SOL    HW143753   3.145   4.112   8.749 -0.1045  0.7490 -0.3736
14104SOL    HW243754   3.214   3.990   8.690 -0.9564  0.5210 -0.9184
14105SOL     OW43755   1.095   1.633  12.179 -0.3230  0.1962  0.2440
14105SOL    HW143756   1.021   1.592  12.224 -1.3587  0.4733 -1.1451
14105SOL    HW243757   1.086   1.605  12.087 -0.3693  2.5410 -0.5216
14106SOL     OW43758   3.352   4.362   7.393 -0.1819 -0.2228 -0.6076
14106SOL    HW143759   3.424   4.334   7.337  0.2800 -1.2438  0.4443
14106SOL    HW243760   3.341   4.455   7.375  0.5413 -0.3461 -1.7210
14107SOL     OW43761   4.122   1.656   5.019  0.3900  0.0332 -0.2181
14107SOL    HW143762   4.045   1.633   4.967  1.6765 -2.2978 -1.2322
14107SOL    HW243763   4.151   1.740   4.983 -0.0869 -0.4131 -1.7159
14108SOL     OW43764   1.073   5.111   9.902  0.2933  0.4814  0.3362
14108SOL    HW143765   1.152   5.144   9.945  1.6849 -0.1774 -1.5647
14108SOL    HW243766   1.071   5.155   9.818  1.0634 -2.5595 -1.4223
14109SOL     OW43767   6.937   4.829   3.925  0.8446  0.1487 -0.1320
14109SOL    HW143768   6.858   4.847   3.975  0.6415 -1.7814  0.3386
14109SOL    HW243769   7.008   4.838   3.989  0.7450 -0.6003  0.0985
14110SOL     OW43770   6.491   3.198  11.686  0.0046 -0.3134  0.1542
14110SOL    HW143771   6.529   3.204  11.599  0.2130 -0.4458  0.2356
14110SOL    HW243772   6.446   3.114  11.687 -0.2845 -0.1583  0.0594
14111SOL     OW43773   1.600   7.686   3.582  0.3513  0.0401 -0.0702
14111SOL    HW143774   1.625   7.719   3.667  0.8019  1.0909 -0.5998
14111SOL    HW243775   1.672   7.628   3.556  1.8111  2.2259 -1.1265
14112SOL     OW43776   5.441   1.564   3.959  0.7241 -0.6630 -0.0074
14112SOL    HW143777   5.493   1.589   3.883  1.7366 -2.2536  0.1181
14112SOL    HW243778   5.453   1.636   4.020 -1.5405  1.5385 -1.9342
14113SOL     OW43779   0.100   2.406   3.030 -0.3726 -0.0916 -0.2797
14113SOL    HW143780   0.165   2.454   3.081  0.0350 -0.4181 -0.4841
14113SOL    HW243781   0.029   2.468   3.018  1.4117  1.6352 -3.2027
14114SOL     OW43782   3.140   7.392   3.648  0.0484  0.1959  0.7123
14114SOL    HW143783   3.160   7.392   3.741  3.0490  0.2914  0.1642
14114SOL    HW243784   3.049   7.421   3.643 -0.6970 -1.2185  3.6442
14115SOL     OW43785   7.751   7.092   2.280 -0.1335  0.8039 -0.1773
14115SOL    HW143786   7.755   7.172   2.228 -0.0589  0.0451 -1.3827
14115SOL    HW243787   7.790   7.025   2.223 -3.1755 -0.7919 -0.5822
14116SOL     OW43788   7.170   7.086  10.904 -0.5596  0.4451  0.1698
14116SOL    HW143789   7.144   7.016  10.965 -1.8427  0.2696 -0.5324
14116SOL    HW243790   7.233   7.044  10.846 -0.2730  0.2647  0.6017
14117SOL     OW43791   1.276   5.851   0.785  0.5228  0.0282 -0.4056
14117SOL    HW143792   1.334   5.918   0.821  1.0304 -0.6201  0.0090
14117SOL    HW243793   1.197   5.855   0.839 -0.0982  1.3246 -1.3487
14118SOL     OW43794   7.213   3.013   2.930 -0.3345  0.2612 -0.0674
14118SOL    HW143795   7.300   3.004   2.890  0.0653 -1.1279  1.0093
14118SOL    HW243796   7.227   3.073   3.004 -1.0720  2.8270 -1.8561
14119SOL     OW43797   6.563   2.200   0.481 -0.5417  0.0221 -0.4961
14119SOL    HW143798   6.485   2.152   0.510 -0.1616 -1.1252 -1.3325
14119SOL    HW243799   6.529   2.265   0.419 -0.8554 -0.3163 -0.6804
14120SOL     OW43800   2.478   1.184   8.964  0.5947 -0.5723  0.1773
14120SOL    HW143801   2.506   1.274   8.981 -0.3427 -0.1967 -0.2179
14120SOL    HW243802   2.387   1.181   8.991 -0.2387 -0.6241 -2.3499
14121SOL     OW43803   5.042   4.530   4.452 -0.4489  0.2234  0.6600
14121SOL    HW143804   4.981   4.592   4.493  1.1319  1.6894  0.9145
14121SOL    HW243805   5.129   4.565   4.473  0.5129 -2.0721  0.7342
14122SOL     OW43806   4.838   7.935   4.622  0.4578  0.1494  0.6136
14122SOL    HW143807   4.910   7.997   4.636 -1.8124  2.9393  0.9283
14122SOL    HW243808   4.778   7.982   4.564 -0.8801 -2.2883 -0.0977
14123SOL     OW43809   6.556   3.549  11.620  0.6533  0.7317  0.0310
14123SOL    HW143810   6.584   3.627  11.572  1.4029 -2.2114 -5.0881
14123SOL    HW243811   6.462   3.541  11.601  0.3329  0.8933  1.4506
14124SOL     OW43812   3.410   4.591   4.439 -0.2044  0.0487  0.1803
14124SOL    HW143813   3.374   4.668   4.481  3.4836  1.4174  1.1746
14124SOL    HW243814   3.404   4.522   4.505 -0.1235  0.5012  0.6603
14125SOL     OW43815   0.738   1.376   0.025 -0.3706 -0.2407  0.0282
14125SOL    HW143816   0.780   1.317   0.088 -0.4060  0.6234  0.8784
14125SOL    HW243817   0.737   1.461   0.069 -0.6253  0.3213 -1.0467
14126SOL     OW43818   3.897   7.544   6.346  0.3085 -0.0110  0.2810
14126SOL    HW143819   3.854   7.464   6.378  0.4040  0.4294  1.5856
14126SOL    HW243820   3.845   7.572   6.271  0.3741 -1.3802 -0.3106
14127SOL     OW43821   0.139   5.336  11.674  0.2802 -0.2294  0.6142
14127SOL    HW143822   0.169   5.370  11.590 -3.2789  1.1342 -0.3144
14127SOL    HW243823   0.184   5.252  11.685  2.0655  0.3277 -1.8242
14128SOL     OW43824   1.655   1.106   9.336  0.5511 -0.2435  0.0576
14128SOL    HW143825   1.633   1.100   9.243  1.4149  0.5236 -0.2201
14128SOL    HW243826   1.575   1.081   9.382 -0.4516  1.0446 -0.8906
14129SOL     OW43827   7.484   4.395   9.787  0.2844  0.2875 -0.2340
14129SOL    HW143828   7.446   4.366   9.870  0.7048  0.8534  0.1669
14129SOL    HW243829   7.458   4.487   9.781  0.8979  0.4539 -0.3562
14130SOL     OW43830   3.851   7.763  10.222 -0.4504  0.3907 -0.2035
14130SOL    HW143831   3.924   7.705  10.204 -0.8627  0.1090 -1.0532
14130SOL    HW243832   3.857   7.832  10.155 -1.8370 -0.4994 -1.3199
14131SOL     OW43833   1.934   2.682   3.902 -0.6187 -0.3893  0.1031
14131SOL    HW143834   1.929   2.759   3.959  0.0385 -1.5707  1.8476
14131SOL    HW243835   1.931   2.717   3.813  0.7505  1.7426  0.8289
14132SOL     OW43836   6.173   6.478   8.386  0.6998 -0.2988  0.2783
14132SOL    HW143837   6.168   6.480   8.482 -0.9943 -0.4048  0.2153
14132SOL    HW243838   6.082   6.479   8.357  1.1922  0.5286 -1.3638
14133SOL     OW43839   4.199   6.632   2.397  0.3207  0.1074  0.2602
14133SOL    HW143840   4.295   6.624   2.393  0.4855  1.9250 -0.3663
14133SOL    HW243841   4.171   6.630   2.306 -0.0909  0.8351  0.3565
14134SOL     OW43842   5.877   7.485   9.919  0.4091 -0.0979  0.1542
14134SOL    HW143843   5.894   7.476   9.825  0.4640  0.5275  0.1035
14134SOL    HW243844   5.883   7.396   9.953 -2.1236 -0.7398 -0.8477
14135SOL     OW43845   1.015   7.499   6.751  0.4206  0.0635 -0.5180
14135SOL    HW143846   0.987   7.588   6.773  0.2464  0.0556 -0.7038
14135SOL    HW243847   1.009   7.451   6.833  2.8188  0.7876  0.1668
14136SOL     OW43848   4.842   0.704   4.843  0.1124  0.0586 -0.1246
14136SOL    HW143849   4.871   0.795   4.844  1.9378 -0.4770 -0.5684
14136SOL    HW243850   4.846   0.679   4.750  1.7589 -1.0654  0.1974
14137SOL     OW43851   0.192   6.322   1.303  0.1860 -0.4919 -0.2372
14137SOL    HW143852   0.232   6.397   1.258 -1.5107 -0.9339 -2.6793
14137SOL    HW243853   0.265   6.263   1.322  1.0771  0.0491 -1.8291
14138SOL     OW43854   6.898   4.922  10.441 -0.0482  0.2673  0.4929
14138SOL    HW143855   6.906   4.845  10.498 -1.9832 -0.3354  0.0231
14138SOL    HW243856   6.883   4.886  10.354  0.4291  1.1975  0.0088
14139SOL     OW43857   5.669   1.026   0.421 -0.0105  0.4969 -0.0911
14139SOL    HW143858   5.744   1.007   0.365  1.0463 -1.3527  1.8133
14139SOL    HW243859   5.593   1.000   0.369  1.0702 -4.2214  0.2041
14140SOL     OW43860   4.311   2.736   5.968  0.1297  0.0471  0.0545
14140SOL    HW143861   4.400   2.700   5.974 -0.4898 -1.3319  1.9672
14140SOL    HW243862   4.305   2.797   6.041 -1.1330 -1.5141  1.3315
14141SOL     OW43863   3.016   6.549   7.170 -0.1798 -0.1125 -0.7449
14141SOL    HW143864   2.956   6.556   7.096  0.6271  1.2072 -1.2930
14141SOL    HW243865   2.958   6.541   7.247 -1.0316  0.1067 -1.3512
14142SOL     OW43866   5.515   6.514   2.519  0.2095  0.0852  0.3593
14142SOL    HW143867   5.567   6.579   2.473  1.1596 -0.8672  0.0278
14142SOL    HW243868   5.542   6.430   2.480 -2.4280 -0.4028 -0.6875
14143SOL     OW43869   0.770   7.570   9.170 -0.1844 -0.3635  0.0954
14143SOL    HW143870   0.706   7.576   9.242  0.1190  0.9479  0.2851
14143SOL    HW243871   0.810   7.657   9.167  0.0470 -0.5083 -1.4568
14144SOL     OW43872   1.650   5.978  12.179 -0.0056 -0.0169 -0.6371
14144SOL    HW143873   1.737   6.011  12.201  0.0249 -0.3855 -0.1982
14144SOL    HW243874   1.667   5.904  12.121  0.1336 -2.0387  1.8384
14145SOL     OW43875   7.665   1.067   1.423 -0.0424  0.3586  0.4790
14145SOL    HW143876   7.590   1.120   1.450 -1.1529 -0.9304  0.0660
14145SOL    HW243877   7.734   1.130   1.404 -0.6289  1.5121  2.0357
14146SOL     OW43878   2.480   5.869   1.490 -0.1222  0.6837  0.4105
14146SOL    HW143879   2.562   5.897   1.532 -0.4999  1.3649  0.7140
14146SOL    HW243880   2.496   5.778   1.464 -0.2587 -0.2364  3.1548
14147SOL     OW43881   4.973   0.480  11.895 -0.6663  0.0358 -0.3749
14147SOL    HW143882   5.057   0.506  11.932 -0.5756 -1.6312  0.7002
14147SOL    HW243883   4.910   0.542  11.933  0.1611  2.0931 -2.1528
14148SOL     OW43884   6.338   6.702   0.375  0.0934 -0.1984 -0.0148
14148SOL    HW143885   6.333   6.664   0.463  1.0803 -0.2988  0.0113
14148SOL    HW243886   6.308   6.631   0.318  0.3994 -0.4775  0.1634
14149SOL     OW43887   1.081   1.898   3.619  0.1967 -0.0014  0.3472
14149SOL    HW143888   1.168   1.906   3.659  1.2681 -0.5816 -1.7582
14149SOL    HW243889   1.079   1.967   3.553 -1.5040  0.8623  1.2233
14150SOL     OW43890   4.179   2.265   9.297  0.2305 -0.0490  0.0834
14150SOL    HW143891   4.219   2.201   9.238  2.1167  1.8707 -0.8534
14150SOL    HW243892   4.106   2.301   9.248  1.0940  0.7238 -0.6609
14151SOL     OW43893   7.482   6.585  10.847  0.1322 -0.4183  0.4357
14151SOL    HW143894   7.411   6.583  10.782 -0.5407  0.6267  1.1053
14151SOL    HW243895   7.562   6.593  10.795 -0.2839 -1.0072 -0.3148
14152SOL     OW43896   5.858   7.513   8.371  0.3457 -0.9313 -0.0789
14152SOL    HW143897   5.791   7.458   8.331 -0.8957  0.0758  0.5478
14152SOL    HW243898   5.838   7.511   8.464 -1.3775  2.5429 -0.2016
14153SOL     OW43899   7.265   5.584   9.747  0.1626 -0.4701  0.2532
14153SOL    HW143900   7.272   5.640   9.824  0.6493  0.8566 -0.7212
14153SOL    HW243901   7.171   5.574   9.733 -0.1917  3.9205 -2.1308
14154SOL     OW43902   1.949   0.663   3.212  0.2587 -0.0067  0.3438
14154SOL    HW143903   1.953   0.721   3.288 -1.9381  4.5865 -2.6144
14154SOL    HW243904   1.859   0.632   3.209  0.4450 -0.5224 -0.1938
14155SOL     OW43905   4.673   0.353   5.670  0.4663  0.0862  0.0535
14155SOL    HW143906   4.658   0.365   5.764 -1.2552  0.9208 -0.2766
14155SOL    HW243907   4.593   0.388   5.629  1.9698  1.5213 -1.8127
14156SOL     OW43908   1.668   4.068   7.989 -0.8139 -0.1893 -0.4022
14156SOL    HW143909   1.667   4.038   8.080  0.2079  1.4085  0.1909
14156SOL    HW243910   1.627   3.997   7.940 -2.6000 -0.5531  1.4498
14157SOL     OW43911   7.080   6.681   0.362 -0.6940  0.5895  0.7036
14157SOL    HW143912   7.121   6.601   0.328 -1.1879  1.4051 -2.0294
14157SOL    HW243913   7.154   6.736   0.389  0.0926  1.3578 -2.5836
14158SOL     OW43914   0.301   1.503  11.763 -0.9177 -0.0475 -0.2715
14158SOL    HW143915   0.230   1.528  11.704 -0.3472 -0.5555 -1.1980
14158SOL    HW243916   0.271   1.422  11.803 -1.7341  0.8085  0.9207
14159SOL     OW43917   3.255   2.047   7.008  0.4078 -0.5863  0.2731
14159SOL    HW143918   3.322   2.114   7.007  0.9985 -1.1652  0.3439
14159SOL    HW243919   3.174   2.094   7.028  0.4904  0.3681 -1.4514
14160SOL     OW43920   7.966   1.031   9.694 -0.1632  0.5706 -0.0785
14160SOL    HW143921   7.977   0.936   9.693  0.4301  0.6160  0.6561
14160SOL    HW243922   7.872   1.044   9.706 -0.7156  0.1192 -3.1359
14161SOL     OW43923   0.341   2.618   8.638 -0.3149  0.6019 -0.1200
14161SOL    HW143924   0.364   2.704   8.673 -0.8036  0.9136 -0.5522
14161SOL    HW243925   0.341   2.630   8.543  1.8268 -0.4368 -0.3234
14162SOL     OW43926   4.467   3.021   4.428 -0.0858 -0.4607  0.4041
14162SOL    HW143927   4.452   3.086   4.496  0.0449  0.3361 -0.3038
14162SOL    HW243928   4.542   2.970   4.459  1.6325  1.5289 -0.2670
14163SOL     OW43929   1.200   7.589   9.635  0.3665  0.4049 -0.2215
14163SOL    HW143930   1.228   7.497   9.631 -0.5536  0.0650  0.6771
14163SOL    HW243931   1.137   7.598   9.564  0.6960  0.4332 -0.5126
14164SOL     OW43932   5.293   2.238  12.434 -0.3131  0.1045  0.5862
14164SOL    HW143933   5.242   2.234  12.515  0.2226  0.8929  0.9773
14164SOL    HW243934   5.266   2.321  12.393 -1.5974 -0.9057 -0.7562
14165SOL     OW43935   4.156   2.222   3.961 -0.2103 -0.7466 -0.0118
14165SOL    HW143936   4.115   2.286   4.020  0.3260 -0.2935 -0.1157
14165SOL    HW243937   4.140   2.137   4.001 -2.2897 -0.6987 -0.6574
14166SOL     OW43938   0.033   7.801   8.577 -0.3650  0.3372 -0.1514
14166SOL    HW143939  -0.028   7.733   8.548 -1.0064  1.2244 -0.9570
14166SOL    HW243940  -0.001   7.829   8.662 -0.6173  0.2472 -0.2201
14167SOL     OW43941   3.825   7.705   2.729  0.1194 -0.6589  0.5397
14167SOL    HW143942   3.886   7.666   2.667  0.3165 -1.6785  1.3523
14167SOL    HW243943   3.872   7.706   2.812  1.7233  4.9036  0.0248
14168SOL     OW43944   4.394   0.118   4.380  0.1161 -0.4125  0.0623
14168SOL    HW143945   4.397   0.064   4.459  0.0058 -1.4641 -0.6274
14168SOL    HW243946   4.311   0.165   4.386  0.0986 -0.5017  0.5599
14169SOL     OW43947   2.839   5.945   8.951  0.4966  0.4530 -0.1085
14169SOL    HW143948   2.768   5.882   8.959  0.2270  0.5723 -1.3389
14169SOL    HW243949   2.865   5.964   9.041  1.2899 -2.1838  0.3245
14170SOL     OW43950   6.834   2.974   8.845  0.2998  0.0546  0.1232
14170SOL    HW143951   6.839   3.041   8.913 -0.6189 -0.5581  0.8215
14170SOL    HW243952   6.741   2.956   8.836  0.3621  0.4131 -1.6085
14171SOL     OW43953   3.734   0.369   7.026  0.3907 -0.3648  0.3929
14171SOL    HW143954   3.804   0.380   6.961  0.8627 -2.5087  0.4450
14171SOL    HW243955   3.729   0.453   7.071  0.7259  0.8800 -1.7456
14172SOL     OW43956   0.287   3.978   7.426  0.1735 -0.4210  1.2016
14172SOL    HW143957   0.345   3.957   7.499  1.2520 -1.7018  0.0301
14172SOL    HW243958   0.270   4.071   7.434  1.9182 -0.1471  1.9310
14173SOL     OW43959   5.137   6.990   4.130  0.0767 -0.4605 -0.1817
14173SOL    HW143960   5.108   7.053   4.065 -0.2288  0.9480  1.2517
14173SOL    HW243961   5.085   6.911   4.113 -2.0063  0.7911  0.0757
14174SOL     OW43962   5.114   1.462   3.787 -0.3290 -0.6441  0.4391
14174SOL    HW143963   5.179   1.448   3.856  2.2138  1.0771 -1.4339
14174SOL    HW243964   5.085   1.552   3.799  1.2149  0.1816 -1.4514
14175SOL     OW43965   4.395   5.525   7.370  0.0923  0.3168  0.2450
14175SOL    HW143966   4.429   5.515   7.459  0.6900 -0.3553 -0.0494
14175SOL    HW243967   4.308   5.564   7.382 -0.3168 -0.8322  1.2031
14176SOL     OW43968   0.060   1.377   8.423  0.1728 -0.3248 -0.1232
14176SOL    HW143969   0.118   1.348   8.492  0.2393 -1.0603 -0.4755
14176SOL    HW243970   0.037   1.297   8.375  2.0631  0.3968 -2.4592
14177SOL     OW43971   2.267   5.434   9.205  0.5356  0.0384 -0.2412
14177SOL    HW143972   2.197   5.499   9.195  1.2923  0.5988 -2.5565
14177SOL    HW243973   2.303   5.451   9.292 -2.2936 -0.4315  1.1241
14178SOL     OW43974   1.451   1.613   8.781 -0.0487 -0.0858 -0.6799
14178SOL    HW143975   1.473   1.672   8.709  0.0763  0.6547 -0.0351
14178SOL    HW243976   1.442   1.669   8.857 -0.5565 -0.8218 -0.1834
14179SOL     OW43977   1.202   0.668   8.503  0.0782 -0.6895  0.1263
14179SOL    HW143978   1.235   0.706   8.584 -1.0165 -0.9817  0.7264
14179SOL    HW243979   1.203   0.740   8.440  1.2726 -0.5472  0.2851
14180SOL     OW43980   6.363   6.385   3.979 -0.3806 -0.2385 -0.1433
14180SOL    HW143981   6.316   6.309   3.943 -1.0433  0.8011 -1.6128
14180SOL    HW243982   6.453   6.375   3.948 -0.2341 -0.8868  0.4633
14181SOL     OW43983   3.638   1.750   8.983  0.2156  0.2498 -0.0942
14181SOL    HW143984   3.593   1.692   9.045 -0.2403 -0.2041 -0.8300
14181SOL    HW243985   3.623   1.709   8.897  1.6047  0.3750 -0.4105
14182SOL     OW43986   4.471   3.020   9.414 -0.6154  0.5100  0.4156
14182SOL    HW143987   4.538   3.068   9.462  1.2435 -1.3342 -0.1804
14182SOL    HW243988   4.520   2.969   9.349 -2.7734  0.4879 -1.3050
14183SOL     OW43989   5.243   6.695   0.485  0.2144  0.0270 -0.1594
14183SOL    HW143990   5.279   6.775   0.523 -0.4097 -0.2037  0.9467
14183SOL    HW243991   5.168   6.674   0.540  2.7332 -3.6730  2.2441
14184SOL     OW43992   6.824   0.451   5.005 -0.1506  0.8448 -0.2728
14184SOL    HW143993   6.912   0.418   5.023 -0.5526  0.7148  1.7290
14184SOL    HW243994   6.802   0.502   5.083 -1.9615  0.6356 -0.6213
14185SOL     OW43995   6.975   3.050   1.684  0.4737  0.1694 -0.1742
14185SOL    HW143996   6.987   3.136   1.643  0.2385 -0.4191 -1.5299
14185SOL    HW243997   7.021   2.989   1.627 -0.4504 -0.7757  0.0518
14186SOL     OW43998   7.867   4.810   1.735 -0.0709  0.5617 -0.1024
14186SOL    HW143999   7.850   4.811   1.829 -0.0353  0.9438 -0.1004
14186SOL    HW244000   7.913   4.727   1.720  0.9152  0.9995  0.3935
14187SOL     OW44001   5.840   6.177   6.813  0.1216 -0.1974 -0.0226
14187SOL    HW144002   5.856   6.087   6.783 -0.1555  0.4305 -2.2377
14187SOL    HW244003   5.758   6.171   6.862 -0.5271 -0.9987 -1.1375
14188SOL     OW44004   5.091   7.265   1.558 -0.8156 -0.0497  0.3601
14188SOL    HW144005   5.123   7.328   1.622 -0.7303 -0.0605  0.3289
14188SOL    HW244006   5.000   7.250   1.581 -1.0740  0.7213 -0.1466
14189SOL     OW44007   0.278   2.247   7.791  0.4794 -0.1081  0.1346
14189SOL    HW144008   0.294   2.154   7.772  1.3015  0.3844 -1.8745
14189SOL    HW244009   0.333   2.266   7.866  1.0585 -1.0333 -0.0356
14190SOL     OW44010   5.612   1.342  11.174  0.1962  0.0093 -0.1685
14190SOL    HW144011   5.593   1.299  11.091  0.3423  0.0646 -0.2291
14190SOL    HW244012   5.641   1.430  11.150  2.6179 -0.7274 -0.1913
14191SOL     OW44013   7.929   5.709   6.646  0.1742 -0.4014 -0.3317
14191SOL    HW144014   7.864   5.693   6.577 -0.8658  1.8410  0.0243
14191SOL    HW244015   7.991   5.769   6.605 -0.4431  0.9343  0.6171
14192SOL     OW44016   2.140   2.579   1.893 -0.0429  0.2330  0.0816
14192SOL    HW144017   2.207   2.637   1.930  0.0942  0.4604 -0.5087
14192SOL    HW244018   2.181   2.543   1.814 -0.2650 -0.3865  0.2460
14193SOL     OW44019   5.962   7.795   6.340  0.2355 -0.2500 -0.0281
14193SOL    HW144020   5.998   7.849   6.410  0.9605  0.6825 -1.0827
14193SOL    HW244021   5.869   7.819   6.336  0.0160 -0.8562  1.0784
14194SOL     OW44022   0.904   6.701   1.418  0.2762  0.1678 -0.5924
14194SOL    HW144023   0.811   6.681   1.422  0.4608 -0.5718  2.4993
14194SOL    HW244024   0.944   6.621   1.382 -0.1869  0.0731 -0.9010
14195SOL     OW44025   0.637   0.743   6.239 -0.2343  0.0077  0.1512
14195SOL    HW144026   0.714   0.766   6.292 -1.9502  0.8480  2.4579
14195SOL    HW244027   0.621   0.821   6.186  1.4666 -0.8221 -1.7466
14196SOL     OW44028   6.062   1.761   9.095  0.4716  0.3238  0.0404
14196SOL    HW144029   6.051   1.700   9.022  0.4029 -0.2684  0.5373
14196SOL    HW244030   5.998   1.830   9.079  0.4138  0.1649 -0.4239
14197SOL     OW44031   6.946   6.724   7.882 -0.4875  0.4502 -0.0701
14197SOL    HW144032   6.860   6.702   7.918 -0.8107  2.0913  0.2710
14197SOL    HW244033   6.976   6.797   7.937  1.4415 -0.5321  0.2386
14198SOL     OW44034   6.745   3.912   2.757  0.0641 -0.5342  0.0342
14198SOL    HW144035   6.817   3.968   2.784 -0.2285 -0.4707  0.7179
14198SOL    HW244036   6.680   3.921   2.827 -0.2866 -1.1718 -0.1984
14199SOL     OW44037   2.112   2.480  10.024 -0.1017 -0.0638 -0.3334
14199SOL    HW144038   2.072   2.465   9.939 -2.0238  0.7938  0.3433
14199SOL    HW244039   2.181   2.543  10.008 -0.8357  0.5456 -1.2029
14200SOL     OW44040   5.533   7.081   7.439  0.4686 -0.2605 -0.2662
14200SOL    HW144041   5.593   7.093   7.512  1.3243  0.6042 -1.0854
14200SOL    HW244042   5.540   7.162   7.388 -1.7581  0.0809 -0.1446
14201SOL     OW44043   7.691   1.853   0.351 -0.4721 -0.4891  0.4129
14201SOL    HW144044   7.713   1.891   0.436 -0.4106 -0.2363  0.2863
14201SOL    HW244045   7.723   1.917   0.288 -0.2388 -0.8217  0.1906
14202SOL     OW44046   5.747   4.065  11.792  0.4256  0.2870 -0.1060
14202SOL    HW144047   5.765   4.103  11.706  0.8700 -0.6254 -0.4305
14202SOL    HW244048   5.676   4.003  11.776  1.8510 -1.3873 -0.2449
14203SOL     OW44049   7.814   0.292   1.837  0.4147 -0.1051 -0.4437
14203SOL    HW144050   7.724   0.324   1.835 -0.2754 -1.8898  0.4433
14203SOL    HW244051   7.807   0.198   1.854  2.4682 -0.1647  0.4390
14204SOL     OW44052   6.236   3.227   9.942  0.2982 -0.3290 -0.4012
14204SOL    HW144053   6.256   3.319   9.924  1.0256 -0.4483 -0.2473
14204SOL    HW244054   6.321   3.183   9.937 -0.0479 -0.9988 -0.5017
14205SOL     OW44055   7.039   7.335  10.711 -0.4429  0.3167 -0.1959
14205SOL    HW144056   7.043   7.421  10.753 -1.1817  0.0492  0.4450
14205SOL    HW244057   7.131   7.310  10.700 -0.2108  1.3473 -0.7446
14206SOL     OW44058   2.522   6.499   4.720  0.4477  0.0644 -0.0426
14206SOL    HW144059   2.490   6.429   4.777  0.6265  0.2382  0.2776
14206SOL    HW244060   2.557   6.454   4.643 -0.2027 -0.1479 -0.2169
14207SOL     OW44061   2.940   0.997   6.892 -0.2178 -0.1417  0.7050
14207SOL    HW144062   2.979   0.931   6.949 -0.2951 -0.3483  0.5206
14207SOL    HW244063   2.862   0.954   6.855  0.2799 -0.3039 -0.1916
14208SOL     OW44064   1.817   2.973   0.803 -0.2719  0.5971 -0.0220
14208SOL    HW144065   1.842   3.059   0.836  0.7983 -0.2822  1.6352
14208SOL    HW244066   1.798   2.922   0.882  1.4680 -1.3664 -0.7850
14209SOL     OW44067   1.163   7.880   4.384  0.4537  0.1806 -0.2542
14209SOL    HW144068   1.242   7.876   4.437 -0.6722  0.4559  1.5204
14209SOL    HW244069   1.092   7.895   4.447 -1.2317 -1.6456 -1.5933
14210SOL     OW44070   0.784   2.003   6.173  0.3585  0.0986 -0.3597
14210SOL    HW144071   0.723   1.930   6.167  1.8172 -1.3840  1.6919
14210SOL    HW244072   0.731   2.080   6.150 -2.5989 -0.9298  2.2177
14211SOL     OW44073   7.639   6.035   9.305 -0.1820  0.1199 -0.8367
14211SOL    HW144074   7.623   6.038   9.211 -2.7296 -2.6708 -0.6589
14211SOL    HW244075   7.645   5.942   9.326  1.2243  0.6705  1.6765
14212SOL     OW44076   3.806   2.882   2.726 -0.1233  0.3247  0.0234
14212SOL    HW144077   3.737   2.823   2.754 -0.7178  0.0520 -1.8835
14212SOL    HW244078   3.809   2.949   2.794 -2.4803  0.5145  0.0237
14213SOL     OW44079   7.404   1.618   2.884 -0.5334  0.2619  0.1470
14213SOL    HW144080   7.357   1.538   2.859  1.3737 -0.6188 -0.8985
14213SOL    HW244081   7.384   1.680   2.814  1.3772 -0.7826 -1.4135
14214SOL     OW44082   2.797   4.306   3.937  0.2828 -0.0176 -0.0369
14214SOL    HW144083   2.792   4.248   3.862  1.8356 -1.3468  0.8286
14214SOL    HW244084   2.756   4.258   4.008 -0.1721  0.7610  0.2402
14215SOL     OW44085   2.456   4.762   6.396  0.3592  0.1042 -0.4326
14215SOL    HW144086   2.377   4.811   6.421  0.7406 -0.2013  1.4980
14215SOL    HW244087   2.425   4.698   6.332 -0.8074  0.5037 -0.2946
14216SOL     OW44088   5.800   6.802   1.144  0.0923  0.0997 -0.1074
14216SOL    HW144089   5.854   6.732   1.106  0.2162 -0.1626  0.5505
14216SOL    HW244090   5.781   6.860   1.069 -0.8399 -1.1463 -0.8746
14217SOL     OW44091   2.916   4.857   0.197 -0.0556 -0.0400  0.2453
14217SOL    HW144092   2.994   4.828   0.245  0.1691  0.9068  0.4752
14217SOL    HW244093   2.938   4.842   0.105  0.9619  1.4819  0.2075
14218SOL     OW44094   4.616   6.805  10.677  0.1978  0.3471  0.5537
14218SOL    HW144095   4.524   6.811  10.700 -0.0869 -0.1709 -0.4060
14218SOL    HW244096   4.619   6.822  10.583  1.0881  0.4326  0.5824
14219SOL     OW44097   2.561   5.751  12.146 -0.8070  0.0100 -0.1343
14219SOL    HW144098   2.540   5.737  12.053 -1.1480 -1.8433  0.1850
14219SOL    HW244099   2.628   5.687  12.166  0.3068  1.3362  0.5951
14220SOL     OW44100   2.873   6.406   9.659  0.2279  0.1827 -0.3427
14220SOL    HW144101   2.879   6.319   9.620 -0.5983  0.0975 -0.2956
14220SOL    HW244102   2.803   6.449   9.611 -0.5781  0.1937  0.7907
14221SOL     OW44103   7.746   0.256   1.126  0.0671  0.1121 -0.2685
14221SOL    HW144104   7.800   0.331   1.150  1.6046 -0.9056 -0.4259
14221SOL    HW244105   7.716   0.276   1.038 -0.1463  0.8628 -0.0374
14222SOL     OW44106   4.097   4.668   6.310 -0.0613 -0.5871 -0.0890
14222SOL    HW144107   4.121   4.577   6.294  0.8545 -0.3273 -0.2423
14222SOL    HW244108   4.180   4.715   6.308 -0.2625 -0.0490  2.1194
14223SOL     OW44109   3.816   3.682   1.497 -0.2582 -0.3287  0.4909
14223SOL    HW144110   3.848   3.761   1.452  1.3355 -0.0540  2.0023
14223SOL    HW244111   3.730   3.666   1.458 -0.6852  2.2092  0.1823
14224SOL     OW44112   4.575   2.801   6.140  0.1115  0.1699 -0.1429
14224SOL    HW144113   4.562   2.844   6.225  1.2102 -0.2962  0.2813
14224SOL    HW244114   4.611   2.870   6.084  1.5693 -0.0752  0.4464
14225SOL     OW44115   1.540   7.318   2.294  0.4914  0.2056  0.8414
14225SOL    HW144116   1.483   7.385   2.330 -0.0237  0.8227 -1.0159
14225SOL    HW244117   1.528   7.242   2.352 -1.3589  0.6749  1.1233
14226SOL     OW44118   3.655   5.275  10.860 -0.1391 -0.3449  0.1511
14226SOL    HW144119   3.590   5.343  10.842  0.6684  0.5970  0.7374
14226SOL    HW244120   3.713   5.276  10.785 -0.6179 -1.0086 -0.2486
14227SOL     OW44121   3.513   0.379   4.174 -0.7257 -0.4466  0.1856
14227SOL    HW144122   3.603   0.381   4.141 -0.8235 -1.1225 -0.1306
14227SOL    HW244123   3.510   0.305   4.234 -0.3946  1.1006  2.2386
14228SOL     OW44124   6.350   7.786   9.431  0.3348  0.0741 -0.6716
14228SOL    HW144125   6.331   7.739   9.512  0.9454  0.9716  0.0124
14228SOL    HW244126   6.396   7.723   9.377  1.1525 -0.1244  0.2323
14229SOL     OW44127   3.963   5.395  11.837 -0.0652  0.4063  0.0220
14229SOL    HW144128   3.953   5.337  11.912 -1.2048  2.1794  1.3212
14229SOL    HW244129   4.055   5.390  11.814  0.2469 -0.3521  1.3846
14230SOL     OW44130   1.637   3.101   6.056 -0.7932 -0.6411  0.3408
14230SOL    HW144131   1.643   3.130   6.147 -1.3322  0.8139 -0.0657
14230SOL    HW244132   1.543   3.084   6.043 -0.4621 -3.3400  0.7502
14231SOL     OW44133   5.178   4.763   4.172  0.2505 -0.1106  0.4287
14231SOL    HW144134   5.252   4.778   4.231  0.2480 -0.9283  0.6612
14231SOL    HW244135   5.101   4.769   4.229  0.2052 -0.2491  0.3827
14232SOL     OW44136   6.799   4.794   4.962  0.4562 -0.0454 -0.3286
14232SOL    HW144137   6.763   4.851   4.894  1.2460 -1.5484 -2.1110
14232SOL    HW244138   6.723   4.760   5.008 -0.4950 -1.9888 -3.0491
14233SOL     OW44139   6.750   1.392   3.816  0.5759  0.2002 -0.3460
14233SOL    HW144140   6.756   1.299   3.794 -2.8356  0.1391 -1.6767
14233SOL    HW244141   6.765   1.395   3.910 -1.3906 -2.0986  0.1511
14234SOL     OW44142   5.932   2.714   4.922  0.2572  0.6498  0.7102
14234SOL    HW144143   5.950   2.638   4.977  0.8959  0.5097  0.3178
14234SOL    HW244144   5.998   2.709   4.853  0.6640  1.8732  0.9917
14235SOL     OW44145   5.648   6.169  11.005  0.1134 -0.1195  0.3146
14235SOL    HW144146   5.641   6.103  11.074  1.4765 -0.0881  0.5144
14235SOL    HW244147   5.736   6.205  11.015 -0.1189  0.7803 -0.6541
14236SOL     OW44148   2.019   4.170   9.818 -0.4848  0.2494  0.0970
14236SOL    HW144149   2.012   4.207   9.730 -1.0287  0.4621  0.2262
14236SOL    HW244150   1.980   4.083   9.811 -3.7293  1.5044  0.8598
14237SOL     OW44151   3.125   2.766   8.366 -0.3328  0.2267  0.6157
14237SOL    HW144152   3.156   2.798   8.282 -2.3293 -0.2069 -0.3300
14237SOL    HW244153   3.204   2.763   8.421  0.5732  3.1410 -0.3425
14238SOL     OW44154   0.795   1.387   5.092 -0.6229 -0.1394  0.0196
14238SOL    HW144155   0.883   1.423   5.108 -0.7198 -0.0045  0.2507
14238SOL    HW244156   0.782   1.398   4.998 -0.3021 -0.3645 -0.0541
14239SOL     OW44157   0.314   2.352   3.731 -0.0590 -0.3285  0.0909
14239SOL    HW144158   0.238   2.324   3.680 -0.5135  1.1825 -0.1069
14239SOL    HW244159   0.287   2.338   3.822 -1.1894  1.5093  0.0991
14240SOL     OW44160   2.511   0.504   2.711 -0.9157  0.4876 -0.2528
14240SOL    HW144161   2.468   0.508   2.796 -1.9203  1.9781 -0.7883
14240SOL    HW244162   2.440   0.510   2.648 -0.5397 -3.5663 -1.3496
14241SOL     OW44163   3.294   7.769   8.509  0.0664 -0.9052  0.5454
14241SOL    HW144164   3.295   7.673   8.500 -0.0814 -0.8372 -0.1808
14241SOL    HW244165   3.203   7.789   8.531 -0.0535 -0.8687  0.0177
14242SOL     OW44166   1.240   0.013   1.057  0.2655 -1.0459 -0.5398
14242SOL    HW144167   1.176   0.009   0.986  0.0243 -2.2349 -0.2778
14242SOL    HW244168   1.316  -0.034   1.023  0.4497 -0.9188 -0.3053
14243SOL     OW44169   4.546   5.837   9.927  0.1712 -0.2682  0.2750
14243SOL    HW144170   4.539   5.767   9.862 -0.0908 -0.5442  0.5921
14243SOL    HW244171   4.586   5.794  10.003  0.0888 -0.0497  0.4409
14244SOL     OW44172   7.450   6.608  12.340 -0.2121 -0.3333  0.0558
14244SOL    HW144173   7.369   6.596  12.388  0.6668 -0.6658  1.5139
14244SOL    HW244174   7.517   6.618  12.407  0.7683  1.3962 -1.0995
14245SOL     OW44175   2.266   4.973   8.215  0.5507  0.1836 -0.2870
14245SOL    HW144176   2.300   5.062   8.226  2.4394 -0.5509  0.1883
14245SOL    HW244177   2.317   4.937   8.142 -0.3948 -0.4184 -0.6621
14246SOL     OW44178   6.383   5.705  10.788 -0.0182  0.1836 -0.5218
14246SOL    HW144179   6.363   5.611  10.792 -3.0612  0.7917  1.3361
14246SOL    HW244180   6.395   5.722  10.694  2.4579 -2.3056 -0.7876
14247SOL     OW44181   1.913   7.302   3.682  0.1985  0.0767 -0.1094
14247SOL    HW144182   1.986   7.254   3.721 -0.9796  0.0903  2.3012
14247SOL    HW244183   1.923   7.391   3.716 -0.9086  0.0879  0.1988
14248SOL     OW44184   2.003   6.013   1.890  0.4560  0.1980 -0.0649
14248SOL    HW144185   2.080   5.980   1.936  0.4146 -0.3237 -0.3587
14248SOL    HW244186   1.929   5.985   1.943  0.4274 -0.0434 -0.2335
14249SOL     OW44187   6.054   5.775   3.251 -0.0948  0.1291  0.2883
14249SOL    HW144188   6.102   5.692   3.252 -1.3290 -0.6036  1.6147
14249SOL    HW244189   5.963   5.750   3.238 -0.3768  1.3652 -0.2632
14250SOL     OW44190   0.503   2.304   9.619  0.0753  0.1865  0.6318
14250SOL    HW144191   0.414   2.271   9.616  0.2220 -0.1265 -0.9798
14250SOL    HW244192   0.540   2.268   9.700 -0.5816 -1.4683  0.2286
14251SOL     OW44193   4.341   2.499   3.903 -0.0108  0.0841 -0.4107
14251SOL    HW144194   4.347   2.592   3.885 -0.9226  0.3156  0.4004
14251SOL    HW244195   4.266   2.468   3.853 -0.0507 -0.0949 -0.2465
14252SOL     OW44196   3.055   1.952   3.457  0.3231  0.1326 -0.6535
14252SOL    HW144197   3.025   1.864   3.480  0.7562  0.2838  0.5470
14252SOL    HW244198   2.975   2.005   3.452  0.1875  0.0340  0.2899
14253SOL     OW44199   5.240   1.666   3.403  0.0722 -0.0806 -0.2249
14253SOL    HW144200   5.167   1.701   3.352 -0.2108 -0.6572 -0.2159
14253SOL    HW244201   5.258   1.580   3.366 -0.2219 -0.5642  0.7144
14254SOL     OW44202   7.433   0.964   1.137  0.3160  0.1143 -0.4520
14254SOL    HW144203   7.413   1.055   1.155  1.3893  0.2405  0.2204
14254SOL    HW244204   7.528   0.958   1.146  0.8538 -0.2150 -4.4337
14255SOL     OW44205   5.674   5.072   4.067 -0.1183 -0.3071 -0.5338
14255SOL    HW144206   5.631   5.079   3.982 -1.8129  1.4744  0.3972
14255SOL    HW244207   5.758   5.030   4.048  0.0550  1.0520 -3.2435
14256SOL     OW44208   5.005   5.564  10.543 -0.1812  0.1337  0.2290
14256SOL    HW144209   4.929   5.620  10.560  0.1541  1.2554 -1.6782
14256SOL    HW244210   5.066   5.620  10.494  0.2959 -1.7932 -1.5229
14257SOL     OW44211   3.710   1.208   3.980  0.0915  0.1387  0.2654
14257SOL    HW144212   3.777   1.260   3.936  0.2306  0.5957  0.9938
14257SOL    HW244213   3.672   1.267   4.045 -2.8187  0.7302 -1.7718
14258SOL     OW44214   1.439   1.718   1.664  0.6398  0.2374 -0.3471
14258SOL    HW144215   1.499   1.789   1.686  0.5548  0.6553 -1.4086
14258SOL    HW244216   1.447   1.656   1.737 -2.4296  3.2417  2.9921
14259SOL     OW44217   0.881   1.071  11.406 -0.0611 -0.0768 -0.2643
14259SOL    HW144218   0.960   1.018  11.411 -0.8502 -1.3593 -0.8060
14259SOL    HW244219   0.816   1.021  11.455 -0.5613  0.9333  0.1317
14260SOL     OW44220   1.225   5.011   5.922 -0.5817  0.1692  0.2883
14260SOL    HW144221   1.200   5.024   5.830 -1.1622  0.1417  0.4374
14260SOL    HW244222   1.207   4.918   5.938 -0.5843  0.2007  0.4611
14261SOL     OW44223   5.901   7.927   9.251 -0.6215 -0.0188 -0.2036
14261SOL    HW144224   5.945   7.928   9.166 -0.3458 -0.0775 -0.0607
14261SOL    HW244225   5.821   7.876   9.236  0.1006 -1.2172 -0.0886
14262SOL     OW44226   0.772   3.455  10.052  1.2153  0.7470  0.0013
14262SOL    HW144227   0.826   3.387  10.091  2.1047  1.0627 -0.6515
14262SOL    HW244228   0.834   3.525  10.028  0.6207  0.8527 -1.3361
14263SOL     OW44229   7.687   6.823   8.249  0.0996  0.1927 -0.2379
14263SOL    HW144230   7.774   6.799   8.283 -0.2551  1.0808  1.3798
14263SOL    HW244231   7.671   6.759   8.179  2.7593  1.0258 -1.7937
14264SOL     OW44232   1.572   0.293   8.786 -0.2030  0.5668 -0.7655
14264SOL    HW144233   1.545   0.218   8.839 -0.2326  1.1805  0.1244
14264SOL    HW244234   1.540   0.274   8.698 -1.6293  0.2784 -0.2019
14265SOL     OW44235   6.384   2.876   5.955 -0.7621  0.1667 -0.1719
14265SOL    HW144236   6.328   2.855   5.881 -1.0660  0.3731 -0.0010
14265SOL    HW244237   6.421   2.962   5.933 -0.9451  0.2828 -0.0333
14266SOL     OW44238   4.343   6.840   1.480 -0.0503  0.3632 -0.1100
14266SOL    HW144239   4.319   6.749   1.496  1.5198 -0.5639 -2.4952
14266SOL    HW244240   4.435   6.845   1.502 -0.0438  1.2902 -0.3190
14267SOL     OW44241   0.848   7.336   2.827  0.0068  0.5017 -0.1923
14267SOL    HW144242   0.828   7.369   2.739 -0.0625  0.9601 -0.0115
14267SOL    HW244243   0.904   7.260   2.813 -1.2621 -0.3715 -0.6972
14268SOL     OW44244   3.302   4.427  10.666 -0.0118 -0.0540 -0.5518
14268SOL    HW144245   3.308   4.509  10.717  0.0187  0.6550 -1.6604
14268SOL    HW244246   3.378   4.377  10.693  0.0187  0.3165  0.0867
14269SOL     OW44247   5.567   6.434   7.004  0.6156  0.0265  0.2174
14269SOL    HW144248   5.551   6.368   6.937 -0.8591  0.4896  0.0835
14269SOL    HW244249   5.504   6.504   6.985  1.5289  1.0721  0.8927
14270SOL     OW44250   5.794   0.060   7.304 -0.2572  0.4065 -0.0025
14270SOL    HW144251   5.775   0.100   7.388 -0.1667  1.2020 -0.3521
14270SOL    HW244252   5.714   0.071   7.253  0.5454  2.4246 -0.9609
14271SOL     OW44253   4.401   4.078   0.014 -1.2330 -0.4872  0.1199
14271SOL    HW144254   4.357   4.063   0.098  0.8814 -0.8071  1.2588
14271SOL    HW244255   4.439   4.166   0.022 -3.6814  0.8793 -1.8561
14272SOL     OW44256   7.003   2.580   6.920  0.0957  0.2510 -0.0874
14272SOL    HW144257   7.082   2.617   6.958  0.6958 -2.0417  1.1161
14272SOL    HW244258   6.979   2.508   6.979 -2.3877  0.3048 -0.9004
14273SOL     OW44259   5.984   2.602   8.088 -0.0117  1.1660 -0.9867
14273SOL    HW144260   5.889   2.608   8.088  0.0079  1.5288 -1.3966
14273SOL    HW244261   6.007   2.583   7.997  0.1924 -1.0864 -0.5432
14274SOL     OW44262   6.942   0.818   5.472 -0.2052  0.2983  0.2691
14274SOL    HW144263   6.917   0.814   5.379 -0.9763 -0.3512  0.4964
14274SOL    HW244264   6.969   0.909   5.485  0.9028  0.1623 -0.8387
14275SOL     OW44265   6.641   0.232   9.728  0.0434  0.4191  0.5216
14275SOL    HW144266   6.575   0.164   9.744 -0.2162  0.6712  0.5159
14275SOL    HW244267   6.668   0.260   9.815  1.4827 -0.9695  0.5732
14276SOL     OW44268   0.504   7.876   3.217 -0.7000 -0.2411 -0.3041
14276SOL    HW144269   0.487   7.970   3.208 -1.6741 -0.3014  0.6597
14276SOL    HW244270   0.557   7.869   3.297 -0.0758 -0.4621 -0.7331
14277SOL     OW44271   2.386   2.197  10.809 -0.2724 -0.6027 -0.2652
14277SOL    HW144272   2.294   2.171  10.807 -0.0399 -1.6867  1.3352
14277SOL    HW244273   2.434   2.115  10.816  0.7630  0.0099  0.0442
14278SOL     OW44274   1.961   5.080   6.002  0.3399  0.2081 -0.6748
14278SOL    HW144275   1.871   5.047   5.994  0.4163 -0.1117 -0.2612
14278SOL    HW244276   1.997   5.074   5.914 -0.1674  0.7103 -0.9281
14279SOL     OW44277   5.872   4.389   3.199  0.0983  0.3085  0.3029
14279SOL    HW144278   5.881   4.352   3.287 -2.1920 -0.6384  0.2119
14279SOL    HW244279   5.925   4.332   3.144  1.5299  0.8906  1.0139
14280SOL     OW44280   0.087   2.953   8.524 -0.0008 -0.3308 -0.1331
14280SOL    HW144281   0.020   2.937   8.591 -1.2724  1.0275 -1.0435
14280SOL    HW244282   0.056   2.905   8.447  0.1059  0.2432 -0.5355
14281SOL     OW44283   1.783   1.525   8.911  0.0752  0.2325 -0.6397
14281SOL    HW144284   1.809   1.550   8.822  0.9474  1.0431 -0.1837
14281SOL    HW244285   1.866   1.515   8.958 -0.3775  2.0073  0.6388
14282SOL     OW44286   5.269   6.131   3.409  0.1086 -0.4581 -0.1129
14282SOL    HW144287   5.213   6.164   3.479 -0.7610 -0.5232 -0.7663
14282SOL    HW244288   5.212   6.124   3.333  0.9375 -0.8003 -0.7259
14283SOL     OW44289   1.580   0.536   8.694 -0.3776 -0.1117  0.3556
14283SOL    HW144290   1.484   0.534   8.703 -0.4615  0.5940 -0.3602
14283SOL    HW244291   1.608   0.449   8.723 -1.1385  0.0300  1.6158
14284SOL     OW44292   0.741   4.319  10.120 -0.5166 -0.8059 -0.3114
14284SOL    HW144293   0.718   4.400  10.166 -1.3367 -0.6061 -1.0625
14284SOL    HW244294   0.818   4.286  10.168 -1.1124 -0.4116  0.9670
14285SOL     OW44295   3.484   1.379   9.652  0.2375 -0.5416 -0.3537
14285SOL    HW144296   3.462   1.405   9.562 -1.5275 -2.8185 -0.6854
14285SOL    HW244297   3.561   1.324   9.643  0.5761 -0.0806 -0.3380
14286SOL     OW44298   0.624   4.290   1.112 -0.2209  0.3609  0.6588
14286SOL    HW144299   0.574   4.246   1.043  0.2073  2.0412 -0.7977
14286SOL    HW244300   0.567   4.360   1.142 -0.0119  0.2482  1.3402
14287SOL     OW44301   0.515   0.266  11.168 -0.0025  0.1420 -0.0975
14287SOL    HW144302   0.522   0.231  11.257 -0.2803  1.8868  0.6528
14287SOL    HW244303   0.444   0.331  11.173 -0.1135  0.1848 -1.6322
14288SOL     OW44304   1.704   0.926   0.588  0.5196  0.0625  0.6402
14288SOL    HW144305   1.783   0.978   0.601 -1.2922  2.9468  1.1967
14288SOL    HW244306   1.662   0.924   0.675 -0.6491 -0.1988  0.0957
14289SOL     OW44307   7.344   0.782   2.635  0.0792  0.7197  0.0638
14289SOL    HW144308   7.411   0.788   2.566  0.8283 -0.5313  0.6394
14289SOL    HW244309   7.284   0.714   2.604  0.4650  0.0927  0.6388
14290SOL     OW44310   4.334   6.396   2.853 -0.0094 -0.3142 -0.4519
14290SOL    HW144311   4.251   6.416   2.897 -0.5033 -1.1738 -0.9662
14290SOL    HW244312   4.310   6.388   2.760  0.7331 -0.1105 -0.6633
14291SOL     OW44313   7.498   2.494   7.379 -0.3501  0.5336 -0.1792
14291SOL    HW144314   7.445   2.431   7.429  0.8468 -1.4151 -1.2300
14291SOL    HW244315   7.453   2.578   7.392 -1.3190 -0.2596  2.3120
14292SOL     OW44316   3.340   7.616   0.363 -0.3623  0.7938 -0.3942
14292SOL    HW144317   3.401   7.553   0.326  0.5866  0.4087  1.6846
14292SOL    HW244318   3.359   7.698   0.316  1.0342  0.4269 -0.5194
14293SOL     OW44319   0.178   6.021   1.758  0.7177  0.0111  0.0391
14293SOL    HW144320   0.119   5.967   1.705  0.7689 -1.1201  1.0874
14293SOL    HW244321   0.225   6.075   1.695  0.0824 -0.6071 -0.9809
14294SOL     OW44322   0.267   7.806   3.054  0.2012  0.6690  0.2693
14294SOL    HW144323   0.299   7.830   3.141 -0.5806  2.2326  0.1647
14294SOL    HW244324   0.225   7.886   3.021  1.1114  0.3294 -1.8537
14295SOL     OW44325   2.159   2.424   1.399 -0.1114 -0.0740 -0.3526
14295SOL    HW144326   2.196   2.338   1.378 -0.2769  0.1080 -1.4199
14295SOL    HW244327   2.155   2.470   1.316  0.5002  1.1968  0.3014
14296SOL     OW44328   3.923   0.322  11.276 -0.6679 -0.0120  0.0170
14296SOL    HW144329   3.952   0.265  11.205 -0.2991  0.5007 -0.2551
14296SOL    HW244330   4.003   0.340  11.326 -0.6736  0.6940 -0.2166
14297SOL     OW44331   3.188   6.772   3.588  0.5102  0.7455  0.0777
14297SOL    HW144332   3.249   6.840   3.617  0.4816  0.4408  0.8983
14297SOL    HW244333   3.101   6.812   3.599  0.5472  1.6665 -2.3515
14298SOL     OW44334   7.141   5.976   8.202 -0.6243 -0.2282  0.0930
14298SOL    HW144335   7.141   5.906   8.137 -0.0022  1.7086 -2.1498
14298SOL    HW244336   7.049   6.002   8.210 -0.7711 -0.8442  0.4219
14299SOL     OW44337   7.651   0.107   7.375  0.3650 -0.1119  0.6063
14299SOL    HW144338   7.582   0.044   7.358  0.0695  0.1838  0.6991
14299SOL    HW244339   7.660   0.156   7.293  2.8326 -2.3699 -0.6155
14300SOL     OW44340   0.293   6.798   0.158  0.1670 -0.0721 -0.3875
14300SOL    HW144341   0.359   6.827   0.222 -1.3315  1.1269  0.6845
14300SOL    HW244342   0.339   6.734   0.104  2.6126  1.6723 -0.5455
14301SOL     OW44343   4.703   7.883   4.128  0.6293  0.3542  0.1047
14301SOL    HW144344   4.787   7.929   4.131  1.3436 -0.8160 -1.2114
14301SOL    HW244345   4.646   7.941   4.077  1.8971 -0.6880 -2.6663
14302SOL     OW44346   0.701   6.486   8.774  0.2632  0.1896  0.0977
14302SOL    HW144347   0.713   6.394   8.797  0.2243  0.2817  0.4830
14302SOL    HW244348   0.715   6.488   8.679  4.4446  0.4512  0.5365
14303SOL     OW44349   5.940   7.207   2.053  0.0415 -0.5345 -0.2605
14303SOL    HW144350   5.855   7.217   2.009 -0.8783 -1.0763  1.2952
14303SOL    HW244351   6.004   7.236   1.988 -1.4356  1.5955 -0.8952
14304SOL     OW44352   6.207   1.624  10.207  0.2890  0.1814  0.0483
14304SOL    HW144353   6.230   1.571  10.131 -1.9307  1.6174 -1.7689
14304SOL    HW244354   6.232   1.713  10.182 -0.4354  0.6740  1.0235
14305SOL     OW44355   2.621   0.488   5.267 -0.3337 -0.3502 -0.4832
14305SOL    HW144356   2.613   0.462   5.175 -0.9666 -0.8021 -0.3072
14305SOL    HW244357   2.577   0.418   5.316 -0.8233  0.3476  0.0980
14306SOL     OW44358   1.289   7.244   1.371  0.3114  0.2534 -0.0386
14306SOL    HW144359   1.335   7.196   1.302 -0.4061 -0.2171 -0.1937
14306SOL    HW244360   1.201   7.256   1.337  0.0139  0.2150  0.7075
14307SOL     OW44361   4.837   2.262   2.002 -0.6968 -0.2526 -0.5218
14307SOL    HW144362   4.894   2.290   1.931  0.1718 -1.1124 -0.2001
14307SOL    HW244363   4.769   2.329   2.007  0.1059  0.6377 -1.1344
14308SOL     OW44364   2.480   4.479   6.837  0.4361  0.7678 -0.4386
14308SOL    HW144365   2.523   4.453   6.755  1.5365  0.6912  0.1443
14308SOL    HW244366   2.509   4.414   6.901 -0.3904  0.8485  0.0261
14309SOL     OW44367   6.761   4.962   6.720  0.3957 -0.1673 -0.2188
14309SOL    HW144368   6.756   5.056   6.701 -0.4726 -0.3783 -1.1379
14309SOL    HW244369   6.854   4.941   6.710  0.2536  0.1037 -2.6327
14310SOL     OW44370   7.569   0.835   6.473 -0.1489  0.2976 -0.2828
14310SOL    HW144371   7.658   0.836   6.509 -0.2057  0.1614 -0.1383
14310SOL    HW244372   7.524   0.766   6.522 -0.4183  0.5604 -0.1568
14311SOL     OW44373   6.409   2.277   2.253 -0.1830  0.2732 -0.0058
14311SOL    HW144374   6.444   2.268   2.164  1.0917 -0.5501  0.5588
14311SOL    HW244375   6.406   2.188   2.287 -0.7754  0.5660  0.7400
14312SOL     OW44376   4.798   5.964  11.727  0.2478  0.0810 -0.8628
14312SOL    HW144377   4.752   5.994  11.649 -0.2353 -0.1973 -0.6828
14312SOL    HW244378   4.840   6.044  11.761 -1.1746  0.6140 -0.2889
14313SOL     OW44379   3.745   7.473   1.058 -0.0985 -0.1044 -0.6077
14313SOL    HW144380   3.687   7.546   1.080  1.0764 -0.1676  3.8301
14313SOL    HW244381   3.698   7.395   1.086  0.1964 -0.6808 -1.6604
14314SOL     OW44382   4.620   6.117   9.340 -0.1215  0.1012 -0.0367
14314SOL    HW144383   4.531   6.150   9.327  0.3316  1.3730  0.0013
14314SOL    HW244384   4.658   6.175   9.406 -0.2921 -2.3551  2.4231
14315SOL     OW44385   7.106   3.567   1.453  0.2077 -0.1519 -0.3642
14315SOL    HW144386   7.027   3.618   1.473  0.4195 -0.0456  0.2036
14315SOL    HW244387   7.178   3.623   1.482  0.4543 -0.6320 -0.0557
14316SOL     OW44388   1.121   1.684   6.898  0.4251  0.3658  0.5037
14316SOL    HW144389   1.192   1.689   6.961  0.0340 -0.6386  1.0399
14316SOL    HW244390   1.143   1.749   6.832  1.1608  0.9935  1.3460
14317SOL     OW44391   0.124   4.170  10.824  0.3072 -0.4020 -0.6250
14317SOL    HW144392   0.077   4.123  10.893  2.8574 -1.9010  0.2064
14317SOL    HW244393   0.066   4.243  10.801 -1.2539 -0.6597  2.0986
14318SOL     OW44394   3.698   1.608   0.906  0.1931  0.0530 -0.2297
14318SOL    HW144395   3.773   1.599   0.966  0.1076 -0.8170 -0.2333
14318SOL    HW244396   3.675   1.701   0.910  1.1381  0.2894 -0.0667
14319SOL     OW44397   7.525   2.090   6.106  0.3765 -0.0959  0.1791
14319SOL    HW144398   7.580   2.079   6.184  1.1138  0.8855 -0.1757
14319SOL    HW244399   7.504   2.001   6.078  2.3642 -0.5440 -0.0631
14320SOL     OW44400   3.060   5.319   8.589 -0.1531 -0.7205 -0.1857
14320SOL    HW144401   3.097   5.366   8.663 -1.4942 -0.9163  0.6393
14320SOL    HW244402   3.115   5.343   8.515 -0.4149  1.6605  0.3133
14321SOL     OW44403   2.696   7.588   2.124 -0.6922  0.6977 -0.0291
14321SOL    HW144404   2.693   7.650   2.051  0.8273 -0.6028 -1.2427
14321SOL    HW244405   2.680   7.643   2.201  0.1054  2.5449 -1.0944
14322SOL     OW44406   4.153   0.015   7.407  0.1236 -0.2537  0.1278
14322SOL    HW144407   4.238  -0.024   7.387  0.4408  0.5473 -0.0968
14322SOL    HW244408   4.140  -0.003   7.501  0.2656 -0.8756  0.0356
14323SOL     OW44409   7.369   7.360   6.464  0.1472  0.3723  0.0485
14323SOL    HW144410   7.439   7.419   6.439  1.2541 -1.3769 -1.2463
14323SOL    HW244411   7.391   7.331   6.552  0.0430  1.2089  0.3561
14324SOL     OW44412   2.380   1.863   9.420 -0.8830  0.5016  0.0924
14324SOL    HW144413   2.290   1.855   9.451 -0.8877  0.2111  0.0000
14324SOL    HW244414   2.385   1.953   9.387 -0.3084  1.5101  2.7367
14325SOL     OW44415   3.037   2.485   4.638 -0.3882  0.2753  0.0998
14325SOL    HW144416   3.021   2.569   4.596  2.3087  0.8674  0.0307
14325SOL    HW244417   3.002   2.420   4.577 -4.6755  1.2728  1.2274
14326SOL     OW44418   6.965   2.772   3.556  0.4053 -0.1466  0.5333
14326SOL    HW144419   7.015   2.691   3.555  2.3495  0.9948 -0.6236
14326SOL    HW244420   7.010   2.827   3.620  0.3774  0.7543 -0.2015
14327SOL     OW44421   5.627   3.712   2.734  0.3173  0.4098 -0.0525
14327SOL    HW144422   5.665   3.661   2.806  0.6955  0.5831 -0.1292
14327SOL    HW244423   5.536   3.683   2.731  0.6620 -0.7030 -0.4683
14328SOL     OW44424   6.841   3.977  11.931  0.1418 -0.7054 -1.1024
14328SOL    HW144425   6.901   4.025  11.875  0.6058  1.7626  1.2889
14328SOL    HW244426   6.759   4.027  11.926  0.1961 -0.4215  0.3095
14329SOL     OW44427   5.459   3.138   4.700 -0.5973  0.2417  0.4813
14329SOL    HW144428   5.537   3.152   4.754 -0.9153  1.1821  0.7082
14329SOL    HW244429   5.483   3.172   4.614 -0.5468 -0.0413  0.3828
14330SOL     OW44430   3.462   5.732   1.871 -0.1936  0.6644 -0.4199
14330SOL    HW144431   3.470   5.749   1.965  0.2333  0.5549 -0.4332
14330SOL    HW244432   3.407   5.653   1.866 -0.3609  0.7704 -0.2710
14331SOL     OW44433   1.075   2.993   6.812  0.0881 -0.1899 -0.2498
14331SOL    HW144434   1.139   2.923   6.824 -1.9972 -2.4196 -1.3970
14331SOL    HW244435   1.015   2.982   6.885 -0.1986  0.5051 -0.3771
14332SOL     OW44436   5.657   4.498  11.860  0.1305 -0.1858 -0.6146
14332SOL    HW144437   5.601   4.429  11.826  1.8213 -1.8971 -0.1118
14332SOL    HW244438   5.710   4.456  11.928  1.4100  1.5256 -0.4684
14333SOL     OW44439   7.056   0.544   0.244  0.7698 -0.6721  0.4684
14333SOL    HW144440   7.101   0.612   0.195  0.6409  0.4458  1.8532
14333SOL    HW244441   6.990   0.510   0.183  1.7093 -0.5104 -0.6796
14334SOL     OW44442   3.476   2.270   9.939  0.1818  0.0072  0.3426
14334SOL    HW144443   3.447   2.179   9.932  1.6703 -0.5178  0.6784
14334SOL    HW244444   3.397   2.319   9.963 -0.8221 -1.0433 -0.7244
14335SOL     OW44445   4.214   2.092   5.414  0.0933 -0.2489 -0.3185
14335SOL    HW144446   4.240   2.009   5.455  0.1321  0.0597  0.2820
14335SOL    HW244447   4.296   2.136   5.394  0.0611  0.0334  0.1613
14336SOL     OW44448   5.415   5.670   6.673 -0.0288  0.6304 -0.0248
14336SOL    HW144449   5.368   5.753   6.683 -1.3912  0.0533 -1.3590
14336SOL    HW244450   5.429   5.662   6.578  3.6383  1.2063  0.2982
14337SOL     OW44451   1.779   1.898   8.277  0.3178  0.4918  0.9941
14337SOL    HW144452   1.855   1.886   8.221 -1.6658  1.6527 -2.2083
14337SOL    HW244453   1.765   1.993   8.279 -1.5094  0.2672  0.7725
14338SOL     OW44454   7.897   5.941  10.315 -0.1057 -0.3175  0.4511
14338SOL    HW144455   7.878   5.891  10.395 -3.7105 -0.2198 -0.1513
14338SOL    HW244456   7.949   5.882  10.262 -0.0609 -1.4943  1.7350
14339SOL     OW44457   5.395   2.612   1.926  0.2109  0.2265  0.0417
14339SOL    HW144458   5.445   2.650   1.853 -0.3878  1.0394  0.0355
14339SOL    HW244459   5.351   2.687   1.966 -3.7953 -0.7398 -2.0236
14340SOL     OW44460   5.601   7.145   8.084 -0.1424  0.1149  0.3116
14340SOL    HW144461   5.564   7.111   8.166 -0.4312  0.4962  0.3438
14340SOL    HW244462   5.633   7.067   8.038 -0.4575 -0.1593  0.5504
14341SOL     OW44463   6.496   1.626   9.591 -0.4221 -0.2131  0.0793
14341SOL    HW144464   6.475   1.533   9.600 -0.4876 -0.1972  0.0945
14341SOL    HW244465   6.448   1.668   9.662  0.0931 -0.2405  0.4509
14342SOL     OW44466   7.892   1.239   1.668  0.6895  0.3925 -0.5633
14342SOL    HW144467   7.893   1.244   1.572 -1.8420 -0.8170 -0.7458
14342SOL    HW244468   7.965   1.182   1.690  0.8531  0.0829 -1.8350
14343SOL     OW44469   0.313   2.023  11.437  0.6160  0.3099 -0.1980
14343SOL    HW144470   0.327   2.096  11.376 -1.5092 -0.4082 -1.6529
14343SOL    HW244471   0.336   1.945  11.385 -1.5527 -0.3408 -0.2831
14344SOL     OW44472   2.202   5.720   8.818  0.2647 -0.2272  0.2722
14344SOL    HW144473   2.214   5.713   8.723 -0.6211  0.5122  0.1005
14344SOL    HW244474   2.186   5.813   8.834 -2.0763 -0.6648  0.8353
14345SOL     OW44475   2.271   3.847   7.281  0.0673  0.1885 -0.1990
14345SOL    HW144476   2.340   3.796   7.323 -0.8677  0.5198  1.8351
14345SOL    HW244477   2.280   3.826   7.188  1.1069 -1.9412  0.3105
14346SOL     OW44478   5.512   3.551   4.382 -0.5014 -0.3232  0.4515
14346SOL    HW144479   5.441   3.615   4.393  0.5755  1.1269 -0.6516
14346SOL    HW244480   5.468   3.471   4.353 -1.7508  0.2980  0.5464
14347SOL     OW44481   6.908   0.088   6.255  0.1345  0.3157 -0.5852
14347SOL    HW144482   6.875   0.035   6.183 -0.1138  1.4025 -1.2945
14347SOL    HW244483   6.997   0.054   6.271 -0.3109 -0.8376 -0.4554
14348SOL     OW44484   0.950   6.298  12.293 -0.1249  0.2425 -0.4940
14348SOL    HW144485   0.902   6.367  12.248 -1.0987 -0.3254 -0.3439
14348SOL    HW244486   0.912   6.216  12.261 -1.4426 -0.1905  1.9300
14349SOL     OW44487   5.503   0.087   3.675 -0.5250 -0.1830 -0.5866
14349SOL    HW144488   5.511   0.011   3.617  1.1169  0.4785 -1.2797
14349SOL    HW244489   5.593   0.116   3.689 -1.1317  1.8735 -0.6437
14350SOL     OW44490   5.337   7.059   1.717  0.1345  0.1657  0.3628
14350SOL    HW144491   5.423   7.034   1.750  0.2608  0.2044  0.0568
14350SOL    HW244492   5.346   7.151   1.692 -0.2662  0.4606  1.2617
14351SOL     OW44493   4.831   1.136   6.269  0.7359 -0.3275 -0.4774
14351SOL    HW144494   4.883   1.062   6.302  0.9953  0.1605  0.2361
14351SOL    HW244495   4.881   1.168   6.194  1.7828  0.4663  0.5109
14352SOL     OW44496   6.866   3.593   4.740  0.6952  0.3786 -0.0308
14352SOL    HW144497   6.896   3.504   4.759 -0.2012  0.1122  0.2117
14352SOL    HW244498   6.922   3.623   4.668  1.8821  0.1197  0.7517
14353SOL     OW44499   0.669   5.118   8.480  0.3562 -0.5613  0.0104
14353SOL    HW144500   0.730   5.116   8.406 -0.5001 -1.8465 -0.6914
14353SOL    HW244501   0.623   5.201   8.471  1.0942 -0.1563 -0.1753
14354SOL     OW44502   7.318   4.336   9.513 -0.3777 -0.1877 -0.5901
14354SOL    HW144503   7.267   4.263   9.546  0.2822  0.1128  1.1870
14354SOL    HW244504   7.386   4.350   9.579 -0.4703  1.9945 -0.8820
14355SOL     OW44505   3.456   6.585   9.427 -0.0400 -0.4064  0.2052
14355SOL    HW144506   3.397   6.585   9.351  1.8987  0.1257 -1.3644
14355SOL    HW244507   3.501   6.501   9.423  0.8148  0.0427  0.1453
14356SOL     OW44508   5.788   4.783   4.538 -0.2688 -0.0663 -0.3350
14356SOL    HW144509   5.777   4.868   4.580 -1.7250 -0.8190  0.9016
14356SOL    HW244510   5.773   4.799   4.445  0.9476  1.2704 -0.3192
14357SOL     OW44511   5.317   5.682  12.177 -0.1182  0.0693  0.5677
14357SOL    HW144512   5.230   5.710  12.208 -0.2101 -0.7754  1.0754
14357SOL    HW244513   5.327   5.728  12.093 -0.5085  1.1769  1.0955
14358SOL     OW44514   5.165   7.456   9.914  0.0865  0.0292 -0.6677
14358SOL    HW144515   5.203   7.496   9.837 -0.4785  0.6487 -0.6283
14358SOL    HW244516   5.175   7.362   9.899 -1.1206  0.0919 -2.0676
14359SOL     OW44517   2.108   2.544   4.976  0.3407  0.2609  0.0415
14359SOL    HW144518   2.096   2.490   4.898 -0.8517 -2.4579  1.9477
14359SOL    HW244519   2.191   2.514   5.013  0.1692  0.4580  0.5975
14360SOL     OW44520   5.729   6.646   7.235 -0.5163  0.6918  0.3734
14360SOL    HW144521   5.739   6.710   7.164  1.0952  0.3709  0.2619
14360SOL    HW244522   5.775   6.686   7.309 -1.2105  0.5200  0.9066
14361SOL     OW44523   1.404   0.322   0.636  0.7649 -0.1108 -0.0472
14361SOL    HW144524   1.413   0.267   0.714  0.8587  0.3419  0.2651
14361SOL    HW244525   1.434   0.409   0.664 -0.5125  0.3972 -0.1933
14362SOL     OW44526   7.435   7.232   3.994 -0.9978  0.2170  0.1309
14362SOL    HW144527   7.493   7.165   3.957 -1.0912  0.2435 -0.0630
14362SOL    HW244528   7.355   7.227   3.941 -1.3464 -0.1263  0.6808
14363SOL     OW44529   7.026   3.022   3.985  0.3473  0.0407 -0.5064
14363SOL    HW144530   7.104   2.970   4.003  0.5374  0.2031 -0.8362
14363SOL    HW244531   6.954   2.960   3.991  0.3785  0.1170  0.9326
14364SOL     OW44532   2.543   1.904   7.559  0.2823 -0.4363  0.7393
14364SOL    HW144533   2.552   1.867   7.471  0.6677 -0.0182  0.5955
14364SOL    HW244534   2.560   1.998   7.547 -2.0019  0.0582  0.8539
14365SOL     OW44535   4.547   5.398   6.875  1.0105  0.2536 -0.1541
14365SOL    HW144536   4.534   5.402   6.969 -1.0113  2.2673 -0.4329
14365SOL    HW244537   4.525   5.307   6.852 -0.7224  0.3195  1.0631
14366SOL     OW44538   6.492   6.842   9.540  0.2446 -0.1111 -0.2158
14366SOL    HW144539   6.505   6.774   9.607 -0.9833 -0.9738 -0.8074
14366SOL    HW244540   6.580   6.863   9.510  0.6601 -1.5624 -0.1084
14367SOL     OW44541   5.243   4.406   6.115 -0.0932  0.2754 -0.1280
14367SOL    HW144542   5.222   4.382   6.205  3.5227 -1.4256  0.4640
14367SOL    HW244543   5.198   4.341   6.062 -1.5053  0.7176  0.4893
14368SOL     OW44544   1.891   6.950   5.598  0.2869 -0.2454  0.0249
14368SOL    HW144545   1.887   6.855   5.603  1.2761 -0.2814  0.3750
14368SOL    HW244546   1.961   6.968   5.536  0.7065  0.2488  0.6297
14369SOL     OW44547   1.584   4.380   7.566  0.3197 -0.2923  0.3258
14369SOL    HW144548   1.653   4.425   7.519  1.8538 -2.3588  0.4656
14369SOL    HW244549   1.628   4.310   7.614 -1.6813 -0.7382  1.6672
14370SOL     OW44550   0.315   7.122   2.920  0.0799  0.1338 -0.0498
14370SOL    HW144551   0.300   7.171   2.840  0.5057  1.9338  0.9147
14370SOL    HW244552   0.405   7.143   2.945 -0.3281  0.3557  1.3662
14371SOL     OW44553   2.429   6.744   8.176 -0.0175 -0.1933 -0.8755
14371SOL    HW144554   2.450   6.827   8.132 -0.1622 -0.8075 -2.1359
14371SOL    HW244555   2.346   6.716   8.138 -1.1114  0.1255  1.0992
14372SOL     OW44556   4.437   4.783   1.706 -0.2592 -0.3843  0.0255
14372SOL    HW144557   4.422   4.828   1.623  0.7496  0.1673  0.1308
14372SOL    HW244558   4.502   4.716   1.686  0.9589  0.5825  0.6130
14373SOL     OW44559   3.624   4.608   3.393 -0.2484 -0.6368  0.3408
14373SOL    HW144560   3.591   4.536   3.339 -1.6968 -0.6974  1.2432
14373SOL    HW244561   3.552   4.672   3.394  1.4828  1.4722 -1.5148
14374SOL     OW44562   4.790   5.376  11.650 -0.1177  0.4192  0.4337
14374SOL    HW144563   4.713   5.321  11.639  0.3808 -0.1136 -0.5995
14374SOL    HW244564   4.859   5.316  11.678  0.4455  0.4659 -0.7621
14375SOL     OW44565   3.539   2.391   1.731 -0.1487  0.3519 -0.2950
14375SOL    HW144566   3.577   2.314   1.772 -1.6048  0.4714  1.3676
14375SOL    HW244567   3.595   2.463   1.758 -0.9373  0.3905  1.3506
14376SOL     OW44568   5.340   6.244   5.872 -0.3899 -0.0842  0.1769
14376SOL    HW144569   5.410   6.180   5.882 -0.4441 -0.9234 -3.4694
14376SOL    HW244570   5.376   6.325   5.906  1.1863 -1.1258  1.1395
14377SOL     OW44571   4.663   1.770   5.747  0.2136 -0.4270  0.2153
14377SOL    HW144572   4.649   1.767   5.842 -0.7813 -0.2137  0.0871
14377SOL    HW244573   4.685   1.680   5.723 -2.3263 -1.1131  0.2604
14378SOL     OW44574   1.705   5.723   5.371 -0.2924 -0.4953 -0.3015
14378SOL    HW144575   1.720   5.800   5.316 -1.3538  0.7366  1.0434
14378SOL    HW244576   1.612   5.703   5.359 -0.8492  0.5169  1.8377
14379SOL     OW44577   5.039   6.027   1.273 -0.0591 -0.4506 -0.5156
14379SOL    HW144578   5.122   6.023   1.226  0.3731 -2.4139  0.3277
14379SOL    HW244579   5.062   6.062   1.360 -0.3714  0.3911 -0.7640
14380SOL     OW44580   1.274   7.493  11.647  0.4597 -0.0720 -0.4292
14380SOL    HW144581   1.180   7.486  11.663  0.8871 -0.5630  2.1311
14380SOL    HW244582   1.294   7.585  11.663  0.7066 -0.3500  0.9669
14381SOL     OW44583   6.383   2.588   3.237 -0.2691  0.6753  0.6365
14381SOL    HW144584   6.304   2.583   3.183  0.5074  1.0949 -0.5819
14381SOL    HW244585   6.375   2.672   3.283 -0.8078  0.4409  0.9810
14382SOL     OW44586   1.411   1.039   2.441  0.1074 -0.5435 -0.0661
14382SOL    HW144587   1.369   1.062   2.524  0.3696  0.2146 -0.1414
14382SOL    HW244588   1.422   1.122   2.395  0.4186 -0.8997 -0.6507
14383SOL     OW44589   5.746   3.108   7.378  0.0332 -0.3626  0.3717
14383SOL    HW144590   5.698   3.112   7.461 -0.7524 -2.3957  0.0700
14383SOL    HW244591   5.726   3.191   7.335 -0.5515  0.2032  1.6568
14384SOL     OW44592   1.235   0.857   0.018  0.3479  0.2683 -0.0297
14384SOL    HW144593   1.182   0.878   0.095 -1.5384 -0.1140 -1.1538
14384SOL    HW244594   1.310   0.809   0.053 -1.8866 -2.4738  1.3855
14385SOL     OW44595   4.968   1.378   9.145 -0.0279  0.4038 -0.2538
14385SOL    HW144596   4.953   1.424   9.228 -0.6173  2.9755 -1.6743
14385SOL    HW244597   4.901   1.413   9.086  0.9551 -0.6590 -2.0835
14386SOL     OW44598   7.239   1.462  12.053 -0.4622  0.1302 -0.3075
14386SOL    HW144599   7.185   1.492  12.126  0.2234 -1.0523  0.7150
14386SOL    HW244600   7.293   1.538  12.030  0.4691  0.0516  1.4947
14387SOL     OW44601   5.159   0.830   3.701  0.5397  0.0872 -0.0960
14387SOL    HW144602   5.108   0.789   3.631  0.7558  0.3616 -0.4186
14387SOL    HW244603   5.229   0.768   3.720  1.0027  0.4044 -0.7443
14388SOL     OW44604   3.584   4.437  11.021  0.0444 -0.6216  0.0859
14388SOL    HW144605   3.675   4.409  11.027  0.4058  0.3132 -0.8248
14388SOL    HW244606   3.563   4.430  10.928 -0.8803 -0.9974  0.3109
14389SOL     OW44607   5.153   2.402   0.334 -0.0280 -0.1882  0.3690
14389SOL    HW144608   5.235   2.356   0.317 -0.8073 -1.1701 -0.8990
14389SOL    HW244609   5.125   2.370   0.420  0.9749  0.2811  0.8874
14390SOL     OW44610   6.653   7.876  11.433 -0.0422  0.5496  0.4342
14390SOL    HW144611   6.709   7.887  11.357 -1.0972  0.3728 -0.3961
14390SOL    HW244612   6.564   7.876  11.398 -0.5542  0.4559  1.6657
14391SOL     OW44613   6.471   0.734  10.854 -0.0615 -0.0653 -0.2675
14391SOL    HW144614   6.543   0.687  10.897 -0.4661  1.5839  2.5163
14391SOL    HW244615   6.478   0.711  10.762  3.1170 -1.1392  0.1265
14392SOL     OW44616   5.897   4.948  11.696  0.2394 -0.4215 -0.1697
14392SOL    HW144617   5.858   4.976  11.779 -0.8426 -0.0601 -0.7823
14392SOL    HW244618   5.927   4.858  11.712 -0.3535 -0.5083  0.4818
14393SOL     OW44619   6.936   3.340   4.801 -0.6875  0.3873  0.4570
14393SOL    HW144620   6.929   3.260   4.750  1.1672 -0.4262  1.3772
14393SOL    HW244621   6.952   3.310   4.891 -1.8972  1.7903  1.1944
14394SOL     OW44622   1.538   5.856  11.065  0.1395  0.7987  0.0279
14394SOL    HW144623   1.603   5.816  11.007 -0.0722 -0.1818  0.4532
14394SOL    HW244624   1.454   5.824  11.032 -0.1166  1.6540 -0.2012
14395SOL     OW44625   1.965   6.436   5.755 -0.0402 -0.0559 -0.4109
14395SOL    HW144626   1.960   6.352   5.709  0.2663  0.0859 -0.7069
14395SOL    HW244627   2.019   6.418   5.832  1.2265  0.1951 -1.2178
14396SOL     OW44628   1.562   4.786   3.913  0.4727  0.2819  0.2301
14396SOL    HW144629   1.645   4.773   3.866  0.4003 -1.9081  0.6392
14396SOL    HW244630   1.495   4.758   3.851  0.0187  1.6021  0.0783
14397SOL     OW44631   0.209   4.555   3.679 -0.1449  0.6540 -0.4781
14397SOL    HW144632   0.245   4.485   3.732  0.2486 -0.1028 -1.6922
14397SOL    HW244633   0.284   4.611   3.657 -0.4318  1.3998  0.3632
14398SOL     OW44634   7.979   6.520   0.059 -0.0790  0.9238  0.0429
14398SOL    HW144635   7.907   6.463   0.033 -0.5040  0.1810  2.5836
14398SOL    HW244636   8.058   6.468   0.044 -0.4333 -0.2353  1.8315
14399SOL     OW44637   2.882   0.922   4.169 -0.2275  0.4306  0.1190
14399SOL    HW144638   2.804   0.975   4.183 -1.3456 -0.5295 -1.9673
14399SOL    HW244639   2.868   0.843   4.221 -2.3222 -1.2062 -2.5979
14400SOL     OW44640   5.960   5.738   8.618 -0.2943  0.2920  0.1232
14400SOL    HW144641   5.887   5.677   8.627  0.1540 -0.3369 -0.3855
14400SOL    HW244642   5.996   5.719   8.531  1.4840 -0.5658  0.9893
14401SOL     OW44643   3.536   5.560   6.510 -0.0709  0.1684 -0.2494
14401SOL    HW144644   3.491   5.588   6.430 -0.4183  0.2279 -0.0320
14401SOL    HW244645   3.511   5.469   6.521 -1.0267  0.5065  0.4751
14402SOL     OW44646   6.033   0.259   6.051 -0.1154  0.2496 -0.3808
14402SOL    HW144647   6.082   0.269   6.133 -0.4913 -2.2394  0.2387
14402SOL    HW244648   6.090   0.296   5.984  1.4431 -0.1625  0.6559
14403SOL     OW44649   1.136   6.541   9.448  0.1378 -0.0878 -0.0764
14403SOL    HW144650   1.100   6.459   9.413  1.6532 -0.7887 -0.0402
14403SOL    HW244651   1.175   6.584   9.372 -0.0548  0.2913  0.0372
14404SOL     OW44652   6.292   5.286  10.587  0.3653  0.4570  0.0153
14404SOL    HW144653   6.259   5.349  10.523  2.2508  0.2623 -1.2423
14404SOL    HW244654   6.302   5.205  10.537 -3.8379 -1.5754  2.0281
14405SOL     OW44655   5.585   6.022   6.865  0.0063  0.0975  0.0003
14405SOL    HW144656   5.626   5.997   6.948  1.3028 -0.7245 -0.8546
14405SOL    HW244657   5.494   5.997   6.875  0.2926 -0.6357  0.9300
14406SOL     OW44658   4.009   1.258   5.747 -0.5204 -0.3880  0.2967
14406SOL    HW144659   3.920   1.229   5.725 -0.3818 -0.4735 -0.1721
14406SOL    HW244660   4.028   1.327   5.683  0.1510 -1.1161 -0.3045
14407SOL     OW44661   4.953   2.716   1.590 -0.6740 -0.0083  0.8189
14407SOL    HW144662   4.969   2.751   1.503  0.8857  2.7175  2.0963
14407SOL    HW244663   4.890   2.645   1.575  0.4643 -0.5099 -2.6287
14408SOL     OW44664   7.396   7.675   4.950 -0.1519  0.3588 -0.2284
14408SOL    HW144665   7.450   7.715   4.881  0.1007  0.6591  0.1370
14408SOL    HW244666   7.432   7.587   4.961 -0.4879  0.1395 -0.7949
14409SOL     OW44667   1.597   2.982   9.958 -0.1162  0.0286  0.1018
14409SOL    HW144668   1.661   2.912   9.949  0.9762  0.7452  1.7793
14409SOL    HW244669   1.610   3.038   9.881  0.0306 -0.7953 -0.4755
14410SOL     OW44670   3.902   1.809   2.171  0.2210 -0.3343  0.8185
14410SOL    HW144671   3.969   1.782   2.108 -1.3662 -3.3396  0.2194
14410SOL    HW244672   3.832   1.845   2.117  0.1172 -0.0121  1.1655
14411SOL     OW44673   2.727   3.675  10.218 -0.4087  0.3402  0.1802
14411SOL    HW144674   2.761   3.588  10.238  1.3249  1.1089  0.8099
14411SOL    HW244675   2.638   3.675  10.252 -0.3352 -1.1020  0.4147
14412SOL     OW44676   3.274   2.195   6.544 -1.0575 -0.5653  0.0103
14412SOL    HW144677   3.209   2.186   6.474 -0.1821  2.8336 -1.4272
14412SOL    HW244678   3.357   2.205   6.498 -0.2381  0.2897  1.6044
14413SOL     OW44679   3.226   7.928   0.533  0.3816  0.0481 -0.2353
14413SOL    HW144680   3.194   8.018   0.539  0.7217  0.1494  0.1210
14413SOL    HW244681   3.320   7.938   0.516  0.3369 -0.2416 -0.6540
14414SOL     OW44682   6.318   5.231  11.041  0.3838 -0.0377 -0.4102
14414SOL    HW144683   6.287   5.274  11.121  0.3516  0.6277 -0.7698
14414SOL    HW244684   6.273   5.278  10.970  1.7548  0.5669 -0.9183
14415SOL     OW44685   5.839   4.944   2.846  0.2619  0.0150 -0.3838
14415SOL    HW144686   5.894   4.928   2.923 -2.0386 -2.4775  0.9293
14415SOL    HW244687   5.757   4.979   2.882 -1.3184 -2.3194 -1.4407
14416SOL     OW44688   4.430   1.345   4.865  0.3963  0.0853 -0.3894
14416SOL    HW144689   4.348   1.299   4.849 -0.3511  1.5496 -0.9384
14416SOL    HW244690   4.433   1.357   4.960 -0.9866  1.6618 -0.5063
14417SOL     OW44691   5.171   6.166   5.658  0.5539 -0.3791 -0.0679
14417SOL    HW144692   5.225   6.187   5.734 -1.3648 -0.0343  1.2811
14417SOL    HW244693   5.141   6.250   5.625  0.7527 -0.5693 -0.7575
14418SOL     OW44694   1.501   2.594   4.784  0.7974 -0.6195  0.2636
14418SOL    HW144695   1.540   2.508   4.767 -0.4337 -0.8717 -1.6580
14418SOL    HW244696   1.408   2.575   4.799  0.5391  0.3403 -0.0509
14419SOL     OW44697   5.345   4.739   9.066 -0.0111 -0.3278 -0.2029
14419SOL    HW144698   5.440   4.737   9.074  0.2216 -2.0601 -2.3645
14419SOL    HW244699   5.323   4.832   9.069  1.5864  0.0488  1.5314
14420SOL     OW44700   7.890   2.954   0.038  0.7173  0.0358  0.5011
14420SOL    HW144701   7.841   2.874   0.059  3.4932 -1.4862  1.6142
14420SOL    HW244702   7.887   3.004   0.120  0.3618  0.3291  0.3113
14421SOL     OW44703   7.419   1.269  10.048 -0.1217  0.1695  0.1864
14421SOL    HW144704   7.389   1.330  10.115  0.5832  1.5659 -0.7143
14421SOL    HW244705   7.367   1.292   9.970 -0.9099 -1.3975  0.2020
14422SOL     OW44706   1.286   5.227   6.339 -0.5848  0.2590 -0.0360
14422SOL    HW144707   1.205   5.189   6.305 -1.2039  1.5653 -0.0405
14422SOL    HW244708   1.275   5.321   6.331  1.2910  0.4717 -0.8755
14423SOL     OW44709   1.513   6.656   4.996 -0.1180  0.3164  0.1326
14423SOL    HW144710   1.501   6.669   5.090 -2.0047 -1.2839  0.1837
14423SOL    HW244711   1.424   6.640   4.963  0.4242  1.4132 -2.0335
14424SOL     OW44712   7.895   5.995   6.334 -0.0770 -0.2088  0.3858
14424SOL    HW144713   7.940   5.912   6.347 -1.1276 -0.8186  0.2388
14424SOL    HW244714   7.853   6.013   6.418  1.3306  0.9273  0.8787
14425SOL     OW44715   7.060   3.126   6.798 -0.8955  0.2420 -0.0136
14425SOL    HW144716   7.044   3.031   6.792 -1.5333  0.3928 -0.7647
14425SOL    HW244717   7.027   3.161   6.715  0.9588  0.9049 -0.5151
14426SOL     OW44718   7.420   7.221   0.482  0.2703 -0.3432  0.1647
14426SOL    HW144719   7.458   7.163   0.548  1.1884  0.0882  0.0267
14426SOL    HW244720   7.352   7.270   0.529  1.4006  0.4869  1.0022
14427SOL     OW44721   7.203   3.692  11.363 -0.0675 -0.3176  0.2447
14427SOL    HW144722   7.204   3.778  11.321 -0.9063 -0.1789  0.4899
14427SOL    HW244723   7.110   3.672  11.374  0.0635 -1.8495 -1.0264
14428SOL     OW44724   0.355   0.475   9.669  0.5238  0.5690 -0.2060
14428SOL    HW144725   0.398   0.391   9.657  2.7642  1.7962 -1.5575
14428SOL    HW244726   0.274   0.469   9.619  0.3267 -0.9709  0.2556
14429SOL     OW44727   6.469   2.810   7.521 -0.0405 -0.3295  0.4417
14429SOL    HW144728   6.456   2.730   7.572 -0.0811 -1.6894 -1.5807
14429SOL    HW244729   6.383   2.852   7.520 -0.9328 -2.0638 -1.2743
14430SOL     OW44730   2.771   7.066  11.471 -0.4262  0.3435  0.0245
14430SOL    HW144731   2.805   7.142  11.424 -1.4563  0.3396 -0.7569
14430SOL    HW244732   2.782   6.993  11.410 -1.2637  0.2375 -0.0139
14431SOL     OW44733   7.737   0.328  10.617  0.1523 -0.1443 -0.4961
14431SOL    HW144734   7.766   0.387  10.548 -0.6552 -0.6766 -1.3043
14431SOL    HW244735   7.661   0.283  10.581 -1.9715  1.4601  1.6957
14432SOL     OW44736   7.509   5.007   1.666  0.2448  0.2948 -0.1759
14432SOL    HW144737   7.455   5.077   1.630  0.6566 -0.3916 -2.2937
14432SOL    HW244738   7.597   5.024   1.631  0.5930 -0.6424  0.2120
14433SOL     OW44739   3.285   4.307   4.378 -0.9950 -0.3493 -0.3258
14433SOL    HW144740   3.317   4.298   4.288 -1.3002 -1.1125 -0.3662
14433SOL    HW244741   3.197   4.344   4.370 -0.7356  0.2907 -0.2945
14434SOL     OW44742   5.516   5.641   5.199  0.5834  0.2603 -0.3711
14434SOL    HW144743   5.479   5.729   5.193  0.4044  0.2367  0.3310
14434SOL    HW244744   5.516   5.622   5.293  1.3921 -0.1575 -0.4519
14435SOL     OW44745   3.434   7.415   5.238  0.2890  0.5439 -0.3621
14435SOL    HW144746   3.465   7.484   5.297  1.0943  0.2878 -0.4719
14435SOL    HW244747   3.489   7.423   5.161 -0.7108  0.8264 -1.0616
14436SOL     OW44748   4.564   0.892   0.504 -0.4505 -0.5653  0.4045
14436SOL    HW144749   4.547   0.912   0.412  0.6460  1.4139  0.5709
14436SOL    HW244750   4.507   0.951   0.553  0.0853 -0.5169  0.9797
14437SOL     OW44751   5.548   0.438   7.945 -0.0929  0.5930 -0.4595
14437SOL    HW144752   5.636   0.400   7.938  0.0277  0.6496  0.5202
14437SOL    HW244753   5.501   0.377   8.003  0.2603  2.1447  1.5789
14438SOL     OW44754   3.903   0.163   1.509 -0.4362 -0.3825 -0.5801
14438SOL    HW144755   3.994   0.150   1.482  0.2741 -1.0571  1.9037
14438SOL    HW244756   3.871   0.074   1.525 -0.7729 -0.0232  0.8140
14439SOL     OW44757   5.750   4.355  10.510 -0.2157 -0.3587  0.0029
14439SOL    HW144758   5.795   4.360  10.594 -0.0362  1.5926 -0.1675
14439SOL    HW244759   5.681   4.289  10.523  0.0961 -0.4190  1.5144
14440SOL     OW44760   4.956   4.653   7.842  0.5848 -0.0956  0.3060
14440SOL    HW144761   5.025   4.683   7.784  0.3393  0.1157  0.1219
14440SOL    HW244762   4.914   4.582   7.795 -0.5333  0.9987 -0.4103
14441SOL     OW44763   2.743   7.152   3.472 -0.1607 -0.1985  0.4717
14441SOL    HW144764   2.836   7.162   3.491 -0.4317 -0.3034  1.9333
14441SOL    HW244765   2.738   7.077   3.413  0.5243 -1.4327  1.9254
14442SOL     OW44766   2.627   0.909  10.410 -0.0119  0.0698  0.1170
14442SOL    HW144767   2.537   0.907  10.377  1.1357 -0.4082 -3.2960
14442SOL    HW244768   2.679   0.944  10.338  2.6982 -0.4982  1.6588
14443SOL     OW44769   6.804   5.835   4.555  0.5094  0.0407  0.3088
14443SOL    HW144770   6.744   5.802   4.488  0.1071 -0.1716  0.7743
14443SOL    HW244771   6.866   5.889   4.506  0.6423 -0.6715 -0.3477
14444SOL     OW44772   2.453   6.387   8.841  0.3121 -0.0264 -0.1099
14444SOL    HW144773   2.529   6.391   8.782  0.1234 -0.8903 -0.4364
14444SOL    HW244774   2.395   6.456   8.810 -0.6202 -1.6069 -2.1913
14445SOL     OW44775   5.498   5.232  11.652 -0.1914 -0.0990 -0.0457
14445SOL    HW144776   5.480   5.169  11.721  1.7533  0.2898  0.8990
14445SOL    HW244777   5.522   5.312  11.699  1.7695  0.0058 -1.1131
14446SOL     OW44778   4.588   4.414  10.750 -0.6261  0.1960 -0.5074
14446SOL    HW144779   4.492   4.410  10.756 -0.5441  0.1738  1.3060
14446SOL    HW244780   4.619   4.353  10.817  0.6913 -0.7293 -1.8995
14447SOL     OW44781   5.821   6.787   7.455  0.2171  0.4090 -0.5832
14447SOL    HW144782   5.873   6.867   7.449 -1.2111  1.3879 -0.5838
14447SOL    HW244783   5.794   6.783   7.547 -1.7818  1.3603 -1.0591
14448SOL     OW44784   6.435   6.067   7.275  0.3124  0.6510  0.1128
14448SOL    HW144785   6.512   6.014   7.259  0.9310  1.3721  0.6060
14448SOL    HW244786   6.417   6.110   7.192 -0.5455 -0.7324 -0.4579
14449SOL     OW44787   1.827   5.523  10.749 -0.4632  0.1582  0.7257
14449SOL    HW144788   1.825   5.480  10.835 -2.0004 -0.1358  0.5728
14449SOL    HW244789   1.810   5.452  10.687 -2.2618  0.8175  0.4104
14450SOL     OW44790   5.030   2.358   4.911  0.3175 -0.0603 -0.1098
14450SOL    HW144791   5.069   2.409   4.840  0.7404  0.4197  0.4664
14450SOL    HW244792   5.098   2.295   4.935 -0.6354 -1.7867 -1.6685
14451SOL     OW44793   7.537   6.621   4.806  0.0911  0.0167  0.0083
14451SOL    HW144794   7.450   6.649   4.833 -0.7481  0.5420 -2.8980
14451SOL    HW244795   7.526   6.528   4.784  0.0933  0.2175 -0.8824
14452SOL     OW44796   0.133   4.005   3.214  0.3378 -0.1842 -0.1946
14452SOL    HW144797   0.153   4.083   3.162  1.3625 -0.9871 -1.0648
14452SOL    HW244798   0.111   3.938   3.149 -2.4911 -0.1590  0.5952
14453SOL     OW44799   4.580   7.155  10.829 -0.2708  0.1306  0.1279
14453SOL    HW144800   4.660   7.114  10.796 -0.0869 -0.2394  0.9827
14453SOL    HW244801   4.605   7.189  10.915 -0.8592  0.5971  0.1177
14454SOL     OW44802   6.626   2.701   6.760  1.2642  0.4628 -0.1368
14454SOL    HW144803   6.593   2.759   6.691 -0.7540  1.6093  1.6975
14454SOL    HW244804   6.712   2.674   6.728  0.9337  1.8902 -2.5374
14455SOL     OW44805   7.641   0.269   5.295 -0.9243 -0.1827  0.0976
14455SOL    HW144806   7.637   0.181   5.331  0.5245 -0.3084 -0.0172
14455SOL    HW244807   7.652   0.326   5.371  1.2068 -0.3766 -0.0003
14456SOL     OW44808   1.510   6.508   2.515 -0.5950 -0.3735  0.1282
14456SOL    HW144809   1.540   6.599   2.519 -1.1776 -0.1692 -0.1079
14456SOL    HW244810   1.586   6.459   2.482  0.5299 -0.3438  2.4469
14457SOL     OW44811   3.953   3.276   2.779 -0.1251  0.1531  0.3677
14457SOL    HW144812   3.869   3.287   2.734 -0.0329  0.2999  0.2279
14457SOL    HW244813   4.018   3.301   2.713  0.0578 -0.5473  0.2804
14458SOL     OW44814   2.193   6.694   1.002  0.5430 -0.2759  0.7582
14458SOL    HW144815   2.097   6.699   1.002  0.5781  0.4448  0.4028
14458SOL    HW244816   2.222   6.785   1.000  1.2334 -0.4978  0.0919
14459SOL     OW44817   5.964   6.528   1.995  0.5339 -0.0071  0.3822
14459SOL    HW144818   5.994   6.551   1.907 -1.5955  0.3271 -0.3221
14459SOL    HW244819   6.012   6.586   2.053  0.3390  1.3786 -0.7784
14460SOL     OW44820   5.640   3.971   2.608  0.0123 -0.3129  0.0068
14460SOL    HW144821   5.624   3.930   2.523  1.4841 -1.3430  0.1876
14460SOL    HW244822   5.623   3.901   2.671  2.3256 -0.6543  0.3381
14461SOL     OW44823   3.607   1.600   0.157 -0.4467  0.2109 -0.5408
14461SOL    HW144824   3.686   1.578   0.108 -0.1380 -0.7930  0.3755
14461SOL    HW244825   3.609   1.695   0.165  0.5027  0.2229 -0.8042
14462SOL     OW44826   1.215   5.916   5.402  0.2662 -0.2630  0.5141
14462SOL    HW144827   1.216   5.910   5.306 -1.8145 -0.3194  0.4431
14462SOL    HW244828   1.139   5.971   5.422  0.8001 -0.0616  2.1379
14463SOL     OW44829   1.914   5.533   7.387 -0.1852 -0.4550 -0.3987
14463SOL    HW144830   1.843   5.509   7.446 -0.8467  0.7744 -0.6536
14463SOL    HW244831   1.976   5.461   7.393 -1.0428 -1.1429  0.4969
14464SOL     OW44832   4.180   7.355   0.607 -0.5990  0.1601  0.4646
14464SOL    HW144833   4.112   7.385   0.668 -1.3360 -0.4628 -0.0261
14464SOL    HW244834   4.131   7.315   0.535  0.2016  1.6885 -0.9962
14465SOL     OW44835   4.041   2.726   2.676 -0.0271  0.2120 -0.4330
14465SOL    HW144836   3.966   2.777   2.705 -0.2156  0.2904 -1.0550
14465SOL    HW244837   4.108   2.791   2.655  1.2138  0.1084  2.6743
14466SOL     OW44838   4.213   7.780   8.413 -0.2535  0.0399  0.0821
14466SOL    HW144839   4.254   7.726   8.480 -1.5801  0.0061  0.8884
14466SOL    HW244840   4.124   7.794   8.444 -0.4506  1.2653 -0.9517
14467SOL     OW44841   5.005   1.337   2.522 -0.0166  0.1904  0.0209
14467SOL    HW144842   4.916   1.327   2.489 -0.8805  1.8460  1.7132
14467SOL    HW244843   5.002   1.301   2.610  1.1557 -0.2307 -0.0936
14468SOL     OW44844   3.282   1.208  12.441  0.3130  0.5465  0.0770
14468SOL    HW144845   3.299   1.168  12.527 -1.6212 -1.4518 -0.3735
14468SOL    HW244846   3.357   1.182  12.387  0.4822 -0.0695  0.5904
14469SOL     OW44847   4.827   2.043   9.601 -0.0573 -0.1121 -0.1875
14469SOL    HW144848   4.847   2.122   9.551 -0.8315 -0.3585 -0.9318
14469SOL    HW244849   4.735   2.025   9.579 -0.7201  0.2753  2.0625
14470SOL     OW44850   4.450   0.020   7.494 -0.2411 -0.2688  0.3103
14470SOL    HW144851   4.427  -0.073   7.500 -1.9696  0.0982 -0.2592
14470SOL    HW244852   4.460   0.048   7.585 -1.3611 -0.6314  0.5569
14471SOL     OW44853   5.107   3.906   8.434  0.0909  0.4783 -0.4212
14471SOL    HW144854   5.181   3.850   8.412 -1.2285 -1.2280 -0.7155
14471SOL    HW244855   5.115   3.920   8.529  0.3007 -0.4698 -0.2849
14472SOL     OW44856   3.835   3.478   0.650 -0.2432 -0.0679  0.4977
14472SOL    HW144857   3.808   3.551   0.593  0.4617 -0.4484 -0.3499
14472SOL    HW244858   3.765   3.471   0.715 -0.0936  1.6725  0.8921
14473SOL     OW44859   0.822   6.573   3.922 -0.4352 -0.3693 -0.1230
14473SOL    HW144860   0.800   6.600   3.833 -1.4116  0.3991  0.3343
14473SOL    HW244861   0.750   6.517   3.949  0.5012 -1.6912 -0.2598
14474SOL     OW44862   4.158   4.407   9.704  0.0490  0.0703 -0.1373
14474SOL    HW144863   4.072   4.385   9.669  0.4060 -0.8643 -0.4741
14474SOL    HW244864   4.164   4.502   9.698 -1.8278  0.3860  1.9625
14475SOL     OW44865   4.391   7.751   1.178  0.0649  0.2328  0.1430
14475SOL    HW144866   4.309   7.793   1.152 -0.5045 -1.9605 -1.9160
14475SOL    HW244867   4.440   7.742   1.096  0.5843 -2.1308  0.6528
14476SOL     OW44868   7.405   7.422   7.088  0.1654 -0.7802 -0.1339
14476SOL    HW144869   7.319   7.463   7.077  0.6710  0.5348  0.6254
14476SOL    HW244870   7.460   7.464   7.022  0.3046 -1.4268 -0.4375
14477SOL     OW44871   5.055   4.720   3.254  0.1078 -0.3727  0.0063
14477SOL    HW144872   5.125   4.743   3.315  0.0230 -1.5988  0.5943
14477SOL    HW244873   5.073   4.772   3.176 -1.0852  3.0812  1.8000
14478SOL     OW44874   0.337   6.095   6.212 -0.0315  0.3724  0.6056
14478SOL    HW144875   0.367   6.178   6.174  1.6179 -0.3118  0.3024
14478SOL    HW244876   0.334   6.035   6.138 -0.1371 -0.1120  1.0008
14479SOL     OW44877   5.705   1.043   8.613 -0.2575  0.0976  0.0638
14479SOL    HW144878   5.766   1.009   8.678  1.4429  1.0387 -0.9892
14479SOL    HW244879   5.720   0.991   8.535 -0.1486  0.9244 -0.4823
14480SOL     OW44880   4.082   0.511  10.128 -0.0225  0.2658 -0.2800
14480SOL    HW144881   4.002   0.524  10.179  0.8180 -1.2287  1.5382
14480SOL    HW244882   4.062   0.436  10.071  0.3510 -0.7824  0.9108
14481SOL     OW44883   6.130   3.438   3.229  0.6480 -0.0639  0.3294
14481SOL    HW144884   6.051   3.482   3.260 -0.1005 -0.3248 -1.1380
14481SOL    HW244885   6.121   3.435   3.134  2.3527 -0.2577  0.1437
14482SOL     OW44886   6.885   7.806  11.271 -0.0897  0.2930  0.0763
14482SOL    HW144887   6.934   7.768  11.344 -0.5857  2.1071  1.4309
14482SOL    HW244888   6.810   7.747  11.260  0.1919 -0.2103  0.7868
14483SOL     OW44889   3.759   6.060   6.772 -0.1172 -0.0171  0.1308
14483SOL    HW144890   3.718   5.993   6.718 -2.1458  0.9824  0.3457
14483SOL    HW244891   3.831   6.093   6.718 -0.0889 -1.2312 -0.6162
14484SOL     OW44892   2.395   5.454   0.423  0.6109  0.5880 -0.5420
14484SOL    HW144893   2.408   5.523   0.488  1.0690 -0.2764  0.3301
14484SOL    HW244894   2.308   5.419   0.441  1.5729 -1.1470  1.1653
14485SOL     OW44895   7.376   5.099  10.965 -0.0490 -0.0575 -0.4022
14485SOL    HW144896   7.296   5.146  10.987 -0.0487  0.2526 -1.0152
14485SOL    HW244897   7.380   5.104  10.869  0.5592 -0.3071 -0.3918
14486SOL     OW44898   7.916   7.250   0.191 -0.2934 -0.0326 -0.3119
14486SOL    HW144899   7.820   7.245   0.199 -0.2887  0.0500 -0.2087
14486SOL    HW244900   7.932   7.252   0.097 -0.3924 -0.0780 -0.3300
14487SOL     OW44901   0.969   3.180   5.044  0.7574 -0.1177  0.3127
14487SOL    HW144902   0.889   3.163   4.994  0.1080  2.1671  0.4762
14487SOL    HW244903   1.022   3.101   5.031 -0.9199 -1.1178 -0.9379
14488SOL     OW44904   4.229   5.420  11.814 -0.3164  0.2980 -0.5139
14488SOL    HW144905   4.231   5.503  11.767 -0.9807  0.1656 -0.7811
14488SOL    HW244906   4.247   5.445  11.905 -1.7393  0.9069 -0.3716
14489SOL     OW44907   7.218   5.999   9.294  0.6421 -0.0402 -0.1024
14489SOL    HW144908   7.292   5.983   9.352  0.4686  0.0110  0.1344
14489SOL    HW244909   7.242   5.956   9.212  0.8739 -0.1403  0.0173
14490SOL     OW44910   2.116   3.260   6.008  0.5807  0.1182 -0.2468
14490SOL    HW144911   2.113   3.241   6.102  0.6564  3.7816  0.6469
14490SOL    HW244912   2.039   3.215   5.973 -0.4827  0.1098  1.9053
14491SOL     OW44913   5.200   2.642   6.360 -0.3936 -0.5273 -0.3177
14491SOL    HW144914   5.193   2.566   6.302 -1.5075 -0.7268  0.0598
14491SOL    HW244915   5.110   2.664   6.382 -0.0279  0.0905  0.6445
14492SOL     OW44916   4.986   5.216   7.137  0.2644  0.1951  0.1708
14492SOL    HW144917   4.925   5.151   7.172  1.3526 -0.7041  0.4566
14492SOL    HW244918   4.942   5.300   7.150 -1.1908 -0.4803 -0.2587
14493SOL     OW44919   6.288   1.763   0.954 -0.7813 -0.0055  0.1225
14493SOL    HW144920   6.297   1.765   0.858 -1.2277 -0.4880  0.0631
14493SOL    HW244921   6.292   1.855   0.980 -0.0601  0.0859 -0.2991
14494SOL     OW44922   1.016   5.819   6.339 -0.3319 -0.5398  0.7222
14494SOL    HW144923   1.048   5.842   6.252 -0.9499  1.1285  0.8979
14494SOL    HW244924   1.042   5.727   6.351  1.5673 -0.1931 -0.3800
14495SOL     OW44925   3.648   5.535   5.988  0.4161  0.2208 -0.3081
14495SOL    HW144926   3.729   5.506   6.031 -0.6051  1.2234  2.4766
14495SOL    HW244927   3.586   5.464   6.002  0.2001  0.3517 -0.5867
14496SOL     OW44928   3.534   2.148   5.654 -1.1065  0.0846 -0.3607
14496SOL    HW144929   3.474   2.099   5.710 -1.5240  1.3327  0.3377
14496SOL    HW244930   3.621   2.129   5.690 -1.3934  1.1148  0.9571
14497SOL     OW44931   7.543   0.769   2.451 -0.0621 -0.1892 -0.2387
14497SOL    HW144932   7.609   0.820   2.404  2.3575 -0.4057  2.6900
14497SOL    HW244933   7.544   0.683   2.408  1.2819 -0.0729 -0.4736
14498SOL     OW44934   5.685   6.065   8.632 -0.0456 -0.7257 -0.4506
14498SOL    HW144935   5.634   6.106   8.562  1.6029  0.6378 -0.9261
14498SOL    HW244936   5.772   6.054   8.594  0.5558 -1.1041  0.9914
14499SOL     OW44937   1.088   0.276   3.014 -0.2540  0.2630 -0.3231
14499SOL    HW144938   1.041   0.359   3.008  0.3851  0.5254 -2.6044
14499SOL    HW244939   1.170   0.299   3.058 -0.5149  0.6378 -0.0274
14500SOL     OW44940   5.187   6.714  11.227 -0.2732 -0.2469 -0.1272
14500SOL    HW144941   5.236   6.751  11.300  0.8969 -0.9849 -0.5112
14500SOL    HW244942   5.231   6.747  11.149 -1.4458  0.4506 -0.5169
14501SOL     OW44943   0.310   2.164   9.457  0.1868  0.1905 -0.3509
14501SOL    HW144944   0.383   2.181   9.397  0.7091  1.8287  0.6881
14501SOL    HW244945   0.338   2.088   9.508  1.3196  0.9453  0.2012
14502SOL     OW44946   1.189   2.683   6.221 -0.2580 -0.3023 -0.3450
14502SOL    HW144947   1.168   2.735   6.144  0.1938  0.7313  0.2068
14502SOL    HW244948   1.284   2.683   6.226 -0.2803  0.9604  1.0365
14503SOL     OW44949   5.189   5.787  10.483 -0.5531  0.6632 -0.3636
14503SOL    HW144950   5.227   5.806  10.569 -1.6938  0.1217  0.2810
14503SOL    HW244951   5.264   5.766  10.427  0.3336  2.3482  0.1250
14504SOL     OW44952   7.555   7.089   2.870  0.7041 -0.6362 -0.4139
14504SOL    HW144953   7.636   7.048   2.839  1.1210 -0.2249  0.1191
14504SOL    HW244954   7.528   7.036   2.945  1.4600  0.2893  0.5230
14505SOL     OW44955   2.574   5.519   7.568 -0.4094  0.3014 -0.1198
14505SOL    HW144956   2.666   5.546   7.574  0.0344 -0.8505 -1.3277
14505SOL    HW244957   2.526   5.601   7.563  0.4718  0.9500  1.2763
14506SOL     OW44958   2.390   0.760   9.183  0.1905 -0.1267  0.2566
14506SOL    HW144959   2.415   0.786   9.272 -0.0019  2.3669 -0.3434
14506SOL    HW244960   2.315   0.817   9.162  0.8194  0.0005 -1.8267
14507SOL     OW44961   5.986   4.690   3.081 -0.5944  0.0955 -0.4015
14507SOL    HW144962   5.895   4.715   3.089 -0.5248  0.3951 -0.5262
14507SOL    HW244963   5.983   4.600   3.047 -0.8428 -0.0734  0.0607
14508SOL     OW44964   2.711   6.151   7.374  0.5551  0.6559 -0.6292
14508SOL    HW144965   2.796   6.118   7.344  0.8238  1.1820 -0.4675
14508SOL    HW244966   2.647   6.099   7.326  0.9638 -0.1016 -0.3699
14509SOL     OW44967   0.810   7.745   3.406 -0.1608  0.1661 -0.1616
14509SOL    HW144968   0.796   7.840   3.402 -0.5863  0.1068 -0.2078
14509SOL    HW244969   0.728   7.711   3.443 -0.7536 -0.3504 -1.8418
14510SOL     OW44970   3.848   6.675   3.245 -0.0164 -0.1580 -0.0161
14510SOL    HW144971   3.901   6.681   3.165 -1.2222 -1.0242 -0.9132
14510SOL    HW244972   3.905   6.634   3.309  0.9142  0.3903 -0.4738
14511SOL     OW44973   6.234   1.073  11.385  0.3072  0.1341 -0.5268
14511SOL    HW144974   6.209   1.003  11.445 -0.1513 -0.1747 -1.0775
14511SOL    HW244975   6.181   1.059  11.307  0.8166  0.6009 -0.9698
14512SOL     OW44976   5.450   5.648   0.423 -0.2458 -0.2250  0.4453
14512SOL    HW144977   5.546   5.648   0.429 -0.2473 -0.9463  0.5846
14512SOL    HW244978   5.424   5.736   0.448  0.5517  0.9626 -2.4510
14513SOL     OW44979   3.660   1.667   7.746 -0.1902  0.0748 -0.2217
14513SOL    HW144980   3.679   1.575   7.728  0.2704 -0.3658  2.1633
14513SOL    HW244981   3.745   1.709   7.749 -0.3964  0.5871 -1.2184
14514SOL     OW44982   2.242   2.279  11.600 -0.1338 -0.1923  0.0846
14514SOL    HW144983   2.284   2.210  11.549 -0.4954 -0.6133  0.3618
14514SOL    HW244984   2.256   2.254  11.691 -0.4149  0.0136  0.1851
14515SOL     OW44985   1.770   2.677   3.184 -0.2312  0.3749  0.0228
14515SOL    HW144986   1.707   2.712   3.247 -1.7657 -0.2741 -1.1008
14515SOL    HW244987   1.799   2.753   3.134 -1.9753  0.4062 -1.0263
14516SOL     OW44988   6.820   6.244  12.181  0.1024 -0.4643 -0.2005
14516SOL    HW144989   6.731   6.265  12.153  0.2209  1.7337  0.9160
14516SOL    HW244990   6.812   6.216  12.272  0.5890  0.3039  0.0915
14517SOL     OW44991   1.298   6.581   8.330 -0.5804  0.1067 -0.2930
14517SOL    HW144992   1.384   6.592   8.289 -0.4559 -0.7677 -0.2996
14517SOL    HW244993   1.263   6.501   8.290 -0.9502 -0.1212  0.4642
14518SOL     OW44994   2.259   1.975   1.593  0.0524  0.3328 -0.1317
14518SOL    HW144995   2.168   1.951   1.606  0.1767 -1.5862 -2.2316
14518SOL    HW244996   2.256   2.048   1.531 -0.0549 -0.2640 -0.8408
14519SOL     OW44997   7.082   3.164   5.340  0.1073  0.0168  0.1601
14519SOL    HW144998   7.051   3.085   5.384  1.2695 -0.7543 -0.3181
14519SOL    HW244999   7.168   3.181   5.379  1.3390 -0.9007 -1.9445
14520SOL     OW45000   2.211   1.873   6.500 -0.3175 -0.3624  0.2618
14520SOL    HW145001   2.122   1.838   6.498 -0.0343 -1.2681  1.9337
14520SOL    HW245002   2.238   1.874   6.408 -1.8349 -0.6183 -0.2165
14521SOL     OW45003   4.224   6.520   3.804  0.4149  0.0643  0.1049
14521SOL    HW145004   4.173   6.486   3.731  0.2055  0.4938  0.0495
14521SOL    HW245005   4.160   6.559   3.863  0.7107  0.9591 -0.1552
14522SOL     OW45006   4.476   3.747   4.313  0.8770  0.0360  0.0943
14522SOL    HW145007   4.454   3.810   4.381  1.6657  1.6321 -1.0715
14522SOL    HW245008   4.392   3.728   4.270  0.5703 -0.0411  0.7123
14523SOL     OW45009   4.306   5.546   6.115  0.1027  0.0099  0.1984
14523SOL    HW145010   4.315   5.499   6.033  1.0632  1.5248 -0.6183
14523SOL    HW245011   4.213   5.569   6.121 -0.4163 -2.0373  0.6986
14524SOL     OW45012   0.368   7.845   6.614 -0.3846 -0.4055  0.0408
14524SOL    HW145013   0.399   7.809   6.531 -1.2970 -2.2861  0.4586
14524SOL    HW245014   0.438   7.828   6.676 -0.2212 -0.1555 -0.0763
14525SOL     OW45015   7.221   0.976  10.807 -0.1056  0.3941 -0.1716
14525SOL    HW145016   7.133   0.957  10.775  0.1062 -1.3675  0.2164
14525SOL    HW245017   7.263   1.021  10.734 -0.5612 -0.9397 -1.3073
14526SOL     OW45018   1.553   0.931  11.358  0.3725  0.4719 -0.0184
14526SOL    HW145019   1.611   1.007  11.359  1.5431 -0.3925  0.8408
14526SOL    HW245020   1.575   0.885  11.277  0.8922  0.1612  0.2917
14527SOL     OW45021   3.836   0.858   0.156 -0.4468  0.7078 -0.3069
14527SOL    HW145022   3.780   0.927   0.191  2.9566  2.7547  1.6647
14527SOL    HW245023   3.889   0.903   0.089 -1.8983 -1.4693 -3.1206
14528SOL     OW45024   5.677   7.667   5.678  0.2096 -0.1769  0.4209
14528SOL    HW145025   5.661   7.580   5.642 -0.4345  0.6025 -1.2573
14528SOL    HW245026   5.754   7.655   5.735  0.2714 -1.7774  0.0574
14529SOL     OW45027   5.271   5.567   7.085 -0.1018  0.1574 -0.0641
14529SOL    HW145028   5.302   5.542   6.998 -0.6130 -1.2763  0.1378
14529SOL    HW245029   5.296   5.493   7.141 -0.8996  0.4906  0.7566
14530SOL     OW45030   1.244   3.800   3.257  0.1883  0.0018 -0.2727
14530SOL    HW145031   1.219   3.708   3.245 -0.6797  0.4330 -2.0825
14530SOL    HW245032   1.195   3.828   3.334 -1.3435 -0.4619 -1.0316
14531SOL     OW45033   3.532   2.611   3.188  0.0131  0.0924  0.3779
14531SOL    HW145034   3.603   2.603   3.252  0.4413  0.2179 -0.0756
14531SOL    HW245035   3.453   2.623   3.241  0.2023 -0.9203  0.9237
14532SOL     OW45036   7.138   4.019  12.057 -0.3205 -0.2689 -0.6611
14532SOL    HW145037   7.153   3.946  11.997  1.2838 -1.1671  0.7680
14532SOL    HW245038   7.118   3.977  12.141 -1.7832  0.9591 -0.3546
14533SOL     OW45039   3.976   0.600   9.402  0.5343 -0.1252 -0.2356
14533SOL    HW145040   4.015   0.624   9.486  0.4374 -1.2279  0.1522
14533SOL    HW245041   3.882   0.603   9.418  0.5192 -1.0160 -0.0743
14534SOL     OW45042   5.519   7.788   7.853 -0.4848  0.0597  0.3182
14534SOL    HW145043   5.425   7.774   7.868 -0.5382 -1.2799 -0.9856
14534SOL    HW245044   5.523   7.851   7.781 -0.4357 -0.5418 -0.2242
14535SOL     OW45045   7.946   6.920   2.179 -0.4500 -0.0378  0.1803
14535SOL    HW145046   7.973   6.829   2.167  1.2362  0.5897 -1.2371
14535SOL    HW245047   7.979   6.944   2.265 -0.7241 -0.6978  0.4737
14536SOL     OW45048   3.248   7.404   0.653  0.8050 -0.0478  0.4800
14536SOL    HW145049   3.272   7.455   0.576  1.0471  0.3883  0.8364
14536SOL    HW245050   3.167   7.360   0.629 -0.1739  1.5908  0.6304
14537SOL     OW45051   6.646   3.777   8.709 -0.4123 -0.7412 -0.5726
14537SOL    HW145052   6.610   3.864   8.726  1.1427 -0.2705  0.4751
14537SOL    HW245053   6.675   3.745   8.795 -2.2292 -2.9254 -0.6748
14538SOL     OW45054   1.720   1.666   7.088 -0.5368 -0.2287 -0.4757
14538SOL    HW145055   1.800   1.627   7.052  0.4862  0.1204  1.2940
14538SOL    HW245056   1.651   1.603   7.066  0.5770 -1.5871 -0.2778
14539SOL     OW45057   0.768   3.043   2.198  0.5697 -0.1602 -0.2544
14539SOL    HW145058   0.806   3.119   2.242  0.6684  0.8393 -1.9948
14539SOL    HW245059   0.711   3.080   2.131  1.0896 -1.5997 -1.5485
14540SOL     OW45060   5.923   2.570   4.390  0.3503  0.4837 -0.0857
14540SOL    HW145061   5.957   2.496   4.440  1.1605  0.0981 -1.1776
14540SOL    HW245062   5.947   2.551   4.299  1.5041  2.5666 -0.2731
14541SOL     OW45063   1.712   0.112   7.409  0.3062 -0.3528 -0.3970
14541SOL    HW145064   1.800   0.132   7.377  0.4065  1.1035  0.6891
14541SOL    HW245065   1.724   0.097   7.503 -0.1860 -3.1482 -0.7051
14542SOL     OW45066   5.807   4.986   9.150 -0.7623 -0.2037  0.1555
14542SOL    HW145067   5.825   4.960   9.240 -0.3626  0.2074  0.1979
14542SOL    HW245068   5.838   4.913   9.097 -0.0419 -0.0058  0.2976
14543SOL     OW45069   4.620   6.751  10.359 -0.2953 -0.3563  0.2785
14543SOL    HW145070   4.667   6.676  10.321  1.2072  0.5051  0.3524
14543SOL    HW245071   4.635   6.823  10.298 -1.4299 -0.0043  0.3888
14544SOL     OW45072   7.204   1.756   5.129 -0.5283  0.2470 -0.8274
14544SOL    HW145073   7.191   1.680   5.072  0.2840  0.2895 -1.0796
14544SOL    HW245074   7.168   1.830   5.079 -2.2531 -0.1002 -0.1581
14545SOL     OW45075   6.096   3.027   8.313  0.3984  0.4776 -0.0591
14545SOL    HW145076   6.028   3.094   8.320 -0.9309 -0.8824  0.6259
14545SOL    HW245077   6.087   2.992   8.224  1.2619  1.3317 -0.5073
14546SOL     OW45078   2.118   1.872  11.892 -0.1059 -0.4537  0.2671
14546SOL    HW145079   2.170   1.855  11.814 -0.4927  2.0280 -0.6201
14546SOL    HW245080   2.180   1.909  11.955 -0.2939  0.1656  0.1005
14547SOL     OW45081   4.964   6.633   6.315  0.1291 -0.0639 -0.2361
14547SOL    HW145082   4.890   6.668   6.266 -0.6372  1.9428  2.1102
14547SOL    HW245083   4.944   6.540   6.326 -0.0889 -0.3825 -2.8119
14548SOL     OW45084   0.455   7.187   0.548  0.3288 -0.1164  0.2750
14548SOL    HW145085   0.403   7.116   0.586 -0.9202  0.5932 -0.0566
14548SOL    HW245086   0.426   7.265   0.594 -1.2632  0.7850 -2.0912
14549SOL     OW45087   6.873   6.473   8.157  0.0018  0.2517 -0.2102
14549SOL    HW145088   6.829   6.558   8.144  0.6530  0.9309  1.7283
14549SOL    HW245089   6.878   6.436   8.069  0.8314  2.7995 -1.3274
14550SOL     OW45090   6.052   6.348   0.711 -0.2573 -0.2600 -0.2317
14550SOL    HW145091   6.037   6.260   0.677  0.7777 -1.1254  1.4098
14550SOL    HW245092   6.145   6.364   0.697  0.1731 -0.5768  1.8698
14551SOL     OW45093   6.277   1.947   3.160  0.0266  0.0935 -0.1916
14551SOL    HW145094   6.331   2.013   3.116 -0.2446  0.5345  0.1230
14551SOL    HW245095   6.190   1.959   3.123  0.0603 -0.3844 -0.4436
14552SOL     OW45096   5.706   0.205   0.264  0.0150  0.0847  0.2868
14552SOL    HW145097   5.612   0.194   0.251 -0.2285  2.5060 -0.4487
14552SOL    HW245098   5.724   0.294   0.233  2.1717  0.4872  2.4391
14553SOL     OW45099   4.588   7.627   2.558  0.2414 -0.1729  0.0760
14553SOL    HW145100   4.680   7.633   2.531 -0.1120 -0.6367 -1.3379
14553SOL    HW245101   4.580   7.539   2.595  0.7010  0.4206  1.6527
14554SOL     OW45102   1.819   5.804   5.818  0.0110 -0.4962 -0.3875
14554SOL    HW145103   1.757   5.775   5.885 -0.7845  0.7065 -0.5538
14554SOL    HW245104   1.763   5.833   5.745  0.7423  0.8618 -0.4440
14555SOL     OW45105   0.819   5.777   9.860 -0.5995  0.3239  0.6375
14555SOL    HW145106   0.749   5.806   9.918 -1.2910  1.5971 -0.7651
14555SOL    HW245107   0.777   5.765   9.775  0.7445  0.4321 -0.0715
14556SOL     OW45108   6.202   7.677   3.481 -0.4343  0.5263 -0.1458
14556SOL    HW145109   6.147   7.599   3.492 -0.5284  0.2688 -2.1179
14556SOL    HW245110   6.291   7.645   3.495 -0.5180  0.1786 -0.3846
14557SOL     OW45111   2.507   2.366  11.569 -0.1282  0.1531  0.2034
14557SOL    HW145112   2.518   2.299  11.501  2.3245  0.0140  0.6579
14557SOL    HW245113   2.413   2.367  11.586 -0.4613 -1.8273 -1.1651
14558SOL     OW45114   5.114   1.457   1.858  0.2694 -0.1375 -0.1403
14558SOL    HW145115   5.118   1.449   1.953  0.0603 -1.3306 -0.2195
14558SOL    HW245116   5.021   1.468   1.839  0.4896  2.3649 -0.0769
14559SOL     OW45117   7.788   2.354  11.015 -0.3637  0.1634  0.6174
14559SOL    HW145118   7.804   2.317  10.928 -0.0048  0.2611  0.6397
14559SOL    HW245119   7.717   2.301  11.050 -0.9503  0.5335  0.0180
14560SOL     OW45120   1.297   5.667   6.652 -0.0146 -0.4868 -0.5907
14560SOL    HW145121   1.303   5.723   6.729 -0.8308  0.0408 -0.9038
14560SOL    HW245122   1.306   5.578   6.687 -0.0655 -0.2396  0.0688
14561SOL     OW45123   5.632   6.337   8.766 -0.0570 -0.1106 -0.7310
14561SOL    HW145124   5.628   6.318   8.860 -2.5406  1.2610 -0.4354
14561SOL    HW245125   5.663   6.257   8.726  1.7866 -0.5050  1.2926
14562SOL     OW45126   2.224   5.862  11.588  0.1472 -0.1440  0.1744
14562SOL    HW145127   2.238   5.802  11.515  1.2825  1.0358 -0.6231
14562SOL    HW245128   2.129   5.862  11.601 -0.0027 -0.9547 -0.7967
14563SOL     OW45129   0.273   5.852  12.378 -0.7117 -0.3048 -0.4537
14563SOL    HW145130   0.365   5.827  12.390 -0.3732 -0.0100 -2.1534
14563SOL    HW245131   0.258   5.920  12.444  0.4136 -0.0842 -0.4011
14564SOL     OW45132   7.504   2.696   6.311 -0.2722 -0.6656 -0.2129
14564SOL    HW145133   7.527   2.630   6.246  0.1437 -0.8061  0.0747
14564SOL    HW245134   7.588   2.726   6.346 -0.2709  1.8464 -2.0989
14565SOL     OW45135   5.878   7.247   4.961  0.3382  0.0574 -0.5827
14565SOL    HW145136   5.815   7.178   4.983  1.7257 -1.3719 -0.8523
14565SOL    HW245137   5.826   7.326   4.952 -1.7125 -1.3871 -2.5901
14566SOL     OW45138   1.892   0.795   5.917  0.2226 -0.1866 -0.3226
14566SOL    HW145139   1.910   0.751   5.834  0.7786  0.0830 -0.3532
14566SOL    HW245140   1.879   0.724   5.979 -1.1814 -0.4039 -0.8239
14567SOL     OW45141   3.649   1.035   3.392  0.1920 -0.6376 -0.0691
14567SOL    HW145142   3.620   1.117   3.430 -0.3239 -0.6037 -0.5131
14567SOL    HW245143   3.738   1.022   3.425  0.6663  0.6146 -0.7927
14568SOL     OW45144   1.774   5.333   6.203  0.4536  0.0250  0.5035
14568SOL    HW145145   1.834   5.284   6.146 -0.1690  0.3825 -0.4992
14568SOL    HW245146   1.809   5.422   6.203 -0.5622  0.4751 -0.8876
14569SOL     OW45147   7.656   7.797   2.520 -0.3183 -0.0625  0.1973
14569SOL    HW145148   7.703   7.732   2.574  1.1095  2.5439  2.3966
14569SOL    HW245149   7.566   7.792   2.550  0.0571 -0.1080  1.3945
14570SOL     OW45150   0.646   4.714   7.736 -0.2039 -0.6458 -0.1315
14570SOL    HW145151   0.645   4.773   7.812 -2.0809  0.4394 -0.9057
14570SOL    HW245152   0.593   4.639   7.763 -0.8794 -0.2555 -0.3457
14571SOL     OW45153   1.204   4.913   5.341  0.1548  0.4412  0.1133
14571SOL    HW145154   1.110   4.895   5.349 -0.3051  2.4271 -0.3187
14571SOL    HW245155   1.235   4.921   5.431 -0.3449  0.9479  0.2433
14572SOL     OW45156   2.609   7.618   4.877 -0.0309 -0.1441  0.5987
14572SOL    HW145157   2.688   7.582   4.918  0.6640  1.2314  0.5250
14572SOL    HW245158   2.566   7.542   4.838  1.4638 -0.8846  0.2937
14573SOL     OW45159   3.244   2.884   5.653 -0.0873  0.1663  0.4050
14573SOL    HW145160   3.162   2.926   5.679  0.6583  1.4422  0.7264
14573SOL    HW245161   3.231   2.862   5.560 -0.7035  0.5466  0.3973
14574SOL     OW45162   3.671   7.970   6.195 -0.4361  0.0311  0.1714
14574SOL    HW145163   3.672   7.874   6.201  1.0515  0.0218  0.2358
14574SOL    HW245164   3.733   7.999   6.261 -1.0621  1.0712  0.3309
14575SOL     OW45165   4.719   1.575   6.411 -0.0388  0.0781 -0.0217
14575SOL    HW145166   4.729   1.666   6.381  2.0675  0.2239  0.9019
14575SOL    HW245167   4.705   1.525   6.331 -0.8614  1.1565 -0.5857
14576SOL     OW45168   7.467   3.592   5.760  0.2387  0.2220  0.0305
14576SOL    HW145169   7.472   3.679   5.799  1.1900 -0.1245  0.7075
14576SOL    HW245170   7.510   3.534   5.824 -0.9613 -0.8586 -0.0836
14577SOL     OW45171   0.500   1.303   1.016  0.0698 -0.1432 -0.2624
14577SOL    HW145172   0.474   1.394   1.004 -1.4385 -0.6921 -1.5620
14577SOL    HW245173   0.590   1.299   0.984  1.6801  1.6196  3.4386
14578SOL     OW45174   3.039   4.656   8.185 -0.0323  0.2063  0.3950
14578SOL    HW145175   3.047   4.653   8.281 -1.3305  0.4007  0.5356
14578SOL    HW245176   2.950   4.690   8.170  0.2174  0.3336 -0.8820
14579SOL     OW45177   7.815   7.912   6.161 -0.3791  0.6855 -0.0365
14579SOL    HW145178   7.866   7.870   6.230 -2.0450 -3.1367 -0.9000
14579SOL    HW245179   7.849   7.875   6.079 -2.4600  0.3905 -0.8152
14580SOL     OW45180   0.196   0.282  10.775  0.1664  0.2785 -0.0025
14580SOL    HW145181   0.280   0.293  10.730 -0.1915 -2.1438 -1.4248
14580SOL    HW245182   0.204   0.198  10.820 -0.9985  0.7159  1.0628
14581SOL     OW45183   2.676   3.698   5.881  0.0829  0.6047 -0.0654
14581SOL    HW145184   2.771   3.689   5.870  0.2230  1.9569 -0.0684
14581SOL    HW245185   2.641   3.690   5.792  0.1376 -0.3948 -0.0063
14582SOL     OW45186   5.565   0.981  11.652 -0.4885 -0.3793  0.0077
14582SOL    HW145187   5.602   0.913  11.709 -0.6112 -1.7597 -1.4788
14582SOL    HW245188   5.637   1.007  11.595 -1.0289 -1.0278 -1.0120
14583SOL     OW45189   3.424   0.115   7.585 -0.0866  0.0677 -0.6137
14583SOL    HW145190   3.453   0.205   7.595 -0.5253  0.2289 -0.7717
14583SOL    HW245191   3.409   0.104   7.491  1.0681 -0.5202 -0.7529
14584SOL     OW45192   5.704   5.440   7.016  0.2387  0.1536  1.0535
14584SOL    HW145193   5.658   5.483   7.088  1.1276  1.1965  1.0307
14584SOL    HW245194   5.708   5.348   7.042  0.7996  0.5510  2.4994
14585SOL     OW45195   4.777   1.804   9.056 -0.1929  0.4172 -0.3676
14585SOL    HW145196   4.797   1.849   9.138  2.0262 -1.2925  0.1531
14585SOL    HW245197   4.813   1.861   8.988  1.4643  0.0763  0.1791
14586SOL     OW45198   1.905   7.081   4.963  0.0629  0.5645 -0.2070
14586SOL    HW145199   1.886   6.999   4.917  0.6990  0.8399 -0.9793
14586SOL    HW245200   1.842   7.144   4.928  0.4711  0.7446 -0.6289
14587SOL     OW45201   7.404   4.567   2.448  0.5981  0.1760 -0.9863
14587SOL    HW145202   7.449   4.491   2.483  0.0683 -0.0459 -0.7818
14587SOL    HW245203   7.414   4.634   2.516 -0.2976 -0.2066 -0.4520
14588SOL     OW45204   6.637   7.445   6.631  0.4388 -0.0942  0.0217
14588SOL    HW145205   6.584   7.490   6.697  0.7100 -2.6366  2.1618
14588SOL    HW245206   6.593   7.361   6.618  2.0592 -0.8716 -0.7513
14589SOL     OW45207   1.549   6.704   8.407  0.3194  0.8081 -0.0214
14589SOL    HW145208   1.468   6.681   8.453 -1.1221  1.1826 -2.2274
14589SOL    HW245209   1.604   6.626   8.415 -1.7317 -0.9099 -1.5237
14590SOL     OW45210   6.813   4.056   7.554 -0.0212 -0.1603  0.1498
14590SOL    HW145211   6.790   3.997   7.626  2.2913 -0.7522  0.4878
14590SOL    HW245212   6.801   4.003   7.475  0.3974 -0.5559  0.3407
14591SOL     OW45213   7.182   6.544   6.834  0.4583 -0.1777  0.0936
14591SOL    HW145214   7.131   6.509   6.908  0.1443  0.3458  0.1337
14591SOL    HW245215   7.155   6.490   6.760  1.3767 -1.2349  0.5048
14592SOL     OW45216   0.077   2.624   7.293  0.3278  0.3688 -0.0479
14592SOL    HW145217   0.006   2.636   7.230 -0.0460 -0.2499  0.2466
14592SOL    HW245218   0.156   2.619   7.239  0.2648  1.9136 -0.3158
14593SOL     OW45219   3.400   7.303   4.890 -0.2958  0.2108  0.2961
14593SOL    HW145220   3.352   7.318   4.972 -0.4275  2.3638 -0.0984
14593SOL    HW245221   3.445   7.220   4.903 -0.5631  0.3368  2.4351
14594SOL     OW45222   7.464   1.893   7.822 -0.5726 -0.2780 -0.0687
14594SOL    HW145223   7.507   1.837   7.757 -1.1460  0.4675 -1.1180
14594SOL    HW245224   7.534   1.916   7.883  0.0615 -0.7166 -0.6087
14595SOL     OW45225   0.158   6.071   0.656  0.2446  0.2684 -0.2598
14595SOL    HW145226   0.173   5.976   0.652  0.5864  0.1764  1.7584
14595SOL    HW245227   0.079   6.085   0.605  0.3589 -1.0644 -0.8564
14596SOL     OW45228   0.110   4.395  11.464  0.0261 -0.1108  0.2329
14596SOL    HW145229   0.195   4.373  11.426 -0.1796  0.4960 -0.6135
14596SOL    HW245230   0.123   4.387  11.558  0.5686 -1.6246  0.0659
14597SOL     OW45231   3.344   2.192   9.639 -0.0829 -0.3491  0.5249
14597SOL    HW145232   3.302   2.166   9.557  1.1031 -1.1678  0.1536
14597SOL    HW245233   3.337   2.287   9.639  1.3821 -0.1781 -1.3844
14598SOL     OW45234   0.426   5.801   7.063 -0.0329  0.1493  0.3260
14598SOL    HW145235   0.471   5.750   7.130  0.7266  0.5304  0.1265
14598SOL    HW245236   0.475   5.884   7.059  0.2717 -0.0702 -1.0552
14599SOL     OW45237   6.144   1.892   5.053  0.0499 -0.0823  0.3441
14599SOL    HW145238   6.088   1.818   5.027  2.0333 -1.7338  0.4609
14599SOL    HW245239   6.172   1.931   4.970  0.6397 -0.8109  0.1829
14600SOL     OW45240   2.398   1.987   8.752 -0.6114  0.4918  0.0771
14600SOL    HW145241   2.366   1.950   8.834 -1.2573  1.5631  0.3376
14600SOL    HW245242   2.334   1.958   8.687 -0.3266 -0.0219  0.0263
14601SOL     OW45243   6.836   3.035   5.119 -0.3054 -0.2210 -0.0125
14601SOL    HW145244   6.909   3.095   5.106  0.1962 -0.5569  1.1426
14601SOL    HW245245   6.873   2.960   5.165 -1.2774 -0.6035  0.1834
14602SOL     OW45246   1.557   0.717   6.171  0.3205 -0.4311  0.4253
14602SOL    HW145247   1.481   0.675   6.211 -0.3223  1.4697  1.3334
14602SOL    HW245248   1.595   0.769   6.242  1.4184  0.0511 -0.4859
14603SOL     OW45249   6.586   7.108  10.070 -0.3540 -0.0594 -0.4829
14603SOL    HW145250   6.526   7.054  10.018 -2.0926  0.1554  1.1694
14603SOL    HW245251   6.554   7.198  10.056 -0.4608  0.0523  0.4625
14604SOL     OW45252   0.534   0.451   7.843  0.1781 -0.2155 -0.4420
14604SOL    HW145253   0.482   0.500   7.907  1.7697 -1.1123  1.6729
14604SOL    HW245254   0.568   0.518   7.784 -0.7331  0.7556  0.0970
14605SOL     OW45255   7.489   5.604   8.531  0.0905 -0.5990  0.0367
14605SOL    HW145256   7.486   5.574   8.440 -1.6200  0.1493 -0.1997
14605SOL    HW245257   7.566   5.660   8.536 -0.1160 -0.2010 -1.1052
14606SOL     OW45258   2.318   2.718   2.017  0.7839  0.2842  0.7228
14606SOL    HW145259   2.317   2.777   2.093 -1.0561  1.6421 -0.2530
14606SOL    HW245260   2.371   2.765   1.952 -2.6972  2.3336 -0.9653
14607SOL     OW45261   5.196   4.087  12.428 -0.1478  0.1158 -0.3315
14607SOL    HW145262   5.142   4.009  12.433  0.9508 -0.7478 -1.3382
14607SOL    HW245263   5.186   4.119  12.338  0.0381  0.6573 -0.1677
14608SOL     OW45264   2.661   1.430   3.973  0.2767 -0.0279 -0.2938
14608SOL    HW145265   2.585   1.486   3.985 -0.5931 -1.4601  1.5338
14608SOL    HW245266   2.651   1.392   3.886 -2.0499 -1.4280  0.4943
14609SOL     OW45267   4.119   0.236   7.031  0.3603  0.1585  0.4875
14609SOL    HW145268   4.131   0.179   6.956  1.7409  0.5386  0.3857
14609SOL    HW245269   4.038   0.284   7.012  0.6447  0.1943 -0.7254
14610SOL     OW45270   6.542   2.968   2.456 -0.9669  0.4796 -0.4011
14610SOL    HW145271   6.480   2.912   2.502 -2.2357  0.6723 -1.8077
14610SOL    HW245272   6.493   3.048   2.438  0.4342  1.5967  0.4888
14611SOL     OW45273   4.817   0.989   0.460 -0.4171 -0.2431 -0.0245
14611SOL    HW145274   4.750   0.927   0.489  0.4064 -1.2244 -0.1592
14611SOL    HW245275   4.768   1.064   0.426 -1.4374 -0.8819  0.0149
14612SOL     OW45276   2.051   4.985   7.796 -0.0045 -0.3406  0.2519
14612SOL    HW145277   2.011   4.901   7.820 -1.8726 -0.2385 -2.0891
14612SOL    HW245278   1.977   5.040   7.771  1.1426  2.1969  2.0605
14613SOL     OW45279   4.846   5.576   1.629 -0.1043 -0.2328  0.0708
14613SOL    HW145280   4.780   5.507   1.637 -0.3296  0.0944  1.1832
14613SOL    HW245281   4.922   5.541   1.675 -0.6330  0.7527  1.7495
14614SOL     OW45282   3.887   1.709  10.709 -0.0640 -0.2256 -0.4098
14614SOL    HW145283   3.842   1.629  10.681 -0.8215  0.3815 -0.9943
14614SOL    HW245284   3.902   1.697  10.802  0.4115 -1.3189 -0.6154
14615SOL     OW45285   6.823   1.003   8.131 -0.0332 -0.0729 -0.7346
14615SOL    HW145286   6.894   1.059   8.161  0.1895  0.3098 -1.9153
14615SOL    HW245287   6.853   0.914   8.149  0.4164  0.1144 -0.5543
14616SOL     OW45288   3.650   7.787  11.931 -0.5065  0.2314  0.3246
14616SOL    HW145289   3.670   7.870  11.973  0.2717  0.9169 -1.2876
14616SOL    HW245290   3.593   7.810  11.857  0.6821 -0.4680 -0.8714
14617SOL     OW45291   6.564   1.244   7.363  0.4411 -0.2040 -0.4255
14617SOL    HW145292   6.541   1.264   7.454  0.6585 -2.2085  0.1403
14617SOL    HW245293   6.631   1.175   7.371 -1.4823 -2.4376 -2.0740
14618SOL     OW45294   5.579   6.428  10.318  0.2482  0.0986  0.1082
14618SOL    HW145295   5.617   6.376  10.389  0.1259 -0.7774 -0.4420
14618SOL    HW245296   5.516   6.368  10.277  0.3654  0.5625 -0.7702
14619SOL     OW45297   2.241   7.340   9.577 -0.3343 -0.1358  0.3667
14619SOL    HW145298   2.300   7.411   9.551 -1.7693  0.1112 -2.5895
14619SOL    HW245299   2.299   7.271   9.609  1.1729  1.8462  2.2527
14620SOL     OW45300   7.562   0.599  12.131  0.8896 -0.3695 -0.4088
14620SOL    HW145301   7.541   0.655  12.206  0.1043  0.1672 -1.0157
14620SOL    HW245302   7.600   0.659  12.067  1.9870 -0.9054 -0.2799
14621SOL     OW45303   5.948   7.800   3.268 -0.3208  0.0577  0.4753
14621SOL    HW145304   5.921   7.839   3.186 -0.2260  0.1384  0.4818
14621SOL    HW245305   6.019   7.740   3.244 -0.9420 -0.6465  0.3713
14622SOL     OW45306   6.824   3.515   7.812  0.3182 -0.5536 -0.1445
14622SOL    HW145307   6.859   3.431   7.841  0.6925  0.1399  1.5716
14622SOL    HW245308   6.730   3.498   7.799  0.2733 -1.1118  0.7874
14623SOL     OW45309   7.062   6.455   7.407 -0.1683  0.3866 -0.4051
14623SOL    HW145310   7.081   6.387   7.343  1.1057 -0.3032  0.6395
14623SOL    HW245311   7.146   6.500   7.419 -0.7275  1.4006 -0.2500
14624SOL     OW45312   0.128   0.873   8.794 -0.2372  0.1678  0.9618
14624SOL    HW145313   0.085   0.877   8.709  1.0950  1.2115  0.2887
14624SOL    HW245314   0.166   0.960   8.806  0.4621 -0.2739  2.1509
14625SOL     OW45315   0.282   1.920  10.862 -0.2552 -0.6429 -0.3607
14625SOL    HW145316   0.283   1.974  10.941  0.5107  1.3337 -1.6538
14625SOL    HW245317   0.374   1.902  10.844 -0.4959 -2.9394  0.3345
14626SOL     OW45318   0.010   7.627  11.409  0.4544 -0.5779  0.3464
14626SOL    HW145319   0.034   7.712  11.445  2.0637 -0.4526 -0.9132
14626SOL    HW245320   0.093   7.583  11.393 -0.3089 -1.8208 -0.3836
14627SOL     OW45321   0.164   6.319   2.948 -0.0088  0.2812 -0.0514
14627SOL    HW145322   0.232   6.368   2.994  0.1361 -0.3399  0.3975
14627SOL    HW245323   0.189   6.228   2.958 -1.5300 -0.0464  1.1377
14628SOL     OW45324   2.689   0.810  10.056 -0.3475 -0.4546 -0.0288
14628SOL    HW145325   2.756   0.832  10.121 -0.8463 -1.1877  0.7527
14628SOL    HW245326   2.733   0.821   9.971  1.5018 -3.1521  0.4779
14629SOL     OW45327   0.371   4.481   3.978 -0.5392 -0.2322  0.2409
14629SOL    HW145328   0.305   4.550   3.981  0.4137  0.6637  1.4785
14629SOL    HW245329   0.324   4.401   3.999 -0.9822  0.6231  2.7855
14630SOL     OW45330   6.630   4.270   2.466  0.0941  0.2004 -0.2759
14630SOL    HW145331   6.624   4.203   2.398  0.4385 -0.6299  0.4964
14630SOL    HW245332   6.546   4.315   2.463 -1.2916 -2.1075  1.0344
14631SOL     OW45333   2.111   0.585   9.435  0.1589  0.1209 -0.1025
14631SOL    HW145334   2.150   0.513   9.485 -0.2743 -0.0489 -0.0074
14631SOL    HW245335   2.134   0.663   9.484  1.7594  0.1893 -0.8953
14632SOL     OW45336   2.626   7.982   9.497  0.2639  0.3674  0.0094
14632SOL    HW145337   2.561   7.941   9.439 -0.8052  1.3905  0.4512
14632SOL    HW245338   2.595   8.071   9.509  1.8246  0.9298  0.1602
14633SOL     OW45339   0.758   1.086   3.709 -0.4537 -0.3600 -0.1466
14633SOL    HW145340   0.848   1.056   3.721 -1.0591 -2.2943 -0.0597
14633SOL    HW245341   0.760   1.139   3.629  0.4838 -1.6354 -0.9953
14634SOL     OW45342   6.564   4.696  11.715 -0.0453  0.2860 -0.4680
14634SOL    HW145343   6.573   4.717  11.808 -1.1011 -0.8753 -0.0722
14634SOL    HW245344   6.574   4.780  11.670  0.5248  0.8522  0.6885
14635SOL     OW45345   1.324   4.554   8.864  0.3100 -0.0962 -0.1855
14635SOL    HW145346   1.362   4.601   8.790  1.8144 -0.4440  0.3292
14635SOL    HW245347   1.393   4.554   8.931 -1.3367  1.0480  1.6094
14636SOL     OW45348   1.572   2.723   1.683 -0.9341 -0.3288 -0.5258
14636SOL    HW145349   1.655   2.733   1.637  0.3054 -1.9502  1.2071
14636SOL    HW245350   1.579   2.783   1.758 -0.4230 -1.9242  0.7457
14637SOL     OW45351   0.735   6.577   9.018  0.7675 -0.3203  0.1796
14637SOL    HW145352   0.829   6.589   9.012  0.7489 -0.5052 -0.6397
14637SOL    HW245353   0.705   6.574   8.927  0.0975 -1.1995  0.4123
14638SOL     OW45354   3.709   4.881   0.564  0.0713  0.1993  0.3882
14638SOL    HW145355   3.651   4.867   0.639  1.5010  0.2080  1.5237
14638SOL    HW245356   3.742   4.970   0.576  0.0054  0.3459 -0.4754
14639SOL     OW45357   3.103   2.564   2.034  0.3791 -0.3761  0.8443
14639SOL    HW145358   3.131   2.578   2.124  1.3690  0.4237  0.4427
14639SOL    HW245359   3.044   2.489   2.038  0.3427 -0.3034  2.1603
14640SOL     OW45360   4.772   1.159   8.092 -0.0701 -0.0136  0.5693
14640SOL    HW145361   4.810   1.247   8.089 -1.4515  0.6288  1.1170
14640SOL    HW245362   4.723   1.151   8.010  0.1122 -0.3111  0.4875
14641SOL     OW45363   6.334   1.500  11.017 -0.8469 -0.1049  0.3145
14641SOL    HW145364   6.316   1.475  10.927  0.2910 -3.8382  0.9596
14641SOL    HW245365   6.266   1.456  11.068  2.0868 -3.5500  1.6664
14642SOL     OW45366   4.749   0.495  10.437 -0.5284  0.5521 -0.3148
14642SOL    HW145367   4.740   0.415  10.385 -1.2282  0.5269 -0.1604
14642SOL    HW245368   4.673   0.495  10.495  0.3654  0.4339  0.9150
14643SOL     OW45369   1.733   6.435   2.351  0.0864  0.0689 -0.2368
14643SOL    HW145370   1.782   6.514   2.373  2.0712 -0.4330 -2.4367
14643SOL    HW245371   1.800   6.368   2.337 -1.3520 -1.2175 -1.3262
14644SOL     OW45372   1.079   5.436   4.522 -0.6309  0.0116 -0.3190
14644SOL    HW145373   1.142   5.505   4.542 -0.4232 -0.6001  1.3400
14644SOL    HW245374   1.132   5.359   4.503 -0.8448 -0.2941  0.2710
14645SOL     OW45375   1.106   6.192   8.353 -0.4233  0.0746 -0.0702
14645SOL    HW145376   1.161   6.130   8.401 -2.8950 -1.2223  1.3237
14645SOL    HW245377   1.043   6.136   8.307  0.1412  1.4297 -2.7028
14646SOL     OW45378   5.193   4.695   8.587 -0.1351  0.5969  0.5407
14646SOL    HW145379   5.267   4.723   8.534 -0.3961 -0.0206 -0.1646
14646SOL    HW245380   5.227   4.626   8.644 -0.0741  0.6111  0.5205
14647SOL     OW45381   7.364   0.251   8.842  0.0572  0.1554 -0.5820
14647SOL    HW145382   7.331   0.194   8.772 -0.1991  1.3413 -1.4470
14647SOL    HW245383   7.308   0.231   8.918 -0.1785 -0.5698 -0.9424
14648SOL     OW45384   2.548   0.386   3.988 -0.1068  0.3867  0.2371
14648SOL    HW145385   2.561   0.304   3.940 -0.0504  0.0851  0.7624
14648SOL    HW245386   2.526   0.450   3.920  2.2348  0.4994 -0.4972
14649SOL     OW45387   3.992   2.016   8.635  0.4928 -0.0544 -0.0346
14649SOL    HW145388   3.990   1.922   8.617  1.8957 -0.0239 -0.4943
14649SOL    HW245389   3.984   2.057   8.549 -0.9996  0.2947  0.2390
14650SOL     OW45390   2.902   6.751   8.765 -0.5060  0.6148 -0.0730
14650SOL    HW145391   2.861   6.815   8.824 -1.8530  0.3349 -0.6821
14650SOL    HW245392   2.852   6.757   8.684 -0.5308 -1.0707 -0.2104
14651SOL     OW45393   3.483   5.159   0.640 -0.7109 -0.1667  0.0916
14651SOL    HW145394   3.566   5.118   0.615 -2.0922 -2.9260 -0.3055
14651SOL    HW245395   3.498   5.253   0.628  1.9047 -0.6715 -1.2392
14652SOL     OW45396   3.643   1.632   4.816 -0.5380 -0.1710 -0.2174
14652SOL    HW145397   3.568   1.614   4.873 -0.7313 -1.8953 -0.9313
14652SOL    HW245398   3.605   1.640   4.729 -0.0668  0.7481 -0.3515
14653SOL     OW45399   3.853   4.772   3.712 -0.4270 -0.5344  0.0364
14653SOL    HW145400   3.805   4.695   3.683 -1.3155  0.5287 -1.4264
14653SOL    HW245401   3.944   4.742   3.719 -1.0354 -2.2518  1.6496
14654SOL     OW45402   6.732   1.258   7.908  0.3543 -0.1680  0.1801
14654SOL    HW145403   6.809   1.255   7.851  0.0519 -0.2059 -0.2272
14654SOL    HW245404   6.689   1.174   7.895  0.5623 -0.3908  0.8637
14655SOL     OW45405   4.283   4.397  12.098 -0.0006 -0.0298 -0.4617
14655SOL    HW145406   4.240   4.333  12.154  0.0471  1.1872  1.0484
14655SOL    HW245407   4.223   4.410  12.025  0.3196 -2.2833 -1.2207
14656SOL     OW45408   3.955   6.791  11.499  0.0347  0.2360 -0.0828
14656SOL    HW145409   3.882   6.800  11.438 -0.9229  0.9810  1.1198
14656SOL    HW245410   4.033   6.794  11.444 -0.6604  3.7634 -1.1217
14657SOL     OW45411   4.428   3.657   7.080 -0.5497  0.2245 -0.1046
14657SOL    HW145412   4.418   3.693   6.992 -4.3992  2.2289  0.9318
14657SOL    HW245413   4.376   3.714   7.136  1.2598 -1.2812  3.4623
14658SOL     OW45414   3.413   0.829   6.663  0.2912  0.6876  0.0495
14658SOL    HW145415   3.372   0.746   6.688 -2.1494  1.6411 -0.5064
14658SOL    HW245416   3.489   0.837   6.720 -0.2051 -1.2744  1.0531
14659SOL     OW45417   6.844   4.038  11.170  0.1460 -0.1525 -0.3685
14659SOL    HW145418   6.929   3.997  11.153  0.7010  0.3636  1.0067
14659SOL    HW245419   6.855   4.129  11.143  0.0877 -0.0447 -0.0347
14660SOL     OW45420   3.512   2.279   8.618  0.1098  0.3572  0.5107
14660SOL    HW145421   3.437   2.335   8.639 -0.0121 -0.1968  1.6493
14660SOL    HW245422   3.561   2.274   8.700 -0.1570 -1.6105  0.5905
14661SOL     OW45423   5.909   3.634   4.466 -0.1344  0.1295 -0.0504
14661SOL    HW145424   5.974   3.676   4.523  0.8335 -1.6364  0.2123
14661SOL    HW245425   5.941   3.650   4.378  0.2293 -0.0645  0.0454
14662SOL     OW45426   4.285   6.045  11.409  0.6029  0.2914 -0.2183
14662SOL    HW145427   4.258   5.968  11.360 -0.2888  1.5752 -1.8371
14662SOL    HW245428   4.362   6.078  11.362  0.3850  0.9454 -0.1285
14663SOL     OW45429   4.873   2.504   3.737 -0.7215 -0.1889  0.0983
14663SOL    HW145430   4.818   2.426   3.731 -0.7511 -0.1870  0.3330
14663SOL    HW245431   4.811   2.576   3.752 -0.6297 -0.2342  0.7121
14664SOL     OW45432   0.165   1.709   4.036 -0.1434 -0.3922  0.1340
14664SOL    HW145433   0.246   1.730   3.988 -0.6613  0.3847 -0.4176
14664SOL    HW245434   0.164   1.614   4.039  0.8827 -0.4148  0.2978
14665SOL     OW45435   3.045   2.589   3.545 -0.6782 -0.3546 -0.0058
14665SOL    HW145436   3.073   2.660   3.488 -1.1215 -0.8129 -0.8081
14665SOL    HW245437   2.951   2.602   3.555 -0.7837 -0.8980 -0.2598
14666SOL     OW45438   3.720   3.470   0.289 -0.4762  0.6834  0.5628
14666SOL    HW145439   3.782   3.448   0.219 -0.5438 -1.3213  1.0722
14666SOL    HW245440   3.751   3.554   0.323  2.0450 -0.2698  0.8504
14667SOL     OW45441   4.686   6.714   0.713  0.1967  0.3924 -0.3246
14667SOL    HW145442   4.596   6.698   0.741  0.1784  1.3419  0.1973
14667SOL    HW245443   4.700   6.806   0.731  1.2267  0.2889 -0.5653
14668SOL     OW45444   7.519   7.611   9.191  0.6132  0.2624  0.6512
14668SOL    HW145445   7.551   7.635   9.105  0.0693  2.0935  0.9163
14668SOL    HW245446   7.583   7.549   9.225  1.1528 -0.0047 -0.8065
14669SOL     OW45447   1.932   1.548   9.488 -0.3958  0.0431 -0.1897
14669SOL    HW145448   1.884   1.477   9.446 -1.3495  0.9292 -0.6511
14669SOL    HW245449   1.891   1.557   9.574 -1.2876  0.9981 -0.6981
14670SOL     OW45450   7.926   5.535   3.748 -0.2827 -0.0685  0.3187
14670SOL    HW145451   7.933   5.615   3.800  1.4300  0.5647 -0.8009
14670SOL    HW245452   7.924   5.464   3.813 -1.6168  0.8340  1.3132
14671SOL     OW45453   6.599   4.930  11.347 -0.5736  0.4482  0.3034
14671SOL    HW145454   6.612   4.985  11.270  0.4240 -1.4206 -0.9276
14671SOL    HW245455   6.510   4.895  11.337 -0.2258 -0.2768 -0.3554
14672SOL     OW45456   6.658   3.725   6.337  0.3541  0.5895  0.3690
14672SOL    HW145457   6.657   3.819   6.356  1.9882  0.8711 -0.7613
14672SOL    HW245458   6.749   3.698   6.352  0.3082 -0.4428 -0.9778
14673SOL     OW45459   2.495   3.918   6.375  0.2712  0.1490 -0.0386
14673SOL    HW145460   2.495   3.974   6.452  0.6124 -2.1859  1.7916
14673SOL    HW245461   2.499   3.978   6.301  0.0218  2.4972  1.7486
14674SOL     OW45462   6.721   7.975   0.053 -0.2069  0.5947  0.2290
14674SOL    HW145463   6.773   7.899   0.026 -1.4627 -0.3185  0.2806
14674SOL    HW245464   6.754   7.997   0.140  0.0166 -0.0378  0.3075
14675SOL     OW45465   6.614   0.463   1.173  0.3484 -0.2272 -0.0063
14675SOL    HW145466   6.617   0.523   1.248 -0.5641  1.0990 -0.9753
14675SOL    HW245467   6.663   0.508   1.104  3.5121 -2.5986  0.4976
14676SOL     OW45468   7.567   2.991   5.203 -0.3714 -0.6336 -0.1709
14676SOL    HW145469   7.495   2.983   5.140 -0.9126  1.3005  0.1110
14676SOL    HW245470   7.630   3.050   5.161 -0.4668  0.2235  0.8279
14677SOL     OW45471   0.387   4.789   5.377  0.0806  0.3372  0.0984
14677SOL    HW145472   0.456   4.794   5.310 -0.3696  1.6488 -0.3095
14677SOL    HW245473   0.368   4.881   5.397 -0.4503 -0.0342  1.3514
14678SOL     OW45474   1.994   6.820   7.809 -0.3063  0.3485  0.8710
14678SOL    HW145475   1.922   6.809   7.746  0.1133  0.0717  0.4296
14678SOL    HW245476   2.067   6.850   7.755  0.3755 -0.9584  1.0363
14679SOL     OW45477   5.755   1.437   9.042 -0.0147  0.1916  0.7260
14679SOL    HW145478   5.790   1.397   8.962  0.3855  1.6060  0.1753
14679SOL    HW245479   5.663   1.412   9.042  0.2873 -1.0140  0.5943
14680SOL     OW45480   0.055   0.845   6.369  0.0938 -0.1739  0.5327
14680SOL    HW145481   0.039   0.861   6.276  0.3088  1.9879  0.8037
14680SOL    HW245482   0.134   0.895   6.388 -0.4550  0.1783  2.0525
14681SOL     OW45483   3.775   7.626   2.066 -0.4147  0.0772 -0.3617
14681SOL    HW145484   3.865   7.628   2.033 -0.2294  0.2893  0.1416
14681SOL    HW245485   3.782   7.662   2.155 -0.8426 -0.8574  0.0587
14682SOL     OW45486   0.937   3.714   9.251  0.0450 -0.2255  0.3442
14682SOL    HW145487   0.861   3.672   9.289  0.2063 -0.7533  0.0911
14682SOL    HW245488   1.012   3.677   9.299  0.2636 -1.0555 -0.6159
14683SOL     OW45489   1.424   7.352   7.772 -0.0721  0.0834 -0.0078
14683SOL    HW145490   1.502   7.326   7.820 -0.3282 -1.7023 -0.5122
14683SOL    HW245491   1.452   7.427   7.720  1.0440  0.0485  0.5076
14684SOL     OW45492   2.232   3.410   9.130 -0.2627 -0.3492  0.2412
14684SOL    HW145493   2.140   3.390   9.149 -0.3613 -1.0384 -0.8578
14684SOL    HW245494   2.273   3.418   9.217 -0.8908 -2.3144  0.7759
14685SOL     OW45495   2.632   2.227  11.112  0.4685 -0.3362  0.1980
14685SOL    HW145496   2.686   2.242  11.035  1.3490 -0.9960  0.6686
14685SOL    HW245497   2.678   2.273  11.183 -0.3396  0.2758  0.3406
14686SOL     OW45498   5.772   7.385   7.800  0.0092  0.4917 -0.2113
14686SOL    HW145499   5.719   7.433   7.736 -0.6762 -2.2544 -1.8721
14686SOL    HW245500   5.852   7.437   7.809 -1.4901  2.9877 -0.2374
14687SOL     OW45501   0.617   0.636   9.915 -0.1126  0.4047 -0.4429
14687SOL    HW145502   0.536   0.684   9.933  0.6833  1.6566 -0.1670
14687SOL    HW245503   0.607   0.554   9.964 -1.3553  0.3710 -0.6985
14688SOL     OW45504   1.900   1.892   1.627 -0.1486 -0.3245 -0.1971
14688SOL    HW145505   1.808   1.899   1.650  0.0973  0.5403  0.5969
14688SOL    HW245506   1.940   1.972   1.663  0.6142  0.1515 -2.0185
14689SOL     OW45507   2.863   1.014   2.530  0.5098  0.1488  0.5685
14689SOL    HW145508   2.833   1.029   2.440  3.1193 -0.3411 -0.4871
14689SOL    HW245509   2.789   1.040   2.585 -0.3282  2.8969 -1.6140
14690SOL     OW45510   5.777   4.694  10.594  0.1449 -0.5854  0.0144
14690SOL    HW145511   5.861   4.688  10.639  0.9802 -0.0720 -1.4193
14690SOL    HW245512   5.734   4.770  10.634  0.8031 -0.2254  0.0482
14691SOL     OW45513   1.454   2.947  12.312  0.1230  0.6091 -0.3589
14691SOL    HW145514   1.543   2.976  12.331 -0.2600  2.5693 -1.2313
14691SOL    HW245515   1.401   2.986  12.381  0.0327 -1.7014  0.9758
14692SOL     OW45516   7.775   3.903   3.155 -0.5019 -0.3098 -0.5549
14692SOL    HW145517   7.700   3.858   3.195 -1.0147  1.6882  0.8786
14692SOL    HW245518   7.811   3.839   3.093 -3.5209 -1.2562 -1.5017
14693SOL     OW45519   3.169   7.983   4.767 -0.5953 -0.7578 -0.1917
14693SOL    HW145520   3.211   8.020   4.844 -1.2678 -2.0170  0.8349
14693SOL    HW245521   3.224   8.010   4.693  0.4153 -0.0478  0.7934
14694SOL     OW45522   5.177   2.743  11.173 -0.2061  0.0858 -0.4010
14694SOL    HW145523   5.224   2.710  11.097  2.1274 -0.9678  1.3631
14694SOL    HW245524   5.217   2.829  11.191  1.0934 -0.7811  1.0656
14695SOL     OW45525   3.846   1.960  11.384  0.4962 -0.2546  0.4232
14695SOL    HW145526   3.781   2.022  11.350  0.4393 -0.4716  0.1432
14695SOL    HW245527   3.899   2.013  11.445  0.6928  0.1677 -0.1073
14696SOL     OW45528   2.118   2.572   6.800  0.8761  0.2937  0.3282
14696SOL    HW145529   2.145   2.490   6.760 -0.7506  0.1067 -0.4589
14696SOL    HW245530   2.165   2.639   6.751  3.3743 -0.1635  1.9303
14697SOL     OW45531   4.198   0.551   7.012 -0.0783  0.3348  0.0238
14697SOL    HW145532   4.246   0.509   7.083 -0.7443 -0.9154 -0.2391
14697SOL    HW245533   4.240   0.637   7.001 -1.3976  1.5690  3.4549
14698SOL     OW45534   7.712   0.304   7.971 -0.0270 -0.2907 -0.3135
14698SOL    HW145535   7.797   0.274   7.939  0.0462 -2.5221  1.7031
14698SOL    HW245536   7.649   0.259   7.914  0.1414 -1.6881  0.5579
14699SOL     OW45537   4.240   1.652   8.368  0.4260  0.3222  0.2452
14699SOL    HW145538   4.235   1.619   8.278  0.6919 -1.4712  0.8363
14699SOL    HW245539   4.181   1.595   8.417  0.9269  0.7272  1.3380
14700SOL     OW45540   6.517   3.330  11.920  0.6884  0.3445  0.7262
14700SOL    HW145541   6.509   3.317  11.825  1.4383  0.2020  0.6734
14700SOL    HW245542   6.602   3.292  11.942  0.2416 -0.2040  1.5668
14701SOL     OW45543   4.370   7.164   7.318 -0.2287  0.3134  0.0407
14701SOL    HW145544   4.281   7.144   7.290  0.0476 -0.5545 -0.2610
14701SOL    HW245545   4.382   7.116   7.400 -0.2177  0.8794  0.3798
14702SOL     OW45546   1.602   0.023   4.658 -0.0337 -0.1130  0.0442
14702SOL    HW145547   1.679   0.057   4.613 -0.4973  1.0168  0.0890
14702SOL    HW245548   1.543  -0.005   4.588 -0.9023  1.9690 -0.1077
14703SOL     OW45549   3.091   4.396   2.186 -0.6097  0.3043  0.0957
14703SOL    HW145550   3.022   4.378   2.250 -1.3662 -0.6219 -0.9323
14703SOL    HW245551   3.046   4.395   2.102  0.5419  0.4283 -0.5438
14704SOL     OW45552   5.796   1.176   5.575 -0.0110 -0.1921  0.4029
14704SOL    HW145553   5.788   1.082   5.591 -1.1261  0.1621  2.1478
14704SOL    HW245554   5.789   1.217   5.661  1.6256  1.4617 -0.1765
14705SOL     OW45555   4.651   7.687   1.819  0.4765  0.1383  0.1851
14705SOL    HW145556   4.688   7.741   1.888  0.1300 -0.6566  1.0222
14705SOL    HW245557   4.725   7.666   1.762  0.6113  1.4669 -0.1553
14706SOL     OW45558   6.548   1.752   5.507 -0.4448  0.7805 -0.4283
14706SOL    HW145559   6.634   1.714   5.525  0.1650  1.6426 -1.4385
14706SOL    HW245560   6.489   1.676   5.504  0.3190  0.1499 -0.0494
14707SOL     OW45561   6.056   5.521   9.696  0.0590  0.2413 -0.2745
14707SOL    HW145562   6.085   5.433   9.722 -0.0064 -0.4095 -2.2335
14707SOL    HW245563   5.975   5.506   9.648 -1.0281  1.5986  1.0431
14708SOL     OW45564   7.267   7.742   3.861 -0.6182 -0.1297 -0.6488
14708SOL    HW145565   7.357   7.762   3.885 -0.7839 -0.9686  0.8167
14708SOL    HW245566   7.216   7.815   3.895 -0.8385 -1.2636  1.6402
14709SOL     OW45567   2.665   1.856   0.421  0.2556 -0.5084 -0.5198
14709SOL    HW145568   2.684   1.763   0.407  0.7781 -0.6920  1.1893
14709SOL    HW245569   2.750   1.895   0.441 -0.2820 -0.2153  1.4571
14710SOL     OW45570   6.571   0.767   4.360  0.5914  0.4227 -0.0227
14710SOL    HW145571   6.530   0.850   4.335  0.7077  0.4630 -0.0824
14710SOL    HW245572   6.578   0.718   4.279  1.4794  0.7801 -0.1793
14711SOL     OW45573   7.477   7.192   1.541  0.1779 -0.1223 -0.3188
14711SOL    HW145574   7.547   7.165   1.601 -0.0501  0.1834  0.0863
14711SOL    HW245575   7.521   7.244   1.474  0.3336  0.1063 -0.0393
14712SOL     OW45576   6.329   5.613   6.862 -0.2711 -0.3524  0.3840
14712SOL    HW145577   6.262   5.547   6.848 -0.5687 -0.0733  0.4747
14712SOL    HW245578   6.338   5.656   6.777 -0.2554 -0.3435  0.3901
14713SOL     OW45579   4.483   0.955   3.109 -0.6915 -0.1652 -0.2679
14713SOL    HW145580   4.537   0.946   3.187  1.1634  0.0109 -1.4649
14713SOL    HW245581   4.526   1.025   3.059 -2.3261  0.3105 -1.0602
14714SOL     OW45582   2.295   5.976   7.792 -0.1564  0.0577  0.1279
14714SOL    HW145583   2.244   5.911   7.744  1.2308  0.2648 -1.7620
14714SOL    HW245584   2.270   6.060   7.753 -0.0235  0.3882  0.7340
14715SOL     OW45585   6.518   4.809  10.586 -0.0751  0.3153 -0.3614
14715SOL    HW145586   6.526   4.715  10.567  1.8363  0.6089 -1.1556
14715SOL    HW245587   6.539   4.815  10.680  1.1384  0.0800 -0.6009
14716SOL     OW45588   5.802   7.532   8.641 -0.2534  0.2557 -0.2998
14716SOL    HW145589   5.879   7.576   8.677 -0.4229 -0.0596  0.4658
14716SOL    HW245590   5.728   7.580   8.679 -0.4524 -1.0484  1.0393
14717SOL     OW45591   2.248   7.890   5.424 -0.4144 -0.3089 -0.2296
14717SOL    HW145592   2.221   7.947   5.353  1.5592 -0.2751 -1.0112
14717SOL    HW245593   2.211   7.805   5.402 -0.8971 -0.0102 -0.6005
14718SOL     OW45594   0.682   1.851   3.885 -0.3013  0.0901 -0.7905
14718SOL    HW145595   0.735   1.799   3.824  3.2511  0.4317  1.6919
14718SOL    HW245596   0.712   1.941   3.872  0.3454  0.2022  1.1365
14719SOL     OW45597   5.090   4.173   6.757 -0.2622  0.0521 -0.6391
14719SOL    HW145598   5.030   4.242   6.784  2.2588  1.3280  2.3087
14719SOL    HW245599   5.046   4.091   6.782 -0.5878  0.9661  2.1170
14720SOL     OW45600   0.930   1.885   6.369 -0.1635 -0.2738  0.3360
14720SOL    HW145601   0.880   1.886   6.450 -0.5396 -1.4491  0.1470
14720SOL    HW245602   0.873   1.925   6.304  0.0870  0.5489  0.6149
14721SOL     OW45603   7.170   3.386   0.874  0.4901 -0.4564  0.1242
14721SOL    HW145604   7.149   3.443   0.800  0.5321 -0.5401  0.0488
14721SOL    HW245605   7.085   3.349   0.900  0.4890 -0.4999  0.0590
14722SOL     OW45606   2.151   3.117   4.760  0.1806 -0.2719  0.3001
14722SOL    HW145607   2.087   3.047   4.762  0.3605 -0.4735  2.7521
14722SOL    HW245608   2.100   3.198   4.763  0.0117 -0.3677 -0.0152
14723SOL     OW45609   1.759   5.856   4.490  0.3481 -0.2717 -0.6315
14723SOL    HW145610   1.702   5.931   4.502 -3.3000 -2.8727 -0.0493
14723SOL    HW245611   1.742   5.827   4.400 -0.1318 -1.7324 -0.0946
14724SOL     OW45612   5.032   1.068   3.652  0.0571  0.6586  0.0251
14724SOL    HW145613   5.019   1.105   3.565 -1.7782  1.6235  0.6691
14724SOL    HW245614   5.106   1.008   3.641 -0.6588  0.0956 -2.3867
14725SOL     OW45615   2.299   7.230   2.357  0.1564  0.2405 -0.0639
14725SOL    HW145616   2.295   7.178   2.437 -0.7319 -2.6477 -1.8542
14725SOL    HW245617   2.393   7.246   2.344  0.4849 -1.1412  0.4388
14726SOL     OW45618   0.414   3.142   7.366  0.1192  0.3345  0.1609
14726SOL    HW145619   0.473   3.208   7.402  2.3264 -1.6886  0.5127
14726SOL    HW245620   0.470   3.088   7.310 -1.4403 -1.5667  0.3184
14727SOL     OW45621   6.925   0.923   1.379  0.2734 -0.4857 -0.1945
14727SOL    HW145622   6.985   0.978   1.328  1.6566 -2.3433 -0.6812
14727SOL    HW245623   6.900   0.853   1.319 -2.3630  0.1567  0.0532
14728SOL     OW45624   6.083   7.493   0.101  0.0975 -0.5068 -0.1140
14728SOL    HW145625   6.152   7.451   0.154 -0.4909 -0.7454  0.4849
14728SOL    HW245626   6.120   7.577   0.075  0.0023  0.1147  1.6359
14729SOL     OW45627   5.953   3.939   8.279 -0.1355  0.1975 -0.7335
14729SOL    HW145628   5.983   3.880   8.348 -0.2307  0.8577 -0.1128
14729SOL    HW245629   5.887   3.888   8.231 -0.3717 -0.1286 -0.0798
14730SOL     OW45630   7.209   0.773   8.290  0.2286 -0.3376  0.0501
14730SOL    HW145631   7.225   0.679   8.296  0.2431 -0.2883  0.8767
14730SOL    HW245632   7.292   0.813   8.314  1.0772 -0.0888 -2.8873
14731SOL     OW45633   0.873   4.406  10.501 -0.0416  0.3134  0.2820
14731SOL    HW145634   0.923   4.484  10.525 -1.0538  0.2023  3.0543
14731SOL    HW245635   0.806   4.399  10.568 -1.6565 -1.4828 -1.4054
14732SOL     OW45636   0.837   5.528   6.335  0.5613 -0.2462 -0.1295
14732SOL    HW145637   0.855   5.597   6.399  0.0395 -2.4086  2.5105
14732SOL    HW245638   0.923   5.490   6.317  0.4937 -0.9295  0.9074
14733SOL     OW45639   2.672   0.458  11.052  0.0755  0.1217  0.7951
14733SOL    HW145640   2.676   0.389  10.986  0.6237  0.9200 -0.0314
14733SOL    HW245641   2.756   0.503  11.044  0.5440 -0.3109  2.6694
14734SOL     OW45642   0.567   7.925   3.721 -0.4115  0.4331  0.4119
14734SOL    HW145643   0.523   7.925   3.635  0.8547 -1.1578 -0.2852
14734SOL    HW245644   0.603   8.013   3.729 -1.0271  0.7809 -0.4316
14735SOL     OW45645   0.455   0.860  10.734  0.3346 -0.2968 -0.1865
14735SOL    HW145646   0.458   0.945  10.778 -0.7209 -0.0969 -0.4718
14735SOL    HW245647   0.411   0.802  10.796  1.5798 -0.7990  0.2495
14736SOL     OW45648   7.166   1.002   6.798  0.1411 -0.3863  0.0639
14736SOL    HW145649   7.190   0.954   6.718 -0.4823 -0.4537 -0.0934
14736SOL    HW245650   7.248   1.040   6.829  0.1236  1.1698 -1.6275
14737SOL     OW45651   2.882   5.865   1.381  0.5416 -0.2486  0.4033
14737SOL    HW145652   2.891   5.776   1.416  1.7889 -0.6170 -0.7475
14737SOL    HW245653   2.951   5.915   1.424 -0.7991  0.4499  1.8081
14738SOL     OW45654   3.842   4.337   8.683 -0.3839  0.3046  0.1429
14738SOL    HW145655   3.814   4.271   8.619 -0.8134  0.9310 -0.3403
14738SOL    HW245656   3.936   4.344   8.670 -0.4040  0.1163 -0.1255
14739SOL     OW45657   6.841   4.317   4.171 -0.0166 -0.3687  0.4990
14739SOL    HW145658   6.834   4.221   4.174  1.7176 -0.5077  0.9014
14739SOL    HW245659   6.933   4.334   4.155 -0.3359  1.2528  0.2199
14740SOL     OW45660   3.571   5.290   3.699 -0.0993 -0.5588 -0.3325
14740SOL    HW145661   3.655   5.264   3.662 -0.2373 -2.0592  0.3192
14740SOL    HW245662   3.517   5.313   3.623  0.9447  0.6197 -0.7428
14741SOL     OW45663   0.155   4.645  10.946 -0.3666  1.0561  0.0356
14741SOL    HW145664   0.152   4.573  11.009  0.5001  0.2931 -0.7550
14741SOL    HW245665   0.126   4.721  10.995 -2.5324 -0.0403  0.5827
14742SOL     OW45666   5.537   5.078  11.018  0.5237 -0.5703 -0.8364
14742SOL    HW145667   5.616   5.037  10.985  0.6690 -0.3668 -0.7407
14742SOL    HW245668   5.565   5.126  11.097  0.0765 -1.5778 -0.0351
14743SOL     OW45669   6.989   2.606   0.526  0.1652  0.3123  0.5281
14743SOL    HW145670   6.923   2.666   0.490  0.0121 -0.4023 -0.4152
14743SOL    HW245671   6.951   2.519   0.515  0.6314 -0.0153  1.3632
14744SOL     OW45672   3.595   2.191  11.615  0.1256  0.2928 -0.2493
14744SOL    HW145673   3.664   2.181  11.681 -1.0996  0.7851  1.1687
14744SOL    HW245674   3.638   2.170  11.532  1.9212  0.3897  0.6035
14745SOL     OW45675   6.655   6.542   4.066  0.1517 -0.0901  0.0541
14745SOL    HW145676   6.728   6.497   4.026 -0.9448 -0.1694 -1.9684
14745SOL    HW245677   6.626   6.483   4.136  2.7769  0.5555  1.8526
14746SOL     OW45678   5.500   4.077   9.868  0.0051 -0.3020  0.5442
14746SOL    HW145679   5.409   4.053   9.848 -0.0056  0.6172 -0.5716
14746SOL    HW245680   5.544   4.077   9.783  1.0352 -0.6237  1.0601
14747SOL     OW45681   7.714   0.767  10.426  0.1631  0.2286 -0.0566
14747SOL    HW145682   7.758   0.792  10.345  0.3890  2.7550  0.7611
14747SOL    HW245683   7.631   0.814  10.423 -0.3442 -0.5881  0.6777
14748SOL     OW45684   1.397   6.352   7.013  0.0785  1.0083 -0.0019
14748SOL    HW145685   1.335   6.420   7.041 -0.5942  0.0350  0.9645
14748SOL    HW245686   1.416   6.373   6.922 -1.1932  1.7096 -0.1324
14749SOL     OW45687   6.883   3.726   1.435  0.0395 -0.0624 -0.5058
14749SOL    HW145688   6.789   3.728   1.421  0.0967  0.8179 -0.8797
14749SOL    HW245689   6.907   3.818   1.449  0.3654 -0.5832  3.1749
14750SOL     OW45690   4.871   6.915   5.844 -0.2051  0.0390  0.4620
14750SOL    HW145691   4.790   6.963   5.862 -1.0242 -0.7437 -0.9852
14750SOL    HW245692   4.852   6.825   5.868 -0.4785 -0.5414 -1.7559
14751SOL     OW45693   1.794   7.607   7.556  0.5347 -0.3910  0.2909
14751SOL    HW145694   1.842   7.563   7.486 -1.4350  1.3114 -2.3680
14751SOL    HW245695   1.857   7.671   7.591  1.0792 -0.0343 -1.2335
14752SOL     OW45696   0.048   2.251   8.756 -0.4320 -0.4228  0.0265
14752SOL    HW145697   0.047   2.199   8.836  0.4023 -2.6895 -1.3508
14752SOL    HW245698  -0.036   2.297   8.756 -0.6875 -0.8192  1.8893
14753SOL     OW45699   3.857   0.211   2.069  0.2704  0.2981 -0.1965
14753SOL    HW145700   3.933   0.245   2.022 -0.2114 -1.6055 -2.4916
14753SOL    HW245701   3.886   0.127   2.105  0.0485  0.8629  1.4169
14754SOL     OW45702   0.351   0.330   4.247 -0.0609 -0.4020  0.3589
14754SOL    HW145703   0.272   0.368   4.208 -0.1513 -0.3615  0.5851
14754SOL    HW245704   0.368   0.252   4.194 -0.3362 -0.4936  0.4045
14755SOL     OW45705   1.204   2.083  10.100  0.2459  0.0812 -0.3120
14755SOL    HW145706   1.281   2.140  10.102  0.3215  0.4790 -4.7412
14755SOL    HW245707   1.136   2.136  10.059 -2.5006 -0.3663  3.2135
14756SOL     OW45708   0.602   1.999   6.821  0.1621  0.1152 -0.0612
14756SOL    HW145709   0.647   2.055   6.884  1.8178 -1.0684 -0.1056
14756SOL    HW245710   0.575   2.058   6.750 -0.5293  1.2421  1.1051
14757SOL     OW45711   6.637   6.909   1.529 -0.9421  0.5501 -0.5607
14757SOL    HW145712   6.696   6.842   1.495 -0.6084 -0.0282  1.0323
14757SOL    HW245713   6.691   6.960   1.590 -2.4218 -1.1921  2.4524
14758SOL     OW45714   2.411   1.519   4.204  0.5739 -0.3220 -0.3887
14758SOL    HW145715   2.332   1.523   4.150  0.4078 -0.5149 -0.1649
14758SOL    HW245716   2.478   1.563   4.153  0.0422  0.8689 -0.1029
14759SOL     OW45717   5.159   2.380  10.978  0.1583 -0.2276 -0.2017
14759SOL    HW145718   5.199   2.424  11.052 -1.4538  0.5975  0.2201
14759SOL    HW245719   5.107   2.309  11.017  1.3437 -1.4516 -0.7553
14760SOL     OW45720   4.645   7.894   8.496 -0.0431  0.2572 -0.1612
14760SOL    HW145721   4.651   7.864   8.406 -1.8329  0.0294 -0.2446
14760SOL    HW245722   4.580   7.964   8.494  0.7452  1.0488  0.7751
14761SOL     OW45723   7.322   0.628  11.445 -0.1941 -0.3857 -0.2209
14761SOL    HW145724   7.264   0.681  11.391  0.1355 -0.4806 -0.6767
14761SOL    HW245725   7.268   0.555  11.473 -0.0456 -0.9991 -1.4500
14762SOL     OW45726   3.105   2.100   4.474  0.1607  0.3051 -0.4830
14762SOL    HW145727   3.051   2.085   4.552 -0.8785  0.5311 -1.1269
14762SOL    HW245728   3.056   2.166   4.424 -0.0360 -1.0060 -2.1097
14763SOL     OW45729   1.910   2.404   3.935  0.1844  0.1086  0.0540
14763SOL    HW145730   1.929   2.497   3.928  0.5110  0.0339 -0.0851
14763SOL    HW245731   1.840   2.388   3.871  0.7290  0.0948 -0.5488
14764SOL     OW45732   6.009   3.031  11.703 -0.1083 -0.1309  0.8234
14764SOL    HW145733   5.957   3.096  11.750 -1.5954 -0.4145 -0.3714
14764SOL    HW245734   6.010   2.954  11.760 -1.2418 -0.2174  0.7342
14765SOL     OW45735   2.993   2.686   9.398  0.0499 -0.1038  0.2008
14765SOL    HW145736   2.917   2.631   9.377  0.9570 -1.7456  1.0267
14765SOL    HW245737   3.031   2.708   9.313 -0.8805  0.0678 -0.1874
14766SOL     OW45738   3.469   2.830   5.809 -0.5952  0.1791  0.0509
14766SOL    HW145739   3.383   2.810   5.771 -0.6381 -0.2710  0.3762
14766SOL    HW245740   3.450   2.870   5.893 -0.4841  0.1706  0.0805
14767SOL     OW45741   3.478   6.838   4.128 -0.5117  0.8924 -0.1540
14767SOL    HW145742   3.565   6.876   4.122  0.0668  0.2962  2.8027
14767SOL    HW245743   3.481   6.761   4.072 -0.1778  2.4960 -2.4609
14768SOL     OW45744   3.809   4.264   5.291 -0.2663 -0.2590 -0.0894
14768SOL    HW145745   3.834   4.355   5.275 -0.4078 -0.3262 -0.7324
14768SOL    HW245746   3.731   4.250   5.237 -1.1988 -0.3126  1.2017
14769SOL     OW45747   0.593   7.757  10.394 -1.1194  0.3790  0.5854
14769SOL    HW145748   0.561   7.736  10.306  1.6452 -0.8838 -0.2099
14769SOL    HW245749   0.581   7.852  10.401  0.5260  0.8872 -2.0426
14770SOL     OW45750   7.341   5.743  10.498 -0.0015  0.2688 -0.9714
14770SOL    HW145751   7.287   5.673  10.464  0.8392 -0.0179 -1.7467
14770SOL    HW245752   7.315   5.821  10.448  2.1639 -0.4118 -3.3508
14771SOL     OW45753   2.736   1.585   9.695  0.2322  0.2414  0.3678
14771SOL    HW145754   2.700   1.614   9.611  0.0175  2.1794  1.0573
14771SOL    HW245755   2.830   1.575   9.679  0.1803  0.5254 -0.1258
14772SOL     OW45756   6.557   0.506   8.758 -0.1567  0.3573 -0.5669
14772SOL    HW145757   6.573   0.517   8.851  0.2627  2.6179 -0.8494
14772SOL    HW245758   6.471   0.547   8.743 -0.2732 -0.0869 -1.1506
14773SOL     OW45759   2.982   5.015   0.883  0.5851 -0.6568  0.0941
14773SOL    HW145760   3.021   5.102   0.875  0.2720 -0.6224 -1.3178
14773SOL    HW245761   2.928   5.005   0.804 -1.4996 -1.0893  1.5037
14774SOL     OW45762   6.232   6.844   3.285  0.2097 -0.1296 -0.3529
14774SOL    HW145763   6.210   6.854   3.192 -0.2948  0.6715 -0.1542
14774SOL    HW245764   6.324   6.820   3.286 -0.0998 -1.5095 -1.1228
14775SOL     OW45765   7.513   0.761   4.545 -0.5409  0.2157 -0.1959
14775SOL    HW145766   7.531   0.788   4.455  0.6745 -0.6191 -0.2254
14775SOL    HW245767   7.486   0.842   4.589  0.6945  1.0332 -0.8598
14776SOL     OW45768   7.426   2.824   9.094 -0.0402  0.1291 -0.1737
14776SOL    HW145769   7.390   2.860   9.175 -1.0427  0.5079 -0.7643
14776SOL    HW245770   7.467   2.899   9.051 -0.5798  0.2024 -0.5761
14777SOL     OW45771   2.978   7.292   0.561  0.2776 -0.1420 -0.4881
14777SOL    HW145772   2.907   7.355   0.551 -0.1394 -0.6531 -0.7962
14777SOL    HW245773   2.973   7.237   0.483  2.0687  0.8588 -1.3904
14778SOL     OW45774   0.683   0.963   7.584 -0.3347 -0.4891  0.1386
14778SOL    HW145775   0.764   0.970   7.534 -0.9818  0.2084 -0.8529
14778SOL    HW245776   0.644   0.880   7.556  0.3487 -1.1692  1.1329
14779SOL     OW45777   2.812   1.109   2.280  0.4976  0.2594  0.8371
14779SOL    HW145778   2.741   1.149   2.230  0.1175 -1.9805 -0.5131
14779SOL    HW245779   2.820   1.020   2.245  2.7062 -0.1836  2.2592
14780SOL     OW45780   3.020   1.315   2.640 -0.4011  0.1652 -0.1125
14780SOL    HW145781   3.033   1.294   2.547 -2.0722  0.5503 -0.4776
14780SOL    HW245782   3.037   1.233   2.686  2.5707  0.4797 -0.4845
14781SOL     OW45783   0.668   3.141   2.846  0.0391 -0.0927 -0.7463
14781SOL    HW145784   0.748   3.177   2.884 -1.2823  2.0177  0.2146
14781SOL    HW245785   0.693   3.053   2.817  2.8238  0.6865 -1.0117
14782SOL     OW45786   2.905   4.030   9.117 -0.2001  0.1637  0.0244
14782SOL    HW145787   2.914   3.961   9.050 -0.4934  2.4731 -2.6016
14782SOL    HW245788   2.819   4.014   9.156 -0.9887 -0.0677 -1.6934
14783SOL     OW45789   1.079   0.032   9.342  0.3459  0.7820  0.6788
14783SOL    HW145790   1.044  -0.042   9.391  0.0849  0.8419  0.5848
14783SOL    HW245791   1.167   0.004   9.317  0.3192  0.5796  0.8076
14784SOL     OW45792   5.688   6.429   3.376 -0.0195 -0.5363 -0.3487
14784SOL    HW145793   5.759   6.438   3.439 -0.4339 -0.8911  0.1803
14784SOL    HW245794   5.614   6.398   3.428 -0.4785 -0.4531 -0.9437
14785SOL     OW45795   2.120   1.471   3.595  0.0866 -0.0470 -0.3117
14785SOL    HW145796   2.136   1.564   3.577  0.2047 -0.0822 -0.3877
14785SOL    HW245797   2.206   1.435   3.613 -0.0463  0.0208  0.4935
14786SOL     OW45798   4.756   0.987   3.570  0.4724  0.4127  0.1788
14786SOL    HW145799   4.835   1.039   3.586 -0.1513  1.6451 -0.6216
14786SOL    HW245800   4.697   1.011   3.641 -0.3208  1.8627 -0.9346
14787SOL     OW45801   2.666   1.736   5.272  0.4098  0.0408 -0.1058
14787SOL    HW145802   2.664   1.771   5.361 -0.3643 -0.5052  0.0978
14787SOL    HW245803   2.758   1.712   5.258  0.2646 -1.4443  1.1905
14788SOL     OW45804   4.745   2.676   9.581  0.9163  0.3434 -0.1078
14788SOL    HW145805   4.787   2.685   9.496 -0.5593  1.3084 -0.7799
14788SOL    HW245806   4.717   2.764   9.604 -1.1208 -0.2928  0.0690
14789SOL     OW45807   6.274   5.681   8.983  0.6710 -0.4284 -0.0656
14789SOL    HW145808   6.242   5.713   8.899  0.9569 -0.9507 -0.3736
14789SOL    HW245809   6.369   5.680   8.974  0.6481 -2.3868 -0.4472
14790SOL     OW45810   7.853   3.030   6.927  0.5349 -0.3648 -0.2052
14790SOL    HW145811   7.905   3.109   6.915 -0.0707 -0.1678 -1.6384
14790SOL    HW245812   7.763   3.058   6.915  0.2716 -1.1794 -0.1702
14791SOL     OW45813   2.831   6.169   8.298 -0.1218 -0.2931  0.1831
14791SOL    HW145814   2.853   6.081   8.269  0.0612 -0.2645  0.2278
14791SOL    HW245815   2.789   6.157   8.383 -1.5402 -0.4435 -0.5137
14792SOL     OW45816   7.138   0.358   1.662 -0.1118  0.0317  0.0625
14792SOL    HW145817   7.191   0.320   1.732  0.0844 -1.7771 -1.0319
14792SOL    HW245818   7.153   0.302   1.586 -2.2260  0.4927 -0.7737
14793SOL     OW45819   7.149   4.266   7.728 -0.1363 -0.5233 -0.1823
14793SOL    HW145820   7.114   4.337   7.783 -0.1254 -1.9352  1.7496
14793SOL    HW245821   7.078   4.203   7.722 -0.7156  0.2446 -3.2353
14794SOL     OW45822   0.290   6.152   4.811  0.3298 -0.0990  0.2705
14794SOL    HW145823   0.204   6.129   4.778  0.9872 -0.6890 -1.1137
14794SOL    HW245824   0.292   6.116   4.899 -0.2702 -1.5182 -0.2581
14795SOL     OW45825   6.273   6.488   3.667  0.4693 -0.3901  0.2786
14795SOL    HW145826   6.247   6.402   3.702 -0.6323  0.2300  1.0204
14795SOL    HW245827   6.306   6.536   3.742 -0.1843  0.3108  0.1257
14796SOL     OW45828   6.721   2.858   9.513 -0.2352 -0.1904  0.7990
14796SOL    HW145829   6.736   2.935   9.569 -0.6555 -0.4704  1.3002
14796SOL    HW245830   6.732   2.783   9.572  1.8820 -0.6122 -0.0414
14797SOL     OW45831   2.064   7.432   7.961  0.0525  0.3486 -0.4944
14797SOL    HW145832   2.093   7.504   8.017  1.2697  2.0280 -3.0555
14797SOL    HW245833   2.146   7.391   7.931 -0.5631 -0.6743 -0.8105
14798SOL     OW45834   6.073   2.986   7.737  0.0417  0.4975 -0.6754
14798SOL    HW145835   6.005   2.919   7.725 -1.4591  1.6221  0.9571
14798SOL    HW245836   6.030   3.055   7.788  2.6208  0.9088  1.1622
14799SOL     OW45837   4.085   3.114   3.237  0.4281 -0.3740  0.8281
14799SOL    HW145838   4.064   3.025   3.209  2.6051 -0.8408  0.5522
14799SOL    HW245839   4.063   3.169   3.162 -1.7326 -0.5171  1.2959
14800SOL     OW45840   4.964   5.508  10.989  0.4906  0.7045  0.3537
14800SOL    HW145841   4.919   5.458  10.921  1.8499 -0.4180  0.2451
14800SOL    HW245842   5.013   5.575  10.941  1.5523 -0.1692  0.1998
14801SOL     OW45843   4.708   4.838   1.840  0.0280  0.1928  0.3326
14801SOL    HW145844   4.617   4.866   1.827  0.5141  2.3008  1.0795
14801SOL    HW245845   4.708   4.746   1.817 -1.9162  0.5734 -1.4739
14802SOL     OW45846   5.242   1.599  10.237 -0.0452 -0.3079 -0.0409
14802SOL    HW145847   5.209   1.607  10.147  2.5990  0.6077 -1.0568
14802SOL    HW245848   5.226   1.684  10.276  1.3017  0.2675 -0.6630
14803SOL     OW45849   1.085   6.710   2.270 -0.0045 -0.8516  0.1422
14803SOL    HW145850   1.172   6.682   2.298  0.4394  0.4866  0.1634
14803SOL    HW245851   1.025   6.671   2.334  0.3709 -3.1511 -0.7966
14804SOL     OW45852   1.316   4.865   5.651  0.1511  0.5386  0.0550
14804SOL    HW145853   1.403   4.899   5.672  0.8574 -1.9729  1.6442
14804SOL    HW245854   1.259   4.942   5.655  1.8157  1.8056  1.9520
14805SOL     OW45855   7.389   3.337   8.344  0.4511  0.1738  0.0058
14805SOL    HW145856   7.331   3.282   8.396  0.2460  0.8516  0.4986
14805SOL    HW245857   7.338   3.359   8.266  1.6342 -3.0343 -1.9139
14806SOL     OW45858   4.570   3.890   3.435  0.4506  0.4087 -0.1990
14806SOL    HW145859   4.516   3.969   3.442  0.2982  0.2640  0.2512
14806SOL    HW245860   4.513   3.819   3.465  0.6529  0.1496 -0.4142
14807SOL     OW45861   3.129   4.128   0.998  0.7234  0.7923  0.2828
14807SOL    HW145862   3.185   4.093   0.928  0.0785  2.0801 -0.9215
14807SOL    HW245863   3.109   4.217   0.970 -2.0646  0.3395  0.5841
14808SOL     OW45864   5.406   4.899   0.071 -0.3164  0.0595 -0.2606
14808SOL    HW145865   5.385   4.805   0.074  0.4763 -0.1536 -1.0706
14808SOL    HW245866   5.321   4.942   0.081 -0.5655 -0.7115  1.3081
14809SOL     OW45867   4.278   3.397   7.516 -0.1379  0.8723 -0.0986
14809SOL    HW145868   4.321   3.323   7.473  1.0141  1.4097  0.0991
14809SOL    HW245869   4.218   3.357   7.579  1.0023  0.1034  0.5199
14810SOL     OW45870   3.544   5.065   3.396 -0.2226  0.5905 -0.0722
14810SOL    HW145871   3.544   5.005   3.322 -2.8609 -0.5500  0.7074
14810SOL    HW245872   3.573   5.011   3.470 -1.5933  0.5179  0.4387
14811SOL     OW45873   0.595   4.677   3.227  0.4340 -0.4441  0.0216
14811SOL    HW145874   0.506   4.701   3.254  0.9245 -0.3178  1.6870
14811SOL    HW245875   0.586   4.646   3.137 -1.5537 -1.9451  0.6632
14812SOL     OW45876   2.799   7.450   0.734 -0.1128 -0.0573 -0.1850
14812SOL    HW145877   2.755   7.394   0.670 -1.3844  0.2986  0.3388
14812SOL    HW245878   2.835   7.522   0.684 -1.7539  0.6225 -0.4504
14813SOL     OW45879   4.969   3.580  12.203  0.1103  0.3643 -0.1746
14813SOL    HW145880   5.040   3.517  12.186  1.3952  1.9368 -0.9663
14813SOL    HW245881   4.902   3.529  12.248  2.0921 -1.0418  1.3894
14814SOL     OW45882   0.793   2.139   2.267  0.1632  0.0872 -0.5412
14814SOL    HW145883   0.853   2.111   2.335 -0.0264 -2.2033 -1.2442
14814SOL    HW245884   0.729   2.194   2.312  0.9237 -0.0937  0.7980
14815SOL     OW45885   3.049   5.837   2.895 -0.1531 -0.7644  0.2448
14815SOL    HW145886   3.104   5.910   2.867  0.6758 -1.1420  0.8839
14815SOL    HW245887   3.049   5.777   2.820 -1.3433  0.1445 -0.5329
14816SOL     OW45888   5.720   5.141   6.720 -0.2075 -0.2933 -0.5044
14816SOL    HW145889   5.792   5.111   6.664 -0.5064  0.4476 -1.3000
14816SOL    HW245890   5.760   5.153   6.806  0.1401 -1.9768 -0.3832
14817SOL     OW45891   5.917   1.805   6.807 -0.1903 -0.9600  0.5404
14817SOL    HW145892   5.908   1.843   6.720 -0.1759 -2.5448 -0.1837
14817SOL    HW245893   5.998   1.754   6.803  1.2963  1.0142  2.3357
14818SOL     OW45894   7.748   0.332   6.723  0.2008 -0.4886  0.0492
14818SOL    HW145895   7.668   0.371   6.687  1.0169 -0.8826 -2.3733
14818SOL    HW245896   7.796   0.301   6.647  1.4780 -2.6347  1.6188
14819SOL     OW45897   3.423   7.443   8.552 -0.0006 -0.0616  0.0238
14819SOL    HW145898   3.428   7.402   8.466  1.1655  0.1156 -0.0155
14819SOL    HW245899   3.352   7.398   8.597 -1.0242  0.2421 -1.2333
14820SOL     OW45900   4.642   1.428   8.203  0.1333  0.0588  0.2632
14820SOL    HW145901   4.684   1.508   8.174 -0.0271 -0.2020 -0.7295
14820SOL    HW245902   4.578   1.408   8.134 -1.6632  0.4638  1.7346
14821SOL     OW45903   7.970   1.339   6.625  0.2133  0.5272 -0.7201
14821SOL    HW145904   7.929   1.386   6.553 -0.7667 -0.8069 -1.0578
14821SOL    HW245905   7.967   1.247   6.600 -1.1988 -0.1184  1.4904
14822SOL     OW45906   7.889   4.950   3.717 -0.1554  0.0895  0.1510
14822SOL    HW145907   7.801   4.984   3.730 -0.2542 -0.3549  0.6824
14822SOL    HW245908   7.896   4.876   3.778 -0.0863 -1.0709 -1.2019
14823SOL     OW45909   6.443   2.693   0.870 -0.2244  0.0772 -0.4360
14823SOL    HW145910   6.476   2.781   0.856  0.2783 -0.1934 -0.9819
14823SOL    HW245911   6.348   2.704   0.876 -0.2513  0.5269 -1.5227
14824SOL     OW45912   0.131   4.063   6.284 -0.2463  0.6285 -0.0205
14824SOL    HW145913   0.096   4.116   6.356  2.0396  1.7024  0.4064
14824SOL    HW245914   0.193   4.004   6.326  0.3023  0.4958 -0.9938
14825SOL     OW45915   7.158   2.403  11.854  0.4534  0.7031 -0.1897
14825SOL    HW145916   7.200   2.337  11.799 -1.5793  0.7317 -1.9094
14825SOL    HW245917   7.212   2.481  11.843  0.1251  0.7112 -2.2634
14826SOL     OW45918   5.492   5.323   1.432  0.1925 -0.5217  0.0349
14826SOL    HW145919   5.444   5.279   1.501 -1.1802  0.1660 -0.4566
14826SOL    HW245920   5.426   5.347   1.368  0.7145  2.9592  0.6365
14827SOL     OW45921   7.381   2.895   0.288 -0.1285  0.0849  0.1391
14827SOL    HW145922   7.400   2.980   0.326  0.2138 -0.2264  0.6778
14827SOL    HW245923   7.354   2.914   0.198  0.3314  0.7261  0.1355
14828SOL     OW45924   2.066   1.633   2.563 -0.7027 -1.0180  0.7195
14828SOL    HW145925   2.147   1.623   2.512 -0.6521 -1.1913  0.8309
14828SOL    HW245926   1.998   1.646   2.498 -0.5305 -0.4858  0.6371
14829SOL     OW45927   2.035   3.070   1.930 -0.9425 -0.5665 -0.0995
14829SOL    HW145928   2.006   2.986   1.894 -0.6449 -0.6761 -0.0836
14829SOL    HW245929   2.066   3.119   1.853  0.2525 -1.0259  0.0798
14830SOL     OW45930   4.381   4.580   6.032 -0.0117 -0.1916 -0.5363
14830SOL    HW145931   4.366   4.670   6.003  1.1762 -0.7074 -3.0002
14830SOL    HW245932   4.295   4.538   6.025 -0.5558  0.6830  0.5315
14831SOL     OW45933   6.708   1.695  10.402  0.5570 -0.3060  0.4583
14831SOL    HW145934   6.639   1.638  10.367  0.0305  0.6226 -0.0763
14831SOL    HW245935   6.660   1.765  10.446  1.1564  0.4877 -0.1286
14832SOL     OW45936   7.478   6.497   4.507 -0.7703 -0.2477  0.2625
14832SOL    HW145937   7.460   6.440   4.432 -3.1795  1.0495 -0.2478
14832SOL    HW245938   7.477   6.585   4.471 -0.2170  0.3007  1.5322
14833SOL     OW45939   1.550   4.534   1.606  0.1576  0.2994  0.1913
14833SOL    HW145940   1.579   4.617   1.567  1.3267  0.1308  0.6581
14833SOL    HW245941   1.615   4.470   1.576  0.3446 -0.0765  1.3652
14834SOL     OW45942   4.970   2.508   6.082 -0.5032  0.2304 -0.1392
14834SOL    HW145943   5.046   2.508   6.024 -0.1297  0.5570  0.3414
14834SOL    HW245944   4.924   2.427   6.061  0.9660 -0.9141  0.8308
14835SOL     OW45945   0.112   0.008   6.002  0.3995 -0.1483 -0.4553
14835SOL    HW145946   0.182  -0.032   5.949  0.4197  1.5341 -1.7764
14835SOL    HW245947   0.036   0.008   5.945 -0.1593 -0.1728  0.2775
14836SOL     OW45948   0.488   3.549   6.179 -0.0841 -0.0608 -0.1730
14836SOL    HW145949   0.577   3.565   6.148 -0.7006  0.2804 -1.8933
14836SOL    HW245950   0.453   3.484   6.118 -0.8217 -0.6875  0.8776
14837SOL     OW45951   0.499   1.711   2.493  0.2475 -0.2237  0.0491
14837SOL    HW145952   0.407   1.736   2.482  0.0289  0.3836  2.6689
14837SOL    HW245953   0.509   1.633   2.439 -1.8729 -0.4390 -0.1167
14838SOL     OW45954   0.709   7.579   7.193 -0.2361 -0.5535 -0.2830
14838SOL    HW145955   0.794   7.622   7.205 -0.2982 -0.8034  1.2447
14838SOL    HW245956   0.647   7.637   7.238 -0.5940 -1.2924  0.1872
14839SOL     OW45957   7.420   4.749   8.587  0.4323 -0.0232 -0.0206
14839SOL    HW145958   7.385   4.660   8.577  0.9425 -0.3949  1.2538
14839SOL    HW245959   7.460   4.769   8.503  3.2851 -2.3483  0.6211
14840SOL     OW45960   1.992   7.391   0.341  0.7013  0.6620 -0.7207
14840SOL    HW145961   1.952   7.472   0.310  0.4497  1.0239  0.4614
14840SOL    HW245962   2.059   7.421   0.403 -0.2402 -0.0222  0.7038
14841SOL     OW45963   7.586   4.567   8.180 -0.2966 -0.2881 -0.3903
14841SOL    HW145964   7.647   4.614   8.237  0.8367 -0.3697 -1.5046
14841SOL    HW245965   7.583   4.617   8.099 -0.7883 -0.9299 -0.7861
14842SOL     OW45966   6.446   2.127  11.755 -0.4278  0.4122 -0.4524
14842SOL    HW145967   6.455   2.120  11.850 -3.2878 -1.5813 -0.1717
14842SOL    HW245968   6.522   2.082  11.719  0.6036  1.0506  0.8748
14843SOL     OW45969   3.259   5.256  11.172  0.3059  0.1120  0.2632
14843SOL    HW145970   3.225   5.322  11.111  0.8055  0.3669  0.2528
14843SOL    HW245971   3.352   5.250  11.150  0.2151 -0.7696  0.1093
14844SOL     OW45972   6.865   4.136   0.326 -0.4264  0.1435  0.2868
14844SOL    HW145973   6.842   4.225   0.299 -0.6025 -0.0290 -0.1377
14844SOL    HW245974   6.780   4.094   0.343 -0.3708 -0.1461 -0.1586
14845SOL     OW45975   4.942   5.466   7.847  0.2706  0.0737  0.3481
14845SOL    HW145976   5.024   5.421   7.828 -0.1560 -0.3111 -0.6486
14845SOL    HW245977   4.874   5.407   7.814 -0.3639  0.8405  0.2611
14846SOL     OW45978   6.557   7.717   3.043  0.4373 -0.2325 -0.3987
14846SOL    HW145979   6.565   7.640   3.100 -0.2240 -1.1631 -1.5038
14846SOL    HW245980   6.568   7.682   2.954  0.5803  1.0331 -0.9004
14847SOL     OW45981   2.687   6.624   1.906 -0.2462  0.2090 -0.4678
14847SOL    HW145982   2.639   6.706   1.891  0.7574  0.9927  0.4714
14847SOL    HW245983   2.773   6.639   1.868  0.8270  0.5960  1.9523
14848SOL     OW45984   7.453   4.797   3.475 -0.4425 -0.1946  0.2241
14848SOL    HW145985   7.413   4.721   3.433  0.0630  1.1218 -2.8772
14848SOL    HW245986   7.544   4.771   3.489 -0.3248 -0.2531 -0.6272
14849SOL     OW45987   0.101   5.205   5.436 -0.1321  0.0656 -0.5641
14849SOL    HW145988   0.178   5.242   5.394  1.0587 -2.7266 -1.0178
14849SOL    HW245989   0.127   5.117   5.461 -2.1418  0.1771  2.3448
14850SOL     OW45990   2.033   6.162   0.664  0.3884 -0.0018 -0.0144
14850SOL    HW145991   1.990   6.077   0.670 -0.7020  0.5560  0.2912
14850SOL    HW245992   2.040   6.179   0.570 -1.7227  0.6978 -0.0815
14851SOL     OW45993   6.721   0.663   6.668  0.0323  0.0240  0.2088
14851SOL    HW145994   6.790   0.657   6.602  0.9161 -0.5576  1.1578
14851SOL    HW245995   6.763   0.633   6.749 -0.8597  1.2212  1.1559
14852SOL     OW45996   4.246   5.128   6.274  0.1946 -0.0844 -0.9653
14852SOL    HW145997   4.173   5.168   6.320  0.6639 -0.2661 -0.0364
14852SOL    HW245998   4.323   5.148   6.328  0.5086 -1.8443 -0.6848
14853SOL     OW45999   3.151   3.493   1.375 -0.4461  0.7942 -0.3555
14853SOL    HW146000   3.098   3.572   1.363 -0.2535  1.0458  0.3913
14853SOL    HW246001   3.231   3.510   1.325 -0.4637  1.0152 -0.3113
14854SOL     OW46002   1.227   7.899   4.930 -0.2900 -0.0377  0.5759
14854SOL    HW146003   1.276   7.963   4.878  1.8961 -0.7283  1.6147
14854SOL    HW246004   1.220   7.822   4.874  1.3342 -0.4929  0.9321
14855SOL     OW46005   3.076   5.728  11.650 -0.3899  0.6380  0.3329
14855SOL    HW146006   3.037   5.641  11.644  0.6875  0.2195 -1.3829
14855SOL    HW246007   3.143   5.720  11.718 -0.5641  0.2497  0.4635
14856SOL     OW46008   6.045   5.630   8.345  0.0428 -0.0558  0.0584
14856SOL    HW146009   6.068   5.605   8.255 -0.8000 -2.0386  0.3260
14856SOL    HW246010   6.006   5.716   8.338  4.5731  2.2308 -0.7995
14857SOL     OW46011   5.378   1.510   6.553 -0.2950 -0.1127 -0.3816
14857SOL    HW146012   5.437   1.585   6.546 -0.4529  0.1856  1.1772
14857SOL    HW246013   5.413   1.447   6.490  2.5236 -0.4610  1.3032
14858SOL     OW46014   4.565   6.599   9.783  0.0275  0.3603 -0.0534
14858SOL    HW146015   4.474   6.622   9.800  0.0507  0.5193 -0.1375
14858SOL    HW246016   4.582   6.632   9.695 -0.3316 -1.1681 -0.7185
14859SOL     OW46017   6.680   5.969   6.386 -0.6202  0.5975 -0.3161
14859SOL    HW146018   6.702   6.037   6.322  0.6246 -0.3295 -0.9048
14859SOL    HW246019   6.620   6.012   6.446 -1.0253  1.7946 -1.5207
14860SOL     OW46020   1.113   7.814   1.457 -0.6266  0.1295  0.0903
14860SOL    HW146021   1.156   7.743   1.410 -1.1841  0.4018 -0.8486
14860SOL    HW246022   1.085   7.774   1.540 -0.4166 -0.5863 -0.1788
14861SOL     OW46023   2.840   4.643   1.405 -0.2134 -0.1040 -0.7181
14861SOL    HW146024   2.849   4.548   1.413  1.3533 -0.1559 -2.4761
14861SOL    HW246025   2.788   4.655   1.326  0.3713  0.5024 -1.0180
14862SOL     OW46026   3.434   5.722   4.765 -0.5951  0.1917  0.1083
14862SOL    HW146027   3.425   5.743   4.858 -1.0881  2.0916 -0.3311
14862SOL    HW246028   3.358   5.667   4.746  0.3226 -1.5432  1.1263
14863SOL     OW46029   2.602   0.950  11.925  0.1013 -0.3557 -0.3583
14863SOL    HW146030   2.571   0.960  12.015  0.6913 -0.5735 -0.1253
14863SOL    HW246031   2.697   0.938  11.934  0.1638 -0.3611 -1.0102
14864SOL     OW46032   3.030   2.214   5.666  0.6775 -0.5528  0.6235
14864SOL    HW146033   2.967   2.144   5.650 -0.5024  1.0420 -2.4576
14864SOL    HW246034   3.103   2.195   5.607  1.4026 -0.3721  1.4377
14865SOL     OW46035   0.793   6.636   9.906 -0.2575 -0.0518  0.6263
14865SOL    HW146036   0.888   6.640   9.893 -0.0902  1.5091  1.8836
14865SOL    HW246037   0.758   6.703   9.847 -0.3438  0.7615  1.5623
14866SOL     OW46038   6.007   3.267  10.197  0.6800 -0.3946  0.1345
14866SOL    HW146039   5.930   3.319  10.171  0.5034 -0.8788 -0.3130
14866SOL    HW246040   6.075   3.333  10.214  0.1699  0.0403  0.5380
14867SOL     OW46041   3.550   7.969   8.219 -0.1904 -0.3163  0.5109
14867SOL    HW146042   3.475   8.029   8.225  0.7663  0.7950  1.9242
14867SOL    HW246043   3.579   7.957   8.310  1.5893 -0.4119 -0.0315
14868SOL     OW46044   7.727   4.255   0.160 -0.6034 -0.1554  0.1042
14868SOL    HW146045   7.781   4.332   0.172  1.3052 -1.5885  1.2884
14868SOL    HW246046   7.640   4.289   0.138  0.0369  2.3076  1.1282
14869SOL     OW46047   4.710   7.238   3.775  0.7243 -0.2729  0.5677
14869SOL    HW146048   4.615   7.236   3.764  0.8043 -1.3208 -0.1130
14869SOL    HW246049   4.732   7.151   3.809  1.5010 -0.2618  0.1157
14870SOL     OW46050   4.484   1.736  10.607 -0.4159 -0.0539  0.4460
14870SOL    HW146051   4.516   1.801  10.546  0.0739  0.3572  1.1214
14870SOL    HW246052   4.473   1.783  10.690  0.6420 -0.9581  1.1420
14871SOL     OW46053   3.132   6.965   8.317  0.6923  0.2203  0.0502
14871SOL    HW146054   3.195   7.020   8.364 -0.4003  2.4724 -0.9305
14871SOL    HW246055   3.071   7.028   8.277 -2.0615 -1.8031  0.7500
14872SOL     OW46056   4.550   2.141   1.017 -0.2424  0.7938 -0.0678
14872SOL    HW146057   4.632   2.123   1.062 -0.3414 -0.9660 -0.5225
14872SOL    HW246058   4.576   2.185   0.936  0.1838  0.9832  0.1694
14873SOL     OW46059   4.024   4.196  10.418 -0.2716  0.9837  0.0999
14873SOL    HW146060   4.049   4.158  10.333 -1.6121  0.7371 -0.2103
14873SOL    HW246061   4.100   4.248  10.444  1.2021 -0.9942 -0.0006
14874SOL     OW46062   0.516   2.598   5.830  0.4295  0.2377  0.4169
14874SOL    HW146063   0.442   2.541   5.808 -0.6123  1.3997  0.8313
14874SOL    HW246064   0.503   2.676   5.776  2.4218 -0.2908 -0.9337
14875SOL     OW46065   5.899   1.478  10.865 -0.3725  0.3991 -0.2600
14875SOL    HW146066   5.951   1.401  10.841  0.5081  0.6846  0.6703
14875SOL    HW246067   5.859   1.506  10.783 -0.7566 -1.0828 -0.6067
14876SOL     OW46068   7.026   7.788   2.866 -0.1537  0.6114  0.0064
14876SOL    HW146069   6.967   7.804   2.792 -0.0136 -0.2057 -0.3005
14876SOL    HW246070   6.991   7.842   2.936 -1.4861 -0.0887 -0.0720
14877SOL     OW46071   1.714   3.120   4.837 -0.2129 -0.0337 -0.2875
14877SOL    HW146072   1.688   3.033   4.808  1.4022 -1.0457  1.0963
14877SOL    HW246073   1.632   3.169   4.844 -1.0093 -0.8797 -2.6979
14878SOL     OW46074   0.272   5.837   8.422 -0.3806 -0.3768  0.5964
14878SOL    HW146075   0.190   5.885   8.428 -1.4533 -2.0453  0.1272
14878SOL    HW246076   0.270   5.796   8.335  0.7609 -0.7555  0.7246
14879SOL     OW46077   4.112   0.620   6.404 -0.4793  0.2462 -0.4971
14879SOL    HW146078   4.021   0.625   6.431 -0.9499  0.1816 -2.0153
14879SOL    HW246079   4.121   0.686   6.336  0.8575  0.8992  0.2666
14880SOL     OW46080   1.571   7.864   1.578  0.0956  0.0713 -0.4007
14880SOL    HW146081   1.489   7.877   1.626 -0.0323 -0.1270 -0.5650
14880SOL    HW246082   1.638   7.903   1.634 -0.1336  0.3940 -0.3467
14881SOL     OW46083   2.106   3.173   5.407 -0.1411 -0.1325 -0.2256
14881SOL    HW146084   2.176   3.109   5.420  0.3379  0.1215 -1.4182
14881SOL    HW246085   2.146   3.258   5.427 -0.6649 -0.1397  0.9624
14882SOL     OW46086   4.583   7.979   6.291  0.4718 -0.2824  0.1169
14882SOL    HW146087   4.616   7.904   6.242  1.6575  0.8428 -0.8904
14882SOL    HW246088   4.488   7.971   6.285  0.5587 -0.2754 -2.3501
14883SOL     OW46089   6.118   7.288   1.851 -0.2033 -0.4462 -0.7270
14883SOL    HW146090   6.146   7.275   1.760 -1.1469  1.2769 -1.2998
14883SOL    HW246091   6.122   7.382   1.864  0.1585 -0.6910  1.1283
14884SOL     OW46092   1.426   0.440   8.226 -0.0790  0.1777  0.3505
14884SOL    HW146093   1.449   0.504   8.293 -1.9497 -1.0347  2.2772
14884SOL    HW246094   1.331   0.445   8.220 -0.0669 -0.7731 -1.1981
14885SOL     OW46095   6.582   4.770   2.654  0.2346  0.1493 -0.2540
14885SOL    HW146096   6.673   4.745   2.637  0.2681  0.3745 -0.4153
14885SOL    HW246097   6.543   4.693   2.696  0.2300 -0.3217 -1.1023
14886SOL     OW46098   4.622   7.067  10.469 -0.0112 -0.0915  0.0914
14886SOL    HW146099   4.659   7.153  10.490  0.2712  0.1854 -1.4392
14886SOL    HW246100   4.685   7.005  10.506  0.1698  0.3542  0.5566
14887SOL     OW46101   1.055   4.759   0.826  0.1255 -0.6757 -0.0392
14887SOL    HW146102   1.070   4.740   0.733 -0.0480 -1.2483  0.0419
14887SOL    HW246103   1.091   4.683   0.872  1.2511  0.1224  0.4414
14888SOL     OW46104   0.091   3.147  10.842 -0.1751  0.5198 -0.4391
14888SOL    HW146105   0.162   3.189  10.793  1.0996 -1.4931 -0.4696
14888SOL    HW246106   0.022   3.134  10.777 -0.2019  1.6581 -0.6531
14889SOL     OW46107   3.309   0.562   6.886 -0.0519  0.4641  0.2995
14889SOL    HW146108   3.342   0.488   6.937 -2.4237 -0.2581  0.9451
14889SOL    HW246109   3.311   0.636   6.946 -2.6709 -0.3423  1.5525
14890SOL     OW46110   7.246   3.167  10.592  0.1999 -0.3265 -0.2964
14890SOL    HW146111   7.180   3.139  10.528  0.1898 -0.9685 -0.0080
14890SOL    HW246112   7.329   3.159  10.546  0.0815  0.6361 -0.7153
14891SOL     OW46113   2.219   4.724  10.562  0.1561 -0.3457 -0.2206
14891SOL    HW146114   2.132   4.758  10.584  0.7358  0.7441  0.4833
14891SOL    HW246115   2.247   4.677  10.640  1.6779  2.4198  1.0133
14892SOL     OW46116   1.872   4.487   9.732  0.2985  0.6959 -0.0065
14892SOL    HW146117   1.832   4.440   9.659 -0.2277  0.1856  0.5917
14892SOL    HW246118   1.961   4.506   9.703  0.8265 -1.4248  0.0061
14893SOL     OW46119   5.235   5.103   5.378  0.6903 -0.0937  0.3446
14893SOL    HW146120   5.224   5.099   5.283 -0.4820  0.2267  0.4490
14893SOL    HW246121   5.310   5.047   5.396 -1.4098 -3.4213 -0.3985
14894SOL     OW46122   4.152   7.878   1.154 -0.6159  0.5254  0.0889
14894SOL    HW146123   4.144   7.903   1.062 -0.8640 -1.4084 -0.4489
14894SOL    HW246124   4.065   7.894   1.191 -1.1342 -0.6730 -0.5593
14895SOL     OW46125   0.182   1.754   6.140 -0.8449 -0.0521 -0.3471
14895SOL    HW146126   0.185   1.718   6.051  1.0698  0.7331 -0.6557
14895SOL    HW246127   0.244   1.827   6.138  0.4065 -0.9312  2.0409
14896SOL     OW46128   7.228   0.553   1.989 -0.5960  0.2147 -0.2687
14896SOL    HW146129   7.250   0.547   2.082 -0.9258  0.1587 -0.1920
14896SOL    HW246130   7.225   0.462   1.959  0.2845  0.2681 -0.5206
14897SOL     OW46131   7.713   6.181   2.283 -0.3358  0.0168  0.0493
14897SOL    HW146132   7.673   6.153   2.366 -0.0405  0.9055  0.5059
14897SOL    HW246133   7.778   6.112   2.264 -1.3174 -0.8729 -0.1462
14898SOL     OW46134   4.853   0.033   5.100 -0.2575 -0.0045 -0.4905
14898SOL    HW146135   4.842  -0.059   5.076 -0.3977 -0.3708  0.8728
14898SOL    HW246136   4.942   0.055   5.072  0.1479 -0.8643  0.0756
14899SOL     OW46137   2.470   0.898   6.575  0.7654  0.4438  1.1100
14899SOL    HW146138   2.437   0.962   6.639  1.3938  2.1708 -0.2044
14899SOL    HW246139   2.452   0.939   6.490  1.3396 -1.0818  0.2236
14900SOL     OW46140   1.537   4.030   3.836 -0.1640 -0.3841  0.2732
14900SOL    HW146141   1.624   4.036   3.876  0.2520 -0.9362 -0.5048
14900SOL    HW246142   1.503   4.119   3.838 -0.5032 -0.5125  2.5455
14901SOL     OW46143   3.709   6.215  11.044 -0.1370  0.4857 -0.4223
14901SOL    HW146144   3.634   6.206  10.986 -0.8295 -1.6234  0.7129
14901SOL    HW246145   3.784   6.185  10.993 -0.5824 -0.4106 -0.5478
14902SOL     OW46146   6.868   5.575   2.352 -0.1343 -0.1592  0.0441
14902SOL    HW146147   6.911   5.564   2.437 -1.0447 -0.7030  0.4427
14902SOL    HW246148   6.860   5.670   2.341 -0.4542 -0.0919  0.8012
14903SOL     OW46149   2.163   5.375  10.758 -0.0111 -0.3233  0.5987
14903SOL    HW146150   2.230   5.307  10.763 -1.5650 -1.9141  0.5936
14903SOL    HW246151   2.184   5.423  10.677  1.0829 -0.8058  0.5782
14904SOL     OW46152   4.821   6.815   7.892  0.2068 -0.0812 -0.1358
14904SOL    HW146153   4.868   6.897   7.907 -0.8582  0.3790  0.8628
14904SOL    HW246154   4.768   6.831   7.815 -0.4040  0.3791  0.3658
14905SOL     OW46155   6.829   5.614   8.531 -0.0945  0.5902 -0.0899
14905SOL    HW146156   6.800   5.523   8.532 -0.5479  0.7263 -0.6246
14905SOL    HW246157   6.921   5.610   8.507  0.5607  0.1069  2.2061
14906SOL     OW46158   2.846   0.126   1.325  0.2956 -0.2025 -0.3384
14906SOL    HW146159   2.828   0.085   1.241  0.1310 -0.0768 -0.3643
14906SOL    HW246160   2.909   0.068   1.367 -0.7169 -1.0505  0.0658
14907SOL     OW46161   6.873   4.966   7.755 -0.3652 -0.4593  0.3851
14907SOL    HW146162   6.864   5.057   7.781 -1.4275 -0.6495  0.7136
14907SOL    HW246163   6.916   4.970   7.669 -1.9232  0.4361 -0.3883
14908SOL     OW46164   2.609   1.586  12.016 -0.1139  0.4986 -0.2520
14908SOL    HW146165   2.680   1.618  11.959 -0.9791  0.3133 -1.4589
14908SOL    HW246166   2.602   1.653  12.084  0.2875  1.2412 -0.9188
14909SOL     OW46167   2.936   4.377  11.382 -0.3256 -0.1155  0.4011
14909SOL    HW146168   3.005   4.311  11.373  0.4741  0.8367 -0.6721
14909SOL    HW246169   2.983   4.457  11.406 -0.8113  0.9342 -1.8803
14910SOL     OW46170   2.350   2.240  11.085  0.3207  0.1037  0.4463
14910SOL    HW146171   2.362   2.269  10.994 -0.1239  1.7002  0.8694
14910SOL    HW246172   2.438   2.218  11.115  0.2259 -2.6626 -1.0354
14911SOL     OW46173   0.162   5.070   3.837 -0.2681 -0.3844  0.8503
14911SOL    HW146174   0.193   5.116   3.915 -0.4108  0.4706  0.4179
14911SOL    HW246175   0.242   5.044   3.791 -0.1816  0.2345  0.6439
14912SOL     OW46176   2.179   6.954  12.433 -0.1818  0.2594  0.4139
14912SOL    HW146177   2.144   7.022  12.491  2.0171  0.4359  1.6305
14912SOL    HW246178   2.244   6.908  12.486  2.1429  0.6027 -1.9680
14913SOL     OW46179   7.308   7.075   8.127 -0.0074  0.3151 -0.1481
14913SOL    HW146180   7.271   7.137   8.189 -1.8986  0.7935 -1.6633
14913SOL    HW246181   7.397   7.060   8.158 -0.3858  1.7102  1.7686
14914SOL     OW46182   0.843   0.500   5.801 -0.1520 -0.0037  0.2354
14914SOL    HW146183   0.801   0.541   5.726 -0.0923 -1.2071 -0.4836
14914SOL    HW246184   0.778   0.506   5.871 -0.1596  1.2449  0.1377
14915SOL     OW46185   3.966   2.724   0.501  0.0472  0.0456 -0.4738
14915SOL    HW146186   3.905   2.662   0.540  2.6483 -1.7059  1.1203
14915SOL    HW246187   4.012   2.674   0.434  1.2999  0.5920 -0.0555
14916SOL     OW46188   0.157   4.848   3.008 -0.1890 -0.1994 -0.2566
14916SOL    HW146189   0.187   4.936   3.028  0.2271 -0.4342  0.1946
14916SOL    HW246190   0.074   4.840   3.055  0.5359 -0.5705  1.0123
14917SOL     OW46191   0.355   1.638   3.531 -0.1355 -0.4209 -0.2664
14917SOL    HW146192   0.262   1.653   3.511 -0.4684 -1.4414  0.4219
14917SOL    HW246193   0.356   1.553   3.575  1.0275 -0.0266  0.4955
14918SOL     OW46194   5.638   7.868   2.454 -0.0375 -0.1942 -0.6527
14918SOL    HW146195   5.545   7.845   2.455  0.1290 -0.8571  0.0991
14918SOL    HW246196   5.667   7.855   2.544  0.6322  0.6628 -0.7333
14919SOL     OW46197   4.010   7.711   5.352 -0.0166  0.3627 -0.0677
14919SOL    HW146198   4.070   7.742   5.420 -2.8040  0.5598  2.4783
14919SOL    HW246199   3.998   7.618   5.370  0.8000 -0.0961 -1.6663
14920SOL     OW46200   0.901   7.718   5.501 -0.1408  0.4599  0.5896
14920SOL    HW146201   0.995   7.734   5.502 -0.0464  0.0214 -0.1703
14920SOL    HW246202   0.875   7.734   5.410 -0.6057 -0.4901  0.5471
14921SOL     OW46203   0.976   2.339   7.713  0.0826 -0.7342  0.5138
14921SOL    HW146204   0.986   2.248   7.742 -1.5870 -1.9367 -2.2414
14921SOL    HW246205   1.062   2.363   7.679  0.6066 -1.1518  1.4985
14922SOL     OW46206   0.906   0.029   7.856 -0.3711  0.3576 -0.3491
14922SOL    HW146207   0.931   0.081   7.932 -0.0006  2.4190 -1.8068
14922SOL    HW246208   0.813   0.011   7.868 -0.1917  0.1661  0.8389
14923SOL     OW46209   1.289   7.254   5.954 -0.4132 -0.4250 -0.5311
14923SOL    HW146210   1.260   7.227   5.866 -0.6601 -1.8125 -0.0432
14923SOL    HW246211   1.234   7.204   6.014  0.9080 -0.7619  0.4266
14924SOL     OW46212   4.375   4.808   3.933 -0.2931  0.0154 -0.3756
14924SOL    HW146213   4.395   4.881   3.991 -0.9966 -0.6071  0.6835
14924SOL    HW246214   4.337   4.742   3.990  0.8970 -1.4417 -1.2069
14925SOL     OW46215   0.416   1.040   4.283 -0.1155  0.3410 -0.0028
14925SOL    HW146216   0.399   0.956   4.240 -0.7461 -0.2246  1.2929
14925SOL    HW246217   0.504   1.064   4.254  0.8654 -1.7093  1.0340
14926SOL     OW46218   5.790   3.720  11.624  0.6398  0.6644 -0.2565
14926SOL    HW146219   5.764   3.722  11.531 -0.4153  2.0220  0.0262
14926SOL    HW246220   5.722   3.669  11.667  1.4850 -0.5439 -0.2863
14927SOL     OW46221   0.979   2.406   1.490  0.0719  0.1793  0.4835
14927SOL    HW146222   0.977   2.500   1.470  0.8461  0.0850 -0.0918
14927SOL    HW246223   0.971   2.364   1.404  1.0596 -0.2697  0.6053
14928SOL     OW46224   5.482   0.039   1.052  0.6748 -0.0604  1.0945
14928SOL    HW146225   5.457   0.118   1.004  0.9006 -0.9050 -0.4625
14928SOL    HW246226   5.450   0.055   1.141  1.4351  2.1202  1.0461
14929SOL     OW46227   1.286   3.203  10.882  0.4898 -0.0429 -0.0440
14929SOL    HW146228   1.202   3.157  10.882  1.2697 -1.5503  1.2147
14929SOL    HW246229   1.310   3.208  10.789 -1.4135  1.3424 -0.5429
14930SOL     OW46230   0.093   0.463  10.930  0.1959  0.1041 -0.2021
14930SOL    HW146231   0.061   0.392  10.985  1.6389  0.5819  1.3569
14930SOL    HW246232   0.133   0.419  10.855  0.2560 -0.6997  0.2879
14931SOL     OW46233   0.603   1.500   3.634  0.4653 -0.5228  0.4209
14931SOL    HW146234   0.590   1.586   3.595  1.0015  0.2715  1.9288
14931SOL    HW246235   0.521   1.453   3.616  0.3310  0.1187 -0.7920
14932SOL     OW46236   7.204   0.820  12.191 -0.0795 -0.0222  0.0354
14932SOL    HW146237   7.253   0.742  12.219 -0.5091 -0.1013  0.5832
14932SOL    HW246238   7.226   0.830  12.098 -0.9201 -1.4849 -0.3556
14933SOL     OW46239   6.840   3.073   1.377 -0.1590  0.2089 -0.0442
14933SOL    HW146240   6.915   3.043   1.428  0.6487  2.3604  0.1374
14933SOL    HW246241   6.848   3.028   1.293  1.6817  0.8187 -0.2408
14934SOL     OW46242   5.090   4.858   3.020 -0.1455 -0.1503 -0.1997
14934SOL    HW146243   5.141   4.806   2.958  1.2661  1.9279 -0.9150
14934SOL    HW246244   5.041   4.920   2.965 -0.3144  0.5191  0.6686
14935SOL     OW46245   1.103   2.747   5.173  0.1026 -0.4379 -0.3010
14935SOL    HW146246   1.014   2.762   5.207 -0.7944  1.5711 -3.1296
14935SOL    HW246247   1.110   2.652   5.167 -2.2956 -0.6651 -0.8639
14936SOL     OW46248   1.163   3.284  11.507 -0.0867 -0.4922 -0.2264
14936SOL    HW146249   1.100   3.255  11.441  1.1854  0.1638 -1.8090
14936SOL    HW246250   1.208   3.205  11.535  1.2002 -0.5099 -2.1776
14937SOL     OW46251   2.971   4.398   8.091  0.3862  0.3116 -0.0211
14937SOL    HW146252   3.020   4.340   8.150  0.0114  0.7445  0.7315
14937SOL    HW246253   2.980   4.484   8.130  0.7251  0.7357 -0.9961
14938SOL     OW46254   1.523   0.930   3.792  1.3244  0.2991 -0.1596
14938SOL    HW146255   1.511   1.025   3.789 -1.8118 -0.0275 -0.4996
14938SOL    HW246256   1.503   0.906   3.882 -0.2367 -0.2397 -0.6199
14939SOL     OW46257   6.330   2.243   8.293 -0.1836 -0.0286  0.4823
14939SOL    HW146258   6.300   2.288   8.372  0.2956  1.2388 -0.0281
14939SOL    HW246259   6.334   2.150   8.318 -1.8389  0.1017  1.3676
14940SOL     OW46260   3.525   4.956   9.763 -0.0911 -0.2130  0.0217
14940SOL    HW146261   3.504   5.031   9.818  0.1098 -0.5706  0.5918
14940SOL    HW246262   3.496   4.880   9.813  0.9217 -0.5999  0.0487
14941SOL     OW46263   4.067   4.446   2.766 -0.2660 -0.3004 -0.1628
14941SOL    HW146264   4.021   4.518   2.723  0.6359 -0.6554 -1.8109
14941SOL    HW246265   4.074   4.473   2.858 -1.1793  1.0525 -0.4674
14942SOL     OW46266   7.957   3.417   5.482 -0.0748 -0.4444 -0.7563
14942SOL    HW146267   7.932   3.465   5.404 -2.6737  1.2608  0.9657
14942SOL    HW246268   7.874   3.403   5.529  1.3313 -1.6360  1.5469
14943SOL     OW46269   1.168   6.793   6.605 -0.2101  0.0435 -0.7541
14943SOL    HW146270   1.252   6.832   6.630  0.5394 -0.5818 -2.2016
14943SOL    HW246271   1.192   6.714   6.556 -1.6741 -1.7898  1.2838
14944SOL     OW46272   1.345   3.123   2.562 -0.5108  0.3093  0.1016
14944SOL    HW146273   1.428   3.160   2.591  0.0284  0.7386 -1.8518
14944SOL    HW246274   1.336   3.151   2.471 -1.2114 -2.3889 -0.7552
14945SOL     OW46275   3.276   6.375  10.503 -0.1432 -0.0702  0.0763
14945SOL    HW146276   3.209   6.311  10.529 -0.6546 -0.1420 -1.3201
14945SOL    HW246277   3.357   6.340  10.539 -0.0076 -2.7922 -2.4400
14946SOL     OW46278   1.738   4.095   0.720 -0.5675 -0.3912 -0.1399
14946SOL    HW146279   1.763   4.111   0.629  1.7555 -1.9227  0.1355
14946SOL    HW246280   1.704   4.005   0.721 -0.4458 -0.4408  0.5014
14947SOL     OW46281   2.411   7.557  11.416  0.0212  0.5678 -0.2681
14947SOL    HW146282   2.395   7.615  11.342  1.4153  2.6400  0.9469
14947SOL    HW246283   2.444   7.615  11.485 -0.6688 -1.3597  1.7848
14948SOL     OW46284   1.925   1.868   3.864 -0.0584  0.3374  0.2898
14948SOL    HW146285   1.938   1.938   3.800 -0.7205  0.6471  0.4823
14948SOL    HW246286   2.008   1.820   3.865  0.4421  1.1893  0.2469
14949SOL     OW46287   4.788   3.157   2.057 -0.4387 -0.6188 -0.2614
14949SOL    HW146288   4.804   3.069   2.090  1.1457 -0.2529  0.0223
14949SOL    HW246289   4.763   3.145   1.966 -0.3367 -1.3631 -0.1984
14950SOL     OW46290   4.556   2.783   1.783 -0.1415  0.6945 -0.1049
14950SOL    HW146291   4.632   2.787   1.840 -0.3903  1.0238  0.2096
14950SOL    HW246292   4.482   2.801   1.841 -0.3184  2.0188 -0.7057
14951SOL     OW46293   5.041   1.288  12.318  0.0044 -0.4296  0.2389
14951SOL    HW146294   5.024   1.254  12.406  0.3117 -2.1477 -0.3148
14951SOL    HW246295   5.132   1.318  12.321  0.8612 -2.8026 -0.1109
14952SOL     OW46296   5.217   1.517  12.083 -0.2596 -0.3756  0.6527
14952SOL    HW146297   5.311   1.510  12.065 -0.2876  0.4919  0.1190
14952SOL    HW246298   5.184   1.428  12.069  0.1903 -0.3303 -0.9465
14953SOL     OW46299   1.806   1.408   4.918 -0.2751  0.8445  0.1211
14953SOL    HW146300   1.811   1.501   4.899 -0.9091  0.4871 -2.0456
14953SOL    HW246301   1.752   1.372   4.848  0.7162 -1.2923  0.3689
14954SOL     OW46302   6.322   0.125   4.617 -0.3606 -0.0510 -0.0074
14954SOL    HW146303   6.377   0.117   4.539 -0.7675 -1.5458 -0.1696
14954SOL    HW246304   6.238   0.158   4.583 -0.3962 -0.2720 -0.1351
14955SOL     OW46305   6.904   6.497   5.448 -0.2858 -0.3349 -0.2521
14955SOL    HW146306   6.964   6.457   5.511 -0.7433  0.3721  0.6499
14955SOL    HW246307   6.947   6.486   5.364  1.6403  1.0909  0.4760
14956SOL     OW46308   7.608   2.577   5.044 -0.5402  0.1196 -0.4808
14956SOL    HW146309   7.591   2.589   5.137 -1.2546  1.5634 -0.7679
14956SOL    HW246310   7.588   2.485   5.027  2.9174 -1.1643  1.4464
14957SOL     OW46311   0.900   3.842   2.442 -0.2314  0.1529  0.1252
14957SOL    HW146312   0.820   3.826   2.393 -1.5327  1.6961  1.6165
14957SOL    HW246313   0.872   3.844   2.534  1.1181  2.6045  0.5741
14958SOL     OW46314   3.982   5.794   1.227  0.6455 -0.3463 -0.7237
14958SOL    HW146315   3.953   5.806   1.317  1.4457 -0.3155 -0.4634
14958SOL    HW246316   3.952   5.872   1.181 -1.2680 -1.1364 -0.8862
14959SOL     OW46317   6.303   5.689   2.280 -0.2889  0.3425 -0.6362
14959SOL    HW146318   6.276   5.743   2.354 -1.9453  2.2162 -2.4619
14959SOL    HW246319   6.391   5.720   2.259  0.9871 -1.4817  1.5518
14960SOL     OW46320   4.795   7.289  10.627 -0.8429  0.0433 -0.5608
14960SOL    HW146321   4.812   7.352  10.697  0.9217  0.8614 -1.6810
14960SOL    HW246322   4.815   7.204  10.667  1.9849  0.6379 -0.5448
14961SOL     OW46323   5.754   0.551  11.596 -0.6010 -0.0876 -0.3853
14961SOL    HW146324   5.814   0.483  11.626 -0.6807 -1.6781 -3.4811
14961SOL    HW246325   5.810   0.614  11.551 -0.8819  0.3486 -0.1333
14962SOL     OW46326   5.189   0.526   7.056  0.3748  0.3167  0.2225
14962SOL    HW146327   5.170   0.611   7.097  1.4937 -0.3962  2.4040
14962SOL    HW246328   5.105   0.480   7.057 -0.3379  1.4995 -1.3736
14963SOL     OW46329   3.586   3.088   4.892  0.2080  0.1557 -0.6006
14963SOL    HW146330   3.557   3.149   4.824  0.0529 -1.3955 -2.0147
14963SOL    HW246331   3.603   3.006   4.844  2.5952 -0.2819  0.8377
14964SOL     OW46332   0.189   7.857   8.068 -0.2192  0.3408 -0.0997
14964SOL    HW146333   0.220   7.941   8.034  1.7846 -0.1206  0.4121
14964SOL    HW246334   0.220   7.792   8.005  0.1846 -0.1820  0.6147
14965SOL     OW46335   1.043   0.612   2.714  0.5466  0.3890 -0.7691
14965SOL    HW146336   0.976   0.650   2.657 -0.9816  1.1897  1.4234
14965SOL    HW246337   1.059   0.525   2.678 -1.7132  0.1716 -1.3745
14966SOL     OW46338   4.925   5.407   9.960 -1.0679  0.5765  0.2835
14966SOL    HW146339   4.945   5.406   9.867  2.3520 -0.0175  0.9253
14966SOL    HW246340   4.891   5.496   9.976 -0.6680  1.0507 -1.3195
14967SOL     OW46341   0.855   0.811   6.420 -0.2174  0.3232  0.1832
14967SOL    HW146342   0.892   0.895   6.448 -0.5847  0.3297  0.6598
14967SOL    HW246343   0.880   0.749   6.489  2.9221 -0.7588 -1.7128
14968SOL     OW46344   0.536   0.143   5.135  0.4559 -0.5010  0.6417
14968SOL    HW146345   0.533   0.216   5.074  1.0216  0.3860  1.6413
14968SOL    HW246346   0.621   0.101   5.119  1.6810  1.1417  2.3302
14969SOL     OW46347   6.353   7.611  11.317  0.5486  0.0755  0.1839
14969SOL    HW146348   6.353   7.654  11.403 -0.2025 -0.6669  0.5683
14969SOL    HW246349   6.322   7.522  11.335 -1.6679  0.4953 -1.1329
14970SOL     OW46350   1.789   1.100   6.203 -0.2007  0.2365 -0.2668
14970SOL    HW146351   1.831   1.023   6.239 -0.2400  0.4580  0.2689
14970SOL    HW246352   1.752   1.071   6.120 -0.7349 -0.4723  0.2104
14971SOL     OW46353   5.284   5.122   4.121  0.2186 -0.0603 -0.0869
14971SOL    HW146354   5.207   5.173   4.146  0.2958 -0.7623  1.7655
14971SOL    HW246355   5.249   5.050   4.068 -0.2670  0.2294 -0.1611
14972SOL     OW46356   2.200   2.490   3.988 -0.0636  0.1379  0.2786
14972SOL    HW146357   2.112   2.473   4.020 -0.5263  1.5589 -0.1681
14972SOL    HW246358   2.201   2.584   3.969  0.0055 -0.6102 -4.3042
14973SOL     OW46359   7.082   1.430   3.085  0.0456  1.2983 -0.3337
14973SOL    HW146360   7.119   1.413   2.998  0.1678  0.6170 -0.1512
14973SOL    HW246361   7.119   1.515   3.110  0.1030  1.4439 -0.8968
14974SOL     OW46362   5.210   7.641   1.533  0.0373  0.9485  0.0668
14974SOL    HW146363   5.186   7.564   1.585  1.5939  0.7657  0.5763
14974SOL    HW246364   5.268   7.691   1.590  0.5760  1.5193 -0.9531
14975SOL     OW46365   7.197   2.043   5.817 -0.5549 -0.4823  0.5354
14975SOL    HW146366   7.217   2.114   5.757 -2.5370  0.1233  0.5489
14975SOL    HW246367   7.161   1.973   5.762  1.9828 -1.8380  0.4166
14976SOL     OW46368   4.248   6.346   2.306  0.6263 -0.0974  0.4477
14976SOL    HW146369   4.332   6.314   2.274  1.0359  2.2124 -1.0312
14976SOL    HW246370   4.194   6.355   2.228 -0.0435  1.0645  1.0131
14977SOL     OW46371   0.037   1.605   1.502 -0.8322  0.7337  0.8683
14977SOL    HW146372   0.059   1.697   1.484  2.1096  0.6197  3.0766
14977SOL    HW246373   0.022   1.603   1.596 -1.5456 -0.9421  0.7372
14978SOL     OW46374   3.925   0.253   0.102 -0.4903 -0.0763 -0.2245
14978SOL    HW146375   3.947   0.291   0.187 -1.7492 -0.5187  0.3141
14978SOL    HW246376   3.998   0.193   0.083 -0.9466 -1.1714  1.3041
14979SOL     OW46377   0.823   1.169   8.142  0.1912  0.2331  0.0420
14979SOL    HW146378   0.753   1.162   8.078 -1.6011 -0.8331  1.9933
14979SOL    HW246379   0.778   1.179   8.226  2.3168 -1.5688  1.5169
14980SOL     OW46380   3.287   0.222  12.256  0.1249 -0.4239  0.0326
14980SOL    HW146381   3.305   0.275  12.333 -0.3746 -0.0321 -0.1198
14980SOL    HW246382   3.323   0.272  12.183  0.1559 -0.5602 -0.0471
14981SOL     OW46383   0.537   0.766   6.518  0.2503  0.4739  0.0418
14981SOL    HW146384   0.600   0.769   6.446 -1.2489 -0.2472 -1.3822
14981SOL    HW246385   0.537   0.674   6.546 -0.6462  0.3008 -0.4652
14982SOL     OW46386   0.082   0.850  12.110 -0.0486 -0.1186  0.3967
14982SOL    HW146387   0.003   0.799  12.128 -0.1358  0.1964  0.9583
14982SOL    HW246388   0.101   0.894  12.193 -0.2985  1.1940 -0.2192
14983SOL     OW46389   5.323   5.420   5.131  0.1146 -0.4113  0.3075
14983SOL    HW146390   5.379   5.497   5.125 -1.1965  0.5336 -0.4369
14983SOL    HW246391   5.383   5.346   5.122  1.4413  0.4929  1.3102
14984SOL     OW46392   1.002   5.151   0.285  0.1963 -0.6424 -0.2191
14984SOL    HW146393   1.075   5.094   0.264  1.4630  0.4092  1.1633
14984SOL    HW246394   0.964   5.113   0.364  1.0968  0.4134  0.7564
14985SOL     OW46395   0.657   6.120   1.782 -0.4143  0.2435 -0.0403
14985SOL    HW146396   0.598   6.194   1.767 -1.2263 -0.7799 -2.2115
14985SOL    HW246397   0.622   6.078   1.861 -1.0734  1.0963  0.1421
14986SOL     OW46398   7.044   6.832   4.588 -0.0321 -0.2533 -0.1306
14986SOL    HW146399   6.976   6.896   4.567  0.9491  0.2658 -1.9562
14986SOL    HW246400   7.116   6.885   4.623  1.3202 -0.0639 -2.9313
14987SOL     OW46401   0.202   7.094   7.883  0.0859 -0.0293 -0.1214
14987SOL    HW146402   0.218   7.052   7.798  2.1334  0.3011  0.0573
14987SOL    HW246403   0.207   7.188   7.864 -3.2183  0.2286 -0.2810
14988SOL     OW46404   6.145   4.722   7.403 -0.3542 -0.0428  0.3482
14988SOL    HW146405   6.205   4.655   7.436 -0.2271 -1.5910 -2.6737
14988SOL    HW246406   6.071   4.721   7.464  0.6057 -1.4153  1.5521
14989SOL     OW46407   6.573   2.871   2.779  0.1793  0.0588  0.3947
14989SOL    HW146408   6.488   2.827   2.770 -1.0825  2.4539 -0.0277
14989SOL    HW246409   6.636   2.806   2.748 -1.8360 -0.6201 -2.7751
14990SOL     OW46410   0.355   5.587   9.528 -0.3236  0.2374  0.4387
14990SOL    HW146411   0.448   5.598   9.507 -0.7122 -0.2976 -1.8033
14990SOL    HW246412   0.310   5.642   9.464 -1.5988 -0.0231  1.0790
14991SOL     OW46413   1.996   4.337   9.116  0.5405 -0.0038  0.1526
14991SOL    HW146414   2.065   4.289   9.162  0.8151  0.0973 -0.1533
14991SOL    HW246415   2.000   4.425   9.152 -0.2832 -0.3166  1.0670
14992SOL     OW46416   0.336   5.799  10.454  0.3017  0.2316  0.0556
14992SOL    HW146417   0.347   5.849  10.373  0.4125 -0.0248 -0.0889
14992SOL    HW246418   0.271   5.732  10.432 -0.1517  0.5600  0.3645
14993SOL     OW46419   5.183   1.672   7.234  0.5236  0.5287  0.0193
14993SOL    HW146420   5.105   1.722   7.212  1.1278  1.7939  0.6405
14993SOL    HW246421   5.192   1.609   7.163 -1.2844  0.0700  0.1544
14994SOL     OW46422   4.129   1.653   3.780 -0.2018 -0.5805  0.1116
14994SOL    HW146423   4.068   1.596   3.733 -1.5667  1.2725 -0.4699
14994SOL    HW246424   4.198   1.671   3.716 -0.3697 -0.6473 -0.0899
14995SOL     OW46425   2.003   7.043   1.103  0.0687 -0.6154 -0.3032
14995SOL    HW146426   2.085   7.077   1.140  0.1173  0.6710 -1.5111
14995SOL    HW246427   1.934   7.092   1.148 -0.0107 -0.9792 -0.0160
14996SOL     OW46428   2.127   7.791   9.719 -0.0525 -0.2843 -0.7233
14996SOL    HW146429   2.174   7.790   9.636  0.8909  0.5440 -0.2156
14996SOL    HW246430   2.048   7.842   9.700 -0.2999 -0.8645 -1.3267
14997SOL     OW46431   3.061   6.922  11.300 -0.1504  0.1094 -0.2788
14997SOL    HW146432   2.980   6.871  11.299 -2.5072  3.4983 -0.7432
14997SOL    HW246433   3.088   6.923  11.392  0.2500 -2.1838 -0.3114
14998SOL     OW46434   3.965   6.976   4.702  0.1605 -0.2280  0.2000
14998SOL    HW146435   3.895   6.941   4.757  0.8028  0.1229  1.2796
14998SOL    HW246436   4.025   7.017   4.764 -0.0019  1.8205 -0.9312
14999SOL     OW46437   4.824   6.759   9.571  0.5584  0.7057 -0.2659
14999SOL    HW146438   4.885   6.829   9.594 -0.7250  0.7858  3.7042
14999SOL    HW246439   4.737   6.799   9.577 -0.1101 -0.7001  0.0655
15000SOL     OW46440   5.780   6.838  10.215 -0.6944  0.2915 -0.2309
15000SOL    HW146441   5.722   6.789  10.275 -0.6554  1.3195  0.6713
15000SOL    HW246442   5.861   6.847  10.264 -0.0036 -0.4763 -1.2009
15001SOL     OW46443   4.244   1.715   4.371 -0.7040  0.2301  0.6508
15001SOL    HW146444   4.173   1.697   4.432 -0.3960  0.0757  0.9697
15001SOL    HW246445   4.320   1.731   4.427 -0.5161  0.5241  0.3189
15002SOL     OW46446   3.058   7.443   5.820  0.0569 -0.1912 -0.1255
15002SOL    HW146447   3.002   7.521   5.824 -1.0212 -0.8874 -0.9291
15002SOL    HW246448   3.052   7.406   5.908  2.6656  1.9697  1.0771
15003SOL     OW46449   2.179   3.761   2.908  0.3301 -0.1719 -0.3354
15003SOL    HW146450   2.173   3.787   2.816  0.3791 -1.9266 -0.8743
15003SOL    HW246451   2.214   3.672   2.905 -1.2603 -0.9053  1.2976
15004SOL     OW46452   3.985   6.916   5.909 -0.3800  0.1570 -0.1511
15004SOL    HW146453   4.048   6.878   5.848 -0.5081 -0.9496  0.3785
15004SOL    HW246454   3.946   6.841   5.953 -1.8128  0.8422 -0.1964
15005SOL     OW46455   7.327   3.402   2.299  0.6263 -0.1052 -0.4160
15005SOL    HW146456   7.262   3.361   2.356  1.5183 -0.7526  0.1564
15005SOL    HW246457   7.292   3.390   2.211  0.5674 -1.5580 -0.2100
15006SOL     OW46458   0.431   5.483   1.175  0.1264  0.4928  0.3391
15006SOL    HW146459   0.525   5.497   1.181  0.4249 -0.9904 -0.4452
15006SOL    HW246460   0.421   5.417   1.106 -1.4328  0.0731  0.9371
15007SOL     OW46461   1.837   3.967   1.876  0.0260 -0.3004  0.5281
15007SOL    HW146462   1.863   4.059   1.878  1.7252 -0.6893 -1.3885
15007SOL    HW246463   1.917   3.919   1.895 -0.5837 -1.4314  0.3102
15008SOL     OW46464   7.906   1.522  12.447  0.9606  0.1916  0.0155
15008SOL    HW146465   7.921   1.600  12.394 -1.8280 -0.3609 -1.8396
15008SOL    HW246466   7.849   1.552  12.518  0.3578 -0.0014 -0.3736
15009SOL     OW46467   6.743   4.185   9.162 -0.6519  0.0567  0.1989
15009SOL    HW146468   6.792   4.114   9.121 -1.1825  0.5662 -1.3488
15009SOL    HW246469   6.810   4.250   9.184 -0.4261  0.0175 -0.3583
15010SOL     OW46470   0.099   4.060  10.003 -0.5034 -0.6724  0.0070
15010SOL    HW146471   0.024   4.065   9.944 -1.9187  0.6997  1.8026
15010SOL    HW246472   0.157   3.995   9.963 -1.1278  0.5355 -3.1190
15011SOL     OW46473   7.461   6.946   2.271  0.6227 -0.3109  0.2352
15011SOL    HW146474   7.538   7.001   2.286  0.6423 -0.5656  1.1085
15011SOL    HW246475   7.438   6.913   2.357 -2.0059  1.7724  0.4733
15012SOL     OW46476   6.532   6.677  11.681  1.3151 -0.2660 -0.0976
15012SOL    HW146477   6.477   6.733  11.735  0.7091 -1.4874  0.6082
15012SOL    HW246478   6.587   6.737  11.632 -0.4655  1.0125 -0.6406
15013SOL     OW46479   2.963   3.132  11.289 -0.5438  0.4654  0.6099
15013SOL    HW146480   2.929   3.200  11.347  0.3573  1.7309 -0.2892
15013SOL    HW246481   2.999   3.066  11.349 -1.5402  0.7068  1.5055
15014SOL     OW46482   3.169   2.642  10.963 -0.3902 -0.3219 -0.2422
15014SOL    HW146483   3.098   2.612  11.020  0.0323  1.0484  1.0633
15014SOL    HW246484   3.242   2.659  11.022  0.3206  0.3994 -1.2914
15015SOL     OW46485   2.436   4.881   7.985  0.0797  0.6527 -0.5281
15015SOL    HW146486   2.531   4.875   7.986  0.1514 -0.7475 -3.5116
15015SOL    HW246487   2.406   4.791   7.971 -1.5286  1.3166 -1.8074
15016SOL     OW46488   7.724   2.367   4.186  0.2160  0.1987  0.0128
15016SOL    HW146489   7.789   2.435   4.200 -0.8521  1.2047  0.1867
15016SOL    HW246490   7.769   2.301   4.133  1.1292  1.2393 -0.5271
15017SOL     OW46491   0.795   0.804  11.899 -0.3217  0.0827  0.0725
15017SOL    HW146492   0.835   0.717  11.890  4.0051  1.8000  0.4336
15017SOL    HW246493   0.807   0.825  11.992 -0.6145  1.3554 -0.1701
15018SOL     OW46494   7.598   2.428   5.590 -0.1084  0.3449  0.5342
15018SOL    HW146495   7.553   2.370   5.528 -0.7260  1.9969 -0.6527
15018SOL    HW246496   7.674   2.378   5.619 -0.3186 -0.8488 -0.8408
15019SOL     OW46497   6.960   1.177  10.209  0.6964 -0.3063 -0.4443
15019SOL    HW146498   7.037   1.214  10.166  0.0170  2.7620  0.7393
15019SOL    HW246499   6.907   1.142  10.138  0.6599  2.5307 -1.9489
15020SOL     OW46500   0.848   2.834   9.826  0.1292 -0.2568 -0.4756
15020SOL    HW146501   0.790   2.899   9.787 -0.5949 -1.0065 -0.6877
15020SOL    HW246502   0.827   2.835   9.919  0.5387  0.2234 -0.3864
15021SOL     OW46503   1.835   3.178   1.422  0.3661 -0.0910  0.2138
15021SOL    HW146504   1.879   3.255   1.456 -0.3389  0.3903  0.0510
15021SOL    HW246505   1.830   3.118   1.497  3.5620 -1.2373 -0.3519
15022SOL     OW46506   2.667   4.807   4.430 -0.0490 -0.1637 -0.0012
15022SOL    HW146507   2.729   4.872   4.396 -1.6610  1.4229 -0.0135
15022SOL    HW246508   2.697   4.724   4.392  1.7855  0.6195 -0.3695
15023SOL     OW46509   7.730   6.180   0.292 -0.2283  0.0230  0.6260
15023SOL    HW146510   7.755   6.088   0.286  0.1805  0.1061  0.9576
15023SOL    HW246511   7.769   6.210   0.374  1.9469  1.1643 -0.7071
15024SOL     OW46512   7.117   7.699   9.106  0.2504 -0.5193  0.0539
15024SOL    HW146513   7.152   7.691   9.018 -0.6100  3.3283 -0.8091
15024SOL    HW246514   7.042   7.639   9.107  0.8214 -1.3194 -1.4624
15025SOL     OW46515   1.529   7.135   9.053  0.0127 -0.3638  0.7807
15025SOL    HW146516   1.450   7.189   9.047 -0.1131 -0.5129  1.0763
15025SOL    HW246517   1.565   7.136   8.965  0.1435  0.3982  0.8360
15026SOL     OW46518   6.268   3.463  12.208  0.0700  0.5425  0.3017
15026SOL    HW146519   6.272   3.385  12.263  1.8205  0.7632  0.5365
15026SOL    HW246520   6.229   3.530  12.264  0.6513  0.4214  0.8586
15027SOL     OW46521   2.241   6.648   4.377 -0.3441 -0.1780  0.4443
15027SOL    HW146522   2.164   6.621   4.327  0.0509  0.3563 -0.4899
15027SOL    HW246523   2.311   6.650   4.313  0.8633 -2.3322  1.6166
15028SOL     OW46524   3.387   2.590   8.275  0.5455 -0.0131 -0.2443
15028SOL    HW146525   3.414   2.633   8.356  1.9731  1.2110 -1.3140
15028SOL    HW246526   3.429   2.641   8.206  0.9380 -2.1660 -1.6704
15029SOL     OW46527   4.157   6.721   8.607 -0.7909  0.1807  0.1228
15029SOL    HW146528   4.230   6.782   8.611 -1.0821  0.6137 -0.8811
15029SOL    HW246529   4.152   6.695   8.515 -1.2406 -0.6638  0.3720
15030SOL     OW46530   5.463   1.010   4.616 -0.2007 -0.1099 -0.1498
15030SOL    HW146531   5.522   1.010   4.692  1.0917  0.4641 -1.1236
15030SOL    HW246532   5.520   1.027   4.541 -1.8932  2.7501 -0.9004
15031SOL     OW46533   3.049   1.692   8.562 -0.0293  0.1747  0.1136
15031SOL    HW146534   3.092   1.608   8.543  2.4699  1.5742 -0.9492
15031SOL    HW246535   2.958   1.680   8.535  0.6857 -1.6330 -1.7045
15032SOL     OW46536   1.115   1.797   1.221 -0.8268  0.5436  0.3342
15032SOL    HW146537   1.190   1.850   1.248 -0.0590 -0.9861  1.3480
15032SOL    HW246538   1.059   1.794   1.299 -0.6264 -0.5211  0.4441
15033SOL     OW46539   4.530   7.088   8.283  0.3139 -0.0279  0.8591
15033SOL    HW146540   4.543   6.994   8.273  0.7768  0.1157  0.1035
15033SOL    HW246541   4.435   7.097   8.296  0.5236 -0.8018  3.4871
15034SOL     OW46542   4.795   5.128   3.133  0.5318  0.1625  0.0960
15034SOL    HW146543   4.822   5.220   3.128  1.9667 -0.2592 -0.4683
15034SOL    HW246544   4.800   5.106   3.226  2.8013 -0.0232  0.0058
15035SOL     OW46545   0.931   6.035   2.371 -0.2885 -0.1765  0.2605
15035SOL    HW146546   0.990   5.962   2.392 -0.4527 -0.7046 -1.0279
15035SOL    HW246547   0.848   5.993   2.351  0.1968  0.1045 -2.7279
15036SOL     OW46548   4.034   4.988   7.382 -0.4536 -0.3165  0.1115
15036SOL    HW146549   4.096   5.056   7.353  2.3351 -2.6697  0.1127
15036SOL    HW246550   3.957   5.037   7.411  0.7120  2.7293 -1.4673
15037SOL     OW46551   1.267   4.814   7.091  0.2763  0.3417  0.1018
15037SOL    HW146552   1.174   4.800   7.107 -0.4647  1.9300 -2.2781
15037SOL    HW246553   1.306   4.822   7.179 -1.8090 -0.2440  1.1415
15038SOL     OW46554   2.863   6.342   7.723  0.0945  0.6088  0.8837
15038SOL    HW146555   2.843   6.419   7.776 -0.2838  1.0155  0.1609
15038SOL    HW246556   2.793   6.339   7.658  0.2238 -0.2275  0.7717
15039SOL     OW46557   1.110   6.639   7.940 -0.3231 -0.1335 -0.5942
15039SOL    HW146558   1.105   6.672   7.851 -2.2191 -0.3204 -0.5888
15039SOL    HW246559   1.195   6.669   7.972 -0.4987  1.7553 -1.7447
15040SOL     OW46560   4.855   1.046   3.200 -0.0963 -0.4105  0.3551
15040SOL    HW146561   4.902   1.091   3.270 -0.8011  0.5363  0.2461
15040SOL    HW246562   4.782   1.003   3.244  1.4525 -2.8559  0.6957
15041SOL     OW46563   4.937   5.197  10.627 -0.1537  0.4420 -0.5177
15041SOL    HW146564   5.005   5.135  10.654 -0.1828  0.3952 -0.5525
15041SOL    HW246565   4.855   5.155  10.654 -0.1830  0.3923 -0.6863
15042SOL     OW46566   1.517   6.137   9.354  0.6400 -0.0522 -0.3338
15042SOL    HW146567   1.482   6.223   9.327  0.8571  0.4067  0.8035
15042SOL    HW246568   1.440   6.081   9.361  0.6283 -0.3842 -2.5156
15043SOL     OW46569   7.406   7.565   5.968 -0.2977 -0.4701 -1.1239
15043SOL    HW146570   7.467   7.638   5.966  1.4490 -1.6505  2.0840
15043SOL    HW246571   7.325   7.602   6.004  0.2405  0.0908 -0.4700
15044SOL     OW46572   0.924   7.754   8.121 -0.4583 -0.3218 -0.1351
15044SOL    HW146573   0.858   7.755   8.052 -0.0046  1.4171 -0.6189
15044SOL    HW246574   0.881   7.796   8.196 -1.1187 -2.6521  0.8907
15045SOL     OW46575   5.479   7.293   7.882  0.1972  0.2847 -0.1766
15045SOL    HW146576   5.393   7.276   7.919  1.0355  0.2724  1.8718
15045SOL    HW246577   5.540   7.249   7.941  1.6018 -0.1594 -1.8626
15046SOL     OW46578   4.113   7.788   9.755  0.4598  0.3816  0.2469
15046SOL    HW146579   4.025   7.752   9.745 -0.1759  0.8258  3.2643
15046SOL    HW246580   4.108   7.876   9.718  0.2457 -0.3061 -1.4271
15047SOL     OW46581   5.374   3.418   2.713  0.0634  0.6496  0.1468
15047SOL    HW146582   5.298   3.409   2.771 -1.9871  0.0202 -2.4385
15047SOL    HW246583   5.371   3.508   2.682  1.5880  1.2080  1.4407
15048SOL     OW46584   3.907   5.379   6.059 -0.1631 -0.5735 -0.3550
15048SOL    HW146585   3.855   5.330   5.995  2.5668  0.2646 -3.5045
15048SOL    HW246586   3.993   5.336   6.058  0.9432  1.4990  0.2336
15049SOL     OW46587   6.750   5.069   2.322  0.2833  0.7283 -0.3663
15049SOL    HW146588   6.670   5.066   2.269  0.4147  1.3799 -0.6153
15049SOL    HW246589   6.720   5.090   2.410  0.2415  1.8612 -0.6360
15050SOL     OW46590   1.241   7.682   3.638 -0.4191  0.2002 -0.0730
15050SOL    HW146591   1.146   7.670   3.633 -0.5176  1.1584 -0.7728
15050SOL    HW246592   1.277   7.608   3.588 -0.9373  1.4756 -2.5020
15051SOL     OW46593   2.778   4.929  11.537 -0.1975  0.1098  0.0018
15051SOL    HW146594   2.841   5.000  11.552  0.6318 -0.2762 -1.3743
15051SOL    HW246595   2.804   4.860  11.598 -0.1523  0.4701  0.3935
15052SOL     OW46596   7.238   6.033   2.752 -0.3480 -0.0975 -0.2944
15052SOL    HW146597   7.182   6.108   2.734 -1.7685 -0.8907  0.5152
15052SOL    HW246598   7.272   6.049   2.840  1.8559  1.0170 -1.2833
15053SOL     OW46599   7.811   4.771  12.293 -0.1863  0.0974 -0.4307
15053SOL    HW146600   7.842   4.715  12.221  1.3987  0.2109  0.1154
15053SOL    HW246601   7.770   4.710  12.355 -1.3967 -0.0222 -1.3260
15054SOL     OW46602   7.019   2.331  11.164  0.1931  0.0315 -0.0108
15054SOL    HW146603   7.026   2.242  11.130  0.5913 -0.8721  2.2578
15054SOL    HW246604   7.077   2.383  11.109 -0.0212 -1.0982 -1.3541
15055SOL     OW46605   0.393   0.574   5.867  0.6142 -0.2565 -0.5424
15055SOL    HW146606   0.398   0.490   5.820  1.0021 -0.5585  0.0261
15055SOL    HW246607   0.335   0.557   5.941 -0.0926  0.2528 -0.9675
15056SOL     OW46608   5.131   3.100  10.961 -0.3877 -0.0230  0.3599
15056SOL    HW146609   5.197   3.077  11.027 -0.0557  1.1482  0.4587
15056SOL    HW246610   5.144   3.036  10.891  1.2020  0.4755  0.1550
15057SOL     OW46611   1.681   6.227   1.656  0.4594 -0.8988  0.2946
15057SOL    HW146612   1.623   6.253   1.585  0.0246 -2.6621 -0.0439
15057SOL    HW246613   1.731   6.306   1.676  0.3545 -0.2593 -1.7269
15058SOL     OW46614   7.710   1.511  10.315  0.4196 -0.4662  0.1793
15058SOL    HW146615   7.793   1.551  10.343  0.0412  1.1247 -0.8350
15058SOL    HW246616   7.736   1.444  10.251  0.9309 -0.0433 -0.0606
15059SOL     OW46617   5.362   7.582  11.630  0.0756  0.0308  0.3687
15059SOL    HW146618   5.400   7.550  11.712 -0.3665  0.3914  0.7134
15059SOL    HW246619   5.418   7.544  11.562  0.8179  0.2307  0.8529
15060SOL     OW46620   6.428   6.992   4.592  0.6878 -0.2492 -0.0084
15060SOL    HW146621   6.467   7.079   4.594  0.9358 -0.3142 -1.2014
15060SOL    HW246622   6.425   6.964   4.684 -3.5657  2.8459  1.0941
15061SOL     OW46623   3.811   6.111   6.312 -0.0218  0.5262  0.1870
15061SOL    HW146624   3.791   6.089   6.221 -0.3074  0.6488  0.2185
15061SOL    HW246625   3.840   6.029   6.351  1.3504  0.7306 -0.3477
15062SOL     OW46626   3.355   5.788   9.967 -0.2413 -0.0532  0.0005
15062SOL    HW146627   3.350   5.693   9.973  1.5693 -0.0888  1.9647
15062SOL    HW246628   3.349   5.806   9.873 -0.3217 -2.1176 -0.4352
15063SOL     OW46629   7.585   6.079   2.498 -0.0946 -0.1674 -0.2702
15063SOL    HW146630   7.503   6.059   2.453  0.1497  0.4951 -1.0347
15063SOL    HW246631   7.594   6.009   2.563 -0.0260 -1.6958 -1.8481
15064SOL     OW46632   6.384   3.624   6.809 -0.1232  0.2457  0.2758
15064SOL    HW146633   6.454   3.658   6.753  0.1548 -3.2859 -1.8058
15064SOL    HW246634   6.428   3.597   6.890  0.8055 -1.0862 -0.6484
15065SOL     OW46635   2.888   6.646   5.215  0.0536  0.4563 -0.3588
15065SOL    HW146636   2.803   6.663   5.176  1.0330  1.6881 -2.1425
15065SOL    HW246637   2.907   6.724   5.267 -0.1733 -0.1179  0.6218
15066SOL     OW46638   1.561   5.378   4.941  0.2656 -0.3658  0.1105
15066SOL    HW146639   1.589   5.316   4.873  0.5739 -1.1799  0.9614
15066SOL    HW246640   1.606   5.460   4.918 -0.5092 -0.3019 -1.2842
15067SOL     OW46641   3.284   5.962  12.410  0.1805 -0.4721  0.1941
15067SOL    HW146642   3.213   5.985  12.470  0.5615 -1.3201  0.9982
15067SOL    HW246643   3.348   6.032  12.420 -0.1563 -0.1490  0.1061
15068SOL     OW46644   4.939   5.889  11.434 -0.2786 -0.7954 -0.5986
15068SOL    HW146645   4.903   5.975  11.453  0.6525 -0.4275 -0.4251
15068SOL    HW246646   4.869   5.828  11.457 -0.3487 -0.1843  0.9463
15069SOL     OW46647   7.564   5.450   9.947 -0.2445 -0.0366 -0.3116
15069SOL    HW146648   7.619   5.491   9.881 -0.7566 -0.4982 -1.0373
15069SOL    HW246649   7.497   5.516   9.967  0.9566  0.8174  1.1170
15070SOL     OW46650   1.611   7.502   5.929 -0.0329  1.0693 -0.0938
15070SOL    HW146651   1.556   7.519   5.853 -1.5475 -0.0070  0.7053
15070SOL    HW246652   1.586   7.414   5.957  2.7270  0.1385 -0.1861
15071SOL     OW46653   3.591   7.144  11.700 -0.0745  0.4377 -0.5275
15071SOL    HW146654   3.539   7.107  11.628  0.2170  0.3895 -0.7178
15071SOL    HW246655   3.671   7.091  11.701 -1.4589 -1.8967  2.0824
15072SOL     OW46656   6.140   6.040   4.076  0.1599  0.9303  0.0312
15072SOL    HW146657   6.122   5.948   4.096 -0.8708  0.7535 -1.5299
15072SOL    HW246658   6.212   6.064   4.135  1.1673 -1.1822 -0.2479
15073SOL     OW46659   4.356   7.822   6.447  0.3964 -0.7150 -0.1971
15073SOL    HW146660   4.448   7.801   6.465  0.3011  0.1478  1.4492
15073SOL    HW246661   4.307   7.755   6.495  0.1460 -1.0927 -0.9636
15074SOL     OW46662   4.502   3.084   2.819  0.6853  0.0874 -0.3732
15074SOL    HW146663   4.425   3.035   2.848 -0.9371  2.2620 -0.7472
15074SOL    HW246664   4.552   3.021   2.767  0.1225 -1.8965  1.3403
15075SOL     OW46665   4.374   4.247   4.129 -0.2351  0.4461 -0.0394
15075SOL    HW146666   4.291   4.250   4.081 -0.4901  2.5861  0.4265
15075SOL    HW246667   4.435   4.297   4.074  0.5163 -0.2980  0.0874
15076SOL     OW46668   0.099   4.815   3.351 -0.1434 -0.0997  0.1856
15076SOL    HW146669   0.028   4.860   3.306 -1.6002 -1.5045  0.9922
15076SOL    HW246670   0.106   4.860   3.436 -2.0642 -1.6739  1.2775
15077SOL     OW46671   2.484   2.525  10.181  0.5739  0.1340  0.0946
15077SOL    HW146672   2.496   2.557  10.092  0.6098  1.1423  0.4599
15077SOL    HW246673   2.430   2.591  10.224 -0.7178 -1.0634  0.4062
15078SOL     OW46674   0.713   1.212   5.641 -0.1763 -0.5230 -0.0371
15078SOL    HW146675   0.734   1.118   5.643 -0.0664 -0.5010 -0.1714
15078SOL    HW246676   0.689   1.229   5.550  0.1469 -0.3457 -0.0897
15079SOL     OW46677   4.881   7.040   6.160  0.7426 -0.0926  0.3781
15079SOL    HW146678   4.869   7.097   6.085  1.1294 -0.8857 -0.3091
15079SOL    HW246679   4.816   6.970   6.148  2.0867 -1.2750 -0.2836
15080SOL     OW46680   1.220   2.236   0.333 -0.2726  0.0201 -0.6129
15080SOL    HW146681   1.136   2.216   0.372 -0.1609  0.5127 -0.1093
15080SOL    HW246682   1.268   2.282   0.401 -0.4593  1.8251 -1.6401
15081SOL     OW46683   7.036   2.808   6.770  0.3286 -0.0747  0.0857
15081SOL    HW146684   7.004   2.733   6.820  1.1490  0.5873  1.6678
15081SOL    HW246685   6.986   2.805   6.688 -0.3042 -1.8045  0.4898
15082SOL     OW46686   0.962   7.438  10.818  0.5320  0.4197  0.0017
15082SOL    HW146687   1.016   7.469  10.891 -1.3207 -1.4852  2.3197
15082SOL    HW246688   0.934   7.351  10.844  2.2275 -1.7654 -4.3992
15083SOL     OW46689   0.310   0.943   1.397 -0.3616  0.1342  0.1324
15083SOL    HW146690   0.310   1.026   1.349 -1.0502 -0.9852 -1.9140
15083SOL    HW246691   0.363   0.961   1.475 -1.1334  2.7016  0.1623
15084SOL     OW46692   0.420   5.246   1.978 -0.1481  0.1138 -0.0192
15084SOL    HW146693   0.492   5.248   1.915 -0.8132 -0.0332 -0.8017
15084SOL    HW246694   0.415   5.154   2.006 -0.5102 -0.0287 -0.5385
15085SOL     OW46695   6.709   0.615   4.023  0.6312 -0.2121 -0.0762
15085SOL    HW146696   6.780   0.558   4.053  0.9216 -0.0500 -0.4489
15085SOL    HW246697   6.632   0.558   4.019  1.3182 -1.0692 -2.2943
15086SOL     OW46698   3.416   2.080  11.239  0.0831  0.3471 -0.0506
15086SOL    HW146699   3.459   2.055  11.157 -0.7980  1.0574 -0.7447
15086SOL    HW246700   3.342   2.135  11.212 -0.7934 -0.1946  1.1634
15087SOL     OW46701   6.935   3.297   4.349 -0.2115 -0.1786  0.1015
15087SOL    HW146702   7.027   3.313   4.370  0.2210 -0.9425 -1.1420
15087SOL    HW246703   6.918   3.349   4.271 -0.7763 -0.2088  0.1982
15088SOL     OW46704   5.275   3.401   4.082  0.0313  0.0506 -0.9502
15088SOL    HW146705   5.300   3.359   4.164  0.8306  1.5894 -0.3535
15088SOL    HW246706   5.203   3.459   4.106 -0.1086  0.0875 -1.4447
15089SOL     OW46707   6.334   4.696   8.900  1.0021  0.4185  0.0696
15089SOL    HW146708   6.284   4.769   8.862  0.1239 -1.3680 -2.4457
15089SOL    HW246709   6.313   4.621   8.845  0.7934 -2.1510  3.3503
15090SOL     OW46710   1.220   3.509   6.774 -0.3690 -0.5760  0.0318
15090SOL    HW146711   1.168   3.431   6.757 -0.5509 -0.2965 -0.7336
15090SOL    HW246712   1.207   3.526   6.868 -1.5036 -0.6212 -0.1011
15091SOL     OW46713   3.816   5.869   5.146 -0.1907 -0.3419 -0.6800
15091SOL    HW146714   3.821   5.834   5.057 -0.5920  0.1427 -0.8999
15091SOL    HW246715   3.723   5.871   5.165 -0.0390 -1.8006  0.3095
15092SOL     OW46716   2.470   5.520   5.105 -0.3487 -0.3697 -0.3395
15092SOL    HW146717   2.437   5.495   5.018  0.4040 -0.7503 -0.5209
15092SOL    HW246718   2.394   5.558   5.149 -1.3826 -2.3629 -0.2950
15093SOL     OW46719   7.956   0.142   2.856 -0.1894  0.5081 -1.0064
15093SOL    HW146720   7.904   0.088   2.916 -0.7029  0.3643 -1.5750
15093SOL    HW246721   7.953   0.095   2.773 -0.6972  1.4417 -1.5269
15094SOL     OW46722   7.682   6.254   4.932 -0.1231 -0.4358 -0.3526
15094SOL    HW146723   7.624   6.314   4.977 -0.1860 -0.4484 -0.4165
15094SOL    HW246724   7.677   6.279   4.840 -0.0761 -0.4770 -0.3670
15095SOL     OW46725   7.953   3.798   1.519 -0.1488  0.1402  0.2241
15095SOL    HW146726   7.916   3.711   1.536 -0.3074 -0.5115 -2.8606
15095SOL    HW246727   8.022   3.782   1.454  0.6743  2.2055  0.5235
15096SOL     OW46728   6.359   1.991   8.118  0.8234  0.2249  0.3633
15096SOL    HW146729   6.317   1.905   8.121  0.5544  0.3588  0.4830
15096SOL    HW246730   6.293   2.052   8.152  0.4075  0.7199 -1.2211
15097SOL     OW46731   0.464   3.328   1.735  0.1726  0.1897  0.3984
15097SOL    HW146732   0.391   3.339   1.795 -0.6499 -1.4046 -0.2648
15097SOL    HW246733   0.487   3.417   1.709 -2.1917  0.7078 -0.1458
15098SOL     OW46734   3.254   4.357   7.674  0.2821 -0.0413 -0.6289
15098SOL    HW146735   3.292   4.335   7.589  1.0532  0.6424 -0.4762
15098SOL    HW246736   3.215   4.275   7.704 -0.5920 -0.1246 -1.9240
15099SOL     OW46737   7.345   4.614  10.350  0.1751 -0.0108  0.2007
15099SOL    HW146738   7.404   4.550  10.390  0.0772 -0.7858 -0.8386
15099SOL    HW246739   7.258   4.589  10.382  0.1820 -0.1837  0.0914
15100SOL     OW46740   3.455   6.970   3.025 -0.3461  0.5707 -0.0262
15100SOL    HW146741   3.528   6.910   3.040 -0.0084  0.2581 -2.4766
15100SOL    HW246742   3.480   7.019   2.946 -1.1203  3.1759  1.2374
15101SOL     OW46743   7.422   0.037   7.061 -0.0837 -0.2369  0.4282
15101SOL    HW146744   7.458  -0.051   7.068  1.2907  0.3780  1.7360
15101SOL    HW246745   7.412   0.066   7.152  0.5367  1.3374  0.0312
15102SOL     OW46746   3.049   5.953   8.120  0.6496  0.4205  0.1211
15102SOL    HW146747   3.103   5.903   8.182  0.8604 -0.2693 -0.5999
15102SOL    HW246748   2.972   5.898   8.106  0.5230  0.6511 -0.0886
15103SOL     OW46749   6.532   6.867   6.209 -0.1721  0.1836 -0.0571
15103SOL    HW146750   6.620   6.887   6.177 -0.0597 -1.2938 -0.7155
15103SOL    HW246751   6.474   6.919   6.154  0.2412  0.6117 -0.0930
15104SOL     OW46752   5.905   2.400   2.610 -0.5290 -1.0721  0.6338
15104SOL    HW146753   5.838   2.449   2.658 -0.8360 -0.7067 -0.1557
15104SOL    HW246754   5.906   2.439   2.523  1.6041 -0.2205  0.9707
15105SOL     OW46755   7.360   5.581   5.657  0.4701  0.0535 -0.3763
15105SOL    HW146756   7.445   5.579   5.702 -0.1155 -0.4067  0.7525
15105SOL    HW246757   7.363   5.507   5.597  0.8072 -0.0643 -0.2205
15106SOL     OW46758   1.811   4.622  11.958 -0.1113 -0.5067  0.5865
15106SOL    HW146759   1.796   4.531  11.931  0.3794  0.0098 -1.6183
15106SOL    HW246760   1.827   4.669  11.877 -0.6300  1.6406  1.6452
15107SOL     OW46761   5.315   3.077  10.090 -0.1404 -0.1803  0.7063
15107SOL    HW146762   5.375   3.063  10.017  0.1853  0.3231  0.8723
15107SOL    HW246763   5.372   3.103  10.163 -0.5968  0.6945  0.7565
15108SOL     OW46764   2.234   7.395   7.737 -0.0601  0.4262 -0.0672
15108SOL    HW146765   2.196   7.483   7.731 -0.8737  0.1454  0.7456
15108SOL    HW246766   2.325   7.410   7.761 -0.6649  1.0318  2.0567
15109SOL     OW46767   7.271   1.777  11.542  0.3331 -0.3285 -0.1825
15109SOL    HW146768   7.227   1.771  11.457  0.2789  1.3197 -0.3049
15109SOL    HW246769   7.217   1.838  11.592  2.0746  1.2049 -0.0907
15110SOL     OW46770   2.846   3.951   1.976  0.0855 -0.3242  0.1925
15110SOL    HW146771   2.837   3.856   1.976  1.3223 -0.4571  0.5243
15110SOL    HW246772   2.892   3.971   1.895 -0.5930  0.0474 -0.1067
15111SOL     OW46773   5.633   4.910  11.621  0.1135  0.2484 -0.0878
15111SOL    HW146774   5.601   4.948  11.703 -0.4158 -2.1919  0.9052
15111SOL    HW246775   5.725   4.937  11.616 -0.7769  3.7185 -0.7767
15112SOL     OW46776   3.391   1.704   4.943  0.7180  0.1361 -0.8004
15112SOL    HW146777   3.360   1.789   4.974  1.2155  0.6590 -1.6759
15112SOL    HW246778   3.357   1.641   5.006  0.7519  1.0321  0.1430
15113SOL     OW46779   6.908   5.612   0.320 -0.0374 -0.0624 -0.4408
15113SOL    HW146780   6.925   5.705   0.308  0.5492 -0.1913 -0.6285
15113SOL    HW246781   6.824   5.598   0.278  0.3119  0.1998 -1.2470
15114SOL     OW46782   6.289   6.285   6.220  0.2376  0.5637  0.4791
15114SOL    HW146783   6.242   6.306   6.139 -0.6630  0.3875  0.9493
15114SOL    HW246784   6.355   6.222   6.193 -0.7137 -0.2741  0.0418
15115SOL     OW46785   0.630   5.727   2.802 -0.0033 -0.2320 -0.0345
15115SOL    HW146786   0.574   5.672   2.747 -1.8913 -0.4173  1.9369
15115SOL    HW246787   0.684   5.665   2.851  0.6022 -0.1260 -0.5483
15116SOL     OW46788   4.235   4.907  12.160 -0.1498 -0.1290 -0.1109
15116SOL    HW146789   4.239   4.973  12.091 -0.4709 -0.0446 -0.0475
15116SOL    HW246790   4.188   4.834  12.121 -0.7860  0.1181  0.1829
15117SOL     OW46791   4.597   0.399   5.933 -0.1359 -0.4386 -0.0922
15117SOL    HW146792   4.552   0.469   5.980  1.9363  0.6823  0.3669
15117SOL    HW246793   4.574   0.320   5.981 -0.2101  0.3335  1.2100
15118SOL     OW46794   7.391   5.460   2.533  0.2418  0.5319  0.1828
15118SOL    HW146795   7.482   5.483   2.549  0.2176  1.3340 -0.7420
15118SOL    HW246796   7.393   5.368   2.506  0.6197  0.1423  1.4720
15119SOL     OW46797   0.486   2.150   2.116 -0.3352  0.0243  0.0417
15119SOL    HW146798   0.551   2.107   2.060 -0.4278  0.0969 -0.1218
15119SOL    HW246799   0.432   2.201   2.056 -0.7133 -0.2506  0.1439
15120SOL     OW46800   6.049   2.892   0.190  0.0181  0.0809  0.3126
15120SOL    HW146801   6.050   2.945   0.270 -1.0712 -0.0219  0.4124
15120SOL    HW246802   6.142   2.876   0.171  0.3487  1.3638  0.7108
15121SOL     OW46803   2.423   3.661   7.386 -0.2828 -0.3116 -0.0289
15121SOL    HW146804   2.488   3.618   7.330  0.2644 -1.3837  1.3819
15121SOL    HW246805   2.439   3.626   7.473 -1.8114  0.5260  0.6274
15122SOL     OW46806   3.957   1.062   2.820  0.4238  0.2443  0.7564
15122SOL    HW146807   4.000   0.991   2.868 -1.7064 -1.1668  0.7183
15122SOL    HW246808   3.959   1.033   2.729 -1.2660 -0.2819  0.8507
15123SOL     OW46809   1.177   5.134   1.989 -0.4658  0.0162  0.2009
15123SOL    HW146810   1.224   5.207   1.949 -0.1283  0.3321  1.1682
15123SOL    HW246811   1.087   5.166   2.000 -0.4164  0.1363  0.2509
15124SOL     OW46812   4.866   1.784   0.711  0.3913 -0.6235  0.1096
15124SOL    HW146813   4.792   1.829   0.672 -0.0345 -0.4270  1.0990
15124SOL    HW246814   4.924   1.764   0.638  0.1367  0.6726 -0.4712
15125SOL     OW46815   2.283   0.086   0.807  0.5077  0.1750  0.4072
15125SOL    HW146816   2.257   0.001   0.842  0.3154 -0.3423 -0.9138
15125SOL    HW246817   2.201   0.130   0.785  0.5751  1.0450  1.7953
15126SOL     OW46818   5.821   1.520   3.493  0.3804  0.1865  0.2370
15126SOL    HW146819   5.833   1.613   3.474  0.3851 -0.0175 -0.8378
15126SOL    HW246820   5.726   1.510   3.501  0.3042  0.1330 -0.5833
15127SOL     OW46821   7.728   2.446   6.427 -0.0208 -0.3718 -0.2966
15127SOL    HW146822   7.730   2.537   6.396 -1.5046  0.0913  0.8458
15127SOL    HW246823   7.781   2.447   6.506 -0.9141 -0.2405  0.3105
15128SOL     OW46824   0.383   7.678  10.092 -0.0171  0.0570 -0.6653
15128SOL    HW146825   0.398   7.601  10.146 -0.3615  0.9872  0.8266
15128SOL    HW246826   0.357   7.643  10.006 -1.2502 -1.4866  0.2770
15129SOL     OW46827   7.653   7.297   8.112 -0.0770  0.5135 -0.7391
15129SOL    HW146828   7.640   7.207   8.141 -0.7093  0.4373 -1.2211
15129SOL    HW246829   7.718   7.333   8.172  0.8083 -0.5131 -1.0605
15130SOL     OW46830   0.304   3.042   5.329  0.3054  0.6506 -0.1659
15130SOL    HW146831   0.347   3.127   5.321  0.8416  0.2244 -2.3418
15130SOL    HW246832   0.366   2.980   5.291  0.3038 -0.8989  2.1639
15131SOL     OW46833   4.731   6.255   5.477  0.1752  0.1123  0.1228
15131SOL    HW146834   4.695   6.173   5.443  0.6573 -0.0653  0.0187
15131SOL    HW246835   4.693   6.265   5.564 -0.5895  0.2488 -0.2235
15132SOL     OW46836   6.286   1.315   0.947 -0.5769  0.4319  0.5207
15132SOL    HW146837   6.194   1.308   0.920 -0.6369  0.1267  0.7990
15132SOL    HW246838   6.306   1.231   0.987 -0.0905  0.3975  0.2178
15133SOL     OW46839   7.668   7.112   3.905 -1.0806  0.1555 -0.4887
15133SOL    HW146840   7.738   7.158   3.951  0.7302 -1.5561 -1.3957
15133SOL    HW246841   7.648   7.169   3.831 -2.6520  1.9769  1.2105
15134SOL     OW46842   1.021   2.201   5.802 -0.3470  0.3286 -0.0728
15134SOL    HW146843   1.002   2.287   5.765 -0.3916  0.5151  0.3816
15134SOL    HW246844   1.030   2.216   5.896 -1.3411 -0.3137  0.1506
15135SOL     OW46845   2.641   1.105   2.732  0.2704 -0.0065 -1.2346
15135SOL    HW146846   2.563   1.068   2.691  0.3179 -1.3160 -0.2048
15135SOL    HW246847   2.619   1.109   2.825  0.5799  1.8459 -1.2138
15136SOL     OW46848   6.195   1.486   1.607 -0.6393  0.4904  0.0887
15136SOL    HW146849   6.119   1.538   1.630 -1.0311  1.0470 -2.1813
15136SOL    HW246850   6.202   1.494   1.512  1.9684  0.0480  0.1525
15137SOL     OW46851   2.151   5.319   7.690 -0.0555  0.2800  0.0931
15137SOL    HW146852   2.231   5.268   7.673  1.0920  1.7307  0.8961
15137SOL    HW246853   2.154   5.390   7.626 -0.7065  0.3682  0.1545
15138SOL     OW46854   2.620   1.254  11.358  0.3814 -0.3086  0.2400
15138SOL    HW146855   2.543   1.298  11.321  0.1401  0.0297  1.1288
15138SOL    HW246856   2.584   1.175  11.400  0.8448 -1.5721 -1.6255
15139SOL     OW46857   2.546   5.131   0.610 -0.3116 -0.4968  0.4939
15139SOL    HW146858   2.610   5.082   0.662  0.9198  0.0473 -0.4366
15139SOL    HW246859   2.476   5.152   0.671  0.5010 -0.9381  1.6173
15140SOL     OW46860   2.051   3.298   7.079  0.2601 -0.1076 -0.1712
15140SOL    HW146861   2.004   3.372   7.042 -0.0098  0.0555  0.4763
15140SOL    HW246862   2.130   3.336   7.118 -0.1734 -0.0595  0.6952
15141SOL     OW46863   7.078   1.012   8.324  0.2152 -0.2208  0.1595
15141SOL    HW146864   7.144   1.081   8.317  0.9999 -0.7980  1.4297
15141SOL    HW246865   7.125   0.931   8.305  0.3265 -0.8238  2.5887
15142SOL     OW46866   0.770   2.350   0.645 -0.7407 -0.3757 -0.4480
15142SOL    HW146867   0.800   2.299   0.570 -0.1426 -0.3200 -0.2523
15142SOL    HW246868   0.826   2.428   0.645  0.0150 -0.8834  0.6799
15143SOL     OW46869   5.163   6.555   8.409 -0.5334  0.3072  0.3938
15143SOL    HW146870   5.104   6.568   8.484 -1.2037  1.7656 -0.3308
15143SOL    HW246871   5.250   6.565   8.446 -0.8229  0.2859  1.1123
15144SOL     OW46872   2.334   0.189  12.050  0.0964  0.7175 -0.6707
15144SOL    HW146873   2.345   0.167  12.143 -0.7137 -0.3518 -0.7979
15144SOL    HW246874   2.245   0.161  12.030  0.6613 -0.1992 -2.0594
15145SOL     OW46875   5.581   1.692   7.750 -0.0567  0.1144  0.2113
15145SOL    HW146876   5.547   1.772   7.788 -0.4015 -0.0082  0.1624
15145SOL    HW246877   5.644   1.660   7.815 -0.6861 -0.1287  0.7181
15146SOL     OW46878   7.155   2.734   8.083 -0.3364  0.7366  0.1667
15146SOL    HW146879   7.127   2.710   8.171  1.8811  0.0698  0.7522
15146SOL    HW246880   7.074   2.759   8.038 -1.8453 -1.0743  1.6958
15147SOL     OW46881   6.374   4.047   3.934  0.7898 -0.0533  0.0690
15147SOL    HW146882   6.319   3.992   3.989  0.0689  0.9290  0.3685
15147SOL    HW246883   6.378   4.001   3.850  1.2042 -1.1395  0.6662
15148SOL     OW46884   0.578   7.462   7.842 -0.4481 -0.2200 -0.1619
15148SOL    HW146885   0.539   7.546   7.866 -0.6235 -0.0331 -1.0580
15148SOL    HW246886   0.650   7.450   7.904 -0.6560  0.4111  0.2093
15149SOL     OW46887   1.118   3.157   1.493  0.2142  0.4024  0.6776
15149SOL    HW146888   1.161   3.238   1.466  0.9037 -0.5163 -1.2062
15149SOL    HW246889   1.034   3.159   1.448 -0.5884  0.9334  2.1672
15150SOL     OW46890   7.345   0.086   9.795 -0.0203 -0.6767 -0.4127
15150SOL    HW146891   7.386   0.161   9.838 -0.7766  0.2977 -1.3033
15150SOL    HW246892   7.274   0.060   9.854 -1.5054  1.1031 -1.2841
15151SOL     OW46893   6.907   7.725  12.476 -0.0001  0.3638  0.7049
15151SOL    HW146894   6.828   7.696  12.432  0.1743  2.3538 -1.0998
15151SOL    HW246895   6.957   7.645  12.492 -1.1810 -0.6673 -0.5290
15152SOL     OW46896   0.621   7.771   4.817 -0.1838 -0.0412 -0.3962
15152SOL    HW146897   0.578   7.855   4.797 -1.1150 -0.0542  1.3539
15152SOL    HW246898   0.556   7.705   4.794 -0.6171 -0.1255  0.9981
15153SOL     OW46899   6.487   6.567   3.521  0.6662  0.1504  0.0343
15153SOL    HW146900   6.404   6.529   3.550 -0.4240  2.8498  0.7852
15153SOL    HW246901   6.554   6.513   3.563 -0.7615 -0.5047  1.5882
15154SOL     OW46902   1.026   7.793   2.030 -0.2511  0.3850 -0.1755
15154SOL    HW146903   1.027   7.864   1.966 -2.2091  1.2381  0.6639
15154SOL    HW246904   0.955   7.815   2.090 -0.3690 -1.8525  0.6223
15155SOL     OW46905   2.786   7.376   7.155  0.1595 -0.2119 -0.2369
15155SOL    HW146906   2.856   7.435   7.128 -0.3133  0.6420  0.3408
15155SOL    HW246907   2.830   7.311   7.210  0.5431  0.1397 -0.1224
15156SOL     OW46908   3.376   0.872   9.085 -0.0933 -0.1885 -0.0942
15156SOL    HW146909   3.375   0.852   9.178 -0.7018  2.4221  0.5348
15156SOL    HW246910   3.285   0.861   9.057 -0.5293  1.9001  0.3641
15157SOL     OW46911   7.192   0.813   6.586  0.3849  0.6937  0.2997
15157SOL    HW146912   7.165   0.772   6.503 -1.3852 -1.9795  2.0478
15157SOL    HW246913   7.273   0.767   6.609  0.2045  0.5396  0.6317
15158SOL     OW46914   2.088   3.221   2.157 -0.1601  0.0896 -0.1676
15158SOL    HW146915   2.151   3.266   2.101  0.4146 -2.2617 -1.5451
15158SOL    HW246916   2.035   3.168   2.097 -0.9789 -0.8225  1.2938
15159SOL     OW46917   1.910   0.046  11.228  0.0183 -0.3786  0.1922
15159SOL    HW146918   1.865   0.003  11.301 -1.2293 -0.2628 -0.4661
15159SOL    HW246919   1.842   0.054  11.160  0.9248  0.2615 -0.6665
15160SOL     OW46920   3.912   4.448   3.912  0.3367 -0.5929 -0.3324
15160SOL    HW146921   3.921   4.474   3.820 -1.0324 -0.2369 -0.3792
15160SOL    HW246922   3.844   4.505   3.946  0.8342 -0.7243  0.9172
15161SOL     OW46923   4.105   2.643   6.225 -0.4608 -0.0900 -0.1627
15161SOL    HW146924   4.120   2.577   6.157  0.1565  0.1471 -0.2685
15161SOL    HW246925   4.187   2.645   6.275 -0.2583  0.9882 -0.5103
15162SOL     OW46926   5.491   4.795   4.627  0.0205  0.2611  0.4694
15162SOL    HW146927   5.470   4.838   4.710 -3.3016 -0.5494  0.2230
15162SOL    HW246928   5.544   4.719   4.652 -0.8415  0.0798  1.8904
15163SOL     OW46929   0.986   5.295   3.269 -0.0559 -0.3870  0.3994
15163SOL    HW146930   0.931   5.297   3.348 -2.3249 -0.5685 -1.1077
15163SOL    HW246931   1.075   5.311   3.302 -1.2405  2.1979  2.7066
15164SOL     OW46932   3.587   4.090  11.561  0.2573  0.4773  0.6902
15164SOL    HW146933   3.661   4.065  11.616  0.5128  0.1878  0.2234
15164SOL    HW246934   3.579   4.019  11.497  0.0491  0.8636  0.2756
15165SOL     OW46935   0.996   1.742  10.357 -0.3552  0.0628 -0.3334
15165SOL    HW146936   1.040   1.816  10.315  2.7417 -0.8756  0.9416
15165SOL    HW246937   1.057   1.668  10.345 -2.3746 -1.7934  0.2096
15166SOL     OW46938   4.423   7.392   7.018 -0.2479 -0.2724  0.8051
15166SOL    HW146939   4.467   7.436   7.091  2.1784  0.8653 -1.1893
15166SOL    HW246940   4.407   7.461   6.954 -0.0302 -1.6140 -0.7638
15167SOL     OW46941   2.710   5.974   1.624 -0.4151  0.5195 -0.0590
15167SOL    HW146942   2.704   6.036   1.697  0.6349 -0.0080  0.4935
15167SOL    HW246943   2.802   5.951   1.619 -0.8133 -1.2915 -0.0016
15168SOL     OW46944   6.673   0.843  11.305  1.2150  0.1280 -0.3573
15168SOL    HW146945   6.642   0.877  11.221 -2.8400 -0.6433  0.6106
15168SOL    HW246946   6.692   0.920  11.357 -0.0413  0.7745 -0.7972
15169SOL     OW46947   7.492   2.027  11.134  0.2036  0.4059  0.6133
15169SOL    HW146948   7.409   2.067  11.157 -0.0522  0.3701 -0.2168
15169SOL    HW246949   7.496   1.948  11.188  0.0511  0.7885  1.1992
15170SOL     OW46950   4.190   2.816   1.479  0.2769  0.2895  0.6202
15170SOL    HW146951   4.157   2.731   1.510  0.1026  0.1055 -0.0528
15170SOL    HW246952   4.285   2.809   1.485  0.4871 -1.1787 -2.4119
15171SOL     OW46953   0.267   6.296   0.761 -0.5348 -0.4699  0.9104
15171SOL    HW146954   0.234   6.227   0.703  0.7925 -0.3242 -0.0571
15171SOL    HW246955   0.361   6.279   0.767 -0.3640  0.6098  1.5613
15172SOL     OW46956   2.853   2.013   6.534 -0.1743  0.0007 -0.0911
15172SOL    HW146957   2.848   1.976   6.622  4.5605  0.1985  0.5330
15172SOL    HW246958   2.833   1.939   6.476 -0.7010 -0.8733  1.1594
15173SOL     OW46959   2.880   7.408   5.226 -0.5172 -0.2754 -0.2315
15173SOL    HW146960   2.919   7.454   5.301  2.0725 -0.6587 -1.2547
15173SOL    HW246961   2.883   7.315   5.251  0.0234 -0.3737 -0.6464
15174SOL     OW46962   5.672   3.808  10.016  0.3865  0.0608  0.1316
15174SOL    HW146963   5.657   3.734   9.956  0.2430 -1.0595  1.5092
15174SOL    HW246964   5.617   3.788  10.092  2.5946  0.0518  1.7964
15175SOL     OW46965   5.719   0.051   2.707 -0.5029 -0.0926 -0.7740
15175SOL    HW146966   5.729  -0.044   2.701  0.0007 -0.0213 -1.1291
15175SOL    HW246967   5.633   0.064   2.748 -0.9180 -0.6885 -1.4428
15176SOL     OW46968   1.800   3.287   3.344 -0.1235  0.3302 -0.2911
15176SOL    HW146969   1.758   3.343   3.279  1.3706  0.4668 -1.1669
15176SOL    HW246970   1.815   3.343   3.419 -1.4815  0.2774  0.0471
15177SOL     OW46971   3.020   7.106   6.743 -0.1894 -0.4580  0.0074
15177SOL    HW146972   2.979   7.020   6.755  1.7240 -1.4917 -0.4851
15177SOL    HW246973   3.019   7.121   6.649 -0.5990  0.1395  0.0942
15178SOL     OW46974   3.239   5.272   5.938 -0.3801 -0.3481  0.0525
15178SOL    HW146975   3.186   5.203   5.899  0.9621 -2.5261  1.8301
15178SOL    HW246976   3.183   5.312   6.004 -0.4441 -1.3374  0.6103
15179SOL     OW46977   6.633   2.287   8.086 -0.0169 -0.2845  0.5129
15179SOL    HW146978   6.722   2.312   8.112 -0.6397  0.1827  2.3717
15179SOL    HW246979   6.626   2.195   8.111  0.1385 -0.4909 -0.2010
15180SOL     OW46980   0.296   4.050   9.201  0.1152  0.1024 -0.1807
15180SOL    HW146981   0.367   4.113   9.192  1.0469 -0.5845  1.7831
15180SOL    HW246982   0.219   4.103   9.222  0.4907  0.6874 -0.2585
15181SOL     OW46983   0.812   0.601   8.129 -0.2614  0.0095  0.2349
15181SOL    HW146984   0.900   0.636   8.145 -1.8194  4.3683  0.5515
15181SOL    HW246985   0.800   0.607   8.034 -0.0029 -1.4001  0.0868
15182SOL     OW46986   0.594   4.436   6.499  0.1907 -0.0381 -0.3178
15182SOL    HW146987   0.619   4.518   6.542 -1.5672 -0.5038  1.7804
15182SOL    HW246988   0.658   4.426   6.428  2.6193  1.3775  1.4824
15183SOL     OW46989   0.676   6.449  10.318 -0.3059  0.0830 -0.0848
15183SOL    HW146990   0.756   6.448  10.265  0.2052  0.2846  0.6694
15183SOL    HW246991   0.619   6.511  10.273  0.2437  0.5008 -0.2252
15184SOL     OW46992   6.216   4.378   4.144 -0.0730  0.6034  0.0180
15184SOL    HW146993   6.183   4.314   4.081  1.1486  1.8446 -1.9926
15184SOL    HW246994   6.305   4.349   4.163  0.0682  1.0262  0.0264
15185SOL     OW46995   1.706   4.916   5.050 -0.5043  0.4025  0.1347
15185SOL    HW146996   1.767   4.959   4.991 -0.2803 -0.8538 -0.5844
15185SOL    HW246997   1.649   4.987   5.081 -1.2618  0.9890 -2.3431
15186SOL     OW46998   2.145   2.887  11.158 -0.1439 -0.6033 -0.3137
15186SOL    HW146999   2.212   2.822  11.178 -0.7133 -0.7656  1.2461
15186SOL    HW247000   2.190   2.955  11.109  1.1716 -0.7252  0.6673
15187SOL     OW47001   7.223   7.559   2.074 -0.1210  0.0645  0.1073
15187SOL    HW147002   7.189   7.525   2.157 -0.0944  0.3797  0.2501
15187SOL    HW247003   7.217   7.485   2.013 -0.8498  0.0549  0.1862
15188SOL     OW47004   7.343   0.100   5.642  0.2335 -0.5582  0.3727
15188SOL    HW147005   7.282   0.127   5.573  0.3185 -0.0994  0.4722
15188SOL    HW247006   7.287   0.086   5.718  0.2856  0.2197  0.5638
15189SOL     OW47007   3.830   7.360   7.565 -0.0292 -0.0444  0.0237
15189SOL    HW147008   3.786   7.443   7.587  2.3295  0.7223  2.4099
15189SOL    HW247009   3.908   7.387   7.517  1.4643 -0.6867  1.9748
15190SOL     OW47010   3.760   1.848  11.143 -0.0002  0.4544  0.2680
15190SOL    HW147011   3.687   1.909  11.131 -0.2428  0.1303  0.0998
15190SOL    HW247012   3.810   1.885  11.216 -0.0814  0.9185  0.0909
15191SOL     OW47013   7.850   2.773  10.655 -0.2897 -0.2244  0.4230
15191SOL    HW147014   7.944   2.786  10.646 -0.4093  0.6207  0.2425
15191SOL    HW247015   7.822   2.739  10.571  0.1620 -2.5964  1.1764
15192SOL     OW47016   0.018   1.458  12.132  0.2996  0.0272 -0.1498
15192SOL    HW147017  -0.032   1.445  12.213  1.4452  1.0685  0.7725
15192SOL    HW247018  -0.002   1.382  12.078 -2.3060  0.4213  0.1362
15193SOL     OW47019   1.980   6.440   6.636  0.2275 -0.2450  0.6190
15193SOL    HW147020   2.044   6.401   6.576  0.0526 -0.5967  0.6629
15193SOL    HW247021   1.899   6.445   6.585  0.3436  0.4183  0.4843
15194SOL     OW47022   2.601   2.487   7.673 -0.0481  0.0562  0.1071
15194SOL    HW147023   2.509   2.458   7.673 -0.5983  1.6914  0.6620
15194SOL    HW247024   2.632   2.464   7.760 -0.1533  0.1795  0.1772
15195SOL     OW47025   3.034   7.337  10.266 -0.0436  0.5856 -0.9819
15195SOL    HW147026   3.068   7.352  10.354 -0.7819 -0.0935 -0.5611
15195SOL    HW247027   3.112   7.315  10.214  0.1202 -2.3414  0.2635
15196SOL     OW47028   7.420   3.241   0.889 -0.1485 -0.3047 -0.4380
15196SOL    HW147029   7.351   3.307   0.881 -0.9324 -1.1453 -0.7365
15196SOL    HW247030   7.452   3.251   0.978 -0.4163  0.3261 -0.4059
15197SOL     OW47031   5.822   7.061   5.672  0.4775 -0.2693  0.1362
15197SOL    HW147032   5.739   7.082   5.628  0.0373 -0.3994  0.8931
15197SOL    HW247033   5.880   7.134   5.648 -0.3519  0.6825  0.9123
15198SOL     OW47034   5.278   4.967   1.867 -0.1479  0.0132  0.4670
15198SOL    HW147035   5.224   4.896   1.901 -1.5159 -0.3187 -2.1592
15198SOL    HW247036   5.216   5.027   1.826  1.2466  1.2525  0.0759
15199SOL     OW47037   4.533   4.535   7.671 -0.6844 -0.1237  0.2733
15199SOL    HW147038   4.464   4.471   7.688 -1.5077  0.5676 -0.3435
15199SOL    HW247039   4.514   4.607   7.732  0.3337 -0.5205  1.0864
15200SOL     OW47040   7.809   5.086   2.060  0.2820 -0.8290 -0.6337
15200SOL    HW147041   7.854   5.149   2.003  0.0249  0.5085  0.5585
15200SOL    HW247042   7.716   5.099   2.041  0.1848 -0.2236  0.2108
15201SOL     OW47043   3.709   4.539  11.285  0.3386 -0.4122 -0.1020
15201SOL    HW147044   3.666   4.504  11.208 -0.7259  1.0812 -0.2138
15201SOL    HW247045   3.799   4.558  11.256 -0.2412  0.7956 -1.1946
15202SOL     OW47046   3.522   5.004   1.286  0.5194 -0.1353 -0.2074
15202SOL    HW147047   3.539   5.039   1.199 -0.8817 -0.8617 -0.8102
15202SOL    HW247048   3.540   5.077   1.346  0.9825  0.5339 -1.1496
15203SOL     OW47049   4.062   4.137   9.063  0.4013 -0.0960  0.2621
15203SOL    HW147050   3.984   4.167   9.017  1.2087  0.6993 -0.6388
15203SOL    HW247051   4.042   4.149   9.155 -0.2723  0.7682  0.0112
15204SOL     OW47052   1.213   6.175  11.403 -0.2158 -0.3405  0.4117
15204SOL    HW147053   1.289   6.225  11.433 -1.5875  0.8223  2.1756
15204SOL    HW247054   1.149   6.241  11.377 -1.3772 -1.1865  0.9882
15205SOL     OW47055   1.045   1.844   7.188 -0.0918 -0.0906  0.0056
15205SOL    HW147056   1.127   1.815   7.147 -0.0363  0.3235 -0.1810
15205SOL    HW247057   1.073   1.886   7.270 -0.0494  0.6555 -0.3750
15206SOL     OW47058   2.644   1.662   1.582  0.0831 -0.3102  0.6840
15206SOL    HW147059   2.733   1.692   1.563 -0.2949 -0.3886 -1.3630
15206SOL    HW247060   2.588   1.719   1.529 -0.9572 -1.4659  0.5214
15207SOL     OW47061   3.530   1.599   4.574 -0.3344  0.6148 -0.7716
15207SOL    HW147062   3.448   1.642   4.598 -0.5235  0.6403 -1.4344
15207SOL    HW247063   3.541   1.619   4.481  0.4691  0.6753 -0.6638
15208SOL     OW47064   5.168   2.299   6.938  0.0292  0.4635 -0.1441
15208SOL    HW147065   5.109   2.370   6.960 -1.0063 -0.7999  1.3604
15208SOL    HW247066   5.133   2.262   6.856 -0.6762  0.3543  0.2050
15209SOL     OW47067   0.212   7.404   1.961 -0.1530 -0.5053  0.1136
15209SOL    HW147068   0.276   7.474   1.976 -0.2489 -0.7007  1.5814
15209SOL    HW247069   0.127   7.448   1.968 -0.2178 -0.7749  1.2444
15210SOL     OW47070   4.160   7.885   9.995 -0.0907 -0.4996 -0.3825
15210SOL    HW147071   4.171   7.835   9.914  2.2421  0.3848 -0.6751
15210SOL    HW247072   4.065   7.894  10.004 -0.4383 -0.7541 -2.9284
15211SOL     OW47073   1.135   3.539   8.689  0.0863  0.2461  0.1600
15211SOL    HW147074   1.199   3.570   8.753  0.3601 -2.0607  1.1299
15211SOL    HW247075   1.183   3.474   8.637 -1.0497 -0.4445 -0.0694
15212SOL     OW47076   6.002   3.871  12.153 -0.4039 -0.2416 -0.0060
15212SOL    HW147077   6.011   3.818  12.074 -1.0764 -1.4234  0.6799
15212SOL    HW247078   6.056   3.827  12.218 -2.1592 -1.0107  1.0063
15213SOL     OW47079   7.638   6.871   4.799  0.0239  0.1132  0.2709
15213SOL    HW147080   7.591   6.891   4.718 -1.7943  1.1025  1.4975
15213SOL    HW247081   7.616   6.780   4.818 -0.8000  0.3358  0.4247
15214SOL     OW47082   3.393   1.472   5.428 -0.0966 -0.7281  0.1359
15214SOL    HW147083   3.442   1.518   5.496 -0.9282  0.5397 -0.0776
15214SOL    HW247084   3.450   1.476   5.351 -0.5053  0.8018 -0.1304
15215SOL     OW47085   1.596   3.174   4.377 -0.3916 -0.0805  0.1692
15215SOL    HW147086   1.568   3.187   4.286 -1.7320  0.6467  0.6469
15215SOL    HW247087   1.523   3.208   4.429  0.8349  0.6086  1.5264
15216SOL     OW47088   5.745   0.004   5.186 -0.6667  0.6976  0.3020
15216SOL    HW147089   5.718  -0.073   5.236 -0.2938 -0.1080 -0.7075
15216SOL    HW247090   5.812   0.046   5.240  1.1508 -1.2303 -0.3136
15217SOL     OW47091   7.804   6.333   1.554 -0.2578 -0.4037  0.4292
15217SOL    HW147092   7.888   6.378   1.547 -0.0315 -0.9561 -0.4250
15217SOL    HW247093   7.770   6.360   1.640  0.7524 -0.1289  0.7561
15218SOL     OW47094   5.416   2.018   6.327 -0.3495 -0.5485  0.5161
15218SOL    HW147095   5.330   2.016   6.370 -1.0582 -0.4992 -0.8331
15218SOL    HW247096   5.472   2.065   6.388 -1.2022 -0.8238  1.5595
15219SOL     OW47097   2.479   6.462   7.520 -0.1307  0.2773 -0.2210
15219SOL    HW147098   2.488   6.448   7.426 -2.0326  0.6040 -0.4940
15219SOL    HW247099   2.504   6.553   7.533  0.6112  0.0946 -0.3181
15220SOL     OW47100   2.962   2.540  10.122 -0.1229  0.4630  0.1128
15220SOL    HW147101   3.050   2.510  10.147 -0.3589  0.2084  0.6434
15220SOL    HW247102   2.978   2.602  10.051  0.5550  1.1316  0.8278
15221SOL     OW47103   0.946   3.859   0.318  0.0578  0.3449  0.4215
15221SOL    HW147104   0.958   3.826   0.228 -0.3710  1.5978 -0.1220
15221SOL    HW247105   0.890   3.936   0.307 -2.5197 -1.1727  2.0867
15222SOL     OW47106   1.498   3.983   9.256 -0.3329  0.2153  0.1264
15222SOL    HW147107   1.585   4.020   9.271 -1.2356  3.1716 -1.1826
15222SOL    HW247108   1.474   4.013   9.169 -1.9161 -2.2167 -0.3645
15223SOL     OW47109   0.920   3.855   7.650  0.2977  0.2277 -0.3436
15223SOL    HW147110   1.012   3.830   7.665  0.1086  0.5716  1.5707
15223SOL    HW247111   0.874   3.771   7.644  0.5502  0.0612 -0.0336
15224SOL     OW47112   1.884   5.141  12.440  0.2487  0.1344 -0.2631
15224SOL    HW147113   1.830   5.218  12.423  0.4181  0.1801 -0.6103
15224SOL    HW247114   1.910   5.110  12.353  0.2518 -0.2645 -0.1229
15225SOL     OW47115   0.425   0.703   1.282  0.3835 -0.1096 -0.2845
15225SOL    HW147116   0.345   0.672   1.240 -0.2401  0.6896  0.2840
15225SOL    HW247117   0.410   0.797   1.298  1.8847  0.3347 -1.2099
15226SOL     OW47118   3.309   5.024   3.126 -0.5381 -0.3316  0.0734
15226SOL    HW147119   3.249   5.020   3.200 -3.3738  1.1676 -1.9763
15226SOL    HW247120   3.330   4.932   3.107 -2.0225 -0.8952  0.9827
15227SOL     OW47121   7.423   6.122   7.542  0.6967 -0.8810 -0.5556
15227SOL    HW147122   7.435   6.194   7.480  0.1352 -0.7299 -0.5020
15227SOL    HW247123   7.425   6.164   7.628 -3.5182 -0.1762 -0.5432
15228SOL     OW47124   0.012   7.548   2.095  0.3145 -0.6134  1.1033
15228SOL    HW147125   0.017   7.635   2.136 -2.0766 -0.7131  1.7408
15228SOL    HW247126   0.025   7.487   2.168  1.7824 -0.8270  0.6893
15229SOL     OW47127   1.574   5.294   5.334  0.7273 -0.6251  0.5203
15229SOL    HW147128   1.614   5.252   5.258  2.3214  0.5088  0.6904
15229SOL    HW247129   1.632   5.367   5.355 -1.8023  1.6109  0.3427
15230SOL     OW47130   6.649   6.083   9.472 -0.0338  0.0319  0.4352
15230SOL    HW147131   6.711   6.153   9.455 -1.1023  1.6482  2.6482
15230SOL    HW247132   6.601   6.072   9.390 -0.3391  2.4507  0.2231
15231SOL     OW47133   1.119   0.391   2.608  0.4085  0.0159 -0.3768
15231SOL    HW147134   1.106   0.314   2.664  1.0849  1.0677  1.3247
15231SOL    HW247135   1.076   0.368   2.525 -1.1509 -1.4045  0.7422
15232SOL     OW47136   7.905   1.949   4.383 -1.1622  0.3242  0.0165
15232SOL    HW147137   7.831   1.888   4.385 -0.6722 -0.4420 -2.3044
15232SOL    HW247138   7.866   2.035   4.397 -2.4974 -0.0625 -1.1341
15233SOL     OW47139   2.997   3.516   0.621  0.6306  0.3140  0.2941
15233SOL    HW147140   2.925   3.475   0.572  1.6033 -1.1556  0.0149
15233SOL    HW247141   2.954   3.559   0.694 -0.6549  0.6002 -0.5812
15234SOL     OW47142   0.196   7.583   5.488 -0.5449  0.3995 -0.1297
15234SOL    HW147143   0.190   7.549   5.399 -1.4715  1.2325 -0.4069
15234SOL    HW247144   0.185   7.507   5.544  2.1464 -0.5014 -0.6646
15235SOL     OW47145   3.952   5.145   3.278  0.0753 -0.3703  0.6384
15235SOL    HW147146   4.032   5.162   3.329  0.1752 -0.0332  0.3779
15235SOL    HW247147   3.915   5.066   3.317  0.6244 -0.6245  0.6545
15236SOL     OW47148   1.924   7.240   6.179 -0.1010  0.4754 -0.5966
15236SOL    HW147149   1.866   7.204   6.112 -0.8526 -0.4335  0.4992
15236SOL    HW247150   1.919   7.335   6.167 -0.5419  0.3390 -1.5593
15237SOL     OW47151   6.517   1.371   9.661 -0.1932  0.5995 -0.0820
15237SOL    HW147152   6.542   1.403   9.748 -1.7181 -1.4418  1.1649
15237SOL    HW247153   6.548   1.281   9.659 -0.7973  0.4090 -1.4074
15238SOL     OW47154   4.056   6.701   3.042 -0.6333 -0.2313  0.1170
15238SOL    HW147155   4.140   6.732   3.008 -0.5946 -1.1101 -0.6156
15238SOL    HW247156   4.053   6.609   3.018 -1.6053 -0.3257  0.5548
15239SOL     OW47157   3.115   5.393   9.021 -0.4497 -0.1958  0.0792
15239SOL    HW147158   3.114   5.406   8.926  3.1158 -1.1945 -0.2561
15239SOL    HW247159   3.070   5.310   9.035  0.9292 -1.2005 -1.0889
15240SOL     OW47160   5.137   0.574   5.355 -0.2111  0.2444 -0.3812
15240SOL    HW147161   5.051   0.602   5.322 -0.9680 -0.6355  0.7359
15240SOL    HW247162   5.122   0.484   5.384  1.1114  0.0771 -0.1650
15241SOL     OW47163   5.953   0.713   1.759  0.7264 -0.5480  0.1444
15241SOL    HW147164   5.969   0.661   1.679 -1.0642  0.1316 -0.7096
15241SOL    HW247165   5.955   0.648   1.830  0.9304 -1.4017 -0.6164
15242SOL     OW47166   4.421   4.376   2.443 -0.4623  0.2129 -0.2555
15242SOL    HW147167   4.412   4.441   2.373 -0.9750  2.5613  1.8672
15242SOL    HW247168   4.466   4.422   2.514 -0.0190 -2.0470  1.0482
15243SOL     OW47169   6.652   6.937  11.583 -0.0477 -0.0425 -0.2656
15243SOL    HW147170   6.746   6.951  11.594 -0.3315  1.0814  0.9428
15243SOL    HW247171   6.619   7.021  11.552 -1.1406  0.7687  2.7544
15244SOL     OW47172   3.376   5.664  10.352  0.1826 -0.1627 -0.1144
15244SOL    HW147173   3.306   5.700  10.298  0.1457  0.1588  0.1410
15244SOL    HW247174   3.454   5.668  10.297  0.3502  1.0708  0.1778
15245SOL     OW47175   3.366   6.436   8.462  0.0615  0.4292 -0.0247
15245SOL    HW147176   3.297   6.380   8.498  0.8668  0.2321  1.2601
15245SOL    HW247177   3.426   6.376   8.417 -0.1351  0.5097 -0.4077
15246SOL     OW47178   7.658   1.516   6.114  0.0730  0.2175 -0.6496
15246SOL    HW147179   7.605   1.447   6.073  0.6907 -1.3563  1.0095
15246SOL    HW247180   7.638   1.507   6.208  1.4946  1.1450 -0.2305
15247SOL     OW47181   7.916   7.564   8.879  0.2282 -0.3002 -0.0790
15247SOL    HW147182   7.843   7.607   8.836  0.6638  0.4483 -0.0869
15247SOL    HW247183   7.956   7.633   8.933 -0.0741 -1.1158  1.2301
15248SOL     OW47184   5.056   7.877   1.009  0.4500 -0.3266 -0.1448
15248SOL    HW147185   5.108   7.804   0.976 -0.2729 -1.7784  1.6928
15248SOL    HW247186   5.089   7.954   0.963  2.4088 -1.5603 -0.9248
15249SOL     OW47187   4.578   2.286   4.202  0.1451  0.5856 -0.1116
15249SOL    HW147188   4.664   2.286   4.161  0.8768  0.5310  1.3606
15249SOL    HW247189   4.517   2.273   4.129  1.4133 -0.1482 -1.0920
15250SOL     OW47190   2.570   7.609  10.271  0.0735  0.3418 -0.3893
15250SOL    HW147191   2.526   7.531  10.305  0.4612  0.4994  0.4964
15250SOL    HW247192   2.647   7.575  10.226  0.3444  0.2113  0.1588
15251SOL     OW47193   4.847   3.590   7.843 -0.2856 -0.1145  0.0360
15251SOL    HW147194   4.790   3.610   7.769  0.7112 -1.3544 -1.1164
15251SOL    HW247195   4.845   3.669   7.897 -1.4916  0.6008 -0.9990
15252SOL     OW47196   4.986   4.205   2.630 -0.5848 -0.0972  0.2272
15252SOL    HW147197   4.898   4.241   2.618 -0.9977 -1.3691 -0.8849
15252SOL    HW247198   4.972   4.120   2.671  0.1676 -0.1107  0.4758
15253SOL     OW47199   7.419   1.811   3.336 -0.2981  0.0942  0.7462
15253SOL    HW147200   7.455   1.886   3.384  0.2987  0.3108 -0.0251
15253SOL    HW247201   7.461   1.815   3.250  0.4615 -1.6584  0.9945
15254SOL     OW47202   5.322   6.353   3.977  0.1450 -0.4155 -0.0035
15254SOL    HW147203   5.408   6.382   3.945  1.1760 -0.4842  2.4920
15254SOL    HW247204   5.326   6.366   4.071 -2.6914 -0.2714  0.1745
15255SOL     OW47205   4.848   5.104   9.530  0.3049 -0.0742  0.3073
15255SOL    HW147206   4.897   5.062   9.459  2.1133  1.4702  0.5660
15255SOL    HW247207   4.825   5.190   9.495 -1.6054 -0.4766  0.4937
15256SOL     OW47208   6.088   4.159   5.148  0.5034  0.3038  0.4813
15256SOL    HW147209   6.158   4.094   5.149  0.0121 -0.2458 -0.1820
15256SOL    HW247210   6.125   4.234   5.101  0.9580  0.3824  0.9571
15257SOL     OW47211   2.081   4.509   0.136  0.2591 -0.0284  0.6112
15257SOL    HW147212   2.144   4.508   0.064 -1.1132 -0.3206 -0.6601
15257SOL    HW247213   2.114   4.446   0.199  1.3495  0.0047  0.0934
15258SOL     OW47214   7.493   7.322  10.090 -0.1359  0.7721  0.0972
15258SOL    HW147215   7.537   7.370  10.160 -0.5359  1.3382 -0.0307
15258SOL    HW247216   7.402   7.317  10.119 -0.1990  0.5478 -0.1394
15259SOL     OW47217   1.720   6.566   4.856  0.2808 -0.1921 -0.9406
15259SOL    HW147218   1.715   6.477   4.893  1.4778 -0.5987 -1.7115
15259SOL    HW247219   1.639   6.608   4.885 -0.3195 -1.5414 -0.5723
15260SOL     OW47220   5.364   7.201   5.164  0.4468 -0.2813 -0.3655
15260SOL    HW147221   5.353   7.296   5.169  3.0902  0.1609 -1.1887
15260SOL    HW247222   5.443   7.183   5.215 -0.4197 -2.1779  0.4000
15261SOL     OW47223   4.524   6.728   8.030 -0.6017 -0.1968  0.8192
15261SOL    HW147224   4.617   6.703   8.035 -0.5621 -0.5090 -0.9582
15261SOL    HW247225   4.477   6.654   8.069 -0.1678 -0.4855  0.7983
15262SOL     OW47226   3.399   5.889   0.338  0.1210 -0.0888  0.3212
15262SOL    HW147227   3.374   5.841   0.259  1.1356  0.1249 -0.1592
15262SOL    HW247228   3.328   5.951   0.353 -0.6123 -0.8957  0.2320
15263SOL     OW47229   3.896   1.843   0.407 -0.2738 -0.5175 -0.1022
15263SOL    HW147230   3.932   1.756   0.393  0.5954 -0.3027  0.6884
15263SOL    HW247231   3.919   1.892   0.328  0.6808 -0.5566  0.1330
15264SOL     OW47232   3.219   7.931   2.578  0.1701  0.2994 -0.1604
15264SOL    HW147233   3.259   7.912   2.494  1.1707 -1.4819  0.6603
15264SOL    HW247234   3.236   7.854   2.631 -1.1353  1.0358  1.4382
15265SOL     OW47235   6.128   5.565   8.082  0.1808  0.0052  0.0645
15265SOL    HW147236   6.127   5.632   8.012  0.6371  1.6317  1.5350
15265SOL    HW247237   6.052   5.511   8.065 -0.9434  1.6825 -0.4970
15266SOL     OW47238   6.183   4.373   4.990 -0.3599 -0.2783 -0.5869
15266SOL    HW147239   6.236   4.403   5.064  0.7747 -2.6437 -0.3814
15266SOL    HW247240   6.242   4.374   4.915 -1.1806  0.9468 -1.2534
15267SOL     OW47241   7.207   4.920   5.237 -0.0246  0.3129  0.5812
15267SOL    HW147242   7.260   4.954   5.309  1.5651  0.1522 -0.4483
15267SOL    HW247243   7.157   4.995   5.206  1.1656  1.0009  0.2640
15268SOL     OW47244   0.990   0.036  12.056  0.5522  0.2425  0.1551
15268SOL    HW147245   0.954   0.004  12.139  0.4784  1.4872  0.6346
15268SOL    HW247246   0.915   0.073  12.010  0.6523 -0.1487 -0.3258
15269SOL     OW47247   3.112   6.764   9.176 -0.1079 -0.0838 -0.2934
15269SOL    HW147248   3.122   6.776   9.270  2.2447 -2.6123 -0.0804
15269SOL    HW247249   3.169   6.829   9.137  1.5446 -1.1548  0.2307
15270SOL     OW47250   0.584   3.723   9.427 -0.2117 -0.2330  0.3587
15270SOL    HW147251   0.515   3.746   9.489 -0.1338  0.4633  0.1912
15270SOL    HW247252   0.617   3.807   9.395  0.2489 -0.5727 -0.0752
15271SOL     OW47253   4.173   5.272   6.833 -0.6315  0.7890 -0.2502
15271SOL    HW147254   4.208   5.184   6.814 -1.3192  0.5056 -0.2334
15271SOL    HW247255   4.212   5.328   6.766 -1.1971  0.2271 -1.0784
15272SOL     OW47256   6.753   0.818   3.793  0.1734  0.0069  0.9985
15272SOL    HW147257   6.802   0.843   3.870 -1.1983 -0.1639  1.9716
15272SOL    HW247258   6.661   0.818   3.822 -0.6419  2.2612 -1.2262
15273SOL     OW47259   1.174   4.216   2.077  0.5158 -0.3291 -0.2675
15273SOL    HW147260   1.115   4.209   2.152  1.0791  1.9282  0.4656
15273SOL    HW247261   1.121   4.186   2.003 -0.9294 -0.1616  0.6476
15274SOL     OW47262   2.463   2.192   7.371  0.1646  0.1579  0.0656
15274SOL    HW147263   2.475   2.285   7.357  0.1139  0.2003  0.2982
15274SOL    HW247264   2.375   2.174   7.337 -0.0349  0.2976  0.5036
15275SOL     OW47265   0.608   3.923   2.013 -0.1940 -0.3698  0.1833
15275SOL    HW147266   0.575   3.994   2.067  1.0551 -1.2605  2.2278
15275SOL    HW247267   0.700   3.946   1.997 -0.7326  0.2893 -2.3402
15276SOL     OW47268   0.890   0.703   1.419  0.5532  0.2245  0.3825
15276SOL    HW147269   0.804   0.664   1.433  0.7399  0.1696  1.4379
15276SOL    HW247270   0.951   0.649   1.470  1.2864  0.0132 -0.6762
15277SOL     OW47271   7.002   6.857   8.819 -0.8225  0.2351  0.1484
15277SOL    HW147272   6.912   6.888   8.822 -0.9237  0.0371 -0.5835
15277SOL    HW247273   7.028   6.850   8.911 -2.8339 -3.3570  0.6294
15278SOL     OW47274   2.161   5.043   4.589 -0.0473  0.3860 -0.5051
15278SOL    HW147275   2.128   5.102   4.658 -1.4151 -0.8433 -0.0513
15278SOL    HW247276   2.256   5.049   4.596 -0.1617  1.3890  0.5271
15279SOL     OW47277   0.791   3.489   5.894  0.4635  0.3371  0.2205
15279SOL    HW147278   0.805   3.508   5.801  0.0748 -1.5354 -0.2553
15279SOL    HW247279   0.880   3.481   5.930  0.7545 -2.4672 -0.8279
15280SOL     OW47280   0.224   4.657  12.053 -0.0176  0.7485 -0.3115
15280SOL    HW147281   0.186   4.571  12.036 -2.0183  1.0477  2.2111
15280SOL    HW247282   0.292   4.640  12.118  2.3335  0.6591 -2.5990
15281SOL     OW47283   7.963   0.183   9.890 -0.2818  0.2440  0.4285
15281SOL    HW147284   7.911   0.135   9.826  1.2378 -0.8800 -0.0441
15281SOL    HW247285   8.049   0.193   9.847  0.0510  1.5887  1.3527
15282SOL     OW47286   4.953   0.538  10.809 -0.4997 -0.2453  0.0172
15282SOL    HW147287   4.977   0.536  10.717 -1.4724  0.4370 -0.2609
15282SOL    HW247288   5.028   0.499  10.854  2.1807  3.6624 -0.5631
15283SOL     OW47289   7.613   3.728   9.470  0.0392 -0.2098 -0.2092
15283SOL    HW147290   7.552   3.755   9.538  0.8827  1.0967  0.0659
15283SOL    HW247291   7.592   3.783   9.395  1.0500  0.4618 -0.0148
15284SOL     OW47292   2.536   0.399  12.194 -0.2371 -0.1113  0.3946
15284SOL    HW147293   2.617   0.380  12.242  0.1781  0.0276 -0.2475
15284SOL    HW247294   2.514   0.489  12.220  1.2653  0.8555 -1.4209
15285SOL     OW47295   4.219   1.303   7.122  0.2310 -0.1074 -0.2152
15285SOL    HW147296   4.219   1.303   7.027  1.5758 -1.5228 -0.2551
15285SOL    HW247297   4.287   1.364   7.147 -0.1650  0.3126 -0.1502
15286SOL     OW47298   3.400   6.336   2.885  0.8386 -0.1048 -0.2870
15286SOL    HW147299   3.376   6.356   2.975 -0.0074  0.3825 -0.6085
15286SOL    HW247300   3.452   6.256   2.890 -2.3614 -2.3088  0.2870
15287SOL     OW47301   5.585   4.386   6.783 -0.2732 -0.6182  0.7340
15287SOL    HW147302   5.621   4.406   6.696  1.3540  2.0422  1.8771
15287SOL    HW247303   5.497   4.354   6.766 -1.3602  3.0987 -1.8473
15288SOL     OW47304   5.623   1.243   5.130  0.4683  0.0484 -0.3292
15288SOL    HW147305   5.642   1.312   5.066 -0.1413  0.1214 -0.4446
15288SOL    HW247306   5.702   1.236   5.183  1.3623 -0.6812 -1.6926
15289SOL     OW47307   0.333   2.667   7.122 -0.6847 -0.1235 -0.1686
15289SOL    HW147308   0.293   2.754   7.120 -0.3127  0.0326 -1.1950
15289SOL    HW247309   0.401   2.670   7.054 -0.8236 -1.2833 -0.3716
15290SOL     OW47310   4.268   0.060   4.894 -0.0241  0.2385  0.0642
15290SOL    HW147311   4.179   0.083   4.921 -0.3857 -1.8661  0.8261
15290SOL    HW247312   4.258   0.026   4.805  0.1344  0.6584 -0.1163
15291SOL     OW47313   1.401   4.272  10.591 -0.2409 -0.2614  0.7872
15291SOL    HW147314   1.488   4.294  10.626  0.6141 -2.6577  0.3539
15291SOL    HW247315   1.355   4.356  10.586  1.6683  0.9365  2.0322
15292SOL     OW47316   6.510   0.857   8.316 -0.5595 -0.6286  0.0520
15292SOL    HW147317   6.508   0.953   8.313 -2.2880 -0.6493 -0.9618
15292SOL    HW247318   6.586   0.836   8.370  1.7104  1.2348 -2.1945
15293SOL     OW47319   2.138   5.596  10.941 -0.4504  0.0755 -0.2591
15293SOL    HW147320   2.159   5.505  10.921  2.4617  0.8712 -1.1976
15293SOL    HW247321   2.102   5.631  10.859 -0.2091  0.1447 -0.3349
15294SOL     OW47322   3.345   5.138   8.690 -0.2922  0.1791  0.5864
15294SOL    HW147323   3.327   5.226   8.723 -0.4166  0.1146  0.6871
15294SOL    HW247324   3.422   5.150   8.633 -0.5784  0.4336  0.2432
15295SOL     OW47325   4.744   4.580   4.850 -0.0474  0.2348  0.1618
15295SOL    HW147326   4.680   4.579   4.779  0.9490 -0.1770 -0.7665
15295SOL    HW247327   4.828   4.594   4.806  0.4581  1.2605  1.3961
15296SOL     OW47328   5.366   4.266   1.226  0.0680  0.1519  0.7474
15296SOL    HW147329   5.393   4.351   1.261  0.8775  0.5797 -0.7963
15296SOL    HW247330   5.271   4.273   1.215 -0.0834  0.2980  2.0101
15297SOL     OW47331   5.212   1.789   7.479  0.4043  0.1688 -0.5106
15297SOL    HW147332   5.210   1.740   7.561  0.2960  0.9944 -0.0138
15297SOL    HW247333   5.176   1.728   7.414  1.6562 -0.9387 -0.2097
15298SOL     OW47334   4.732   2.619  10.449 -0.4264 -0.3435 -0.4246
15298SOL    HW147335   4.735   2.584  10.361 -1.7316  0.0202 -0.6327
15298SOL    HW247336   4.738   2.714  10.438  0.3086 -0.3326 -0.0471
15299SOL     OW47337   0.919   7.416  12.298  0.0486 -0.1400 -0.1720
15299SOL    HW147338   0.911   7.369  12.382  2.2980  0.6911  0.5893
15299SOL    HW247339   0.912   7.347  12.232  0.2526 -1.1271  0.7902
15300SOL     OW47340   1.509   6.435   2.186  0.1799  0.3598 -0.0766
15300SOL    HW147341   1.578   6.435   2.253 -0.5343  1.0625  0.6821
15300SOL    HW247342   1.433   6.398   2.229  0.1720 -0.7827 -1.0341
15301SOL     OW47343   1.043   3.625  10.897  0.0479  0.2266 -0.1181
15301SOL    HW147344   0.982   3.581  10.956 -0.5587  0.9366 -0.1933
15301SOL    HW247345   1.044   3.570  10.819 -0.4706  0.1768 -0.0968
15302SOL     OW47346   5.148   6.657   3.218  0.3622 -0.2333  0.0367
15302SOL    HW147347   5.068   6.656   3.270  0.4384 -1.6504  0.1491
15302SOL    HW247348   5.217   6.634   3.280  0.8035  0.4740 -0.1772
15303SOL     OW47349   6.163   7.498   5.322 -0.0346 -0.1582  0.0705
15303SOL    HW147350   6.181   7.554   5.397 -0.1400 -1.4503  1.0897
15303SOL    HW247351   6.188   7.552   5.246  1.0696  0.7997  1.0614
15304SOL     OW47352   1.019   6.995   2.306 -0.2198 -0.0220 -0.0458
15304SOL    HW147353   1.042   6.904   2.287 -1.2513 -0.2843 -0.0671
15304SOL    HW247354   1.103   7.036   2.327  0.2037 -1.0791  0.4129
15305SOL     OW47355   7.969   3.033   2.628  0.1422  0.4491  0.3744
15305SOL    HW147356   8.051   3.032   2.677  0.1277 -0.1275  0.3947
15305SOL    HW247357   7.944   2.941   2.621 -1.1228  0.6866  1.4261
15306SOL     OW47358   5.221   0.585   0.831 -0.0911 -0.0298 -0.2599
15306SOL    HW147359   5.165   0.651   0.871 -0.1489  0.0559 -0.4851
15306SOL    HW247360   5.218   0.603   0.737 -1.7444 -1.5784 -0.5544
15307SOL     OW47361   5.127   1.245   0.806  0.5803  0.3200 -0.4471
15307SOL    HW147362   5.108   1.207   0.720 -2.7132  2.4433 -0.8498
15307SOL    HW247363   5.191   1.314   0.788 -0.0580  0.7236 -1.2421
15308SOL     OW47364   4.153   5.366   9.645  0.0522 -0.3533 -0.4212
15308SOL    HW147365   4.186   5.356   9.734  0.3653  0.4386 -0.4451
15308SOL    HW247366   4.231   5.375   9.591 -0.1599  0.0860 -0.6612
15309SOL     OW47367   0.513   1.839   1.718 -0.0778 -0.1696  0.0525
15309SOL    HW147368   0.423   1.859   1.744 -1.1304 -1.2332 -2.4584
15309SOL    HW247369   0.507   1.754   1.676  2.0205  0.0291 -0.7445
15310SOL     OW47370   1.074   6.924   9.993  0.0707  0.2014  0.6342
15310SOL    HW147371   1.142   6.991  10.002  0.3473 -0.1020  0.8670
15310SOL    HW247372   0.995   6.965  10.026  0.0588  0.6825  0.0259
15311SOL     OW47373   3.118   2.779   6.300 -0.2550 -0.3634  0.3500
15311SOL    HW147374   3.041   2.730   6.330  0.4729 -3.1000 -1.8073
15311SOL    HW247375   3.192   2.721   6.320  0.6623 -0.2411 -2.2854
15312SOL     OW47376   4.959   0.868   0.259  0.1529  0.0694  0.3656
15312SOL    HW147377   4.898   0.905   0.323  0.9268  1.9164  0.0908
15312SOL    HW247378   4.957   0.929   0.186  0.6457 -1.0628 -0.6293
15313SOL     OW47379   2.449   1.416   8.152  0.1247  0.0836 -0.5090
15313SOL    HW147380   2.365   1.447   8.117  0.7526  1.0940 -1.1617
15313SOL    HW247381   2.489   1.369   8.079 -0.7736 -2.2977  0.4388
15314SOL     OW47382   4.266   7.031   8.213  0.3306 -0.4264 -0.0588
15314SOL    HW147383   4.241   6.938   8.211 -0.1322 -0.2935 -0.8871
15314SOL    HW247384   4.202   7.071   8.273  0.1302 -0.5339 -0.1979
15315SOL     OW47385   2.770   2.609  10.910 -0.2432  0.2468  0.0175
15315SOL    HW147386   2.814   2.572  10.987 -1.4001 -0.1917  0.4923
15315SOL    HW247387   2.828   2.590  10.837  1.0579  0.9961  0.8276
15316SOL     OW47388   0.599   6.552  11.289 -0.2915  0.2515 -0.1412
15316SOL    HW147389   0.684   6.582  11.259  0.6559 -2.0139  0.0201
15316SOL    HW247390   0.554   6.523  11.209 -0.0104 -0.5660 -0.0171
15317SOL     OW47391   4.323   2.926   6.994 -0.0524  0.0602  0.5856
15317SOL    HW147392   4.251   2.887   6.945  0.9436  0.5504 -1.3833
15317SOL    HW247393   4.316   3.020   6.976  1.9759 -0.0336 -1.0188
15318SOL     OW47394   7.065   2.368   9.680  0.0090 -0.1410  0.1602
15318SOL    HW147395   7.046   2.444   9.626 -0.2498 -1.4852 -1.7532
15318SOL    HW247396   7.152   2.339   9.653 -0.3836 -1.2054 -0.0277
15319SOL     OW47397   0.092   2.032   3.862  0.4334  0.4685  0.0743
15319SOL    HW147398   0.066   1.967   3.927 -2.4260  0.5678 -0.8066
15319SOL    HW247399   0.129   1.981   3.790  3.2239  0.3302  1.4998
15320SOL     OW47400   6.901   5.712   1.129  0.5821 -0.6960 -0.6943
15320SOL    HW147401   6.921   5.759   1.048 -1.2053 -0.1496 -0.8615
15320SOL    HW247402   6.862   5.629   1.099 -1.4660  0.1140 -0.4792
15321SOL     OW47403   7.901   6.144  11.953  0.0001  0.2410 -0.0953
15321SOL    HW147404   7.986   6.187  11.958  0.4556 -0.5888 -0.5051
15321SOL    HW247405   7.912   6.076  11.887 -0.8615 -0.1587  0.1528
15322SOL     OW47406   6.826   7.501   1.601 -0.0014 -0.3620  0.0215
15322SOL    HW147407   6.754   7.438   1.601  0.4470 -0.8843 -0.2357
15322SOL    HW247408   6.905   7.447   1.594  0.4583  0.1552  0.9498
15323SOL     OW47409   4.002   6.187  11.996  0.0686  0.1371 -0.3034
15323SOL    HW147410   4.034   6.183  12.086  1.7127  0.3390 -0.8478
15323SOL    HW247411   3.914   6.149  12.000 -0.0684  0.5300  1.4484
15324SOL     OW47412   0.721   4.474   2.154  0.1207 -0.8465  0.6826
15324SOL    HW147413   0.745   4.556   2.112  0.4159 -0.6565  1.2110
15324SOL    HW247414   0.687   4.500   2.240  1.5229 -1.3407  1.4268
15325SOL     OW47415   7.371   5.785   0.282 -0.3874 -0.6091  0.5037
15325SOL    HW147416   7.439   5.805   0.346 -0.2667  2.0419 -0.3118
15325SOL    HW247417   7.291   5.773   0.334  0.3332 -1.8887  1.3426
15326SOL     OW47418   1.967   7.827  12.385 -0.0044  0.0307 -0.5071
15326SOL    HW147419   2.029   7.892  12.351  0.5402 -0.1235  0.1648
15326SOL    HW247420   1.889   7.877  12.408  0.3319  0.4155 -0.1948
15327SOL     OW47421   3.143   4.119   7.793  0.6005 -0.4651 -0.1833
15327SOL    HW147422   3.061   4.136   7.839  0.3971  0.1129 -0.7395
15327SOL    HW247423   3.169   4.032   7.822  0.2331 -0.3120  0.6463
15328SOL     OW47424   7.039   7.874   7.075 -0.3456  0.2032 -0.4813
15328SOL    HW147425   7.103   7.837   7.014 -1.2230 -0.0124 -1.2920
15328SOL    HW247426   7.079   7.862   7.161  1.0161  0.7181 -1.0109
15329SOL     OW47427   1.784   5.117   9.399  0.5103  0.3284  0.4253
15329SOL    HW147428   1.874   5.137   9.427  0.9129 -0.1481 -0.4846
15329SOL    HW247429   1.765   5.181   9.331 -0.8961  2.2358  2.4878
15330SOL     OW47430   4.621   4.576   9.282 -0.1111 -0.1107 -0.3895
15330SOL    HW147431   4.570   4.649   9.245 -2.5814 -2.0511 -1.0759
15330SOL    HW247432   4.650   4.526   9.206  1.7899  0.2172  0.0670
15331SOL     OW47433   6.888   2.253   6.921  0.1285  0.2459 -0.3978
15331SOL    HW147434   6.969   2.257   6.870  0.1406  1.4655 -0.3137
15331SOL    HW247435   6.907   2.300   7.002 -0.9610  1.5275 -0.8392
15332SOL     OW47436   7.394   2.004   9.995 -0.2031 -0.0426  0.0146
15332SOL    HW147437   7.436   2.078  10.040 -0.5286  0.4332 -0.4458
15332SOL    HW247438   7.359   2.043   9.914  1.2355 -1.0522 -1.1616
15333SOL     OW47439   5.153   0.739  10.589  0.4750 -0.2682 -0.0893
15333SOL    HW147440   5.093   0.665  10.602 -0.3242  0.6736  2.1704
15333SOL    HW247441   5.239   0.704  10.609  0.4028 -1.0663 -1.0805
15334SOL     OW47442   1.159   5.488   6.060 -0.2842  0.0093 -0.0675
15334SOL    HW147443   1.126   5.574   6.033 -0.9863 -0.4592 -0.7303
15334SOL    HW247444   1.081   5.433   6.068  0.0244 -0.2620  1.5572
15335SOL     OW47445   2.725   6.312   3.397 -0.3043 -0.3558  0.4633
15335SOL    HW147446   2.711   6.322   3.491 -0.2580  0.1279  0.4223
15335SOL    HW247447   2.652   6.358   3.356  0.0592  0.0563  0.2638
15336SOL     OW47448   4.623   3.825   7.317 -0.0721  0.4810 -0.1257
15336SOL    HW147449   4.679   3.751   7.342 -0.1115  0.2388 -0.7301
15336SOL    HW247450   4.533   3.794   7.333 -0.3148 -0.7731 -3.1263
15337SOL     OW47451   0.491   2.231   2.985 -0.0399  0.4913 -0.2860
15337SOL    HW147452   0.468   2.248   3.076  0.6615  1.0815 -0.2149
15337SOL    HW247453   0.487   2.136   2.977 -3.5865  0.5240 -0.5659
15338SOL     OW47454   0.217   4.480   9.277  0.1914  0.0526 -0.3743
15338SOL    HW147455   0.145   4.543   9.274  0.2869  0.1925  0.0751
15338SOL    HW247456   0.270   4.500   9.199  1.2559  1.8066  0.7061
15339SOL     OW47457   2.934   6.862   4.629 -0.5999 -0.7532 -0.0508
15339SOL    HW147458   2.960   6.944   4.670 -0.9642 -0.7894  0.2469
15339SOL    HW247459   2.838   6.864   4.629 -0.6115 -1.2617  0.1279
15340SOL     OW47460   7.014   5.136  11.767  0.5221 -0.0433 -0.7321
15340SOL    HW147461   7.055   5.103  11.847 -2.2710 -0.6700  0.5554
15340SOL    HW247462   6.985   5.057  11.721 -0.4042  0.4115 -0.9421
15341SOL     OW47463   2.738   4.511   4.393  0.1425 -0.3613 -0.0327
15341SOL    HW147464   2.797   4.538   4.464 -0.7822 -2.0113  1.4498
15341SOL    HW247465   2.738   4.416   4.397 -2.5673 -0.4377  0.0003
15342SOL     OW47466   2.741   6.214   5.554  0.6578  0.5409  0.4491
15342SOL    HW147467   2.783   6.133   5.526  0.3098  0.2923  0.6472
15342SOL    HW247468   2.799   6.283   5.522  0.0192  0.2925 -1.3515
15343SOL     OW47469   2.556   0.461   6.399  0.1139 -0.0409  0.0421
15343SOL    HW147470   2.462   0.457   6.381  0.3188  0.9152 -1.4511
15343SOL    HW247471   2.571   0.391   6.462 -2.0623  1.5198  2.5258
15344SOL     OW47472   5.379   6.985   9.791 -0.0282 -0.1272  0.9368
15344SOL    HW147473   5.318   6.919   9.758  0.4684  0.8899 -2.4397
15344SOL    HW247474   5.465   6.945   9.781  0.1081 -0.1799  2.1550
15345SOL     OW47475   4.898   0.553   7.498  0.4152 -0.3182  0.1518
15345SOL    HW147476   4.976   0.608   7.495 -0.0732  0.3617 -0.4744
15345SOL    HW247477   4.890   0.527   7.589 -0.7861  2.8063  1.0753
15346SOL     OW47478   4.610   7.679   7.089 -0.7573 -0.3432  0.7447
15346SOL    HW147479   4.658   7.599   7.113 -0.9684 -0.2981  1.3433
15346SOL    HW247480   4.662   7.750   7.126  0.9959  0.0669 -2.2181
15347SOL     OW47481   7.278   3.961   5.307 -0.1804 -0.1446  0.2159
15347SOL    HW147482   7.235   3.925   5.385  0.3435 -1.9791 -0.2907
15347SOL    HW247483   7.211   4.014   5.265 -1.3617 -1.3736  0.4771
15348SOL     OW47484   6.626   4.071   7.041  0.1587 -0.0498 -0.5567
15348SOL    HW147485   6.542   4.088   7.084  0.0101 -1.0589 -0.4148
15348SOL    HW247486   6.603   4.021   6.962  0.6223 -0.3864 -0.4825
15349SOL     OW47487   4.207   5.889   4.210  0.1153 -0.9117 -0.2300
15349SOL    HW147488   4.187   5.951   4.140  3.9532  1.1713  0.2548
15349SOL    HW247489   4.142   5.907   4.278 -2.7130 -1.9015 -2.4651
15350SOL     OW47490   0.162   5.028   7.711 -0.1015 -0.2929  0.1142
15350SOL    HW147491   0.104   5.003   7.783  1.3987 -0.5755  1.2733
15350SOL    HW247492   0.223   5.091   7.749 -0.6152  1.2639 -1.4936
15351SOL     OW47493   0.434   4.340   6.791  0.6575  0.8307 -0.8067
15351SOL    HW147494   0.376   4.263   6.791  1.4155  0.2303  0.2760
15351SOL    HW247495   0.375   4.414   6.778 -0.5541  0.3547  1.4713
15352SOL     OW47496   6.860   2.949  10.002 -0.1907  0.1009  0.1212
15352SOL    HW147497   6.924   3.020  10.001 -1.4491  1.2927 -2.4014
15352SOL    HW247498   6.911   2.871   9.980  0.7882  0.5901  0.5691
15353SOL     OW47499   7.203   6.474   8.570 -0.5229  0.1533 -0.6311
15353SOL    HW147500   7.161   6.466   8.484  0.1351 -2.1117 -0.8167
15353SOL    HW247501   7.215   6.383   8.598  2.3402  0.7617  0.3621
15354SOL     OW47502   2.465   6.925   8.657 -0.2825 -0.3445 -0.4462
15354SOL    HW147503   2.399   6.909   8.724 -1.0120  0.4155 -0.9556
15354SOL    HW247504   2.428   6.887   8.577 -0.9784  1.6746 -1.1460
15355SOL     OW47505   5.734   2.653  12.124  0.1412 -0.6561  0.3147
15355SOL    HW147506   5.703   2.677  12.211  1.3120  0.2352  0.5148
15355SOL    HW247507   5.700   2.564  12.110  0.5785 -1.1287  2.0081
15356SOL     OW47508   4.387   1.471   3.821  0.5273  0.1940  0.0994
15356SOL    HW147509   4.342   1.522   3.888 -0.5137  0.6149 -0.8926
15356SOL    HW247510   4.385   1.526   3.743  1.3041 -0.4818 -0.4142
15357SOL     OW47511   0.889   3.078   4.062 -0.7653 -0.3270  0.1259
15357SOL    HW147512   0.825   3.066   3.991  0.0738 -1.0465 -0.5270
15357SOL    HW247513   0.971   3.097   4.017  0.0397 -1.9238  0.8335
15358SOL     OW47514   3.369   1.744   8.530 -0.0751  0.1263 -0.1274
15358SOL    HW147515   3.380   1.694   8.610 -0.4020  1.8918  1.0934
15358SOL    HW247516   3.346   1.679   8.463  0.9325 -1.4718  1.0260
15359SOL     OW47517   2.535   6.921   9.035 -0.0149 -0.1406 -0.3934
15359SOL    HW147518   2.449   6.961   9.024 -0.3123 -0.6516  0.0225
15359SOL    HW247519   2.518   6.827   9.041  0.4840 -0.1901  0.4792
15360SOL     OW47520   0.845   2.373   3.135 -0.4292  0.0244 -0.0533
15360SOL    HW147521   0.930   2.411   3.156 -0.2907  0.1349 -0.7855
15360SOL    HW247522   0.796   2.377   3.217 -0.7184  2.5453 -0.2705
15361SOL     OW47523   7.101   5.414   5.025  0.3860 -0.4513 -0.0821
15361SOL    HW147524   7.064   5.488   4.977 -0.7542 -0.8633  0.1411
15361SOL    HW247525   7.028   5.379   5.076  1.7198  0.5860  2.7935
15362SOL     OW47526   1.867   1.125   4.577  0.0281  0.3388 -0.2527
15362SOL    HW147527   1.901   1.188   4.640  0.0264  0.5012 -0.4098
15362SOL    HW247528   1.906   1.041   4.601 -1.1045  0.1052  0.8478
15363SOL     OW47529   1.874   0.818   6.803  0.0152  0.1728  0.5238
15363SOL    HW147530   1.965   0.847   6.805 -0.3614  1.3777  1.0957
15363SOL    HW247531   1.826   0.885   6.853 -0.9772 -1.1721  1.4672
15364SOL     OW47532   7.607   7.768   6.761  0.1599  0.2917 -0.1792
15364SOL    HW147533   7.693   7.810   6.761  0.5986 -0.3668 -2.8600
15364SOL    HW247534   7.545   7.841   6.768  0.9412  1.2695 -2.3167
15365SOL     OW47535   3.623   5.835   7.922  0.4594 -0.3738 -0.1142
15365SOL    HW147536   3.683   5.868   7.988 -2.2327  1.8867  1.4377
15365SOL    HW247537   3.615   5.907   7.859 -0.0538 -0.9108 -0.6694
15366SOL     OW47538   1.698   7.830   3.804 -0.3789  0.1288  0.7337
15366SOL    HW147539   1.689   7.908   3.748  2.7009  0.3182  0.3687
15366SOL    HW247540   1.686   7.863   3.893 -0.9253  0.6597  0.4735
15367SOL     OW47541   5.890   5.278  10.332 -0.1669  0.0277  0.3085
15367SOL    HW147542   5.846   5.279  10.417 -1.0009  1.5365 -0.0928
15367SOL    HW247543   5.969   5.332  10.345 -0.2247  0.1485  0.1654
15368SOL     OW47544   4.964   6.739   2.682  0.1703 -0.0960 -0.3928
15368SOL    HW147545   4.923   6.713   2.764 -0.8630 -1.0897 -1.1719
15368SOL    HW247546   5.054   6.709   2.689 -0.0591 -0.6907  0.1697
15369SOL     OW47547   0.169   5.324  10.573  0.0280 -0.7242  0.3748
15369SOL    HW147548   0.197   5.270  10.499 -4.1516 -0.1580 -1.9237
15369SOL    HW247549   0.077   5.300  10.586 -0.3675  1.7775  3.1014
15370SOL     OW47550   1.816   2.726   1.495  0.1500 -0.5133 -0.2705
15370SOL    HW147551   1.833   2.633   1.477  0.0068 -0.7684  0.8660
15370SOL    HW247552   1.901   2.768   1.483 -0.0167 -0.5642 -1.9960
15371SOL     OW47553   4.629   7.478   7.931  0.0946 -0.2686 -0.3150
15371SOL    HW147554   4.620   7.515   8.019  1.6082  0.1960 -0.3282
15371SOL    HW247555   4.688   7.404   7.942 -0.1373 -0.5428 -0.8637
15372SOL     OW47556   2.032   5.467   4.127 -0.0442  0.1070  0.9329
15372SOL    HW147557   2.075   5.395   4.173 -0.2196  0.6290  1.9609
15372SOL    HW247558   2.072   5.546   4.163  1.0156  0.5314 -1.0641
15373SOL     OW47559   0.275   3.987   2.107 -0.4142  0.5868  0.0476
15373SOL    HW147560   0.285   3.942   2.191  2.6790  0.0881 -0.4397
15373SOL    HW247561   0.290   3.919   2.042 -0.2585  1.4324 -0.8231
15374SOL     OW47562   0.494   1.740   3.113  0.8156  0.1034  0.2228
15374SOL    HW147563   0.559   1.804   3.141 -2.2569  3.7729 -0.1053
15374SOL    HW247564   0.474   1.689   3.191  1.8394  1.0306  1.1096
15375SOL     OW47565   0.989   4.629  12.150 -0.0756 -0.5116 -0.4230
15375SOL    HW147566   0.894   4.631  12.143 -0.3004 -1.1765  1.7289
15375SOL    HW247567   1.015   4.721  12.144 -0.6596 -0.4395 -2.6055
15376SOL     OW47568   0.692   2.759   1.111  0.7389 -0.3827  0.6922
15376SOL    HW147569   0.601   2.762   1.141  0.6799 -3.1789  1.1132
15376SOL    HW247570   0.704   2.838   1.059 -1.9041  0.1127  0.7386
15377SOL     OW47571   2.337   5.976   6.102  0.2765 -0.2437 -0.4104
15377SOL    HW147572   2.254   5.943   6.137  0.4383  1.3207  1.6635
15377SOL    HW247573   2.313   6.031   6.028 -0.3996 -1.0148 -0.7697
15378SOL     OW47574   3.806   5.676  11.432  0.1007  0.2643  0.6908
15378SOL    HW147575   3.821   5.638  11.345 -1.2742 -0.3796  0.6936
15378SOL    HW247576   3.804   5.600  11.491  1.2820  0.7172  1.3428
15379SOL     OW47577   6.071   2.400   6.839 -0.3485 -0.5468  0.0063
15379SOL    HW147578   6.147   2.355   6.874 -0.0261  0.6403  0.8984
15379SOL    HW247579   5.996   2.359   6.882 -0.1240 -0.8483  0.1069
15380SOL     OW47580   5.288   2.076   5.525  0.6818  0.2078 -0.2472
15380SOL    HW147581   5.261   1.993   5.564  1.4232  1.4871  3.3706
15380SOL    HW247582   5.247   2.076   5.438 -6.5413 -0.3934  2.4475
15381SOL     OW47583   0.871   2.053   1.849 -0.5843 -0.3625  0.2553
15381SOL    HW147584   0.778   2.065   1.870 -0.5046  1.5388 -0.2964
15381SOL    HW247585   0.899   2.138   1.813  1.6351 -0.5258  1.4054
15382SOL     OW47586   2.557   1.960   5.099  0.3241  0.0755  0.4079
15382SOL    HW147587   2.613   1.891   5.136  0.1139 -1.2948 -1.6278
15382SOL    HW247588   2.615   2.035   5.090  0.7825 -0.0612  1.9353
15383SOL     OW47589   5.118   7.587   3.737  0.1062 -0.4298 -0.0421
15383SOL    HW147590   5.158   7.578   3.823 -1.6746  2.4476  1.2414
15383SOL    HW247591   5.045   7.525   3.738 -0.2443 -0.0165  0.7606
15384SOL     OW47592   3.075   4.247   0.401 -0.5048  0.1180  0.5138
15384SOL    HW147593   2.995   4.224   0.352 -1.5456 -0.0739  2.2062
15384SOL    HW247594   3.101   4.166   0.444 -0.4051  0.5692  1.3351
15385SOL     OW47595   6.906   2.447   5.741 -0.2523 -0.9068 -0.2609
15385SOL    HW147596   6.856   2.366   5.730 -2.2648 -0.0066  1.4109
15385SOL    HW247597   6.876   2.482   5.825 -2.0510  3.2555 -2.3300
15386SOL     OW47598   3.551   1.998   1.645 -0.3401 -0.3592 -0.3204
15386SOL    HW147599   3.546   2.033   1.556 -1.4949  0.2783 -0.0264
15386SOL    HW247600   3.566   1.904   1.633 -0.6868 -0.3139 -1.2044
15387SOL     OW47601   4.987   1.690  12.366  0.4449 -0.1287 -0.2575
15387SOL    HW147602   4.933   1.721  12.439 -0.2071  0.4078 -0.9619
15387SOL    HW247603   5.052   1.632  12.408 -0.2408 -0.2468  0.6769
15388SOL     OW47604   3.552   7.878   9.095  0.3483 -0.0751 -0.1075
15388SOL    HW147605   3.629   7.917   9.137  1.6496  0.0221 -2.3658
15388SOL    HW247606   3.568   7.890   9.001 -2.4721 -0.0353 -0.6720
15389SOL     OW47607   4.254   7.133   5.103  0.0650  0.8771  0.4365
15389SOL    HW147608   4.289   7.222   5.105  1.0366  0.6398 -1.8799
15389SOL    HW247609   4.330   7.077   5.120  0.0148  0.4580 -0.6023
15390SOL     OW47610   3.747   3.693   3.971  0.0464  0.0620 -0.4178
15390SOL    HW147611   3.758   3.787   3.988 -0.8253  0.1635 -0.3541
15390SOL    HW247612   3.828   3.667   3.929 -0.6882  1.4181 -2.8898
15391SOL     OW47613   6.920   3.674   9.593 -0.4783 -0.6602  0.5434
15391SOL    HW147614   6.992   3.637   9.542  0.6826  1.9395  0.1841
15391SOL    HW247615   6.946   3.764   9.611 -2.9616 -0.0925  1.7386
15392SOL     OW47616   1.616   0.762  11.145 -0.1287  0.0222 -0.4207
15392SOL    HW147617   1.690   0.822  11.137 -0.7040  0.6394 -1.1987
15392SOL    HW247618   1.590   0.742  11.055  0.1683 -1.5670 -0.1859
15393SOL     OW47619   4.601   1.406  11.405  0.1073  0.1965  0.2139
15393SOL    HW147620   4.649   1.327  11.429  1.3595  1.2356  1.3186
15393SOL    HW247621   4.514   1.394  11.443  0.7893  0.0073  1.7808
15394SOL     OW47622   1.062   3.276   6.766 -0.4614 -0.4425 -0.2327
15394SOL    HW147623   1.073   3.184   6.792 -1.6086 -1.3162 -2.6117
15394SOL    HW247624   0.967   3.289   6.763 -0.3151  0.6522 -0.5716
15395SOL     OW47625   2.208   5.233   8.207 -0.0668  0.3380 -0.5031
15395SOL    HW147626   2.129   5.206   8.160 -0.6237  1.4557 -0.2556
15395SOL    HW247627   2.275   5.239   8.140  0.0302 -1.4207 -0.5889
15396SOL     OW47628   6.442   5.193   7.029 -0.2672  0.0231  0.7553
15396SOL    HW147629   6.487   5.129   7.084 -0.3621  0.7222  1.6694
15396SOL    HW247630   6.350   5.185   7.054 -0.2670  0.5636  0.9369
15397SOL     OW47631   7.009   3.490  11.916 -0.0581 -0.0666 -0.3249
15397SOL    HW147632   7.059   3.545  11.977 -0.7862  0.5611 -0.2865
15397SOL    HW247633   7.035   3.401  11.939  0.2745  0.1973  0.3826
15398SOL     OW47634   7.742   4.206   2.418 -0.1991 -0.2179  0.4192
15398SOL    HW147635   7.819   4.234   2.368 -0.4534 -1.3444 -0.6474
15398SOL    HW247636   7.778   4.167   2.498  0.3370 -0.6799 -0.0418
15399SOL     OW47637   1.543   7.267   6.034 -0.2776 -0.2143 -0.4077
15399SOL    HW147638   1.450   7.265   6.011 -0.5612  1.7051  0.4043
15399SOL    HW247639   1.544   7.265   6.130  0.6953 -3.2651 -0.3884
15400SOL     OW47640   0.859   7.969   0.127  0.2464 -0.0067 -0.3718
15400SOL    HW147641   0.770   8.001   0.138  0.1801 -0.0061 -0.9015
15400SOL    HW247642   0.900   8.032   0.068 -0.0988 -1.2642 -2.0128
15401SOL     OW47643   3.984   4.950   4.502 -0.5503  0.0592  0.2418
15401SOL    HW147644   3.926   5.017   4.539  0.1354 -0.4771  2.3701
15401SOL    HW247645   4.058   4.946   4.562  0.6251 -0.8729 -1.2107
15402SOL     OW47646   4.754   0.625   6.311  0.2321 -0.6719  0.1070
15402SOL    HW147647   4.732   0.574   6.233  2.0864  0.0432 -0.9704
15402SOL    HW247648   4.675   0.674   6.331 -0.2222 -0.6827 -1.4981
15403SOL     OW47649   5.522   3.020   5.024 -0.1822  0.3340 -0.1908
15403SOL    HW147650   5.570   3.085   4.974  0.2344 -0.1682 -0.4549
15403SOL    HW247651   5.582   2.945   5.031 -0.7338 -0.1094 -0.1004
15404SOL     OW47652   1.203   2.243   3.898 -0.1797 -0.4150  0.1948
15404SOL    HW147653   1.245   2.315   3.945  0.6902 -0.8593  0.1244
15404SOL    HW247654   1.194   2.173   3.963 -0.8768 -0.3028  0.2248
15405SOL     OW47655   6.558   2.995   7.783  0.2939 -0.3143  0.4500
15405SOL    HW147656   6.479   2.987   7.835  0.7150 -0.5754  1.0524
15405SOL    HW247657   6.541   3.070   7.725 -1.0479 -1.3898 -0.6213
15406SOL     OW47658   1.348   0.537  10.870 -0.0569 -0.5524  0.3399
15406SOL    HW147659   1.265   0.582  10.857  0.1454 -0.7045 -1.9538
15406SOL    HW247660   1.371   0.504  10.783  2.1950 -0.8667  0.9902
15407SOL     OW47661   4.764   5.683  11.134  0.6528  0.0714  0.0348
15407SOL    HW147662   4.699   5.743  11.096  0.9038  0.0237 -0.4737
15407SOL    HW247663   4.766   5.609  11.074 -0.3193 -0.8832  1.1260
15408SOL     OW47664   1.065   6.549   0.283 -0.1239 -0.5155  0.1233
15408SOL    HW147665   1.111   6.508   0.356 -1.4369 -1.7992  0.2623
15408SOL    HW247666   1.086   6.495   0.207 -2.1916 -1.7793  0.3826
15409SOL     OW47667   5.914   0.547   9.346 -0.1147 -0.3870  0.6454
15409SOL    HW147668   5.822   0.570   9.332  0.0112 -0.9308 -1.3183
15409SOL    HW247669   5.934   0.483   9.278  1.7594 -0.2047  0.9668
15410SOL     OW47670   6.836   1.826   7.623 -0.0328  0.3236 -0.0100
15410SOL    HW147671   6.770   1.835   7.555  0.5806  0.3329 -0.6120
15410SOL    HW247672   6.902   1.768   7.585  1.0013  1.4272  0.0445
15411SOL     OW47673   3.138   0.990   7.660  0.2889 -0.6344 -0.6526
15411SOL    HW147674   3.116   1.055   7.726  1.9070 -1.3329  0.6472
15411SOL    HW247675   3.120   1.034   7.576 -0.9632  0.5833  0.2112
15412SOL     OW47676   5.849   3.095   9.987  0.1889 -0.1129 -0.6562
15412SOL    HW147677   5.813   3.150   9.917 -1.1524 -0.5798 -0.3690
15412SOL    HW247678   5.805   3.011   9.976  0.5329 -0.4311  0.2879
15413SOL     OW47679   5.707   7.322   9.642 -0.0043  0.3379  0.7748
15413SOL    HW147680   5.731   7.230   9.634 -0.9558  0.0512  0.9997
15413SOL    HW247681   5.789   7.368   9.655  0.6412 -0.2982 -0.8422
15414SOL     OW47682   2.025   5.855   0.933 -0.4251 -0.3501 -0.1636
15414SOL    HW147683   1.973   5.826   1.008  0.2505  1.7284  1.1847
15414SOL    HW247684   1.961   5.869   0.863 -1.5676  0.8845  1.0591
15415SOL     OW47685   2.560   6.912  11.919  0.2441 -0.1249  0.3537
15415SOL    HW147686   2.589   6.838  11.866 -1.7011 -0.0493 -0.8947
15415SOL    HW247687   2.586   6.989  11.869  1.2942  0.0463  1.1251
15416SOL     OW47688   5.776   2.965   5.212  0.0848 -0.2190 -0.1357
15416SOL    HW147689   5.729   3.048   5.218  2.2048  1.0527 -0.1538
15416SOL    HW247690   5.785   2.950   5.118 -0.4120 -0.5555 -0.1333
15417SOL     OW47691   1.129   4.402   4.938 -0.5087  0.4916 -0.2604
15417SOL    HW147692   1.073   4.480   4.937 -0.7628  0.3107 -1.0572
15417SOL    HW247693   1.070   4.330   4.962 -0.8548  0.1494 -2.0105
15418SOL     OW47694   5.065   2.165   3.591 -0.0905 -0.1843 -0.3899
15418SOL    HW147695   5.036   2.219   3.518 -0.1945 -1.6218 -1.4572
15418SOL    HW247696   5.031   2.210   3.669 -1.2278  0.6234 -1.3073
15419SOL     OW47697   2.611   5.132  11.644 -0.7125  0.0054 -0.3192
15419SOL    HW147698   2.645   5.175  11.723 -0.9732 -1.1375  0.4344
15419SOL    HW247699   2.678   5.068  11.622 -0.9437 -0.1200 -0.6531
15420SOL     OW47700   4.009   7.822   8.618  1.1261  0.1102 -0.0934
15420SOL    HW147701   4.051   7.882   8.680  0.3040  0.9756 -0.3657
15420SOL    HW247702   3.926   7.864   8.596 -0.0189 -1.6666  0.5852
15421SOL     OW47703   1.545   7.321  10.470  0.7051 -0.1684  0.2615
15421SOL    HW147704   1.588   7.397  10.508  2.3160 -0.8272 -0.1503
15421SOL    HW247705   1.486   7.358  10.404  1.4775  0.7365  0.0448
15422SOL     OW47706   3.511   3.643   9.191  0.2139 -0.1974  0.0558
15422SOL    HW147707   3.564   3.620   9.115 -0.3750 -2.0069  0.1580
15422SOL    HW247708   3.423   3.658   9.155 -0.1675 -1.4987  0.4163
15423SOL     OW47709   0.668   5.311   6.385  0.3314 -0.1526  0.1657
15423SOL    HW147710   0.602   5.319   6.316 -0.2330  0.0449  0.7209
15423SOL    HW247711   0.737   5.372   6.359  0.5578 -0.7570 -0.7001
15424SOL     OW47712   3.484   5.336   4.242 -0.3301 -0.1730 -0.5549
15424SOL    HW147713   3.454   5.346   4.332  2.0357  0.1642  0.2574
15424SOL    HW247714   3.444   5.410   4.196  0.8764  1.5226  0.9588
15425SOL     OW47715   0.918   2.244   4.735  0.2804  0.5606 -0.4436
15425SOL    HW147716   0.886   2.210   4.818  0.1959  2.9897  0.6056
15425SOL    HW247717   1.007   2.208   4.727  0.3805  0.4992  0.8299
15426SOL     OW47718   2.883   7.659   5.881  0.3239 -0.6545 -0.2406
15426SOL    HW147719   2.812   7.640   5.942 -1.7597 -0.9464 -2.5866
15426SOL    HW247720   2.896   7.754   5.888 -0.0486 -0.6461  0.4570
15427SOL     OW47721   4.668   1.027  11.252 -0.5335  0.4458 -0.1190
15427SOL    HW147722   4.672   1.105  11.307 -0.8295  0.9085 -0.7381
15427SOL    HW247723   4.759   1.002  11.240 -0.4905 -1.3763  2.9156
15428SOL     OW47724   6.223   4.922   6.063  0.2463  0.0417 -0.0641
15428SOL    HW147725   6.229   4.878   5.978  0.9559  0.0582 -0.0275
15428SOL    HW247726   6.242   5.014   6.043  1.3100 -0.0954  0.2327
15429SOL     OW47727   2.106   0.237  11.241  0.1689  0.7371  0.5291
15429SOL    HW147728   2.103   0.264  11.333 -0.1663  2.8756 -0.0567
15429SOL    HW247729   2.029   0.180  11.231 -0.2278  1.0981  1.3847
15430SOL     OW47730   4.859   1.204  10.179 -0.4744  0.1297 -0.4536
15430SOL    HW147731   4.773   1.167  10.156 -0.9837  0.2470  1.1653
15430SOL    HW247732   4.880   1.166  10.264  1.1523  0.0278 -0.8674
15431SOL     OW47733   3.582   3.551  11.922 -0.2604 -0.6982 -0.0279
15431SOL    HW147734   3.530   3.519  11.849 -1.2668 -0.3969  0.5406
15431SOL    HW247735   3.636   3.475  11.947 -2.4558 -1.9804  1.1609
15432SOL     OW47736   0.559   4.900  11.915  0.5383  0.6565  0.3398
15432SOL    HW147737   0.546   4.901  12.010 -0.6021  0.2550  0.1993
15432SOL    HW247738   0.526   4.814  11.887  1.7598  0.3737 -0.3071
15433SOL     OW47739   4.902   7.579   8.156  0.0202  0.2477 -0.9183
15433SOL    HW147740   4.952   7.598   8.077  1.6036 -1.1191 -0.3092
15433SOL    HW247741   4.968   7.558   8.222 -1.3115 -0.0740  0.3725
15434SOL     OW47742   1.566   3.797   7.140 -0.1392  0.0643  0.3773
15434SOL    HW147743   1.604   3.823   7.057  1.5845 -1.6777  0.5627
15434SOL    HW247744   1.558   3.879   7.190  0.5051  0.8687 -0.8140
15435SOL     OW47745   1.093   2.093   6.951  0.3666 -0.1713 -0.1819
15435SOL    HW147746   1.041   2.110   7.029  0.2945  0.5274 -0.3701
15435SOL    HW247747   1.184   2.103   6.980  0.3707 -0.6195 -0.0307
15436SOL     OW47748   0.384   3.830  11.314 -0.8965  0.3273  0.1059
15436SOL    HW147749   0.343   3.794  11.393 -2.5791  0.2357 -0.7662
15436SOL    HW247750   0.391   3.755  11.255 -1.9645  0.8698 -0.7400
15437SOL     OW47751   5.577   3.400   3.085  0.2919  0.2244  0.3944
15437SOL    HW147752   5.543   3.337   3.149  1.0026 -1.3115 -0.6663
15437SOL    HW247753   5.611   3.472   3.138 -1.0708  0.0189  1.6292
15438SOL     OW47754   7.264   3.421   8.118  0.7279 -0.0169 -0.3199
15438SOL    HW147755   7.297   3.496   8.069  1.8528  0.1923  0.7031
15438SOL    HW247756   7.246   3.355   8.051  2.8765  0.0153 -1.0132
15439SOL     OW47757   1.667   7.006   3.370 -0.3368  0.1657  0.7707
15439SOL    HW147758   1.746   7.054   3.395 -0.3419 -0.2789  1.7103
15439SOL    HW247759   1.615   7.068   3.320 -0.4082  1.1899  2.0708
15440SOL     OW47760   5.203   5.480   7.809 -0.5746 -0.4803 -0.4163
15440SOL    HW147761   5.240   5.485   7.721  0.8227  1.2585  0.1882
15440SOL    HW247762   5.231   5.561   7.851 -0.7070 -1.5016  1.8160
15441SOL     OW47763   7.646   1.492   6.387 -0.4481  0.2519  0.4548
15441SOL    HW147764   7.741   1.482   6.382 -0.4884 -0.2529  0.6411
15441SOL    HW247765   7.621   1.444   6.466 -0.6073  2.2725  1.6786
15442SOL     OW47766   2.338   0.864   5.606  0.1204  0.1887 -0.0770
15442SOL    HW147767   2.433   0.856   5.600  0.1700  0.3279  0.4401
15442SOL    HW247768   2.306   0.774   5.600  0.2744  0.1565 -0.4141
15443SOL     OW47769   6.793   5.460   1.081 -0.4095 -0.2615 -0.4022
15443SOL    HW147770   6.758   5.439   1.167 -1.4861  2.4952 -0.0703
15443SOL    HW247771   6.765   5.387   1.025 -2.7045 -0.4264  0.8693
15444SOL     OW47772   0.925   0.685  11.250  0.8918  0.0306 -0.3128
15444SOL    HW147773   0.918   0.621  11.321  2.3805  0.9004  0.6848
15444SOL    HW247774   1.019   0.689  11.231  0.5666  0.1396 -2.0546
15445SOL     OW47775   7.620   7.168  12.324  0.0751  0.0364  0.0476
15445SOL    HW147776   7.565   7.167  12.246 -0.0531  0.0995  0.1359
15445SOL    HW247777   7.590   7.093  12.376 -0.5479  0.6020  0.5171
15446SOL     OW47778   7.512   2.427   4.370  0.2379 -0.4778 -0.4874
15446SOL    HW147779   7.582   2.395   4.313 -0.3768  0.1250 -1.6006
15446SOL    HW247780   7.558   2.461   4.447  1.2520  0.5022 -1.4753
15447SOL     OW47781   2.128   1.665  12.419  0.4561 -0.5101 -0.6557
15447SOL    HW147782   2.078   1.722  12.476  0.0054 -1.2006 -0.3485
15447SOL    HW247783   2.146   1.718  12.341 -0.3522 -0.1059 -0.5759
15448SOL     OW47784   5.697   1.817   4.633 -0.7364  0.2946 -0.4233
15448SOL    HW147785   5.671   1.843   4.544 -0.6795 -0.1134 -0.5624
15448SOL    HW247786   5.614   1.798   4.677 -0.7825  0.7782 -0.2993
15449SOL     OW47787   1.080   4.341   3.851  0.5474 -0.3109  0.0223
15449SOL    HW147788   1.018   4.347   3.779  1.8445  1.5538 -1.0055
15449SOL    HW247789   1.122   4.427   3.855  0.3881 -0.2397  3.1581
15450SOL     OW47790   7.225   2.774   6.969 -0.1139 -0.1678 -0.7745
15450SOL    HW147791   7.200   2.825   7.046 -0.2911  1.1502 -1.6701
15450SOL    HW247792   7.200   2.829   6.895 -0.1286 -1.4863 -1.7912
15451SOL     OW47793   6.654   4.179  11.855  0.3640 -0.4181 -0.4083
15451SOL    HW147794   6.571   4.145  11.890  0.4235 -0.1580 -0.0166
15451SOL    HW247795   6.668   4.261  11.902 -0.4124  0.8149 -2.2182
15452SOL     OW47796   4.100   7.095   8.478 -0.1120  0.1684  0.0233
15452SOL    HW147797   4.023   7.152   8.488 -1.0037 -0.7209 -1.4733
15452SOL    HW247798   4.068   7.008   8.499  0.2017 -0.3739 -1.6447
15453SOL     OW47799   1.958   6.655   2.718  0.1426  0.2922 -0.2776
15453SOL    HW147800   2.042   6.618   2.688  0.6565 -1.7544  3.1686
15453SOL    HW247801   1.982   6.711   2.791 -1.4681 -0.1675  0.6382
15454SOL     OW47802   5.007   7.459  11.062 -0.3261  0.3400  0.7064
15454SOL    HW147803   5.018   7.498  11.149 -0.1434 -0.5791  1.1122
15454SOL    HW247804   4.993   7.366  11.079 -2.1311  0.3984 -0.1560
15455SOL     OW47805   3.478   0.606   7.459  0.7434 -0.2738 -0.1518
15455SOL    HW147806   3.539   0.625   7.388  0.7322  0.7847  0.1024
15455SOL    HW247807   3.420   0.682   7.462  0.2694 -0.6478  0.5053
15456SOL     OW47808   2.559   4.870   1.347 -0.0230  0.3592  0.4019
15456SOL    HW147809   2.597   4.947   1.305  0.1764  0.7708  1.3275
15456SOL    HW247810   2.480   4.851   1.295  1.1830 -0.2643 -1.2876
15457SOL     OW47811   0.514   4.352   1.516 -0.0751  0.1546  0.2085
15457SOL    HW147812   0.473   4.292   1.454  1.7955 -1.7680  0.7220
15457SOL    HW247813   0.468   4.435   1.503 -2.4670 -1.2344 -0.8477
15458SOL     OW47814   7.040   1.086   3.593 -0.2946  0.5407  0.0573
15458SOL    HW147815   7.122   1.131   3.613 -0.0139  0.8968 -1.7459
15458SOL    HW247816   7.015   1.118   3.507 -1.4815 -0.7882 -0.1341
15459SOL     OW47817   2.697   3.544  10.581  0.2992 -0.2793  0.0283
15459SOL    HW147818   2.759   3.533  10.509 -1.4560 -1.2593 -1.4243
15459SOL    HW247819   2.698   3.638  10.599  2.2251 -0.2738  0.1275
15460SOL     OW47820   4.655   2.123   6.789  0.7474 -0.5423  0.0031
15460SOL    HW147821   4.632   2.036   6.823  1.2071 -0.3699  0.7662
15460SOL    HW247822   4.667   2.177   6.866 -0.4899  0.4750 -0.4869
15461SOL     OW47823   5.177   4.499   2.581  0.1158 -0.0018  0.2711
15461SOL    HW147824   5.094   4.466   2.614 -0.2225  0.3158 -0.2525
15461SOL    HW247825   5.163   4.594   2.573  0.9543  0.2419  1.4221
15462SOL     OW47826   3.386   6.051   7.416  0.4143  0.3147 -0.1417
15462SOL    HW147827   3.318   6.034   7.351  1.9244 -0.5795 -1.5602
15462SOL    HW247828   3.465   6.010   7.380  1.1820 -0.7914  2.5647
15463SOL     OW47829   3.530   4.037   0.550 -0.4217  0.7221  0.1385
15463SOL    HW147830   3.610   4.038   0.601 -0.5719  1.1757  0.3747
15463SOL    HW247831   3.520   3.946   0.521 -0.8345  0.2382  1.7087
15464SOL     OW47832   7.240   0.949  11.956  0.0390 -0.1709  0.3329
15464SOL    HW147833   7.261   0.957  11.863 -0.4757  0.5823  0.2702
15464SOL    HW247834   7.201   1.033  11.979  2.1744  0.5363  1.7722
15465SOL     OW47835   0.030   2.411   8.399 -0.0478  0.4003  0.2814
15465SOL    HW147836   0.099   2.383   8.459  0.1541 -1.1925 -0.6262
15465SOL    HW247837   0.073   2.472   8.339  0.8503 -1.2319 -0.8128
15466SOL     OW47838   7.171   3.304   7.253  0.1557  0.0878  0.2717
15466SOL    HW147839   7.186   3.276   7.163 -0.2066 -1.4631  0.6620
15466SOL    HW247840   7.230   3.249   7.305  2.2365  2.6618  0.8449
15467SOL     OW47841   7.311   1.882   8.629 -0.4011 -0.6058 -0.4277
15467SOL    HW147842   7.392   1.914   8.591 -0.8011 -1.0279 -1.6674
15467SOL    HW247843   7.243   1.911   8.568 -0.9415 -2.3182 -0.6854
15468SOL     OW47844   7.034   6.883   0.792  0.2050 -0.7545  0.7575
15468SOL    HW147845   6.952   6.890   0.743 -0.8947 -0.5786  2.5280
15468SOL    HW247846   7.047   6.789   0.804  0.6036 -0.8066 -0.0525
15469SOL     OW47847   6.872   2.561   6.688 -0.2082 -1.0001 -0.7428
15469SOL    HW147848   6.946   2.527   6.638  1.3083  0.9758  0.0318
15469SOL    HW247849   6.903   2.563   6.778 -1.1979 -0.1199 -0.3969
15470SOL     OW47850   5.715   1.648   9.481 -0.0599  0.2646 -0.0321
15470SOL    HW147851   5.658   1.721   9.504  0.1747  1.1314 -2.0159
15470SOL    HW247852   5.799   1.688   9.459  0.2668 -0.6590 -0.5330
15471SOL     OW47853   0.850   7.616   1.457  0.1691 -0.3685  0.3237
15471SOL    HW147854   0.895   7.606   1.374  0.7123  0.3074  0.5275
15471SOL    HW247855   0.769   7.663   1.436 -0.2079 -1.1279  0.0347
15472SOL     OW47856   4.679   5.035   9.784 -0.8198  0.0393 -0.2052
15472SOL    HW147857   4.586   5.025   9.766 -0.6927 -0.0176 -0.8535
15472SOL    HW247858   4.720   5.045   9.698 -0.3465  1.1292  0.1247
15473SOL     OW47859   5.786   3.684   5.515  0.3699  0.7786  0.0473
15473SOL    HW147860   5.848   3.647   5.453 -0.4600 -2.2264  0.8699
15473SOL    HW247861   5.702   3.684   5.468  0.2523  1.1845  0.2486
15474SOL     OW47862   5.085   4.461   3.219  0.0928 -0.3086 -0.3819
15474SOL    HW147863   5.122   4.456   3.131 -1.0730  1.0367 -0.9875
15474SOL    HW247864   5.072   4.555   3.234 -0.5226 -0.5775  0.8707
15475SOL     OW47865   3.382   2.304  11.746 -0.1348  0.2102  0.4895
15475SOL    HW147866   3.467   2.267  11.723  0.3637  1.4068  0.3442
15475SOL    HW247867   3.373   2.381  11.690 -1.8997 -0.5869 -0.4224
15476SOL     OW47868   3.017   5.025   8.547 -0.1162 -0.7162 -0.6356
15476SOL    HW147869   3.021   5.112   8.586  1.5284 -2.0833  2.6891
15476SOL    HW247870   3.083   5.026   8.477 -0.0123  0.6311 -0.5308
15477SOL     OW47871   5.526   5.535  10.274  0.2237 -0.6616  0.2992
15477SOL    HW147872   5.530   5.528  10.370  0.5147 -1.1693  0.2530
15477SOL    HW247873   5.615   5.517  10.245  0.8353  2.2752  0.0675
15478SOL     OW47874   3.507   5.423   5.155  0.1582  0.1545  0.3101
15478SOL    HW147875   3.503   5.364   5.230 -1.2844  0.0539  0.1873
15478SOL    HW247876   3.513   5.365   5.079 -0.7347  0.1648  0.2211
15479SOL     OW47877   1.070   7.959   0.860 -0.1165  0.0210  0.2894
15479SOL    HW147878   1.119   7.960   0.777  1.0722 -1.3754  0.9141
15479SOL    HW247879   1.053   7.866   0.876  1.5156  0.0294  2.6126
15480SOL     OW47880   6.629   0.017   5.776  0.2777  0.9130  0.1079
15480SOL    HW147881   6.617   0.016   5.871  2.0278  2.1797  0.3900
15480SOL    HW247882   6.580   0.094   5.747 -0.4999  0.3604 -0.0758
15481SOL     OW47883   6.297   2.102   5.109  0.8558 -0.2729  0.0388
15481SOL    HW147884   6.219   2.048   5.096 -0.2305  1.4299 -0.7358
15481SOL    HW247885   6.358   2.073   5.041  0.7581 -1.3042  0.3691
15482SOL     OW47886   4.025   5.149   0.139  0.1515 -0.9158  0.7296
15482SOL    HW147887   4.069   5.075   0.098  2.3708  0.7943 -0.2059
15482SOL    HW247888   4.056   5.226   0.091 -2.3630  0.6422  1.3680
15483SOL     OW47889   7.581   1.724   7.359  0.1765  0.5611  0.1801
15483SOL    HW147890   7.566   1.638   7.398 -2.8885  0.5454 -0.8304
15483SOL    HW247891   7.513   1.780   7.396 -1.3418  1.1576 -3.1315
15484SOL     OW47892   5.541   0.606   5.197  0.2671  0.2496 -0.0746
15484SOL    HW147893   5.539   0.526   5.250 -1.3304 -0.5021 -1.1927
15484SOL    HW247894   5.483   0.666   5.242 -0.5011 -0.1259 -0.5428
15485SOL     OW47895   4.235   0.879  12.168 -0.0261 -0.3518  0.2578
15485SOL    HW147896   4.329   0.868  12.152  0.3598 -0.3681  2.2958
15485SOL    HW247897   4.220   0.840  12.254 -2.0838 -1.0922 -0.3853
15486SOL     OW47898   7.134   5.233   2.183  0.3100 -0.1735 -0.1872
15486SOL    HW147899   7.170   5.247   2.096  1.4909  0.7078  0.4058
15486SOL    HW247900   7.062   5.296   2.190  0.8949  0.5021 -0.1576
15487SOL     OW47901   4.059   6.856   3.647  0.2404  0.3801  0.1817
15487SOL    HW147902   4.143   6.887   3.681  1.6051 -1.4564 -1.2383
15487SOL    HW247903   4.083   6.791   3.581 -2.3258 -1.0589  0.5175
15488SOL     OW47904   4.684   5.171  11.913 -0.1142  0.2017  0.0166
15488SOL    HW147905   4.631   5.139  11.841  0.7052 -0.9274 -0.1094
15488SOL    HW247906   4.637   5.248  11.946 -1.2060 -0.0948 -0.8187
15489SOL     OW47907   4.240   4.281   0.769  0.5198 -0.4071 -0.0294
15489SOL    HW147908   4.261   4.375   0.768  2.2150 -0.7468  0.3077
15489SOL    HW247909   4.321   4.239   0.739 -0.7476 -1.6947 -1.8736
15490SOL     OW47910   2.082   2.557   9.102  0.1088  0.2311 -0.4351
15490SOL    HW147911   2.042   2.509   9.175  3.0881 -2.9783 -0.6339
15490SOL    HW247912   2.016   2.555   9.033 -1.0754 -0.7943  0.6773
15491SOL     OW47913   1.509   4.155   1.904  0.2000 -0.7355  0.1611
15491SOL    HW147914   1.494   4.066   1.873 -1.2959  0.0940 -1.7005
15491SOL    HW247915   1.574   4.191   1.844 -0.5986 -0.0118 -0.3002
15492SOL     OW47916   0.442   5.727   8.610 -0.8623  0.4402  0.3216
15492SOL    HW147917   0.386   5.728   8.687 -1.1225 -0.8817  0.1777
15492SOL    HW247918   0.391   5.772   8.542 -1.6353 -0.4764  0.2761
15493SOL     OW47919   1.358   1.398   2.838 -0.4875 -0.6511  0.1502
15493SOL    HW147920   1.322   1.469   2.786 -0.9602 -2.3692 -2.0345
15493SOL    HW247921   1.452   1.417   2.844 -0.5650 -0.0091 -0.6302
15494SOL     OW47922   0.783   7.616   0.704  0.0685 -0.4112 -0.0874
15494SOL    HW147923   0.765   7.525   0.726  2.1751 -0.9951 -0.5532
15494SOL    HW247924   0.770   7.621   0.609  0.6812 -0.4213 -0.1734
15495SOL     OW47925   4.415   2.225   9.492  0.0968 -0.0688 -0.3450
15495SOL    HW147926   4.433   2.266   9.576  2.0599 -1.4069 -0.0360
15495SOL    HW247927   4.403   2.298   9.431  0.2760  0.9179  0.7811
15496SOL     OW47928   4.656   0.648   0.572 -0.2171 -0.4267  0.1105
15496SOL    HW147929   4.600   0.617   0.643 -0.9940  0.3121 -0.1650
15496SOL    HW247930   4.625   0.737   0.554  1.1912  0.0952  0.0988
15497SOL     OW47931   0.804   5.960   7.940 -0.0020  0.0449  0.0171
15497SOL    HW147932   0.801   5.953   7.844  1.5134  0.6316 -0.1052
15497SOL    HW247933   0.843   6.046   7.956 -0.8675  0.2434  1.1871
15498SOL     OW47934   4.154   0.094   1.434 -0.2446  0.5533 -0.4176
15498SOL    HW147935   4.197   0.132   1.357  0.9509  1.1010  0.4918
15498SOL    HW247936   4.181   0.003   1.434  2.1950  1.1959  0.9282
15499SOL     OW47937   4.686   4.462   6.741  0.0248  0.1885  0.4743
15499SOL    HW147938   4.617   4.492   6.800 -1.1391  0.4661 -0.9567
15499SOL    HW247939   4.640   4.408   6.676  0.5146  2.9445 -2.3944
15500SOL     OW47940   7.591   0.330  10.865 -0.4100 -0.1262 -0.2000
15500SOL    HW147941   7.503   0.348  10.833  0.2572  1.7579 -1.0747
15500SOL    HW247942   7.647   0.336  10.788  0.7116  0.4497  0.6271
15501SOL     OW47943   6.203   5.951   9.917 -0.4687  0.2601  0.0772
15501SOL    HW147944   6.143   6.026   9.915 -0.3319  0.3962  0.9297
15501SOL    HW247945   6.253   5.958   9.836 -2.7552 -0.8156 -1.5430
15502SOL     OW47946   5.455   4.908   7.724  0.2596  0.2007  0.2874
15502SOL    HW147947   5.442   4.813   7.726  2.8638 -0.2764 -0.7640
15502SOL    HW247948   5.429   4.934   7.636 -0.0252  0.3919  0.4273
15503SOL     OW47949   0.572   0.672   3.902 -0.4150  0.4040  0.0618
15503SOL    HW147950   0.593   0.760   3.932 -3.5941  2.4638 -3.0735
15503SOL    HW247951   0.652   0.642   3.857  0.8882  1.3442  1.6326
15504SOL     OW47952   4.051   6.275   2.139 -0.3085  0.1102  0.3356
15504SOL    HW147953   4.026   6.310   2.054 -0.3189 -1.5145 -0.3690
15504SOL    HW247954   3.969   6.242   2.176 -0.3818  1.1852  1.1896
15505SOL     OW47955   6.375   1.808   3.677 -0.1898 -0.0464  0.1569
15505SOL    HW147956   6.349   1.854   3.598  0.0153 -1.4131 -0.7403
15505SOL    HW247957   6.414   1.726   3.646 -0.9693 -1.0522  1.6870
15506SOL     OW47958   1.358   7.819   3.854  0.9147  0.0148  0.1248
15506SOL    HW147959   1.341   7.786   3.766 -1.2466 -0.7087  0.7454
15506SOL    HW247960   1.411   7.750   3.895  1.5247  0.1354 -0.4408
15507SOL     OW47961   7.219   4.889   6.552  0.2709 -0.5060 -0.1815
15507SOL    HW147962   7.145   4.830   6.535  1.0387 -1.5711  0.1038
15507SOL    HW247963   7.222   4.896   6.647 -0.7355  1.2153 -0.2395
15508SOL     OW47964   4.999   6.842   8.563  0.3224  0.5771  0.4112
15508SOL    HW147965   4.908   6.867   8.549  0.1904 -0.1225 -0.0769
15508SOL    HW247966   5.003   6.816   8.655  0.2918  1.6477  0.7198
15509SOL     OW47967   3.602   7.575   5.104  0.2986  0.3856  0.2774
15509SOL    HW147968   3.625   7.648   5.162  0.1370  0.1144  0.6836
15509SOL    HW247969   3.687   7.544   5.071  0.5289 -0.4126  1.5362
15510SOL     OW47970   0.393   0.964  11.295 -0.1757  0.0365  0.0247
15510SOL    HW147971   0.483   0.930  11.302 -0.0640  0.5301  1.2585
15510SOL    HW247972   0.341   0.905  11.350 -0.4895  0.1592 -0.1394
15511SOL     OW47973   6.490   3.825   7.240  0.0623  0.2418  0.0781
15511SOL    HW147974   6.471   3.912   7.205 -0.5644 -0.2935 -0.9962
15511SOL    HW247975   6.450   3.824   7.327 -0.9876  0.6345 -0.3820
15512SOL     OW47976   4.185   2.668   7.137  0.3511  0.3778  0.0727
15512SOL    HW147977   4.149   2.736   7.194  2.5080  0.9986  0.7824
15512SOL    HW247978   4.199   2.712   7.054  0.8731  0.5473  0.2498
15513SOL     OW47979   2.439   4.480  11.828 -0.1383 -0.2630  0.6344
15513SOL    HW147980   2.523   4.438  11.812  0.3347 -0.4125  3.1789
15513SOL    HW247981   2.438   4.556  11.769  1.7206 -0.3481  0.4513
15514SOL     OW47982   6.798   3.724   2.312 -0.4583  0.6539  0.2502
15514SOL    HW147983   6.736   3.699   2.243  1.1738 -0.5495 -0.8589
15514SOL    HW247984   6.795   3.819   2.314 -1.4891  0.6629 -0.5783
15515SOL     OW47985   1.486   0.249   3.453  0.8063  0.6648  0.1891
15515SOL    HW147986   1.469   0.337   3.486  1.1757  0.5990  0.5657
15515SOL    HW247987   1.531   0.263   3.370 -0.8275  0.8370 -0.7114
15516SOL     OW47988   0.757   5.034   3.267 -0.3195 -0.0939  0.4697
15516SOL    HW147989   0.848   5.049   3.241 -0.4769  0.9070  0.4693
15516SOL    HW247990   0.721   4.978   3.198 -0.7202  2.4449 -1.5343
15517SOL     OW47991   7.162   3.651   6.456 -0.1791  0.9369  0.5296
15517SOL    HW147992   7.207   3.568   6.472  0.5402  0.6935 -2.2193
15517SOL    HW247993   7.227   3.705   6.411 -1.0937  2.4799  0.9912
15518SOL     OW47994   3.543   6.261   6.792 -0.1783 -0.4621 -0.5083
15518SOL    HW147995   3.610   6.252   6.860  0.1936  0.9072 -0.6464
15518SOL    HW247996   3.593   6.270   6.711 -0.6337 -3.0292 -1.1455
15519SOL     OW47997   0.921   1.977   2.457 -0.0165  0.3144 -0.7585
15519SOL    HW147998   0.982   1.907   2.480 -1.7567 -0.5792  1.5414
15519SOL    HW247999   0.938   2.046   2.520 -1.2834  0.0861 -0.1398
15520SOL     OW48000   6.483   5.170   0.287  0.6468  0.6334 -0.1833
15520SOL    HW148001   6.551   5.197   0.348  0.8591 -0.2238 -0.0222
15520SOL    HW248002   6.526   5.167   0.202  0.7631  0.2856 -0.1136
15521SOL     OW48003   5.486   7.097   2.417  0.2777  0.3885 -0.4811
15521SOL    HW148004   5.532   7.157   2.357 -0.1895  1.1509 -0.1003
15521SOL    HW248005   5.416   7.060   2.363  0.1041  0.7694 -0.5277
15522SOL     OW48006   5.513   7.111   9.151 -0.1360 -0.5253 -0.0082
15522SOL    HW148007   5.516   7.151   9.237  1.6857 -0.6559  0.0222
15522SOL    HW248008   5.604   7.109   9.121 -0.7079 -0.4816 -1.9400
15523SOL     OW48009   4.196   1.460   4.630 -0.4916 -0.2763 -0.6843
15523SOL    HW148010   4.279   1.496   4.662 -0.6574  0.4172 -1.0066
15523SOL    HW248011   4.136   1.535   4.631 -1.6099 -1.1402  1.1899
15524SOL     OW48012   7.197   3.430   7.749 -0.1632  0.0620  0.2927
15524SOL    HW148013   7.269   3.483   7.784 -0.1649 -0.2498  0.7715
15524SOL    HW248014   7.168   3.378   7.823 -0.1209 -0.6618 -0.1945
15525SOL     OW48015   1.992   7.928  10.454  0.4225  0.0539 -0.1822
15525SOL    HW148016   2.029   7.841  10.470  0.1595 -0.3223 -1.4163
15525SOL    HW248017   2.041   7.961  10.379 -1.3846 -0.2977 -1.6070
15526SOL     OW48018   2.846   6.955   9.201  0.4548 -0.5891  0.1771
15526SOL    HW148019   2.938   6.966   9.222  0.3398  3.2971 -0.4865
15526SOL    HW248020   2.800   6.961   9.285  0.7120 -0.4414  0.3055
15527SOL     OW48021   4.548   4.604   5.818  0.3988 -0.1263 -0.0271
15527SOL    HW148022   4.484   4.559   5.872 -1.0382  1.2242 -0.5344
15527SOL    HW248023   4.620   4.625   5.878 -0.2220 -0.5146  0.8615
15528SOL     OW48024   5.733   7.492  12.121  0.1715  0.1806 -0.3221
15528SOL    HW148025   5.803   7.502  12.056  0.0560 -1.1509 -0.6793
15528SOL    HW248026   5.778   7.462  12.200 -0.0301 -1.1677 -0.6987
15529SOL     OW48027   2.593   4.458   3.073 -0.2630  0.5215 -0.0225
15529SOL    HW148028   2.657   4.527   3.055 -0.4566  0.5432 -0.6754
15529SOL    HW248029   2.642   4.391   3.122  0.0020  0.9806  0.3454
15530SOL     OW48030   2.765   1.224   9.767  0.1763  0.1468  0.5668
15530SOL    HW148031   2.833   1.289   9.753  0.3438  0.3862  2.2506
15530SOL    HW248032   2.717   1.256   9.844 -0.0597 -1.4393  1.1116
15531SOL     OW48033   2.194   0.570  11.448 -0.4971 -0.0980 -0.2372
15531SOL    HW148034   2.109   0.599  11.416 -0.0395  1.4038 -0.1773
15531SOL    HW248035   2.175   0.526  11.531 -1.1880  0.6168 -0.0028
15532SOL     OW48036   7.248   2.048   6.759 -0.1877 -0.0679  0.0850
15532SOL    HW148037   7.191   2.125   6.757  2.1125  1.8318  1.6931
15532SOL    HW248038   7.298   2.054   6.677 -0.4731 -0.2197 -0.0993
15533SOL     OW48039   5.130   2.097   4.732  0.3671  0.1691  0.0407
15533SOL    HW148040   5.163   2.067   4.816 -1.3567 -0.4349  0.5404
15533SOL    HW248041   5.209   2.120   4.682  1.5592 -1.5857  1.0083
15534SOL     OW48042   1.168   6.974   8.929  0.4363  0.3047  0.2840
15534SOL    HW148043   1.210   6.913   8.869 -1.1023 -1.4017  0.8399
15534SOL    HW248044   1.137   7.045   8.873 -0.1912 -0.8148 -0.8294
15535SOL     OW48045   5.790   6.729  11.463  0.9047  0.1836  0.1787
15535SOL    HW148046   5.811   6.765  11.377  1.5333  0.3285  0.3903
15535SOL    HW248047   5.727   6.792  11.500 -0.6682 -0.7283 -0.8176
15536SOL     OW48048   7.276   6.508   5.837 -0.1692  0.5135 -0.4094
15536SOL    HW148049   7.355   6.470   5.876 -0.2424 -0.5827 -1.2563
15536SOL    HW248050   7.282   6.601   5.857  1.0085  0.3513  0.1093
15537SOL     OW48051   0.497   7.821   4.028 -0.0627  0.1261 -0.2704
15537SOL    HW148052   0.555   7.823   4.105 -0.3623  0.0657 -0.0388
15537SOL    HW248053   0.521   7.741   3.981 -0.4176 -0.2630  0.1928
15538SOL     OW48054   5.396   1.065  12.426 -0.1433 -0.6795  0.0093
15538SOL    HW148055   5.332   1.119  12.474 -0.0604 -1.1093  0.6154
15538SOL    HW248056   5.342   1.003  12.378 -0.1913 -0.9428  0.3996
15539SOL     OW48057   0.193   4.369   8.049 -0.3385 -0.5122 -0.2521
15539SOL    HW148058   0.242   4.431   8.104 -0.2472 -1.2708  0.5325
15539SOL    HW248059   0.119   4.342   8.103 -0.8332 -0.4762 -0.8976
15540SOL     OW48060   7.322   1.484   1.414  0.2567 -0.7646 -0.0706
15540SOL    HW148061   7.401   1.515   1.459  0.1312 -1.1560  0.4308
15540SOL    HW248062   7.250   1.511   1.471  0.0612 -0.8549 -0.2740
15541SOL     OW48063   5.136   2.163   8.079 -0.3913  0.1020 -0.0212
15541SOL    HW148064   5.155   2.198   7.992 -0.5051 -0.9411 -0.4802
15541SOL    HW248065   5.052   2.203   8.103 -0.8164 -0.2965 -0.7925
15542SOL     OW48066   4.697   1.170   4.370  0.3413 -0.0756 -0.3518
15542SOL    HW148067   4.787   1.193   4.346  0.9772 -0.0035  1.8396
15542SOL    HW248068   4.643   1.207   4.301  1.8235  2.0897 -0.4549
15543SOL     OW48069   2.072   2.922   9.247 -0.2690  0.3394 -0.0997
15543SOL    HW148070   2.142   2.876   9.200  1.0717  1.0375  1.1463
15543SOL    HW248071   2.021   2.963   9.178  0.7131  0.0360 -1.0463
15544SOL     OW48072   2.865   0.662   8.436 -0.1648 -0.1743 -0.2857
15544SOL    HW148073   2.924   0.717   8.487  0.2083 -0.2750 -0.6009
15544SOL    HW248074   2.781   0.709   8.437  0.2372  0.5660 -0.8226
15545SOL     OW48075   6.124   0.989   4.839 -0.5677 -0.3502 -0.3948
15545SOL    HW148076   6.166   0.912   4.879  1.8509 -0.3877 -2.6870
15545SOL    HW248077   6.195   1.052   4.828 -1.2590  0.0626 -3.4692
15546SOL     OW48078   3.286   7.839   9.169  0.5339  0.4524  0.1389
15546SOL    HW148079   3.271   7.777   9.097 -0.4290 -1.3933  1.8453
15546SOL    HW248080   3.370   7.880   9.147  0.7680 -0.7801 -1.5254
15547SOL     OW48081   0.909   1.321   1.435  0.2155 -0.0399  0.3147
15547SOL    HW148082   0.937   1.379   1.364  0.9534  0.1911  0.7857
15547SOL    HW248083   0.825   1.285   1.405  0.3762  0.2791 -0.5417
15548SOL     OW48084   2.699   4.505  10.934 -0.0840 -0.1195 -0.0921
15548SOL    HW148085   2.664   4.417  10.921 -0.8917  0.3623 -1.3660
15548SOL    HW248086   2.754   4.498  11.011 -0.2945 -1.6974 -0.0628
15549SOL     OW48087   1.879   2.999   6.250  0.5460  0.2778 -0.3053
15549SOL    HW148088   1.911   3.079   6.209  0.4548 -0.1988 -1.3398
15549SOL    HW248089   1.890   3.014   6.344  1.0450  1.2748 -0.5090
15550SOL     OW48090   2.999   2.347   1.492  0.3691  0.1223  0.2601
15550SOL    HW148091   2.904   2.354   1.502  0.1201 -0.5995 -1.3428
15550SOL    HW248092   3.026   2.290   1.564 -0.4657 -0.0028  0.4877
15551SOL     OW48093   4.403   1.213   7.473  0.2345  0.4391  0.0354
15551SOL    HW148094   4.386   1.142   7.412  0.2988  0.2666  0.2154
15551SOL    HW248095   4.327   1.214   7.531  1.1427 -0.8649  1.3547
15552SOL     OW48096   6.815   2.290   2.976 -0.5535  0.1196 -0.3692
15552SOL    HW148097   6.849   2.376   3.000 -1.2179  0.6679 -1.2993
15552SOL    HW248098   6.881   2.254   2.917 -0.2369 -0.0529  0.0833
15553SOL     OW48099   4.765   2.527   4.435  0.3809  0.3344  0.0638
15553SOL    HW148100   4.849   2.481   4.429  0.0366 -0.4994  1.2123
15553SOL    HW248101   4.765   2.568   4.521 -1.8084 -2.7356  1.7305
15554SOL     OW48102   1.173   5.897   2.788  0.1687  0.0863  0.1244
15554SOL    HW148103   1.236   5.937   2.848  1.0523  0.8151 -1.2450
15554SOL    HW248104   1.099   5.872   2.844  0.7692  1.1423  1.4445
15555SOL     OW48105   6.773   1.823   3.034 -0.2782 -0.1454  0.0934
15555SOL    HW148106   6.813   1.745   3.073 -0.2255  0.0004  0.3304
15555SOL    HW248107   6.792   1.893   3.096 -0.1707  0.0919 -0.2087
15556SOL     OW48108   5.956   6.619   0.718 -0.4956  0.8148 -0.9460
15556SOL    HW148109   5.937   6.526   0.713 -0.6709  0.7914 -0.0080
15556SOL    HW248110   5.870   6.661   0.722 -0.4088  0.9399 -0.2597
15557SOL     OW48111   4.064   3.560   1.788  0.0963  0.5317  0.0488
15557SOL    HW148112   3.971   3.547   1.806  0.1284  1.7091  1.2684
15557SOL    HW248113   4.068   3.646   1.745  0.4650 -0.3492 -1.7668
15558SOL     OW48114   0.639   3.427   4.739  0.0169  0.4655 -0.4368
15558SOL    HW148115   0.575   3.361   4.766  0.3393  0.3010 -0.0725
15558SOL    HW248116   0.724   3.385   4.753  0.1994  0.4661 -1.4721
15559SOL     OW48117   3.017   0.732   5.003  0.7052  0.4109  0.0716
15559SOL    HW148118   2.975   0.811   4.970 -0.3318 -0.3594 -0.5210
15559SOL    HW248119   3.012   0.740   5.099  0.0473  0.7697  0.0106
15560SOL     OW48120   3.036   6.302   7.436 -0.3020  0.1455  0.1307
15560SOL    HW148121   2.964   6.365   7.439 -0.8053 -0.4507  1.1484
15560SOL    HW248122   3.115   6.356   7.436 -0.7283  0.7838  0.3849
15561SOL     OW48123   5.911   3.191   6.624 -0.5454 -0.0529 -0.4694
15561SOL    HW148124   5.860   3.269   6.601  1.9701  1.5019 -1.1668
15561SOL    HW248125   5.909   3.188   6.719 -0.2781  1.1748 -0.4101
15562SOL     OW48126   5.471   7.616   1.354  0.1389  0.3245 -0.7469
15562SOL    HW148127   5.444   7.642   1.442  1.1982 -0.6629 -0.1039
15562SOL    HW248128   5.558   7.654   1.343 -0.5396  1.6301 -1.9474
15563SOL     OW48129   0.420   0.750   8.208 -0.0908 -0.3908  0.0902
15563SOL    HW148130   0.506   0.717   8.233  0.7370  2.6112  1.7263
15563SOL    HW248131   0.425   0.762   8.114  2.0079  1.3351  0.3423
15564SOL     OW48132   1.244   4.128   9.313  0.4440 -0.2874  0.3413
15564SOL    HW148133   1.315   4.127   9.249 -0.4179 -2.5691 -0.6715
15564SOL    HW248134   1.181   4.064   9.280 -1.5914  0.8752  1.7782
15565SOL     OW48135   3.321   2.160   8.401  0.1501 -0.1608 -0.5708
15565SOL    HW148136   3.246   2.217   8.418 -0.0239  0.1407 -2.1978
15565SOL    HW248137   3.290   2.073   8.425 -0.5870  0.0266 -0.8107
15566SOL     OW48138   1.051   7.778   4.616  0.0310 -0.0443 -0.4008
15566SOL    HW148139   1.105   7.723   4.672 -0.3507  1.4199  1.5213
15566SOL    HW248140   1.083   7.867   4.631 -2.0316  0.7236 -0.2041
15567SOL     OW48141   1.197   2.565   9.274 -0.0995 -0.3799 -0.4691
15567SOL    HW148142   1.102   2.551   9.268  0.0599 -2.2698  0.5448
15567SOL    HW248143   1.212   2.648   9.228 -2.2931  0.2340 -0.2032
15568SOL     OW48144   2.807   7.981   1.080 -0.0997  0.2950 -0.0411
15568SOL    HW148145   2.740   7.973   1.012  0.0435 -0.9292 -0.0510
15568SOL    HW248146   2.889   7.957   1.037 -0.0558 -0.8401  0.6208
15569SOL     OW48147   5.487   1.694   2.295  0.0222 -0.0821  0.1201
15569SOL    HW148148   5.423   1.622   2.292 -0.7830  0.3005  3.7107
15569SOL    HW248149   5.572   1.650   2.290 -0.4539 -1.3538  1.8728
15570SOL     OW48150   0.403   0.187   9.655  0.1009 -0.7599  0.1819
15570SOL    HW148151   0.425   0.095   9.639  0.0093 -0.7721  0.1308
15570SOL    HW248152   0.373   0.189   9.746 -0.1189 -0.8190  0.1110
15571SOL     OW48153   0.779   2.934   0.937  0.1266 -0.3017 -0.0227
15571SOL    HW148154   0.808   3.008   0.990  0.5512 -0.8624  0.5354
15571SOL    HW248155   0.746   2.974   0.856  0.7192  0.4641  0.1089
15572SOL     OW48156   0.084   5.264   5.108 -0.7020  0.5165 -0.1375
15572SOL    HW148157   0.054   5.249   5.018 -2.3939  0.0037  0.4879
15572SOL    HW248158   0.070   5.357   5.123  0.7230  0.8718 -0.7682
15573SOL     OW48159   6.188   5.293   9.781  0.2775 -0.7334  0.2665
15573SOL    HW148160   6.275   5.326   9.804  0.1249 -0.0974 -0.0310
15573SOL    HW248161   6.196   5.198   9.785  1.1997 -0.7052 -0.5064
15574SOL     OW48162   0.195   7.783   4.966 -0.2938 -0.5903  0.6696
15574SOL    HW148163   0.167   7.826   5.046 -1.0398  0.5312 -0.1750
15574SOL    HW248164   0.119   7.733   4.937 -0.6430  0.5006 -0.3262
15575SOL     OW48165   4.241   6.886  11.938 -0.0681  0.4042  0.1606
15575SOL    HW148166   4.205   6.942  12.008 -0.9549 -1.7082  1.4793
15575SOL    HW248167   4.314   6.840  11.979 -1.0288 -1.3858 -0.0339
15576SOL     OW48168   4.134   6.722   7.292 -0.3798 -0.2060 -0.4146
15576SOL    HW148169   4.229   6.726   7.284 -0.3884  0.8284 -0.1887
15576SOL    HW248170   4.110   6.638   7.253  0.6899 -0.8350  0.2405
15577SOL     OW48171   7.957   7.573   6.969  0.3559  0.5740 -1.0811
15577SOL    HW148172   7.995   7.619   6.894  0.3993  0.4083 -1.1636
15577SOL    HW248173   7.936   7.642   7.032 -0.3026  0.7824 -1.5169
15578SOL     OW48174   3.045   7.493   8.343  0.3196 -0.8554  0.2164
15578SOL    HW148175   2.951   7.476   8.347 -0.5191  2.7228 -0.6242
15578SOL    HW248176   3.075   7.446   8.265 -1.1340 -0.6802 -0.4809
15579SOL     OW48177   4.152   5.042   9.888 -0.2080  0.2286 -0.2452
15579SOL    HW148178   4.203   4.961   9.891 -0.3385  0.1721  1.5283
15579SOL    HW248179   4.085   5.026   9.821  0.9909 -0.3549 -1.3471
15580SOL     OW48180   5.497   5.189   8.542 -0.3827  0.4245  0.9345
15580SOL    HW148181   5.555   5.200   8.466 -1.2593 -0.4942  0.1081
15580SOL    HW248182   5.419   5.239   8.521 -1.0902 -0.7273  0.7113
15581SOL     OW48183   4.466   3.731  11.134  0.8067  0.1851 -0.1153
15581SOL    HW148184   4.539   3.670  11.132  0.5371 -0.1293 -0.6955
15581SOL    HW248185   4.498   3.809  11.088  0.5973 -0.1723 -0.8902
15582SOL     OW48186   2.750   4.898  10.576 -0.4283 -0.2142  0.1691
15582SOL    HW148187   2.682   4.860  10.521 -1.0419 -1.4935  1.7317
15582SOL    HW248188   2.805   4.823  10.600  0.7616  0.5876  0.0176
15583SOL     OW48189   1.361   7.537   0.192  0.5722 -0.1204 -0.1634
15583SOL    HW148190   1.308   7.511   0.116  0.5456 -0.2441 -0.1036
15583SOL    HW248191   1.298   7.574   0.254  0.0161 -3.0831  1.2163
15584SOL     OW48192   6.735   1.287   2.270  0.2881 -0.0040 -0.1235
15584SOL    HW148193   6.644   1.267   2.292  0.1636 -0.6027 -1.1033
15584SOL    HW248194   6.729   1.329   2.184  0.9030  0.4313  0.0404
15585SOL     OW48195   2.852   3.189   4.314  0.5124  0.1384  0.3235
15585SOL    HW148196   2.821   3.151   4.396  0.4148 -0.5011 -0.0029
15585SOL    HW248197   2.888   3.274   4.339  2.7333 -1.0421  1.4364
15586SOL     OW48198   6.637   0.770   5.082 -0.4552  0.3653  0.2783
15586SOL    HW148199   6.716   0.759   5.029  0.3388  0.3291  1.4321
15586SOL    HW248200   6.565   0.761   5.019  0.4358 -0.0741 -0.7200
15587SOL     OW48201   6.175   2.071   2.406 -0.5812  0.6306 -0.3547
15587SOL    HW148202   6.164   2.166   2.411  0.2301  0.8455 -1.9640
15587SOL    HW248203   6.129   2.046   2.326 -1.9999 -0.5641  0.7917
15588SOL     OW48204   5.438   5.029   1.043 -0.4220  0.0330 -0.2101
15588SOL    HW148205   5.382   5.050   1.117 -0.7728  1.5181 -0.8469
15588SOL    HW248206   5.488   5.109   1.028 -0.5878 -0.1179 -1.7526
15589SOL     OW48207   0.054   1.264   0.909 -0.0615 -0.1743  0.8843
15589SOL    HW148208   0.015   1.176   0.900  1.7629 -0.9985  0.6335
15589SOL    HW248209   0.027   1.310   0.829 -1.1101 -0.4568  1.0538
15590SOL     OW48210   3.526   1.297   8.820  0.3418  0.1143  0.1676
15590SOL    HW148211   3.482   1.243   8.885  1.8372 -1.1105  0.2161
15590SOL    HW248212   3.616   1.307   8.854  0.9792 -0.0351 -1.3963
15591SOL     OW48213   0.115   0.835  12.441  0.1014 -0.8534 -0.2500
15591SOL    HW148214   0.169   0.910  12.466 -0.5160 -0.2487 -0.7064
15591SOL    HW248215   0.102   0.787  12.523  0.7724 -0.6427 -0.0149
15592SOL     OW48216   2.705   6.056   9.540 -0.1649 -0.7506  0.1961
15592SOL    HW148217   2.797   6.080   9.553 -0.8790  2.1506  0.4028
15592SOL    HW248218   2.697   6.046   9.445 -0.1037  1.2479 -0.0444
15593SOL     OW48219   5.673   4.115   2.041  0.3641  0.5989 -0.1019
15593SOL    HW148220   5.731   4.064   1.985  0.1603  0.7920 -0.4919
15593SOL    HW248221   5.659   4.197   1.994 -0.3994  0.4687 -0.1254
15594SOL     OW48222   0.466   1.580   6.741  0.2465  0.7573 -0.6318
15594SOL    HW148223   0.387   1.612   6.698 -0.2804  1.3463  0.7135
15594SOL    HW248224   0.474   1.635   6.820  1.9422  0.6467 -0.6897
15595SOL     OW48225   3.184   5.887   7.846 -0.6714 -0.3562  0.3274
15595SOL    HW148226   3.240   5.933   7.783 -0.4103 -0.0004  0.8114
15595SOL    HW248227   3.160   5.955   7.910 -3.4557  0.0751 -1.0336
15596SOL     OW48228   6.529   2.796  10.383  0.1260  0.1418 -0.2341
15596SOL    HW148229   6.582   2.806  10.463  0.5447  3.0165 -0.7543
15596SOL    HW248230   6.586   2.748  10.323  0.7248 -0.0096  0.4280
15597SOL     OW48231   5.011   6.427   4.667  0.2058  0.2318  0.0816
15597SOL    HW148232   4.997   6.497   4.731  2.3520  1.2481 -0.4725
15597SOL    HW248233   4.950   6.448   4.596  0.5751  1.3797  0.0787
15598SOL     OW48234   5.368   4.327  10.845  0.9669  0.9654 -0.0200
15598SOL    HW148235   5.401   4.415  10.861  0.3906  1.7123 -2.4622
15598SOL    HW248236   5.334   4.298  10.930  1.0477  3.1376  0.8156
15599SOL     OW48237   5.720   7.471  11.026 -0.0660  0.2742  0.2629
15599SOL    HW148238   5.660   7.506  10.961  0.2329 -2.8036 -1.8639
15599SOL    HW248239   5.797   7.527  11.020 -0.6938  1.0579 -0.7996
15600SOL     OW48240   1.445   0.924   6.603  0.7170  0.2808  0.0643
15600SOL    HW148241   1.418   1.005   6.646  3.9882  2.5588 -1.7038
15600SOL    HW248242   1.536   0.910   6.632  0.6114 -2.1499 -0.5560
15601SOL     OW48243   0.589   2.933   4.035  0.0087 -0.4111 -0.2135
15601SOL    HW148244   0.628   2.848   4.055  0.6998 -0.1001 -0.2081
15601SOL    HW248245   0.501   2.928   4.071 -0.1356 -1.3102 -0.6649
15602SOL     OW48246   1.234   6.624   9.135 -0.3541  0.3665 -0.0627
15602SOL    HW148247   1.251   6.701   9.189 -2.0114  0.4871  0.3156
15602SOL    HW248248   1.321   6.595   9.107  0.5057  0.6951  2.1151
15603SOL     OW48249   6.719   3.003  11.405  0.6630  0.5672  0.4854
15603SOL    HW148250   6.775   3.041  11.472  2.6944 -1.3598 -0.0127
15603SOL    HW248251   6.725   2.909  11.419 -1.9109  0.2401 -0.0819
15604SOL     OW48252   0.866   1.426   3.642 -0.0289  0.1747 -0.3440
15604SOL    HW148253   0.775   1.414   3.666  0.1791  1.9643  1.6308
15604SOL    HW248254   0.873   1.520   3.623  1.6168  0.2909  0.6753
15605SOL     OW48255   6.289   7.020   3.510 -0.0000  0.0846  0.6450
15605SOL    HW148256   6.249   6.973   3.437 -0.4289  0.8865  0.3534
15605SOL    HW248257   6.342   6.954   3.555 -0.4222 -0.6218  0.1241
15606SOL     OW48258   7.290   0.590   1.738  0.5547  0.0387  0.1365
15606SOL    HW148259   7.248   0.593   1.823 -0.0734 -0.3886 -0.1523
15606SOL    HW248260   7.242   0.524   1.689  1.1063  0.0525 -0.4460
15607SOL     OW48261   1.296   4.723   5.153 -0.4579  0.1767  0.3835
15607SOL    HW148262   1.211   4.703   5.113 -0.8907  2.2417  0.1415
15607SOL    HW248263   1.286   4.812   5.187  1.5750  0.4120  0.4946
15608SOL     OW48264   7.603   1.699   5.642 -0.1474 -0.0649  0.3430
15608SOL    HW148265   7.550   1.638   5.590  0.4201 -0.0506 -0.2574
15608SOL    HW248266   7.639   1.645   5.712 -2.2026  0.2255  1.7132
15609SOL     OW48267   0.737   5.000  10.372 -0.4338 -0.1621  0.2456
15609SOL    HW148268   0.670   5.037  10.429 -0.3098 -0.3092  0.4845
15609SOL    HW248269   0.813   5.058  10.383  0.5202 -1.6493  2.2680
15610SOL     OW48270   7.666   2.707   2.605 -0.1810  0.0567  0.0111
15610SOL    HW148271   7.667   2.615   2.578  1.4330  0.1050 -0.1925
15610SOL    HW248272   7.574   2.731   2.604 -0.5533 -1.2761 -0.9153
15611SOL     OW48273   2.201   5.692   7.745 -0.3762 -0.4017  0.1599
15611SOL    HW148274   2.105   5.692   7.736 -0.3928 -0.3193  0.3293
15611SOL    HW248275   2.216   5.680   7.839 -0.1979 -1.6816 -0.0221
15612SOL     OW48276   5.285   5.304   7.217  0.3132  0.5319  0.1542
15612SOL    HW148277   5.213   5.323   7.277 -0.2647  0.6020 -0.5426
15612SOL    HW248278   5.260   5.221   7.176  1.3360 -0.1819  0.9532
15613SOL     OW48279   6.596   1.267   4.497 -0.0341  0.0007  0.5440
15613SOL    HW148280   6.509   1.271   4.455 -0.5000  0.0595  1.5013
15613SOL    HW248281   6.582   1.215   4.576  0.9563 -0.5499  0.3784
15614SOL     OW48282   2.584   4.906   7.650  0.2512  0.0003 -0.4035
15614SOL    HW148283   2.504   4.943   7.686  0.3996  0.1563 -0.2290
15614SOL    HW248284   2.555   4.841   7.586 -0.0101  0.4362 -0.7295
15615SOL     OW48285   5.994   6.714   3.411  0.0313 -0.1139  0.2681
15615SOL    HW148286   5.945   6.684   3.487 -0.7283  0.0754 -0.1358
15615SOL    HW248287   6.020   6.804   3.433 -0.2707 -0.0260  0.2660
15616SOL     OW48288   6.595   2.482   5.641  0.6599  0.0730  0.1341
15616SOL    HW148289   6.634   2.458   5.726  0.4294 -0.2194  0.1579
15616SOL    HW248290   6.577   2.398   5.598 -1.6225  0.1176  0.8764
15617SOL     OW48291   6.084   4.003   7.124 -0.4119 -0.2644 -0.1827
15617SOL    HW148292   6.041   4.073   7.075  1.2049  0.7895 -0.2022
15617SOL    HW248293   6.055   3.922   7.082 -0.1825  0.5405 -1.9862
15618SOL     OW48294   6.854   0.036   4.088  0.0418 -0.0541 -0.5501
15618SOL    HW148295   6.844  -0.008   4.172  0.1246  0.8670 -0.0487
15618SOL    HW248296   6.764   0.050   4.058 -0.0288  0.7394 -0.0059
15619SOL     OW48297   0.161   5.507   3.262 -0.1003  0.0339  0.0498
15619SOL    HW148298   0.112   5.465   3.190  0.0039 -3.8639  1.9743
15619SOL    HW248299   0.253   5.491   3.240 -0.0228 -0.0491  0.4327
15620SOL     OW48300   3.452   2.275   5.391  0.5669  0.1164 -0.0465
15620SOL    HW148301   3.514   2.242   5.456  0.0314 -1.2758 -0.1940
15620SOL    HW248302   3.493   2.254   5.307  0.1502 -0.3342 -0.1434
15621SOL     OW48303   3.367   2.740   6.389 -0.1281  0.1543  0.4149
15621SOL    HW148304   3.456   2.754   6.357 -0.0724  0.0815  0.5346
15621SOL    HW248305   3.324   2.825   6.380 -0.5266 -0.1789 -1.1148
15622SOL     OW48306   1.023   4.143   9.070 -0.3597  0.2774 -0.8098
15622SOL    HW148307   1.098   4.180   9.023  1.6454 -1.8900  0.4852
15622SOL    HW248308   1.049   4.053   9.091 -2.3573  0.1776  1.7908
15623SOL     OW48309   0.731   1.048   0.805 -0.0083  0.4173 -0.4683
15623SOL    HW148310   0.727   1.143   0.792  0.6953  0.3815 -1.0113
15623SOL    HW248311   0.806   1.035   0.863 -0.5576  0.2431  0.2128
15624SOL     OW48312   4.759   7.574   4.014  0.7221  0.0746 -0.1785
15624SOL    HW148313   4.808   7.599   4.092  0.1266  1.8460 -0.3297
15624SOL    HW248314   4.722   7.656   3.981  0.3415 -0.7376 -1.9036
15625SOL     OW48315   3.642   5.316   9.726 -0.1650  0.6006  0.0540
15625SOL    HW148316   3.555   5.303   9.690  0.3196 -0.9667 -0.6521
15625SOL    HW248317   3.642   5.266   9.808 -0.2415  1.4461  0.5767
15626SOL     OW48318   3.164   7.404  10.868  0.3594  0.1132  0.3642
15626SOL    HW148319   3.193   7.454  10.792 -0.1251  1.9823  1.3221
15626SOL    HW248320   3.070   7.421  10.874  0.0427 -1.4951  0.3523
15627SOL     OW48321   2.589   1.716   4.034  0.3220  0.4520 -0.0128
15627SOL    HW148322   2.548   1.691   3.951 -0.4312 -0.1726  0.5263
15627SOL    HW248323   2.639   1.795   4.014  1.6002 -0.6507 -1.4658
15628SOL     OW48324   2.546   4.541  11.319 -0.1404  0.1993  0.0892
15628SOL    HW148325   2.617   4.596  11.352  0.7385 -1.3004  0.7993
15628SOL    HW248326   2.586   4.487  11.251 -0.9497  0.3158 -0.4984
15629SOL     OW48327   3.310   5.219   5.496  0.5252  0.5353  0.0975
15629SOL    HW148328   3.233   5.229   5.439 -0.8381  0.4924  1.8387
15629SOL    HW248329   3.384   5.212   5.435 -0.8130  0.7380 -1.6454
15630SOL     OW48330   3.227   1.195   7.081 -0.0418  0.0278 -0.4187
15630SOL    HW148331   3.183   1.260   7.026  0.8345 -1.3077 -2.8944
15630SOL    HW248332   3.320   1.208   7.064  0.1726 -1.5321 -0.6288
15631SOL     OW48333   4.938   2.296   3.081 -0.6124  0.1040  0.6384
15631SOL    HW148334   4.941   2.309   2.986  1.8632  1.0905  0.7805
15631SOL    HW248335   4.878   2.363   3.113 -1.9974 -0.6607 -0.2367
15632SOL     OW48336   1.449   4.566  10.788  0.4104 -0.3939  0.7766
15632SOL    HW148337   1.447   4.593  10.697 -1.9676  2.2728  1.4635
15632SOL    HW248338   1.539   4.585  10.817  0.9204 -0.3888 -0.7641
15633SOL     OW48339   2.549   1.733  11.064  0.3982  0.3344 -0.5647
15633SOL    HW148340   2.633   1.689  11.077  1.6806  2.4529 -1.3295
15633SOL    HW248341   2.564   1.793  10.991 -1.5632  1.3326 -0.2084
15634SOL     OW48342   1.234   3.272   5.963 -0.2478  0.3899 -0.6823
15634SOL    HW148343   1.218   3.188   6.005  2.0218  0.2899  0.1233
15634SOL    HW248344   1.208   3.259   5.872 -0.3764 -1.0212 -0.4619
15635SOL     OW48345   4.545   7.911   2.070 -0.5787 -0.5998 -0.0440
15635SOL    HW148346   4.533   7.978   2.138  1.8769 -0.5836  0.4678
15635SOL    HW248347   4.513   7.952   1.990 -0.5081  0.6267  0.5300
15636SOL     OW48348   0.715   7.415   6.646  0.4862 -0.0464 -0.1856
15636SOL    HW148349   0.773   7.406   6.571  0.7168 -0.1709  0.0040
15636SOL    HW248350   0.773   7.439   6.718  0.2947 -0.1267 -0.0044
15637SOL     OW48351   0.320   5.929   7.863  0.0209 -0.0103  0.1643
15637SOL    HW148352   0.226   5.914   7.865 -0.1054  0.6578 -0.5045
15637SOL    HW248353   0.355   5.861   7.805 -0.1311  0.1480 -0.1134
15638SOL     OW48354   4.501   1.350   7.967 -0.0317  0.4888  0.4723
15638SOL    HW148355   4.512   1.398   7.885  2.2960  1.5465  1.3436
15638SOL    HW248356   4.501   1.258   7.941 -3.5031  0.7665 -1.1005
15639SOL     OW48357   2.305   0.290   2.632  0.3529  0.2578  0.1929
15639SOL    HW148358   2.222   0.311   2.674  0.0147  0.9307 -0.7827
15639SOL    HW248359   2.348   0.230   2.693 -1.3408 -1.0430  0.1784
15640SOL     OW48360   3.281   6.021  10.382 -0.5629 -0.3193  0.4894
15640SOL    HW148361   3.333   6.024  10.463 -1.1796  2.4476  0.9020
15640SOL    HW248362   3.228   5.942  10.391  0.8274 -1.1708  1.8204
15641SOL     OW48363   3.421   4.641  11.623  0.0974 -0.1028 -0.5764
15641SOL    HW148364   3.393   4.570  11.565  1.4470 -1.5547  0.4489
15641SOL    HW248365   3.387   4.617  11.709  0.6532  0.4298 -0.1986
15642SOL     OW48366   6.922   7.450   4.812  0.2049 -0.3118  0.2708
15642SOL    HW148367   6.943   7.514   4.743  0.9475  1.0366  1.6892
15642SOL    HW248368   6.853   7.492   4.863 -1.7442 -2.1339 -0.7310
15643SOL     OW48369   4.984   5.555   6.346 -0.2485 -0.7562 -0.3594
15643SOL    HW148370   5.019   5.492   6.409  1.1745  0.2116 -0.1407
15643SOL    HW248371   5.023   5.638   6.371 -0.9592 -0.0453 -1.5292
15644SOL     OW48372   3.291   0.812   8.135  0.3056 -0.1821  0.4133
15644SOL    HW148373   3.281   0.738   8.076  1.7717 -0.2918  0.2645
15644SOL    HW248374   3.325   0.882   8.080  0.4008  0.1224  0.8572
15645SOL     OW48375   5.693   7.854   5.470  0.3809 -0.8667 -0.2286
15645SOL    HW148376   5.611   7.891   5.501  1.4908  0.7903  0.8988
15645SOL    HW248377   5.722   7.797   5.541  2.5537  2.3562  1.7270
15646SOL     OW48378   6.983   1.129   0.488  0.0666 -0.2053 -0.2609
15646SOL    HW148379   7.003   1.167   0.573 -1.2458  1.1051 -0.5052
15646SOL    HW248380   6.976   1.035   0.505  0.4568 -0.0318  0.9395
15647SOL     OW48381   3.756   3.048   1.624  0.0587  0.2481 -0.0705
15647SOL    HW148382   3.845   3.031   1.654  0.2313  0.9046 -0.1902
15647SOL    HW248383   3.733   3.132   1.662 -0.2223  0.4527 -0.6689
15648SOL     OW48384   6.286   5.775   8.298 -0.4875  0.1898 -0.0074
15648SOL    HW148385   6.233   5.847   8.266 -0.9809 -0.9224 -1.7920
15648SOL    HW248386   6.238   5.696   8.274  1.3088 -0.8161 -0.4716
15649SOL     OW48387   3.002   1.779   0.968 -0.2063 -0.3942 -0.8390
15649SOL    HW148388   2.961   1.737   1.044 -2.4818  1.4108 -0.9599
15649SOL    HW248389   3.085   1.732   0.956  0.2869 -0.7094  2.7676
15650SOL     OW48390   2.151   6.563   1.506  0.1861  0.1709 -0.2852
15650SOL    HW148391   2.181   6.569   1.415  1.1551  0.2504  0.0367
15650SOL    HW248392   2.057   6.581   1.501  0.0886 -0.5620 -1.3660
15651SOL     OW48393   0.288   6.541   3.882  0.1803 -0.8045 -0.1335
15651SOL    HW148394   0.278   6.559   3.789  0.6298  0.7106  0.0873
15651SOL    HW248395   0.216   6.481   3.902 -1.9104  1.3333 -0.8170
15652SOL     OW48396   5.135   2.060   3.136  0.0533  0.0092 -0.1343
15652SOL    HW148397   5.193   2.052   3.211  1.3030 -2.2911 -1.2213
15652SOL    HW248398   5.152   2.146   3.100  0.4003  0.6188  1.4229
15653SOL     OW48399   0.917   1.105   9.406  0.1882 -0.0137 -0.3918
15653SOL    HW148400   0.865   1.109   9.487  2.1269  0.8744  0.8957
15653SOL    HW248401   0.852   1.100   9.336 -1.5823 -1.0668  1.2082
15654SOL     OW48402   1.797   6.752   3.810 -0.9504  0.0663 -0.2131
15654SOL    HW148403   1.828   6.842   3.815  1.9568 -0.7756 -0.7904
15654SOL    HW248404   1.876   6.701   3.789 -2.5278 -2.5794 -0.1815
15655SOL     OW48405   1.319   1.238   3.132  0.2066  0.5085  0.0106
15655SOL    HW148406   1.337   1.313   3.189  0.2096  0.3735  0.1889
15655SOL    HW248407   1.377   1.250   3.057 -0.9550  1.5591 -0.7534
15656SOL     OW48408   0.113   6.278   4.187  0.3172 -0.1909 -0.0974
15656SOL    HW148409   0.151   6.225   4.258 -1.0121 -0.2103  0.6259
15656SOL    HW248410   0.035   6.317   4.225 -1.6524 -1.8778 -2.1043
15657SOL     OW48411   4.795   3.199  11.806 -0.3523  0.1694 -0.0710
15657SOL    HW148412   4.745   3.194  11.724  1.3706  0.8982 -1.2300
15657SOL    HW248413   4.797   3.293  11.826 -0.6987  0.0005  0.7913
15658SOL     OW48414   4.908   4.890   4.213  0.1464  0.9079 -0.5970
15658SOL    HW148415   4.869   4.883   4.125 -1.5977 -0.4089  0.2147
15658SOL    HW248416   4.850   4.952   4.258  0.9853  1.5073 -0.3324
15659SOL     OW48417   0.571   6.088   6.539  0.1942 -0.0857 -0.8694
15659SOL    HW148418   0.597   6.001   6.508 -0.2581 -0.5354 -0.0390
15659SOL    HW248419   0.638   6.147   6.506  0.5878 -0.7733 -1.3199
15660SOL     OW48420   1.097   6.924   7.344 -0.0800  0.3145 -0.0175
15660SOL    HW148421   1.150   6.980   7.287 -2.4306  3.1259  0.3354
15660SOL    HW248422   1.017   6.906   7.294 -0.7707  0.0262  1.1365
15661SOL     OW48423   3.130   6.838   9.897  0.3330 -0.7562  0.3334
15661SOL    HW148424   3.036   6.839   9.877  0.6172 -1.2976 -1.1376
15661SOL    HW248425   3.150   6.746   9.912  0.3876 -0.4978  1.9752
15662SOL     OW48426   7.948   2.750   2.624  0.1921 -0.0143 -0.3421
15662SOL    HW148427   7.854   2.733   2.615  0.0196  0.0198  1.1731
15662SOL    HW248428   7.983   2.667   2.656  0.4827  0.3507  0.2827
15663SOL     OW48429   4.349   5.943   1.324 -0.4268  0.7233 -0.1838
15663SOL    HW148430   4.356   6.037   1.311  0.1757  1.3425  3.4917
15663SOL    HW248431   4.285   5.932   1.394 -1.4601 -1.7583 -1.3662
15664SOL     OW48432   5.975   1.388   1.054  0.8031 -1.0240  0.0905
15664SOL    HW148433   6.013   1.422   1.135 -1.5972 -0.4570  1.0401
15664SOL    HW248434   6.018   1.439   0.985  2.3721 -1.0186  1.0018
15665SOL     OW48435   6.801   1.891   5.179 -0.5060 -0.0302 -0.4271
15665SOL    HW148436   6.876   1.925   5.226 -2.3364 -0.4092  3.0769
15665SOL    HW248437   6.827   1.802   5.154  0.6860  0.3464 -0.5983
15666SOL     OW48438   3.950   6.080   4.940  0.0248  0.0783  0.0894
15666SOL    HW148439   4.022   6.133   4.908  0.3324  0.5979  1.5325
15666SOL    HW248440   3.891   6.143   4.982 -0.3755 -0.5421  0.4798
15667SOL     OW48441   3.704   4.593   8.699  0.1629  0.1771 -0.2651
15667SOL    HW148442   3.714   4.638   8.615  0.5976  0.1335 -0.2438
15667SOL    HW248443   3.747   4.509   8.686  1.3367  0.6500  0.3663
15668SOL     OW48444   6.010   2.275   8.220 -0.2828 -0.4722 -0.1598
15668SOL    HW148445   5.969   2.337   8.281 -0.9006 -0.8504 -0.1809
15668SOL    HW248446   6.081   2.325   8.179  0.2916 -0.2768  1.0241
15669SOL     OW48447   1.134   3.650   0.523  0.4929  0.2643  0.0698
15669SOL    HW148448   1.111   3.724   0.468 -1.5628 -1.2640 -1.2873
15669SOL    HW248449   1.151   3.688   0.609 -2.6953  2.1812  0.0318
15670SOL     OW48450   5.600   5.260   3.415  0.0008 -0.3846  0.2058
15670SOL    HW148451   5.666   5.303   3.361 -0.0988 -0.1900  0.2393
15670SOL    HW248452   5.596   5.313   3.495 -0.8249  0.1132 -0.1563
15671SOL     OW48453   6.873   4.546   6.960  0.0457 -0.8931  0.1526
15671SOL    HW148454   6.840   4.467   6.917 -2.1470 -0.5495  1.1063
15671SOL    HW248455   6.802   4.609   6.955  0.9079  0.2596  1.4263
15672SOL     OW48456   6.315   6.539  12.194 -1.1804  0.4365  0.2589
15672SOL    HW148457   6.373   6.498  12.258 -0.8634 -2.8627 -1.8771
15672SOL    HW248458   6.372   6.563  12.122 -2.1662 -2.2398 -1.5791
15673SOL     OW48459   1.440   3.459   6.523  0.7189  0.2668  0.1551
15673SOL    HW148460   1.429   3.527   6.590 -1.7070  1.1778 -1.0455
15673SOL    HW248461   1.526   3.477   6.485  1.3078  0.9072  1.7197
15674SOL     OW48462   7.474   3.774   0.357  0.1395  0.2409  0.1045
15674SOL    HW148463   7.549   3.781   0.416  0.3452  3.5603 -0.3694
15674SOL    HW248464   7.426   3.856   0.370 -2.5707 -1.0839 -0.7816
15675SOL     OW48465   2.326   3.092  11.101  0.1176  0.3227  0.5285
15675SOL    HW148466   2.377   3.152  11.046  0.3959 -0.6882 -0.3458
15675SOL    HW248467   2.323   3.135  11.187  0.3156  1.5746 -0.0661
15676SOL     OW48468   3.532   7.582   5.446  0.3262 -0.0158  0.3777
15676SOL    HW148469   3.481   7.582   5.527 -0.4274  0.4614 -0.0850
15676SOL    HW248470   3.601   7.646   5.462 -0.1798  0.5312  0.4369
15677SOL     OW48471   7.444   6.866   6.351 -0.4385 -0.2971  0.2745
15677SOL    HW148472   7.429   6.888   6.443  0.2695  0.2999  0.2594
15677SOL    HW248473   7.418   6.774   6.344 -0.1674 -0.4528  1.1557
15678SOL     OW48474   0.551   1.373   1.792 -0.2541  0.3285 -0.0302
15678SOL    HW148475   0.538   1.451   1.738  0.0154  0.6757  0.4041
15678SOL    HW248476   0.472   1.321   1.777 -0.4998  0.7480 -0.2150
15679SOL     OW48477   5.443   1.837  10.084  0.0058 -0.0577 -0.2636
15679SOL    HW148478   5.376   1.791  10.135 -0.4408  1.5882  0.7068
15679SOL    HW248479   5.407   1.843   9.996 -0.5286 -0.3546 -0.0661
15680SOL     OW48480   6.073   6.619   4.209  0.0085  0.1375 -0.2695
15680SOL    HW148481   6.126   6.658   4.140 -0.2773  2.5669  0.8050
15680SOL    HW248482   6.048   6.533   4.174  1.0466  0.6957 -2.5638
15681SOL     OW48483   5.836   1.312   0.583 -0.1307  0.4720  0.3532
15681SOL    HW148484   5.779   1.379   0.621  0.9117  1.2663  0.5497
15681SOL    HW248485   5.803   1.230   0.619 -1.4033  0.8717  0.1407
15682SOL     OW48486   4.284   1.093  11.022  0.9149 -0.2427  0.1485
15682SOL    HW148487   4.267   1.084  11.116  1.2087  0.3559  0.2622
15682SOL    HW248488   4.331   1.176  11.014  1.9966 -0.8894 -0.3897
15683SOL     OW48489   3.547   6.682  12.251  0.2898  0.5107 -0.3567
15683SOL    HW148490   3.464   6.669  12.205 -0.8361 -0.9783  1.9046
15683SOL    HW248491   3.606   6.618  12.212 -0.7738 -1.0470  0.4985
15684SOL     OW48492   0.378   4.264   2.382  0.6171 -0.0038 -0.3878
15684SOL    HW148493   0.461   4.267   2.430 -0.2183  0.7175  1.0902
15684SOL    HW248494   0.333   4.187   2.418 -0.2308  0.8377  0.4125
15685SOL     OW48495   3.155   0.015   8.677 -0.2443  0.3225  0.0482
15685SOL    HW148496   3.086   0.064   8.633 -1.1746 -0.8257  0.1794
15685SOL    HW248497   3.116  -0.014   8.759  0.7137  0.4560  0.5683
15686SOL     OW48498   0.987   6.438   8.064 -0.2868  0.1674  0.6612
15686SOL    HW148499   1.075   6.407   8.084  0.3206  1.0065 -0.5874
15686SOL    HW248500   1.000   6.522   8.022 -1.6987  0.3238  0.4896
15687SOL     OW48501   0.985   4.449  10.812  0.0296  0.3246 -0.9953
15687SOL    HW148502   1.051   4.509  10.849 -1.6133  0.5241  1.8660
15687SOL    HW248503   0.901   4.491  10.830 -1.0104 -0.8586 -2.7892
15688SOL     OW48504   1.433   4.161   6.770  0.7417  0.4734 -0.1095
15688SOL    HW148505   1.417   4.152   6.676 -0.8082 -0.2360  0.1823
15688SOL    HW248506   1.421   4.072   6.804 -0.5249  1.0303  0.9805
15689SOL     OW48507   0.248   1.155   8.680  0.2179  0.1044 -0.9480
15689SOL    HW148508   0.316   1.221   8.668  0.7685  0.9325  4.3013
15689SOL    HW248509   0.166   1.205   8.684  0.3335  0.2007  0.5686
15690SOL     OW48510   0.205   6.793   7.030  0.4337  0.3445  0.1359
15690SOL    HW148511   0.215   6.702   7.001 -1.1393  0.4332 -0.8366
15690SOL    HW248512   0.289   6.834   7.008  1.3122 -0.9296  0.9424
15691SOL     OW48513   2.730   1.278  10.060 -0.4019  0.3257 -0.2108
15691SOL    HW148514   2.639   1.307  10.056  0.3179  2.6711 -0.7934
15691SOL    HW248515   2.781   1.353  10.030  1.7185 -1.0887 -0.3638
15692SOL     OW48516   0.396   1.541  10.798  0.2907  0.4634 -0.2334
15692SOL    HW148517   0.481   1.511  10.768 -0.4786 -1.2197 -0.8382
15692SOL    HW248518   0.401   1.536  10.893  0.6291 -0.3575 -0.2847
15693SOL     OW48519   0.887   6.394  11.944 -0.1107  0.4277  0.0828
15693SOL    HW148520   0.939   6.315  11.929 -0.4532  0.1481  0.3588
15693SOL    HW248521   0.802   6.361  11.974  0.3951  0.9582  2.2191
15694SOL     OW48522   0.216   7.220   4.420  0.1601 -0.3739 -0.2211
15694SOL    HW148523   0.298   7.253   4.457  0.0770  0.2563 -0.5796
15694SOL    HW248524   0.172   7.176   4.493  1.0535 -1.1781 -0.1557
15695SOL     OW48525   5.760   6.873   4.056 -0.1495  0.1485 -0.4294
15695SOL    HW148526   5.679   6.899   4.012  1.1558  2.1797 -1.8103
15695SOL    HW248527   5.829   6.908   4.000  1.7077 -1.5728  0.6792
15696SOL     OW48528   0.355   4.811   7.953 -0.7222 -0.4961  0.1977
15696SOL    HW148529   0.303   4.891   7.962 -0.5963 -0.4389  0.4258
15696SOL    HW248530   0.444   4.842   7.937  0.0882 -0.4597  3.7725
15697SOL     OW48531   1.968   7.796   7.669 -0.0380  0.1817  0.5149
15697SOL    HW148532   1.929   7.825   7.751  0.0287  1.0510  0.2495
15697SOL    HW248533   2.007   7.875   7.631 -0.3857 -0.1164 -0.5218
15698SOL     OW48534   2.848   2.448   1.741 -0.4501  0.1502  0.3373
15698SOL    HW148535   2.846   2.527   1.795  0.8123 -0.3947  1.2483
15698SOL    HW248536   2.792   2.386   1.786  1.1955 -0.5577  1.5089
15699SOL     OW48537   4.857   5.452   4.723 -0.0968  0.1874 -0.3148
15699SOL    HW148538   4.928   5.399   4.760 -0.5900 -0.1470  0.1729
15699SOL    HW248539   4.867   5.537   4.765  1.2162  0.7729 -1.7311
15700SOL     OW48540   2.733   1.643   6.743 -0.2852  0.4753 -0.8047
15700SOL    HW148541   2.778   1.641   6.658 -0.4511 -1.0962 -0.8761
15700SOL    HW248542   2.640   1.652   6.720 -0.3500 -0.1712 -0.8039
15701SOL     OW48543   1.234   4.941   2.177  0.9354  0.0408  0.0671
15701SOL    HW148544   1.210   5.014   2.120  2.2896 -2.0111 -3.5233
15701SOL    HW248545   1.330   4.944   2.180  0.9452  1.0036  3.8502
15702SOL     OW48546   5.481   4.424   4.805  0.2901  0.7782 -0.4071
15702SOL    HW148547   5.539   4.479   4.753  0.8422  1.4636  0.8789
15702SOL    HW248548   5.535   4.393   4.878 -0.3596 -0.4457 -0.4144
15703SOL     OW48549   4.591   5.558  11.665 -0.0667 -0.4842 -0.0140
15703SOL    HW148550   4.673   5.510  11.681  0.4875 -0.1596 -1.7395
15703SOL    HW248551   4.544   5.553  11.749  1.9929 -0.1237  1.2470
15704SOL     OW48552   7.718   1.067   6.414  0.5290 -0.0669  0.1053
15704SOL    HW148553   7.655   0.995   6.413  0.6287 -0.2916 -3.5210
15704SOL    HW248554   7.668   1.143   6.444 -0.3102 -1.0462  1.2814
15705SOL     OW48555   6.497   5.567  12.409 -0.4320  0.0968 -0.1133
15705SOL    HW148556   6.510   5.660  12.427  1.0870  0.2548 -1.6616
15705SOL    HW248557   6.496   5.525  12.495  3.3694  1.0622  0.6142
15706SOL     OW48558   6.413   4.814   5.572 -0.7233  0.0054 -0.4104
15706SOL    HW148559   6.355   4.800   5.647 -0.7038 -0.3361 -0.4573
15706SOL    HW248560   6.487   4.754   5.587  0.3430  1.4591  0.3908
15707SOL     OW48561   0.110   6.470   0.494 -0.5518 -0.1256  0.2437
15707SOL    HW148562   0.192   6.507   0.529 -0.3521 -0.1014 -0.2478
15707SOL    HW248563   0.106   6.501   0.404 -1.2150  0.0506  0.3276
15708SOL     OW48564   6.423   2.721   9.685  0.1286 -0.3546 -0.2018
15708SOL    HW148565   6.475   2.692   9.610  0.9745 -0.1386  0.2772
15708SOL    HW248566   6.482   2.712   9.760 -0.5638 -0.1860  0.3801
15709SOL     OW48567   2.087   1.327   4.036  0.1474 -0.1752  0.2510
15709SOL    HW148568   2.121   1.292   3.953 -1.9313 -0.2337 -0.6474
15709SOL    HW248569   2.067   1.250   4.088 -0.2327 -0.1916  0.0806
15710SOL     OW48570   6.446   6.704  10.547  0.1463 -0.3558 -0.0458
15710SOL    HW148571   6.494   6.680  10.626 -1.0714 -1.1971  0.4582
15710SOL    HW248572   6.514   6.710  10.479  0.9662 -1.6625  0.6185
15711SOL     OW48573   6.099   6.897   7.157 -0.1660 -0.1371  0.1226
15711SOL    HW148574   6.098   6.937   7.070  0.1191  0.1726  0.2615
15711SOL    HW248575   6.061   6.963   7.215 -1.3033 -0.7296  0.0735
15712SOL     OW48576   7.281   1.234   7.690 -0.0601 -0.7582  0.2820
15712SOL    HW148577   7.252   1.209   7.602 -0.8832 -3.0692  1.1188
15712SOL    HW248578   7.217   1.299   7.718 -0.3511 -0.7028 -0.4791
15713SOL     OW48579   7.965   7.244   7.594 -0.2842 -0.3235 -0.5832
15713SOL    HW148580   7.936   7.155   7.610  1.6932 -1.5231 -2.9588
15713SOL    HW248581   7.996   7.243   7.504  2.0119  2.1497  0.0554
15714SOL     OW48582   1.104   0.443   8.947 -0.2398  0.7609  0.0570
15714SOL    HW148583   1.025   0.402   8.911 -0.5823  1.9776 -0.6353
15714SOL    HW248584   1.078   0.533   8.965  1.1798  1.3866 -0.8749
15715SOL     OW48585   2.693   1.118   4.793  0.0478 -0.0629  0.6685
15715SOL    HW148586   2.737   1.180   4.735 -2.1147 -0.9666 -2.1636
15715SOL    HW248587   2.602   1.149   4.797 -0.4564 -1.5230  1.4350
15716SOL     OW48588   7.980   1.580   5.788 -0.8764 -0.3733  0.2705
15716SOL    HW148589   7.957   1.570   5.695  0.0236  1.6607 -0.2323
15716SOL    HW248590   7.904   1.545   5.835 -1.6311 -0.8574 -1.2405
15717SOL     OW48591   3.499   3.613   4.501  0.0275  0.1139 -0.3416
15717SOL    HW148592   3.594   3.624   4.492  0.2631 -0.3312  1.3288
15717SOL    HW248593   3.481   3.531   4.455  0.5759 -0.1979 -0.0136
15718SOL     OW48594   6.996   1.640   7.487  0.1403 -0.3552 -0.3046
15718SOL    HW148595   7.009   1.661   7.579 -1.6095 -0.8743  0.0946
15718SOL    HW248596   7.052   1.565   7.471  1.2344  0.3686  0.0540
15719SOL     OW48597   4.079   4.881   1.312 -0.0014 -0.1369  0.1659
15719SOL    HW148598   3.986   4.861   1.318  0.2830 -1.8770 -0.4183
15719SOL    HW248599   4.090   4.920   1.225 -0.3355  1.1138  0.6758
15720SOL     OW48600   4.010   5.153   4.110 -0.0460 -0.2833  0.3724
15720SOL    HW148601   4.058   5.227   4.075  0.7468 -0.6763  0.6060
15720SOL    HW248602   3.946   5.131   4.043  1.1016 -0.7039 -0.6112
15721SOL     OW48603   2.155   3.235   3.513 -0.1306 -0.1530 -0.5998
15721SOL    HW148604   2.184   3.310   3.461 -0.3903  1.3422  1.2660
15721SOL    HW248605   2.071   3.210   3.474 -0.8805  1.6549 -0.2669
15722SOL     OW48606   5.207   6.169   8.368  0.4160  0.1499  0.1174
15722SOL    HW148607   5.150   6.136   8.438 -0.2865  0.9290 -0.0735
15722SOL    HW248608   5.154   6.235   8.323  2.0545  2.1344  0.9781
15723SOL     OW48609   4.864   2.038   3.208  0.5167  0.1240  0.5493
15723SOL    HW148610   4.817   2.110   3.167 -0.0814 -0.8354 -0.5371
15723SOL    HW248611   4.954   2.047   3.177  0.9345  1.5748  2.0867
15724SOL     OW48612   4.801   4.083   7.011  0.1139  0.1036 -0.5220
15724SOL    HW148613   4.802   4.160   6.954  0.3421  0.8082  0.4148
15724SOL    HW248614   4.724   4.034   6.984 -1.6922  2.1071  0.7342
15725SOL     OW48615   7.893   3.788  11.119 -0.4444  0.4793 -0.8108
15725SOL    HW148616   7.960   3.751  11.176 -0.6684  1.1133 -0.1270
15725SOL    HW248617   7.868   3.715  11.061  1.6225  0.5220 -1.8424
15726SOL     OW48618   3.339   0.044   6.492  0.5669 -0.3416 -0.1291
15726SOL    HW148619   3.318   0.049   6.399 -0.1423  0.9688  0.0855
15726SOL    HW248620   3.350  -0.050   6.509 -2.1104 -0.8803 -0.9447
15727SOL     OW48621   5.429   6.796   1.661 -0.1279 -0.0340 -0.2256
15727SOL    HW148622   5.477   6.851   1.723  0.1658  0.0917 -0.5618
15727SOL    HW248623   5.384   6.858   1.604 -0.1615 -0.1485 -0.3222
15728SOL     OW48624   1.003   0.865   5.815 -0.1631  0.2847 -0.2760
15728SOL    HW148625   0.977   0.930   5.880  1.6065  0.3385  0.4191
15728SOL    HW248626   0.992   0.910   5.731 -2.7313  0.1248 -0.1251
15729SOL     OW48627   4.473   7.311  11.289 -0.8753  0.0264  0.1808
15729SOL    HW148628   4.405   7.377  11.279 -0.5253  0.2324 -0.9967
15729SOL    HW248629   4.425   7.228  11.291 -1.1734  0.1620 -0.7587
15730SOL     OW48630   2.516   4.233   2.739 -0.5137 -0.1123  0.3502
15730SOL    HW148631   2.465   4.284   2.803 -2.4629 -0.9826 -0.4290
15730SOL    HW248632   2.539   4.297   2.671 -0.1670  0.3860  0.9236
15731SOL     OW48633   5.783   3.940   1.441 -0.1843  0.7475 -0.0453
15731SOL    HW148634   5.872   3.907   1.424 -0.6516 -1.8012  1.8553
15731SOL    HW248635   5.777   4.019   1.388  2.4354 -0.1872 -1.9773
15732SOL     OW48636   3.215   5.335  10.266  0.4271  0.4386  0.0458
15732SOL    HW148637   3.263   5.339  10.349 -1.1175 -3.0271  1.3049
15732SOL    HW248638   3.124   5.319  10.292 -0.1974 -0.1810 -2.3070
15733SOL     OW48639   3.113   3.610  12.002 -0.4969  0.0743 -0.0540
15733SOL    HW148640   3.146   3.646  11.920  0.4669 -1.7469 -0.5380
15733SOL    HW248641   3.169   3.534  12.018 -0.5897  0.4292  2.3525
15734SOL     OW48642   6.823   3.793   6.877  0.3152 -0.2383  0.2059
15734SOL    HW148643   6.873   3.872   6.896  1.6670 -1.1477  0.6057
15734SOL    HW248644   6.783   3.769   6.961  0.6213 -0.4485  0.2942
15735SOL     OW48645   0.159   1.816   2.998 -0.1640 -0.2987 -0.1227
15735SOL    HW148646   0.178   1.877   2.927 -0.6093  1.9855  1.6086
15735SOL    HW248647   0.079   1.771   2.969 -1.2072  1.6565 -0.5047
15736SOL     OW48648   4.304   4.153   1.604 -0.1871 -0.3092  0.1433
15736SOL    HW148649   4.357   4.115   1.535 -1.5003 -0.3120 -0.9164
15736SOL    HW248650   4.291   4.083   1.667  1.0629 -0.2943  0.4363
15737SOL     OW48651   0.550   2.107  10.079  0.1810 -0.1386  0.4408
15737SOL    HW148652   0.465   2.151  10.092 -0.6220 -1.1371 -1.1331
15737SOL    HW248653   0.530   2.014  10.089  1.1554 -0.3673  0.3129
15738SOL     OW48654   7.410   7.163   7.035 -0.1302  0.1922 -0.1424
15738SOL    HW148655   7.325   7.148   6.994  0.1407  0.0940 -0.6795
15738SOL    HW248656   7.409   7.255   7.062 -0.1546  0.3719 -0.7481
15739SOL     OW48657   6.480   2.250  11.479 -0.6511  0.6222  0.3639
15739SOL    HW148658   6.465   2.341  11.453  0.1414  1.2849  2.0482
15739SOL    HW248659   6.463   2.249  11.573 -1.4279 -1.1762  0.2585
15740SOL     OW48660   3.272   1.224   5.502 -0.1217  0.2071 -0.2823
15740SOL    HW148661   3.230   1.258   5.581 -2.1882 -0.8369 -0.8576
15740SOL    HW248662   3.296   1.302   5.452  1.4926  0.8972  1.4465
15741SOL     OW48663   5.469   1.523  11.340 -0.5623  0.3952 -0.3928
15741SOL    HW148664   5.468   1.611  11.378  0.1687  0.8773 -1.4491
15741SOL    HW248665   5.561   1.506  11.322 -0.9019  0.5360 -2.6473
15742SOL     OW48666   3.529   3.011   5.563  0.1276  0.1140  1.0478
15742SOL    HW148667   3.460   2.963   5.609  0.9892 -1.5870  0.6679
15742SOL    HW248668   3.609   2.963   5.584  0.6219 -0.4747 -1.8123
15743SOL     OW48669   0.705   1.239  11.979 -0.5513  0.3119 -0.6599
15743SOL    HW148670   0.645   1.277  12.043 -1.5876 -0.4203 -1.1800
15743SOL    HW248671   0.761   1.181  12.031 -0.1180  1.1797 -0.1375
15744SOL     OW48672   0.529   6.535   5.003  0.0244  0.6973 -0.3578
15744SOL    HW148673   0.492   6.608   5.054 -0.6404  1.6450 -2.1159
15744SOL    HW248674   0.453   6.484   4.976  0.5204 -1.0205  1.2979
15745SOL     OW48675   2.420   2.267  10.124 -0.1793 -0.0887  0.2443
15745SOL    HW148676   2.408   2.286  10.031 -3.5291 -1.3748  0.2757
15745SOL    HW248677   2.432   2.352  10.165  1.8124  0.4706 -1.3374
15746SOL     OW48678   1.934   6.014   9.028 -0.4351 -0.3476 -0.1251
15746SOL    HW148679   1.916   6.079   9.096  0.0772 -0.2791 -0.0513
15746SOL    HW248680   1.854   5.962   9.022 -0.1642 -0.9682  1.2082
15747SOL     OW48681   3.663   1.945   1.233 -0.0394 -0.7431  0.6557
15747SOL    HW148682   3.741   1.954   1.287 -0.0978 -1.6929  0.9176
15747SOL    HW248683   3.629   1.858   1.255 -1.6167 -0.0319  1.1401
15748SOL     OW48684   6.106   2.085   6.741 -0.1828 -0.2591  0.2779
15748SOL    HW148685   6.182   2.141   6.751 -0.1739 -0.3553  0.8044
15748SOL    HW248686   6.056   2.098   6.822 -1.1573  0.4426 -0.4216
15749SOL     OW48687   2.534   2.473   2.422 -0.3345  0.0201 -0.3001
15749SOL    HW148688   2.559   2.419   2.497 -0.4240 -1.6157 -1.3811
15749SOL    HW248689   2.511   2.409   2.354  0.2144  1.4282 -1.8708
15750SOL     OW48690   4.331   3.955   1.779  0.3743 -0.1267  0.2552
15750SOL    HW148691   4.279   3.983   1.854  0.8857  0.2619  0.4681
15750SOL    HW248692   4.379   3.878   1.811 -0.5367 -0.8623 -0.1311
15751SOL     OW48693   0.915   6.069   2.856  0.1152  0.7786  0.1119
15751SOL    HW148694   0.854   6.062   2.929  0.1630  0.8423  0.1591
15751SOL    HW248695   0.988   6.120   2.892 -0.0760  1.2190 -0.1173
15752SOL     OW48696   4.517   0.893  10.468  0.5503  0.2262 -0.5546
15752SOL    HW148697   4.473   0.926  10.546  1.2938 -0.8885  0.3699
15752SOL    HW248698   4.610   0.897  10.489  0.7136 -1.8198 -0.6121
15753SOL     OW48699   2.339   0.503   7.097  0.1072 -0.4617 -0.2691
15753SOL    HW148700   2.344   0.489   7.191 -0.0645  2.3823  0.2355
15753SOL    HW248701   2.429   0.495   7.067  0.1484 -1.4951  0.0611
15754SOL     OW48702   1.560   7.224  11.203 -0.4325 -0.3774  0.2366
15754SOL    HW148703   1.558   7.232  11.108 -2.0887  0.6794  0.3203
15754SOL    HW248704   1.512   7.300  11.235  0.1487 -0.6773  1.9287
15755SOL     OW48705   1.834   3.227   5.303  0.4447 -0.2909  0.1302
15755SOL    HW148706   1.823   3.317   5.335  0.0422 -0.4737  0.5186
15755SOL    HW248707   1.896   3.187   5.363 -0.7158 -0.7949  1.0460
15756SOL     OW48708   4.916   4.949   6.084 -0.2743  0.1763 -0.0895
15756SOL    HW148709   4.890   4.969   5.994 -2.4174  1.6232  0.7722
15756SOL    HW248710   5.005   4.983   6.091  0.5620 -1.3789 -2.0466
15757SOL     OW48711   5.411   2.015   5.897 -0.0818  0.0584 -0.3513
15757SOL    HW148712   5.378   1.925   5.890  1.0378 -0.2903 -1.5562
15757SOL    HW248713   5.496   2.013   5.851  0.5720  1.4276  0.7307
15758SOL     OW48714   5.295   1.512  10.528 -0.7387  0.7995  0.1514
15758SOL    HW148715   5.289   1.578  10.458  0.2363  1.8279  0.9805
15758SOL    HW248716   5.212   1.518  10.574 -2.0524 -1.0368 -1.8529
15759SOL     OW48717   1.039   1.723   4.862  0.1729  0.2509 -0.2850
15759SOL    HW148718   1.050   1.677   4.779 -2.8200  0.8252 -1.0973
15759SOL    HW248719   0.980   1.796   4.842  1.2291  1.8187  1.8959
15760SOL     OW48720   6.105   6.001   0.733  0.0510  0.1930 -0.0381
15760SOL    HW148721   6.049   5.961   0.800 -1.4259  1.6715 -0.3252
15760SOL    HW248722   6.050   6.002   0.654  0.3120  2.0312 -0.2322
15761SOL     OW48723   5.906   1.613   5.730 -0.4339 -0.3827  0.1951
15761SOL    HW148724   5.878   1.705   5.729  1.6596  0.3533  1.4834
15761SOL    HW248725   5.992   1.615   5.772  0.0871 -2.8464 -0.5860
15762SOL     OW48726   4.304   2.757   5.117  0.9835  0.5726  0.1238
15762SOL    HW148727   4.256   2.679   5.145  0.3673  0.0281 -2.1698
15762SOL    HW248728   4.253   2.830   5.150 -1.2645 -0.0054 -1.7766
15763SOL     OW48729   4.150   3.272   2.590  0.0431  0.1966  0.0301
15763SOL    HW148730   4.243   3.267   2.610  0.2840  0.6163 -0.9176
15763SOL    HW248731   4.146   3.325   2.511 -1.0007  0.1343  0.0324
15764SOL     OW48732   3.906   6.907   7.808 -0.3315  0.0226  0.0747
15764SOL    HW148733   3.858   6.988   7.791 -0.1380  0.1907  0.3143
15764SOL    HW248734   3.921   6.869   7.721  0.4717  0.7736 -0.1289
15765SOL     OW48735   4.334   7.443   4.047 -0.4079 -0.2524  0.3580
15765SOL    HW148736   4.324   7.531   4.011  0.0527  0.2755  1.4830
15765SOL    HW248737   4.275   7.389   3.995  0.8412  0.3050 -1.7174
15766SOL     OW48738   5.655   3.424   2.284 -0.3330  0.1940  0.2944
15766SOL    HW148739   5.592   3.370   2.331  0.5281  0.8081  2.2651
15766SOL    HW248740   5.637   3.513   2.313  1.2987  0.3996  0.7935
15767SOL     OW48741   5.012   2.228   0.055 -0.0726  0.5325 -0.1078
15767SOL    HW148742   5.053   2.304   0.013 -0.6903  1.1542  0.3744
15767SOL    HW248743   4.926   2.222   0.014 -0.0119  0.0670 -0.1683
15768SOL     OW48744   1.681   5.163   6.491 -0.0103 -0.1137  0.8741
15768SOL    HW148745   1.734   5.104   6.545 -1.3811 -1.7255  0.5259
15768SOL    HW248746   1.741   5.192   6.422  0.3416 -2.3010  0.1821
15769SOL     OW48747   7.098   2.164   7.224 -0.2109 -0.4997 -0.1083
15769SOL    HW148748   7.063   2.158   7.313 -0.4499  0.4435 -0.1280
15769SOL    HW248749   7.027   2.203   7.173 -0.1119 -1.1267 -0.7413
15770SOL     OW48750   0.784   7.731   4.515 -0.6151  0.5796  0.1517
15770SOL    HW148751   0.741   7.719   4.600  0.3975 -0.6768  0.5167
15770SOL    HW248752   0.876   7.745   4.536 -0.3070 -0.0016 -0.7416
15771SOL     OW48753   7.493   3.858   9.258  0.6782  0.6577 -0.2552
15771SOL    HW148754   7.523   3.887   9.172 -2.7557 -2.0839 -2.6384
15771SOL    HW248755   7.399   3.878   9.259 -0.1477 -2.5784  1.2849
15772SOL     OW48756   4.653   5.804   3.497  0.5176 -0.0360  0.1396
15772SOL    HW148757   4.683   5.724   3.541 -0.5338 -0.6646 -0.2699
15772SOL    HW248758   4.681   5.793   3.406 -0.4318 -0.3691 -0.1203
15773SOL     OW48759   6.478   7.860  12.297 -0.1701 -0.1011 -0.3311
15773SOL    HW148760   6.549   7.899  12.247 -0.1270  0.6452  0.2937
15773SOL    HW248761   6.411   7.929  12.302 -0.9420 -0.7852 -0.9035
15774SOL     OW48762   6.419   0.045   1.361 -0.1325 -0.3624 -0.0722
15774SOL    HW148763   6.421   0.118   1.299  1.7174  1.0384  1.5120
15774SOL    HW248764   6.448  -0.030   1.310  1.1197  0.6963 -1.0050
15775SOL     OW48765   1.359   7.769   2.857  0.5656 -0.3649 -0.4763
15775SOL    HW148766   1.406   7.787   2.775  2.2061 -0.7361  0.3551
15775SOL    HW248767   1.406   7.820   2.923 -0.2619 -0.6838  0.3713
15776SOL     OW48768   2.853   2.828   2.635  0.7255 -0.4082  0.2005
15776SOL    HW148769   2.802   2.843   2.555  1.4798 -0.8828 -0.3867
15776SOL    HW248770   2.926   2.773   2.607  1.7865  0.5682  0.9305
15777SOL     OW48771   3.870   5.306   1.919 -0.3744 -0.5813  0.0326
15777SOL    HW148772   3.800   5.366   1.945  0.5738  0.7463 -0.4061
15777SOL    HW248773   3.858   5.294   1.825 -1.7874 -2.7589  0.4063
15778SOL     OW48774   1.428   1.006   6.258  0.2896  0.2552 -0.1370
15778SOL    HW148775   1.501   1.067   6.273 -0.1213  0.7044  0.0593
15778SOL    HW248776   1.443   0.935   6.320  0.5992  0.3110 -0.1441
15779SOL     OW48777   5.152   0.999  10.352  0.2179 -0.1980 -0.1432
15779SOL    HW148778   5.184   0.922  10.305  0.5576 -0.5744  0.6935
15779SOL    HW248779   5.169   1.072  10.293  1.1391 -0.5984 -0.3797
15780SOL     OW48780   2.293   6.837   9.862 -0.5738 -0.6349 -0.1924
15780SOL    HW148781   2.218   6.810   9.808 -0.9722 -0.6882  0.3795
15780SOL    HW248782   2.265   6.820   9.952  0.6192 -1.8543 -0.0366
15781SOL     OW48783   6.646   5.025  10.469 -0.1068  0.3079 -0.4182
15781SOL    HW148784   6.738   5.007  10.487 -0.5820  0.7924  3.5547
15781SOL    HW248785   6.600   4.947  10.498 -1.0309  0.4457 -1.4566
15782SOL     OW48786   4.379   0.530   6.426  0.2777  0.1130  0.4018
15782SOL    HW148787   4.287   0.545   6.404  0.4125 -0.6795 -0.7988
15782SOL    HW248788   4.377   0.466   6.498 -0.0991 -0.4337 -0.0910
15783SOL     OW48789   6.267   1.740   6.501 -0.2376 -0.2738 -0.5843
15783SOL    HW148790   6.231   1.748   6.589 -0.4399 -1.2152 -0.5695
15783SOL    HW248791   6.233   1.656   6.469 -1.7590  0.9060 -2.2931
15784SOL     OW48792   5.358   1.553  11.782 -0.1057  0.6845  0.2347
15784SOL    HW148793   5.323   1.642  11.790  0.2135  0.6785  1.9843
15784SOL    HW248794   5.391   1.532  11.869  1.7894 -0.3482 -0.6835
15785SOL     OW48795   1.742   6.432   6.833  0.3178  0.1030 -0.1429
15785SOL    HW148796   1.819   6.475   6.794 -0.5298  1.4014 -0.4804
15785SOL    HW248797   1.775   6.349   6.867  1.4744 -0.2913 -2.0563
15786SOL     OW48798   6.376   4.512  11.660 -0.2032  0.2414  0.3955
15786SOL    HW148799   6.440   4.578  11.685 -0.5325  0.6847  0.0901
15786SOL    HW248800   6.427   4.442  11.619  0.1961  0.0967  1.1215
15787SOL     OW48801   4.853   7.909  10.199 -0.4818  0.4324 -0.4473
15787SOL    HW148802   4.766   7.882  10.171 -0.4699  0.1309 -0.1983
15787SOL    HW248803   4.903   7.827  10.205  0.9099  0.8102 -4.1895
15788SOL     OW48804   3.443   1.735   7.138  0.0830  0.2994 -0.3931
15788SOL    HW148805   3.513   1.800   7.126  0.3453  0.3043  0.9468
15788SOL    HW248806   3.398   1.764   7.217  0.4619 -1.3473  0.4660
15789SOL     OW48807   3.158   7.737  11.301  0.2892  0.0357  0.4711
15789SOL    HW148808   3.107   7.793  11.242 -0.9561 -0.3621  1.1276
15789SOL    HW248809   3.248   7.769  11.293 -0.2119  1.4086 -0.0016
15790SOL     OW48810   3.374   0.606   3.862  0.1707  0.9231 -0.6495
15790SOL    HW148811   3.387   0.648   3.947  1.2238 -1.4434  0.4669
15790SOL    HW248812   3.283   0.622   3.841 -0.0853  1.6676  0.8853
15791SOL     OW48813   0.513   7.252   9.309  0.2751 -0.0406 -0.5270
15791SOL    HW148814   0.513   7.254   9.213  2.1086 -1.3643 -0.6221
15791SOL    HW248815   0.532   7.160   9.330  1.0003  0.4547  1.0902
15792SOL     OW48816   5.649   1.373   0.362 -0.2110  0.1623 -0.1651
15792SOL    HW148817   5.560   1.374   0.398 -0.2756  0.8356 -0.3201
15792SOL    HW248818   5.699   1.429   0.421 -0.0706  0.4010 -0.5028
15793SOL     OW48819   0.670   7.300   0.997 -0.4386  0.0440 -0.5373
15793SOL    HW148820   0.601   7.261   1.051  0.2189 -0.3902  0.0164
15793SOL    HW248821   0.714   7.361   1.056  1.8931 -2.2501  0.3003
15794SOL     OW48822   2.510   6.978   5.252  0.4092  0.8198 -0.1269
15794SOL    HW148823   2.492   7.071   5.268  1.4317  0.8839  0.7370
15794SOL    HW248824   2.425   6.935   5.265 -0.0621  1.6179 -0.4710
15795SOL     OW48825   6.070   4.552   4.285  0.2476  0.2512  0.0564
15795SOL    HW148826   6.103   4.470   4.248 -0.4179 -0.0865  0.1941
15795SOL    HW248827   6.033   4.599   4.211 -1.0678 -0.4168  0.2739
15796SOL     OW48828   3.033   5.983   3.226 -0.2770  0.1718 -0.4680
15796SOL    HW148829   2.999   5.961   3.313 -0.3215  0.6500 -0.3575
15796SOL    HW248830   3.128   5.976   3.235 -0.0891  2.7034  0.3758
15797SOL     OW48831   2.702   0.316   2.300  0.0218 -0.4487  0.4298
15797SOL    HW148832   2.681   0.261   2.224  0.8453 -1.1930  0.7192
15797SOL    HW248833   2.620   0.319   2.350 -0.4244 -0.2475 -0.2934
15798SOL     OW48834   4.099   6.183  11.241  0.2775 -0.2861  0.1923
15798SOL    HW148835   4.151   6.147  11.313  1.6487  1.0175 -0.0990
15798SOL    HW248836   4.044   6.249  11.281  2.2707  1.6734 -0.1126
15799SOL     OW48837   7.160   2.189   8.865 -0.2929  0.1141 -0.2487
15799SOL    HW148838   7.137   2.105   8.904  0.3522  1.3286  3.0835
15799SOL    HW248839   7.254   2.183   8.850  0.3962  1.1057  2.8546
15800SOL     OW48840   6.802   1.060   7.083  0.5234  0.3585  0.0887
15800SOL    HW148841   6.755   1.054   7.166 -0.4876  1.7686 -0.3540
15800SOL    HW248842   6.738   1.096   7.022  1.5249  0.2006 -1.0838
15801SOL     OW48843   6.389   0.293   1.235  0.1017  0.3352  0.2539
15801SOL    HW148844   6.320   0.351   1.203  1.7548  1.8713 -0.7252
15801SOL    HW248845   6.467   0.320   1.187  0.8751 -3.1911 -0.7867
15802SOL     OW48846   3.054   4.616  11.433  0.2971 -0.5814 -0.0192
15802SOL    HW148847   3.033   4.673  11.506 -0.4419 -0.1760 -0.5323
15802SOL    HW248848   3.149   4.625  11.421  0.3568 -0.3531  0.6280
15803SOL     OW48849   7.469   2.322  10.697 -0.2210  0.3232  0.3958
15803SOL    HW148850   7.451   2.241  10.648  0.3729  0.5894 -0.2776
15803SOL    HW248851   7.386   2.343  10.739 -0.1258 -1.2260  1.4812
15804SOL     OW48852   3.622   1.747  10.060 -0.1766 -0.2086  0.0306
15804SOL    HW148853   3.688   1.781  10.120  0.4270  1.5166 -1.5156
15804SOL    HW248854   3.539   1.764  10.103  0.2831 -2.1635  1.8832
15805SOL     OW48855   4.059   0.147   9.197  0.1885 -0.3172  0.3349
15805SOL    HW148856   4.015   0.160   9.113 -0.5893 -1.5219  0.5267
15805SOL    HW248857   4.110   0.067   9.185  0.0995 -0.4742  0.9899
15806SOL     OW48858   2.679   7.983   6.261  0.1117 -0.0170 -0.3942
15806SOL    HW148859   2.622   8.009   6.188 -1.2475  0.1533  0.7012
15806SOL    HW248860   2.663   7.889   6.270 -0.6114  0.1830  0.4339
15807SOL     OW48861   4.415   5.893   5.147 -0.4720 -0.7906  0.3497
15807SOL    HW148862   4.505   5.866   5.166  0.0204 -1.2298 -2.1564
15807SOL    HW248863   4.366   5.811   5.147 -0.5869 -0.7218  0.3704
15808SOL     OW48864   2.797   5.611   6.284 -0.0335 -0.2706 -0.3519
15808SOL    HW148865   2.724   5.668   6.260 -0.1761  0.2759  1.2160
15808SOL    HW248866   2.755   5.528   6.308 -0.4960  0.6893  2.6770
15809SOL     OW48867   1.097   4.622  11.815  0.2189  0.1697  0.2514
15809SOL    HW148868   1.003   4.610  11.826  0.4511 -1.9238  0.3712
15809SOL    HW248869   1.133   4.614  11.903  0.4904  1.6617  0.3090
15810SOL     OW48870   2.159   0.525   3.069 -0.6783 -0.4753 -0.3090
15810SOL    HW148871   2.166   0.582   2.993  0.8038  0.2663  0.3348
15810SOL    HW248872   2.091   0.565   3.123 -0.3233  0.1646 -0.3207
15811SOL     OW48873   1.484   7.691   4.244  0.3278  0.3901 -0.0309
15811SOL    HW148874   1.427   7.633   4.194  0.0206  1.5797 -1.1284
15811SOL    HW248875   1.526   7.746   4.177  1.2456  0.8549  0.9019
15812SOL     OW48876   6.123   4.845   2.575 -0.2298  0.2781  0.0918
15812SOL    HW148877   6.202   4.890   2.544 -0.7442  1.6281  0.7235
15812SOL    HW248878   6.153   4.794   2.650  0.5835 -1.3719 -1.2667
15813SOL     OW48879   0.431   1.174   0.387  0.0815  0.0120  0.0342
15813SOL    HW148880   0.475   1.249   0.346 -1.7979 -0.0100 -2.2029
15813SOL    HW248881   0.344   1.208   0.412  0.0238 -0.8512  1.1012
15814SOL     OW48882   5.286   7.644   6.911 -0.1708  0.3188  0.0838
15814SOL    HW148883   5.282   7.674   6.820 -0.2897 -0.1844 -0.0779
15814SOL    HW248884   5.204   7.596   6.924  0.4278 -0.7447  0.0490
15815SOL     OW48885   3.463   0.633  12.196  0.4956  0.2479 -0.0522
15815SOL    HW148886   3.462   0.696  12.268  1.4713  0.7501 -0.4575
15815SOL    HW248887   3.556   0.623  12.174  0.4624 -2.0725  0.6176
15816SOL     OW48888   5.240   1.724   8.233 -0.7256 -0.7806 -0.0089
15816SOL    HW148889   5.287   1.642   8.227  0.0228 -0.4261  0.7617
15816SOL    HW248890   5.234   1.741   8.327 -0.9486 -0.0043 -0.1562
15817SOL     OW48891   1.874   1.013  10.003  0.1461  0.0161 -0.5892
15817SOL    HW148892   1.800   0.975   9.957 -1.5516  1.8086  0.4565
15817SOL    HW248893   1.853   1.001  10.096  1.2966  0.3271 -0.2703
15818SOL     OW48894   6.544   0.266   5.933  0.0358  0.2148 -0.2671
15818SOL    HW148895   6.580   0.349   5.964  1.8969 -0.2855 -0.9758
15818SOL    HW248896   6.564   0.203   6.002  0.2666 -0.0075 -0.5345
15819SOL     OW48897   5.929   1.005   7.203 -0.3451  0.0706 -0.6786
15819SOL    HW148898   5.952   1.076   7.263 -1.8579  0.0851 -0.0755
15819SOL    HW248899   6.005   0.997   7.146  0.6580  0.8422  0.4970
15820SOL     OW48900   6.495   1.837   6.492 -0.0745  0.2724 -0.2508
15820SOL    HW148901   6.502   1.848   6.587 -2.3721  0.9544 -0.1193
15820SOL    HW248902   6.412   1.791   6.479  0.4243 -0.2310 -1.9374
15821SOL     OW48903   5.297   5.416   0.450 -0.0282  0.0503  0.0623
15821SOL    HW148904   5.336   5.502   0.438  1.1064 -0.1645  1.7863
15821SOL    HW248905   5.216   5.434   0.499  0.3898  0.1332  0.7402
15822SOL     OW48906   2.091   5.467  10.004 -0.1010  0.3192 -0.3313
15822SOL    HW148907   2.057   5.382   9.977 -2.0145  1.0900 -0.5615
15822SOL    HW248908   2.110   5.512   9.921 -1.1194  0.8436 -0.3037
15823SOL     OW48909   5.222   6.640   9.455 -0.5532 -0.1702 -0.1717
15823SOL    HW148910   5.192   6.549   9.450 -1.5800  0.0679  1.0280
15823SOL    HW248911   5.292   6.638   9.520 -0.5947 -0.0951 -0.1254
15824SOL     OW48912   5.803   2.458  10.769 -0.0361  0.0892 -0.4500
15824SOL    HW148913   5.855   2.522  10.721 -1.8831  0.9878 -1.3557
15824SOL    HW248914   5.774   2.396  10.702  1.6625 -1.7329  0.4009
15825SOL     OW48915   5.573   6.284   2.991 -0.2486  0.2303 -0.5802
15825SOL    HW148916   5.656   6.298   3.038 -0.3165  1.3117 -0.7519
15825SOL    HW248917   5.531   6.212   3.037 -0.4771  1.4928  1.2763
15826SOL     OW48918   6.160   7.179   7.686  0.8422 -0.4637  0.3040
15826SOL    HW148919   6.179   7.265   7.648 -0.8397 -0.3369 -0.3452
15826SOL    HW248920   6.228   7.166   7.751  3.0924 -0.0972 -1.8376
15827SOL     OW48921   1.845   2.234  12.071  0.4638 -0.2958  0.0821
15827SOL    HW148922   1.796   2.313  12.051  0.2082 -0.5024 -0.1083
15827SOL    HW248923   1.856   2.236  12.166 -1.5240 -1.1885  0.3749
15828SOL     OW48924   2.755   3.434   0.494  0.5403  0.1010  0.1967
15828SOL    HW148925   2.667   3.397   0.494  0.2860  0.6890 -0.0165
15828SOL    HW248926   2.799   3.391   0.420  0.1307  0.4821 -0.2807
15829SOL     OW48927   2.789   5.207   2.020 -0.4020 -0.1328 -0.3826
15829SOL    HW148928   2.833   5.250   1.947  0.8739 -0.8981 -0.0951
15829SOL    HW248929   2.700   5.243   2.019  0.1932  1.4213 -1.0122
15830SOL     OW48930   5.735   2.155   4.349 -0.4033 -0.1892 -0.4594
15830SOL    HW148931   5.737   2.064   4.317 -0.2837 -0.0029 -0.9940
15830SOL    HW248932   5.742   2.147   4.444  1.8439 -0.6698 -0.5999
15831SOL     OW48933   1.201   5.294   6.742  0.4595 -0.1032 -0.4220
15831SOL    HW148934   1.117   5.335   6.723  0.2450  0.7406  2.0441
15831SOL    HW248935   1.188   5.202   6.721 -0.7764  0.1763 -0.9567
15832SOL     OW48936   4.002   0.817  11.813  0.5972 -0.2165 -0.5400
15832SOL    HW148937   4.038   0.740  11.856  0.2408  0.1192  0.3744
15832SOL    HW248938   4.041   0.891  11.860 -2.9663  0.2220  2.0667
15833SOL     OW48939   0.691   7.090   4.427 -0.2660 -0.1935  0.3832
15833SOL    HW148940   0.600   7.062   4.427 -0.6009  0.7388 -1.5756
15833SOL    HW248941   0.736   7.029   4.368  0.5020 -0.8785  1.6182
15834SOL     OW48942   6.622   5.094   2.566  0.9731  0.1405 -0.2140
15834SOL    HW148943   6.681   5.074   2.639 -1.7228 -1.1507  1.7771
15834SOL    HW248944   6.573   5.013   2.552  0.9484  0.5471 -3.1317
15835SOL     OW48945   1.870   7.726   2.037 -0.4382  0.0464 -0.5069
15835SOL    HW148946   1.877   7.738   2.132  1.6953  0.9919 -0.7252
15835SOL    HW248947   1.795   7.779   2.012  0.4271  1.7826  0.3914
15836SOL     OW48948   6.689   2.672   8.494 -0.5918  0.0365 -0.1116
15836SOL    HW148949   6.610   2.712   8.531 -0.3919  1.3441 -1.0270
15836SOL    HW248950   6.657   2.594   8.447 -1.1926 -0.0300  0.3938
15837SOL     OW48951   6.482   1.209   0.453  0.2326 -0.1560  0.4278
15837SOL    HW148952   6.566   1.253   0.464  0.9464 -1.4939  0.6293
15837SOL    HW248953   6.480   1.184   0.360  0.2299 -0.4570  0.5086
15838SOL     OW48954   4.912   5.190   1.540 -0.3122 -0.2024  0.0240
15838SOL    HW148955   4.872   5.166   1.457 -3.1378  0.6421  1.0266
15838SOL    HW248956   4.932   5.283   1.530  1.1389 -0.5268 -0.3245
15839SOL     OW48957   0.096   1.482   4.207  0.0602  0.4228 -0.0920
15839SOL    HW148958   0.058   1.521   4.286 -1.0455 -0.4894 -0.1480
15839SOL    HW248959   0.191   1.483   4.224 -0.2124 -2.4487  2.6451
15840SOL     OW48960   5.974   0.694   5.012 -0.2429 -0.2520 -0.1245
15840SOL    HW148961   5.878   0.696   5.017 -0.2245  0.2557  0.0829
15840SOL    HW248962   5.994   0.609   4.973 -0.7432 -0.6909  0.5666
15841SOL     OW48963   6.806   0.946  10.339 -0.5343 -0.8231 -0.0265
15841SOL    HW148964   6.898   0.922  10.324 -0.4536 -1.0401  0.7633
15841SOL    HW248965   6.756   0.873  10.304 -0.5814  0.5570 -3.1956
15842SOL     OW48966   5.996   3.695  10.033  0.8070  0.0857  0.1690
15842SOL    HW148967   5.959   3.765  10.087  0.8321 -1.1637  1.8953
15842SOL    HW248968   5.959   3.709   9.946  0.6658  2.1114  0.5050
15843SOL     OW48969   2.445   3.953   3.730  0.1261  0.2838 -0.3217
15843SOL    HW148970   2.370   3.921   3.681  0.7556 -2.4460  0.3165
15843SOL    HW248971   2.521   3.917   3.684  0.8560 -0.0063  1.0412
15844SOL     OW48972   2.312   5.127   4.153  0.1872  0.2164  0.4873
15844SOL    HW148973   2.401   5.105   4.125 -0.3767 -1.7396  0.0855
15844SOL    HW248974   2.260   5.124   4.073 -0.9476 -2.7790  1.2195
15845SOL     OW48975   4.116   1.601   2.423  0.8461  0.6601  0.0552
15845SOL    HW148976   4.060   1.660   2.371  1.0383  0.6881 -0.1210
15845SOL    HW248977   4.078   1.603   2.511 -0.2993 -0.4438 -0.3882
15846SOL     OW48978   6.992   4.855   7.972  0.1861 -0.9452 -0.0807
15846SOL    HW148979   7.009   4.769   7.933 -0.5389 -0.8864 -0.5493
15846SOL    HW248980   6.952   4.906   7.901  1.3400  0.0522 -0.0587
15847SOL     OW48981   0.858   1.603   2.027  0.2035  0.0539 -0.0402
15847SOL    HW148982   0.953   1.611   2.035  0.1809  0.3634 -0.0696
15847SOL    HW248983   0.824   1.671   2.085  0.0031  0.0786 -0.1895
15848SOL     OW48984   6.411   2.686   9.205 -0.2336  0.5184 -0.0741
15848SOL    HW148985   6.364   2.631   9.267  0.2442 -1.7816 -1.6311
15848SOL    HW248986   6.351   2.697   9.132  0.5004  0.1065 -0.7596
15849SOL     OW48987   4.571   0.768   4.666 -0.4547  0.1194 -0.1963
15849SOL    HW148988   4.518   0.697   4.703  1.9946 -2.1666 -0.8242
15849SOL    HW248989   4.535   0.781   4.578 -0.7691 -0.5288 -0.1715
15850SOL     OW48990   5.923   0.768   0.277 -0.1186 -0.1714  0.2177
15850SOL    HW148991   5.934   0.861   0.292  0.1938 -0.0178 -0.8376
15850SOL    HW248992   6.004   0.728   0.308 -0.8242 -0.2820  2.0016
15851SOL     OW48993   4.189   2.065   6.686 -0.4178  0.7655 -0.9482
15851SOL    HW148994   4.264   2.122   6.669  0.4928 -0.5410 -1.4559
15851SOL    HW248995   4.219   1.977   6.662 -1.1110 -0.2674  1.5571
15852SOL     OW48996   2.817   7.165  10.197 -0.0966 -0.4890  0.0650
15852SOL    HW148997   2.847   7.079  10.168  0.4512 -1.5748  3.4407
15852SOL    HW248998   2.895   7.206  10.235 -0.7779  0.6997  0.2537
15853SOL     OW48999   1.778   6.144   9.980  0.1045  0.3636  0.1295
15853SOL    HW149000   1.816   6.208  10.041  0.7974  0.2705 -0.1943
15853SOL    HW249001   1.852   6.092   9.951 -0.3427 -0.0967 -0.2011
15854SOL     OW49002   0.508   1.679   4.733  0.6405  0.2177 -0.0364
15854SOL    HW149003   0.454   1.730   4.674  0.8075  1.6101  0.9576
15854SOL    HW249004   0.454   1.604   4.757  0.0264  0.4136 -0.7893
15855SOL     OW49005   2.676   7.747   3.244 -0.2071  0.4207 -0.5025
15855SOL    HW149006   2.668   7.726   3.151  0.3266 -0.5982 -0.3429
15855SOL    HW249007   2.660   7.663   3.288  0.9209  0.5830  0.2467
15856SOL     OW49008   7.248   3.483   6.161  0.0733 -0.3085 -0.4828
15856SOL    HW149009   7.237   3.393   6.193  0.8483 -0.9807 -2.0351
15856SOL    HW249010   7.326   3.515   6.206 -0.8631  0.0600  0.9855
15857SOL     OW49011   3.613   6.176   3.697  0.9901 -0.2159  0.2924
15857SOL    HW149012   3.532   6.143   3.657 -0.3347  0.8693  1.9752
15857SOL    HW249013   3.679   6.166   3.628 -0.4250 -1.6618 -0.9345
15858SOL     OW49014   6.545   7.505   5.746  0.1032  0.1188 -0.2952
15858SOL    HW149015   6.499   7.426   5.771  0.6913 -0.4328 -0.9161
15858SOL    HW249016   6.626   7.503   5.797  0.6398 -0.2764 -1.1270
15859SOL     OW49017   7.080   0.396   5.018 -0.0051 -0.1471 -0.4070
15859SOL    HW149018   7.084   0.377   4.925  0.4944  0.7556 -0.5750
15859SOL    HW249019   7.080   0.309   5.060 -1.9432 -0.6193 -1.2838
15860SOL     OW49020   2.795   4.598   3.816 -0.1187 -0.1647 -0.1933
15860SOL    HW149021   2.811   4.532   3.883  2.6278  0.7020  0.1534
15860SOL    HW249022   2.700   4.602   3.808 -0.4651 -1.8968  1.9967
15861SOL     OW49023   2.647   1.360  12.385  0.6168  0.3710  0.3688
15861SOL    HW149024   2.715   1.315  12.434  1.7343  1.2753 -0.2989
15861SOL    HW249025   2.681   1.366  12.296  0.0671  1.6087  0.2108
15862SOL     OW49026   1.355   7.419  10.722  0.4684 -0.0240  0.1056
15862SOL    HW149027   1.329   7.370  10.644  1.0413  0.7638 -0.6067
15862SOL    HW249028   1.324   7.508  10.705  1.0803  0.2757  0.5341
15863SOL     OW49029   5.605   6.142  11.816 -0.0178  0.6888 -0.7282
15863SOL    HW149030   5.569   6.168  11.731  0.0606  1.2537 -0.5922
15863SOL    HW249031   5.536   6.089  11.856 -0.2011  0.7232 -0.9959
15864SOL     OW49032   2.770   4.998   0.367 -0.2317  0.0847 -0.0017
15864SOL    HW149033   2.826   4.948   0.309 -1.9160 -1.0434 -0.7127
15864SOL    HW249034   2.831   5.053   0.417  1.6275 -2.1125  0.3156
15865SOL     OW49035   1.282   2.435   4.056 -0.9276 -0.2578  0.2108
15865SOL    HW149036   1.355   2.414   4.114 -0.5171 -0.1254 -0.2514
15865SOL    HW249037   1.208   2.448   4.115 -0.3441  0.6610  0.7704
15866SOL     OW49038   3.641   7.498   4.032  0.3043  0.0624 -0.7810
15866SOL    HW149039   3.715   7.545   4.070 -0.0554  1.3013 -1.5747
15866SOL    HW249040   3.597   7.457   4.107  1.1494  0.2219 -0.1868
15867SOL     OW49041   5.081   5.083   9.949  0.3402 -0.0638  0.3221
15867SOL    HW149042   5.037   5.018  10.003  0.4580 -1.1773 -0.8468
15867SOL    HW249043   5.125   5.141  10.011 -0.7037 -0.4232  1.4289
15868SOL     OW49044   1.605   3.018   0.628 -0.0845 -0.0920 -0.0850
15868SOL    HW149045   1.684   2.998   0.679 -0.0596 -0.8897 -0.4293
15868SOL    HW249046   1.539   3.039   0.693  1.0911  3.3818  0.2060
15869SOL     OW49047   7.045   1.695   8.601 -0.0558  0.0939  0.0374
15869SOL    HW149048   7.009   1.754   8.668 -0.3349 -0.1162  0.0733
15869SOL    HW249049   7.134   1.728   8.586 -0.7505  1.5567 -1.1406
15870SOL     OW49050   3.568   7.360  10.287  0.2782  0.3516  0.1400
15870SOL    HW149051   3.599   7.451  10.288 -0.0468  0.4617  0.3212
15870SOL    HW249052   3.643   7.309  10.255  0.1148  0.8148 -1.0138
15871SOL     OW49053   3.883   4.971   5.263 -0.2041  0.3308 -0.1577
15871SOL    HW149054   3.825   5.047   5.276 -2.2065 -1.2485  0.6513
15871SOL    HW249055   3.824   4.901   5.236  1.5736 -1.0418 -0.6488
15872SOL     OW49056   2.022   6.054  10.473  0.0939 -0.0074  0.7597
15872SOL    HW149057   2.044   6.147  10.479  0.6336 -0.0113 -0.7641
15872SOL    HW249058   1.979   6.034  10.557  1.0598  1.3048  1.6042
15873SOL     OW49059   3.774   7.120   7.678  0.1651 -0.0815  0.1319
15873SOL    HW149060   3.828   7.110   7.600 -0.6940  0.9977 -0.6338
15873SOL    HW249061   3.731   7.204   7.666  1.2644  0.9042  2.5739
15874SOL     OW49062   0.775   5.126   2.252  0.8294  0.1286  0.2163
15874SOL    HW149063   0.847   5.163   2.303  0.2056  1.5879  0.0817
15874SOL    HW249064   0.712   5.096   2.317 -0.3568  2.7678  0.3947
15875SOL     OW49065   4.879   2.175  12.142  0.1401 -0.2103  0.0441
15875SOL    HW149066   4.831   2.256  12.124 -1.4664 -1.1545 -0.1027
15875SOL    HW249067   4.868   2.162  12.237 -0.3424 -0.6977 -0.0759
15876SOL     OW49068   5.927   0.434  10.385  0.6895 -0.0053  0.2005
15876SOL    HW149069   5.996   0.368  10.386  1.4532  0.7786  1.2822
15876SOL    HW249070   5.849   0.387  10.356  1.4209 -1.1630  0.0509
15877SOL     OW49071   5.827   0.122   4.386  0.3320  0.1479 -0.3681
15877SOL    HW149072   5.741   0.149   4.354  0.8822  0.6682 -1.4796
15877SOL    HW249073   5.853   0.050   4.328  0.8531  0.3333 -0.3736
15878SOL     OW49074   1.870   7.845   5.663 -1.0124  0.2097 -0.1612
15878SOL    HW149075   1.837   7.804   5.583 -1.4260  1.4985 -0.6727
15878SOL    HW249076   1.910   7.927   5.633 -1.8333  1.0703  1.0080
15879SOL     OW49077   3.719   3.624  10.478  0.6639  0.4676 -0.2932
15879SOL    HW149078   3.636   3.626  10.526  0.8954  0.4481  0.1036
15879SOL    HW249079   3.743   3.532  10.475  0.5281  0.4430 -0.6562
15880SOL     OW49080   6.993   5.551   1.326 -0.0703 -0.5073 -0.5057
15880SOL    HW149081   6.987   5.611   1.252  1.9151 -1.6517 -1.7036
15880SOL    HW249082   7.081   5.513   1.319  1.3098  1.2101  3.9362
15881SOL     OW49083   2.920   7.863   2.268  0.3364 -0.0766 -0.2922
15881SOL    HW149084   2.920   7.873   2.364 -0.0990 -0.9799 -0.1860
15881SOL    HW249085   2.872   7.940   2.237  0.6240  0.3154  0.1949
15882SOL     OW49086   0.698   7.572   8.505  0.1176 -0.2286  0.0729
15882SOL    HW149087   0.700   7.645   8.566  1.8088 -1.5754  1.7368
15882SOL    HW249088   0.605   7.563   8.482 -0.6687  0.0929  2.7732
15883SOL     OW49089   1.021   0.414   6.570  0.4053 -0.4259 -0.4206
15883SOL    HW149090   0.963   0.487   6.590 -1.6283 -1.5710 -1.7823
15883SOL    HW249091   1.049   0.429   6.480  1.3783 -0.4676 -0.1429
15884SOL     OW49092   6.093   1.960   2.156 -0.3530  0.0191 -0.0040
15884SOL    HW149093   6.142   1.908   2.092 -2.0381 -0.0298 -1.3344
15884SOL    HW249094   6.030   2.009   2.104 -0.2828  1.7551  1.4431
15885SOL     OW49095   4.833   0.036  12.192 -0.1385 -0.2613  0.5550
15885SOL    HW149096   4.909   0.082  12.228 -0.5504  0.7203  0.1986
15885SOL    HW249097   4.816   0.079  12.109  0.7073 -2.3958 -0.7948
15886SOL     OW49098   0.143   2.299   3.936 -0.2213 -0.1993  0.3339
15886SOL    HW149099   0.099   2.334   4.013  0.9323  0.9693  0.5047
15886SOL    HW249100   0.109   2.210   3.926 -1.2503  0.0499  1.4925
15887SOL     OW49101   6.008   0.015  10.565  0.4931  0.6107 -0.7291
15887SOL    HW149102   5.974   0.080  10.627  0.5701  0.6512 -0.7284
15887SOL    HW249103   6.036   0.067  10.490  0.5767  0.5797 -0.7194
15888SOL     OW49104   1.222   3.489   7.462 -0.1256  0.2946 -0.0409
15888SOL    HW149105   1.274   3.548   7.408 -0.6107  1.4937  0.7444
15888SOL    HW249106   1.259   3.499   7.550 -1.3356  0.7993  0.4380
15889SOL     OW49107   2.188   1.854   0.301  0.1901 -0.4697  0.0212
15889SOL    HW149108   2.182   1.921   0.369  1.4608  2.4310 -2.5322
15889SOL    HW249109   2.181   1.771   0.350  1.0476  1.3774  3.6631
15890SOL     OW49110   4.489   7.595   5.160 -0.1216 -0.2585 -0.5755
15890SOL    HW149111   4.566   7.568   5.111  0.9098  0.5079  0.5738
15890SOL    HW249112   4.461   7.677   5.118  0.8373  0.4675  0.1818
15891SOL     OW49113   2.128   4.488  11.391  0.5209 -0.6122 -0.5791
15891SOL    HW149114   2.185   4.540  11.334 -1.2482  1.8521 -0.2657
15891SOL    HW249115   2.082   4.429  11.333  0.6174  0.0686 -1.3636
15892SOL     OW49116   4.924   4.923  12.291  0.2237  0.0313  0.3028
15892SOL    HW149117   4.926   4.985  12.218  0.8183  1.1351  1.2276
15892SOL    HW249118   4.850   4.865  12.270 -0.2227  0.9140 -0.6988
15893SOL     OW49119   3.533   4.454   2.240 -0.6363 -0.1326 -0.4017
15893SOL    HW149120   3.508   4.451   2.333  1.6269  0.0435  0.2843
15893SOL    HW249121   3.493   4.534   2.207 -1.0132  0.1021  0.5700
15894SOL     OW49122   3.399   5.754   9.704  0.2187  0.3942  0.0749
15894SOL    HW149123   3.481   5.803   9.694  1.8521 -2.0043  0.7919
15894SOL    HW249124   3.424   5.662   9.689 -3.0165 -0.2045 -3.2561
15895SOL     OW49125   3.064   4.358   9.170  0.2795 -0.2988  0.6016
15895SOL    HW149126   3.157   4.338   9.175  0.4102  0.0020 -0.4270
15895SOL    HW249127   3.021   4.289   9.220  1.0079 -0.8207  0.5122
15896SOL     OW49128   7.306   0.795   5.259 -0.1658  0.0304  0.1052
15896SOL    HW149129   7.246   0.725   5.234 -0.8368  0.9077 -0.8232
15896SOL    HW249130   7.377   0.751   5.305 -0.6317 -1.2389 -0.3612
15897SOL     OW49131   5.679   0.607   2.369  0.6154  0.0353 -0.0785
15897SOL    HW149132   5.624   0.682   2.348 -0.7745 -0.5838  1.1832
15897SOL    HW249133   5.633   0.532   2.333  0.3892 -0.5329  1.3322
15898SOL     OW49134   2.384   2.995  12.336  0.4032  0.1927 -0.3132
15898SOL    HW149135   2.390   3.057  12.263 -1.1138 -0.1116 -0.7325
15898SOL    HW249136   2.343   2.918  12.298 -0.0878 -0.1091  0.7897
15899SOL     OW49137   5.515   1.057  10.651  0.3516  0.0496  0.3538
15899SOL    HW149138   5.550   1.010  10.727  0.3259 -1.9456 -0.8021
15899SOL    HW249139   5.583   1.120  10.629  0.2278  0.8982  2.1851
15900SOL     OW49140   7.848   2.733   3.729 -0.3133 -0.0801 -0.1525
15900SOL    HW149141   7.754   2.737   3.743 -0.5867 -2.4647 -0.8199
15900SOL    HW249142   7.858   2.695   3.642  1.2492 -0.4450  0.1549
15901SOL     OW49143   4.319   4.873   3.565  0.4774 -0.4372  0.2915
15901SOL    HW149144   4.395   4.909   3.610  1.1244 -0.0382 -1.0981
15901SOL    HW249145   4.351   4.794   3.521  0.1491 -0.1555 -0.4707
15902SOL     OW49146   3.347   7.071   9.334 -0.2327 -0.1912  0.5461
15902SOL    HW149147   3.339   6.987   9.289 -2.2733  0.4922 -0.4813
15902SOL    HW249148   3.387   7.129   9.269 -2.1396  0.5021 -0.0858
15903SOL     OW49149   7.798   6.451   7.382  0.1040  0.1281 -0.2115
15903SOL    HW149150   7.826   6.541   7.392 -0.1059  0.1650  0.0548
15903SOL    HW249151   7.786   6.439   7.288 -0.4297  0.5497 -0.2001
15904SOL     OW49152   1.573   1.442   6.986  0.4577 -0.2235  0.3227
15904SOL    HW149153   1.539   1.433   6.897  2.7234 -0.5970 -0.5700
15904SOL    HW249154   1.591   1.352   7.014  0.1939 -0.0723  1.0023
15905SOL     OW49155   7.353   5.295   6.674 -0.1056 -0.4254 -0.3228
15905SOL    HW149156   7.314   5.219   6.718  0.9353  0.0237  1.5020
15905SOL    HW249157   7.446   5.273   6.665  0.4132  0.9353  1.1004
15906SOL     OW49158   7.569   4.000  11.733 -0.0216 -0.5348  0.0302
15906SOL    HW149159   7.566   3.934  11.663 -0.1226  0.1517 -0.6220
15906SOL    HW249160   7.613   4.075  11.693  1.3296 -0.6792  1.1895
15907SOL     OW49161   3.941   3.922   2.844  0.2587 -0.5303  0.2173
15907SOL    HW149162   3.965   3.830   2.834 -0.0869 -0.6570  0.5573
15907SOL    HW249163   3.853   3.928   2.806  0.3473 -0.3026  0.0423
15908SOL     OW49164   6.424   7.414  10.660  0.2094  0.3476 -0.0226
15908SOL    HW149165   6.511   7.380  10.681  0.5329  0.4448 -1.1106
15908SOL    HW249166   6.366   7.339  10.671  0.7612 -0.3214 -1.3474
15909SOL     OW49167   5.045   3.841   3.737  0.1955 -0.2003  0.2995
15909SOL    HW149168   5.028   3.868   3.827  0.6965 -0.5442  0.5018
15909SOL    HW249169   5.065   3.748   3.743  3.1094  0.3203  0.2523
15910SOL     OW49170   4.654   6.597   0.440 -0.0025  0.1776 -0.0028
15910SOL    HW149171   4.588   6.659   0.409 -0.1090  0.0674  0.0001
15910SOL    HW249172   4.676   6.627   0.528  0.0988  0.3320 -0.0816
15911SOL     OW49173   2.904   2.260   9.116 -0.2225 -0.2138  0.1026
15911SOL    HW149174   2.900   2.272   9.211  0.2859  0.4500  0.0476
15911SOL    HW249175   2.973   2.320   9.087 -1.2370  0.5438 -0.8312
15912SOL     OW49176   1.180   5.561   4.231  0.2364 -0.2098 -0.0726
15912SOL    HW149177   1.167   5.584   4.323  1.3527  1.4983 -0.2883
15912SOL    HW249178   1.250   5.496   4.233  0.7948  0.3857  0.2596
15913SOL     OW49179   3.521   4.847   5.371 -0.2971  0.1604 -0.3708
15913SOL    HW149180   3.482   4.773   5.324  0.0767 -0.1735 -0.1574
15913SOL    HW249181   3.579   4.807   5.435 -0.3618  0.6342 -0.0144
15914SOL     OW49182   1.129   3.914   9.180  0.2277 -0.0372  0.0199
15914SOL    HW149183   1.168   3.892   9.095  0.3900  0.1472  0.0471
15914SOL    HW249184   1.058   3.851   9.190  0.5747 -0.4371  0.0080
15915SOL     OW49185   5.349   7.887   2.433 -0.3653 -0.4881  0.0776
15915SOL    HW149186   5.310   7.958   2.483  0.0893 -0.2341  0.0755
15915SOL    HW249187   5.279   7.856   2.375 -0.3401  0.4614 -0.4772
15916SOL     OW49188   4.442   0.421   3.550 -0.0713  0.1997  0.1275
15916SOL    HW149189   4.423   0.412   3.644  1.0326 -2.6647  0.1755
15916SOL    HW249190   4.531   0.389   3.540  0.2388  1.4988 -1.7964
15917SOL     OW49191   6.796   5.796   4.825 -0.1399 -0.2967  0.1872
15917SOL    HW149192   6.799   5.818   4.732 -0.4877  0.1349  0.2712
15917SOL    HW249193   6.804   5.881   4.870 -3.3614 -0.0064  0.4985
15918SOL     OW49194   0.156   6.933   8.143 -0.0677 -0.3316  0.3123
15918SOL    HW149195   0.225   6.867   8.135 -0.9604 -1.1969 -0.3665
15918SOL    HW249196   0.186   7.005   8.088 -1.0748 -1.9123 -2.4913
15919SOL     OW49197   4.380   0.949   8.151  0.4967 -0.6750 -0.1383
15919SOL    HW149198   4.287   0.940   8.132 -0.0255  2.3563  0.3333
15919SOL    HW249199   4.415   0.860   8.149 -2.1328 -1.7661 -1.6007
15920SOL     OW49200   1.521   6.562  12.046 -1.0500  0.1496 -0.3463
15920SOL    HW149201   1.582   6.542  12.118 -0.9387 -0.1572 -0.5217
15920SOL    HW249202   1.523   6.657  12.038 -1.0990  0.1889  0.0890
15921SOL     OW49203   6.883   2.244   4.618  0.0422  0.0764  0.0389
15921SOL    HW149204   6.975   2.270   4.626  0.8666 -2.3698 -0.6955
15921SOL    HW249205   6.850   2.295   4.544  1.5674 -0.8593 -1.3450
15922SOL     OW49206   6.508   0.093  10.104 -0.6129 -0.3708  0.3368
15922SOL    HW149207   6.603   0.083  10.098 -0.8191 -2.1607 -1.0156
15922SOL    HW249208   6.485   0.149  10.031 -0.7952 -2.1028 -1.0011
15923SOL     OW49209   1.469   0.315   4.105 -0.1268  0.9018 -0.5000
15923SOL    HW149210   1.375   0.331   4.117 -0.0997  3.7804 -2.9413
15923SOL    HW249211   1.472   0.250   4.035 -0.2284 -0.6073  0.8429
15924SOL     OW49212   6.129   0.548   4.053 -0.0544  0.1328 -0.1154
15924SOL    HW149213   6.039   0.568   4.027 -0.1495 -0.1258  0.0166
15924SOL    HW249214   6.169   0.510   3.974  0.2442  1.1918 -0.4948
15925SOL     OW49215   6.848   5.372  11.384 -0.1230  0.7442  0.4793
15925SOL    HW149216   6.813   5.419  11.308  2.8029 -0.9303 -2.1575
15925SOL    HW249217   6.909   5.435  11.424 -0.2571  1.0003  0.2860
15926SOL     OW49218   5.238   0.476  10.138  0.4785 -0.1440  0.4257
15926SOL    HW149219   5.147   0.460  10.163 -0.4391 -0.0284 -2.4285
15926SOL    HW249220   5.262   0.401  10.084  0.7926  1.3892 -1.7485
15927SOL     OW49221   5.630   3.968   3.781  0.3374 -0.4263 -0.1377
15927SOL    HW149222   5.579   3.890   3.802 -0.7331 -0.0824 -1.3232
15927SOL    HW249223   5.712   3.957   3.830  0.1567 -2.2182 -0.1639
15928SOL     OW49224   0.880   5.567   3.410  0.1981  0.2270  0.2311
15928SOL    HW149225   0.973   5.575   3.428  0.7294  0.4324 -2.2592
15928SOL    HW249226   0.837   5.605   3.487  2.1342 -0.0142  1.4882
15929SOL     OW49227   5.197   1.962   3.778 -0.4355  0.0846  0.4432
15929SOL    HW149228   5.189   2.009   3.694 -0.4775 -1.1259 -0.2484
15929SOL    HW249229   5.236   2.026   3.837 -2.1067  1.5691  0.0185
15930SOL     OW49230   3.163   0.848  10.331 -0.2586  0.3704 -0.0094
15930SOL    HW149231   3.181   0.888  10.416  0.7274  1.8105 -0.8617
15930SOL    HW249232   3.235   0.876  10.275 -2.1546  1.5526 -2.0126
15931SOL     OW49233   1.482   2.604  10.060 -0.3906  0.1699  0.0131
15931SOL    HW149234   1.567   2.648  10.053 -0.9660  1.1793 -0.7517
15931SOL    HW249235   1.432   2.657  10.122 -0.6649 -0.1235  0.0464
15932SOL     OW49236   7.943   1.549   1.772 -0.0911  0.2960 -0.0741
15932SOL    HW149237   7.932   1.455   1.764 -0.3601  0.3514 -0.3682
15932SOL    HW249238   7.880   1.574   1.840 -1.0367  0.4551 -0.9785
15933SOL     OW49239   2.998   2.495  11.120 -0.9469  0.0565 -0.0300
15933SOL    HW149240   3.024   2.521  11.208 -0.0232  0.2759 -0.3527
15933SOL    HW249241   2.948   2.414  11.132 -2.7667  1.2499  0.8846
15934SOL     OW49242   4.118   7.739   5.108 -0.0535  0.1920  0.1632
15934SOL    HW149243   4.106   7.719   5.201 -0.4278  1.1554  0.3366
15934SOL    HW249244   4.213   7.737   5.095 -0.0760 -2.0741  0.0550
15935SOL     OW49245   1.793   5.932   3.189  0.0547  0.1043 -0.2352
15935SOL    HW149246   1.736   6.009   3.189 -0.6800 -0.4290 -0.0673
15935SOL    HW249247   1.817   5.920   3.281  0.1910  0.1489 -0.2651
15936SOL     OW49248   4.555   5.702   7.879 -0.2941 -0.2316  0.6318
15936SOL    HW149249   4.563   5.617   7.923 -0.3114 -1.6133 -1.8759
15936SOL    HW249250   4.637   5.711   7.830 -1.4672 -0.2261 -1.4299
15937SOL     OW49251   1.107   4.323   8.048  0.0566 -0.1299  0.0297
15937SOL    HW149252   1.048   4.257   8.012 -0.6604 -0.3086  1.4759
15937SOL    HW249253   1.057   4.404   8.045  0.0812 -0.1023  0.4128
15938SOL     OW49254   0.377   3.619  10.207  0.0707  0.0662  0.3979
15938SOL    HW149255   0.332   3.687  10.256  0.0655 -0.2960  0.9080
15938SOL    HW249256   0.309   3.557  10.182  0.2584 -0.4076  1.0449
15939SOL     OW49257   1.728   2.284   2.861  0.8022 -0.1027  0.3722
15939SOL    HW149258   1.720   2.250   2.772 -1.0164  0.8092  0.1395
15939SOL    HW249259   1.801   2.346   2.857  0.9722 -0.3448 -0.3799
15940SOL     OW49260   7.731   3.119   2.737  0.0035 -0.5926  0.2154
15940SOL    HW149261   7.821   3.109   2.704 -0.2085  0.2293 -0.6494
15940SOL    HW249262   7.739   3.108   2.832  0.8908 -1.3476  0.0705
15941SOL     OW49263   2.021   4.605   5.486  0.0369  0.4965 -0.4694
15941SOL    HW149264   1.986   4.624   5.399 -0.6392  0.1866 -0.2755
15941SOL    HW249265   2.007   4.511   5.497  2.6530 -0.0315 -1.1299
15942SOL     OW49266   5.108   0.304   1.230 -0.1302 -0.8247  0.0696
15942SOL    HW149267   5.121   0.307   1.135  0.8796 -0.4918  0.1985
15942SOL    HW249268   5.062   0.386   1.251  1.6443  0.2170  0.1129
15943SOL     OW49269   0.893   3.978   5.942 -0.1214 -0.5181 -0.1265
15943SOL    HW149270   0.833   3.904   5.953 -0.4740  0.0102  1.8966
15943SOL    HW249271   0.847   4.038   5.884 -1.3419 -0.3935  0.9164
15944SOL     OW49272   4.911   3.429  11.594  0.1882 -0.2462 -0.4947
15944SOL    HW149273   5.001   3.415  11.622  0.4849 -2.0135 -2.1482
15944SOL    HW249274   4.874   3.341  11.588 -0.9284  0.2866 -2.0473
15945SOL     OW49275   5.731   7.002   3.404 -0.7042  0.2521 -0.2925
15945SOL    HW149276   5.824   6.980   3.393 -0.9190 -0.1975 -1.3705
15945SOL    HW249277   5.717   7.077   3.345 -1.0855  0.1252 -0.3648
15946SOL     OW49278   0.629   5.769  11.076 -0.6045  0.5183 -0.3585
15946SOL    HW149279   0.556   5.707  11.074 -1.3914  1.3387  1.0711
15946SOL    HW249280   0.642   5.787  11.169  1.2656  0.5894 -0.6060
15947SOL     OW49281   2.717   6.248   9.985  0.1300 -0.0776 -0.7580
15947SOL    HW149282   2.782   6.318   9.976  0.6384 -0.4845 -0.3385
15947SOL    HW249283   2.690   6.229   9.895  0.1314  0.5233 -0.8851
15948SOL     OW49284   3.844   4.057   1.814  0.3788  0.1397  0.2327
15948SOL    HW149285   3.897   4.086   1.889 -0.8393  1.8268  0.4927
15948SOL    HW249286   3.768   4.116   1.814 -1.6352 -2.3209  0.0031
15949SOL     OW49287   7.891   7.428   5.256 -0.2458 -0.2403 -0.0701
15949SOL    HW149288   7.807   7.394   5.285 -0.6334  1.6808  1.2588
15949SOL    HW249289   7.952   7.356   5.270 -1.3552 -1.0596  0.6976
15950SOL     OW49290   6.785   3.782   3.868  0.4811 -0.3797 -0.7102
15950SOL    HW149291   6.740   3.720   3.925 -1.8810  0.1469 -1.8807
15950SOL    HW249292   6.822   3.728   3.798  0.5914 -0.7006 -0.4056
15951SOL     OW49293   5.270   6.469   1.363  0.4793  0.8367 -0.3805
15951SOL    HW149294   5.267   6.475   1.459 -0.3198  0.2175 -0.3629
15951SOL    HW249295   5.350   6.419   1.345 -0.3108 -0.6312  0.0522
15952SOL     OW49296   6.716   6.476   3.644 -0.3783  0.0634  0.3034
15952SOL    HW149297   6.750   6.514   3.563  2.1427  0.1121  1.2953
15952SOL    HW249298   6.765   6.520   3.714 -1.3407 -1.1046  1.7750
15953SOL     OW49299   2.999   7.275  11.257 -0.2422 -0.0639  0.1717
15953SOL    HW149300   2.915   7.288  11.301 -1.0497 -0.1202 -1.2853
15953SOL    HW249301   2.995   7.185  11.223 -0.6379  0.7079 -1.9653
15954SOL     OW49302   0.943   2.253   8.650 -0.2532 -0.2790 -0.0392
15954SOL    HW149303   0.890   2.292   8.719  0.7206 -0.4687  0.8399
15954SOL    HW249304   0.884   2.191   8.607 -1.1773  0.5811 -0.0722
15955SOL     OW49305   2.452   0.074   1.551  0.8477 -0.5356 -0.0072
15955SOL    HW149306   2.508  -0.003   1.539  1.5019  0.1220 -1.4836
15955SOL    HW249307   2.513   0.142   1.580  0.3673 -0.4059  0.7298
15956SOL     OW49308   1.513   4.482   4.576 -0.1386 -0.1873  0.1934
15956SOL    HW149309   1.594   4.532   4.572 -1.6812  2.5547  0.5138
15956SOL    HW249310   1.489   4.481   4.668  0.0691 -1.9733  0.2569
15957SOL     OW49311   6.912   4.243   7.933  0.3668  0.2711 -0.1405
15957SOL    HW149312   6.856   4.167   7.947 -0.7187  1.2678  1.1848
15957SOL    HW249313   6.932   4.275   8.021 -0.5746  2.4512 -0.6349
15958SOL     OW49314   2.362   0.613   4.681  0.3309 -0.6355 -0.5536
15958SOL    HW149315   2.383   0.675   4.611  0.3343 -1.0886 -0.9672
15958SOL    HW249316   2.419   0.538   4.663 -0.6679 -1.3339 -0.9033
15959SOL     OW49317   1.770   0.225  12.181  0.0342 -0.0948  0.0844
15959SOL    HW149318   1.768   0.278  12.101 -0.6270  1.1559  0.8921
15959SOL    HW249319   1.846   0.258  12.229  1.5745 -2.1162 -0.8052
15960SOL     OW49320   0.105   2.924   5.794  0.5354 -0.4768  0.2558
15960SOL    HW149321   0.028   2.969   5.827  0.7634  0.9709 -1.0588
15960SOL    HW249322   0.168   2.994   5.777  2.1872 -1.6220  1.3439
15961SOL     OW49323   7.616   2.851   4.843  0.6538  0.1478  0.3653
15961SOL    HW149324   7.644   2.846   4.752  2.6041  1.7265  0.8149
15961SOL    HW249325   7.679   2.798   4.891 -0.0556 -0.2606  0.8722
15962SOL     OW49326   5.180   7.434   1.775 -0.8065  0.1844 -0.0456
15962SOL    HW149327   5.175   7.528   1.793 -0.6447  0.1088  0.4364
15962SOL    HW249328   5.207   7.395   1.859  1.0641 -0.0836 -0.7027
15963SOL     OW49329   1.020   5.405   2.675  0.2815  0.0514 -0.7945
15963SOL    HW149330   0.937   5.449   2.656  1.1764  2.2585  0.0123
15963SOL    HW249331   0.998   5.336   2.738 -0.9055  0.7505 -0.4220
15964SOL     OW49332   1.064   4.552   6.146 -0.3087  0.4204  0.4087
15964SOL    HW149333   1.002   4.484   6.173  0.6319 -0.2388  0.9405
15964SOL    HW249334   1.139   4.504   6.112  0.7809  1.1539  1.6913
15965SOL     OW49335   0.142   6.844  10.928 -0.5577 -0.0128 -0.4145
15965SOL    HW149336   0.187   6.792  10.994  0.2247  1.3471  0.1742
15965SOL    HW249337   0.167   6.804  10.844  1.3303  0.3445 -0.0707
15966SOL     OW49338   6.904   4.669   2.861  0.0896  0.0485 -0.3202
15966SOL    HW149339   6.970   4.606   2.835  0.0633  0.2524 -0.9138
15966SOL    HW249340   6.833   4.616   2.898  0.4511 -0.1938  0.0195
15967SOL     OW49341   7.802   7.614   3.426  0.1832 -0.3671  0.0321
15967SOL    HW149342   7.843   7.547   3.372 -1.1558  1.3066 -3.3867
15967SOL    HW249343   7.847   7.695   3.401 -0.4865  0.4939  1.5014
15968SOL     OW49344   2.888   4.498   6.587 -0.0059  0.3577  0.1113
15968SOL    HW149345   2.850   4.461   6.507  0.8707 -0.7756  0.1963
15968SOL    HW249346   2.916   4.586   6.562 -0.1107  0.1636 -0.7157
15969SOL     OW49347   0.166   3.500  10.111  0.2378 -0.3930  0.1443
15969SOL    HW149348   0.082   3.464  10.137  0.5280 -0.6370  0.7701
15969SOL    HW249349   0.199   3.440  10.044 -0.5601  0.2936 -0.8883
15970SOL     OW49350   3.685   0.155   7.202  0.4172  0.1416 -0.2426
15970SOL    HW149351   3.706   0.235   7.155  1.4018  0.1475  0.1867
15970SOL    HW249352   3.739   0.088   7.161 -0.6897 -0.4018 -0.8629
15971SOL     OW49353   2.668   5.512   8.446 -0.2707 -0.1171  0.8578
15971SOL    HW149354   2.733   5.444   8.428 -0.9986 -0.3968 -0.8809
15971SOL    HW249355   2.589   5.483   8.399 -0.9460  1.3532  1.0281
15972SOL     OW49356   2.837   3.528   7.414 -0.0640 -0.4856  0.0703
15972SOL    HW149357   2.901   3.514   7.484  2.0569 -1.4813 -1.9374
15972SOL    HW249358   2.814   3.621   7.420  1.6246 -0.0889  0.8387
15973SOL     OW49359   5.725   2.926   8.513 -0.2115  0.7957  0.1921
15973SOL    HW149360   5.770   3.001   8.475  0.0570  1.6992  2.1300
15973SOL    HW249361   5.730   2.941   8.608  0.3696 -1.9847  0.6961
15974SOL     OW49362   3.521   0.752   5.768 -0.1382 -0.1850 -0.3340
15974SOL    HW149363   3.466   0.712   5.701 -1.0466  1.2033 -0.4728
15974SOL    HW249364   3.459   0.781   5.835  0.3970  1.3145 -0.4388
15975SOL     OW49365   4.143   0.676   5.645 -0.0724 -0.1135 -0.3457
15975SOL    HW149366   4.097   0.759   5.662  0.9814  0.2744  0.7248
15975SOL    HW249367   4.230   0.703   5.617  0.3803 -0.8649  0.3289
15976SOL     OW49368   3.538   6.668   6.297 -0.0857 -0.4850  0.2530
15976SOL    HW149369   3.597   6.721   6.244  1.2013 -1.0080  1.1322
15976SOL    HW249370   3.456   6.667   6.247 -0.0048  1.8963 -0.0482
15977SOL     OW49371   5.745   5.956   3.746  0.6112  0.2588 -0.0521
15977SOL    HW149372   5.753   5.864   3.721  0.6467  0.2695 -0.0809
15977SOL    HW249373   5.727   5.955   3.840 -0.0999  0.1976 -0.1850
15978SOL     OW49374   5.529   7.602   8.689  0.4021  0.4467 -0.3570
15978SOL    HW149375   5.487   7.634   8.609 -2.0290 -1.7761 -0.1307
15978SOL    HW249376   5.488   7.652   8.760 -0.8402 -0.6423 -0.2559
15979SOL     OW49377   5.988   4.285   8.964  0.0213  0.0602 -0.0814
15979SOL    HW149378   6.049   4.226   9.009  0.0611  0.6868  0.6951
15979SOL    HW249379   5.911   4.288   9.021  0.6877  2.1097  0.8067
15980SOL     OW49380   5.511   5.519   4.140  0.8266 -0.0741 -0.1130
15980SOL    HW149381   5.583   5.551   4.193  1.1845 -0.1320 -0.5659
15980SOL    HW249382   5.509   5.424   4.158  0.8949 -0.0806 -0.1388
15981SOL     OW49383   2.663   3.306   4.662 -0.0360  0.4996 -0.7369
15981SOL    HW149384   2.633   3.390   4.628 -1.8616  1.1123  2.0306
15981SOL    HW249385   2.745   3.326   4.706  0.0722  0.6079 -0.9870
15982SOL     OW49386   7.092   0.234  10.904 -0.0110  0.5918  0.0206
15982SOL    HW149387   7.090   0.145  10.869  0.6557 -0.0197  1.4482
15982SOL    HW249388   7.021   0.237  10.967  1.5687  0.1961  1.8938
15983SOL     OW49389   6.196   7.418   5.928 -0.8720 -0.1774 -0.5827
15983SOL    HW149390   6.103   7.399   5.925 -1.2792  1.6089 -0.5821
15983SOL    HW249391   6.201   7.514   5.928  0.8909 -0.1907  1.4637
15984SOL     OW49392   0.643   4.824   5.252 -0.3584  0.0539 -0.5145
15984SOL    HW149393   0.681   4.739   5.231 -1.2153 -0.0519 -1.7497
15984SOL    HW249394   0.717   4.878   5.280  0.0798 -1.3487  1.2015
15985SOL     OW49395   1.994   0.888   7.094  0.0290  0.0182 -0.1296
15985SOL    HW149396   1.967   0.805   7.131 -1.4503  0.7730  0.5732
15985SOL    HW249397   1.921   0.914   7.037  0.4700  0.8288 -0.3404
15986SOL     OW49398   5.148   5.324  10.437  0.7623 -0.0514  0.2413
15986SOL    HW149399   5.100   5.391  10.485  0.1404 -0.5855  0.3802
15986SOL    HW249400   5.080   5.265  10.404  0.9570  1.2634 -2.8589
15987SOL     OW49401   2.316   2.268   6.223  0.2994 -0.4353  0.6553
15987SOL    HW149402   2.395   2.260   6.171 -0.5948  0.2772 -0.8966
15987SOL    HW249403   2.322   2.356   6.261  0.0236 -0.1662  0.0948
15988SOL     OW49404   3.782   0.867   9.645  0.5310 -0.2208 -0.0331
15988SOL    HW149405   3.758   0.922   9.719 -0.2065  0.8385 -1.0333
15988SOL    HW249406   3.862   0.822   9.674  0.7936  0.8790  1.0455
15989SOL     OW49407   5.799   7.643   7.152 -0.3096 -0.0890 -0.1401
15989SOL    HW149408   5.841   7.561   7.178  1.2181  0.4674 -0.7329
15989SOL    HW249409   5.709   7.619   7.132 -1.1591 -0.8912  3.8163
15990SOL     OW49410   5.239   7.823   7.914  0.5599 -0.1893 -0.5531
15990SOL    HW149411   5.225   7.739   7.871  2.1676  0.2914 -2.1309
15990SOL    HW249412   5.174   7.882   7.875 -2.3397 -1.1310  2.3520
15991SOL     OW49413   2.156   3.115   7.403  0.0072 -0.1122 -1.1445
15991SOL    HW149414   2.228   3.051   7.404  0.5661  0.5095 -1.3092
15991SOL    HW249415   2.198   3.198   7.423 -0.9765 -0.0370  0.7842
15992SOL     OW49416   0.375   2.403   7.098  0.5697 -0.1816 -0.2637
15992SOL    HW149417   0.379   2.496   7.119  1.0541 -0.2042 -0.2470
15992SOL    HW249418   0.309   2.368   7.159  0.0368  0.2277 -0.5921
15993SOL     OW49419   4.346   3.481   1.740 -0.4387 -0.2298  0.7780
15993SOL    HW149420   4.384   3.552   1.791  0.9373 -0.2083 -0.2054
15993SOL    HW249421   4.255   3.507   1.725 -0.6508  0.1189  2.5085
15994SOL     OW49422   1.163   1.765   6.524 -0.7019 -0.2461 -0.2066
15994SOL    HW149423   1.171   1.804   6.611 -0.7072 -0.9856  0.1297
15994SOL    HW249424   1.101   1.822   6.478 -1.1430 -0.1801  0.4558
15995SOL     OW49425   1.921   6.594  12.346  0.2789 -0.0100  0.4313
15995SOL    HW149426   1.912   6.603  12.251 -1.1248 -0.9280  0.4636
15995SOL    HW249427   1.974   6.515  12.358 -0.4331 -0.4970  0.4182
15996SOL     OW49428   1.159   0.463   8.253  0.0716 -0.4408  0.0008
15996SOL    HW149429   1.130   0.479   8.343 -1.1118 -1.4671 -0.1699
15996SOL    HW249430   1.148   0.548   8.209 -0.0037 -0.1065  0.6505
15997SOL     OW49431   4.320   3.310   9.108  0.0221  0.1256 -0.1071
15997SOL    HW149432   4.311   3.342   9.018 -0.9058  0.3448  0.0487
15997SOL    HW249433   4.296   3.217   9.103  0.6949 -0.0410 -0.2123
15998SOL     OW49434   3.940   5.471  10.083  0.0068  0.6280 -0.1152
15998SOL    HW149435   3.848   5.446  10.090 -0.4688  1.9808 -1.0226
15998SOL    HW249436   3.989   5.393  10.109 -1.3799  0.4621  2.2113
15999SOL     OW49437   3.334   5.528   1.557 -0.0320 -0.5133  0.2864
15999SOL    HW149438   3.274   5.598   1.529  1.8519  0.8518 -0.5907
15999SOL    HW249439   3.360   5.485   1.475  1.4412  0.0238  0.4455
16000SOL     OW49440   0.535   6.798   3.213  0.4064  0.2012 -0.6939
16000SOL    HW149441   0.556   6.724   3.269 -0.6188 -0.3718 -1.0344
16000SOL    HW249442   0.591   6.788   3.136  0.3074 -0.1986 -0.7139
16001SOL     OW49443   1.490   1.238   2.049  0.0509  0.0270  1.0338
16001SOL    HW149444   1.565   1.189   2.015  0.7518  0.0617  2.4321
16001SOL    HW249445   1.416   1.179   2.040  0.1687  0.1033 -0.6489
16002SOL     OW49446   6.514   0.562   6.020 -0.0389  1.0974 -0.0895
16002SOL    HW149447   6.600   0.584   5.985  0.2155  0.5610  0.1756
16002SOL    HW249448   6.453   0.617   5.972  0.2736  0.1986 -1.5571
16003SOL     OW49449   4.428   4.512   1.063  0.1878 -0.3099 -0.2892
16003SOL    HW149450   4.339   4.487   1.038  0.6040 -0.3519 -1.7905
16003SOL    HW249451   4.462   4.435   1.109 -1.5030  0.7190  3.0271
16004SOL     OW49452   2.712   4.691   9.470 -0.3757  0.2602 -0.7920
16004SOL    HW149453   2.751   4.609   9.440 -1.2970  0.0903 -1.5886
16004SOL    HW249454   2.681   4.734   9.390 -2.6487 -0.0647 -0.1560
16005SOL     OW49455   4.618   6.403   8.384  0.0135 -0.5668  0.2155
16005SOL    HW149456   4.587   6.427   8.471  0.5345  0.5686  0.1002
16005SOL    HW249457   4.709   6.377   8.396 -0.0250 -0.7760  0.0674
16006SOL     OW49458   7.537   1.778   4.945  0.0631  0.4987  0.6450
16006SOL    HW149459   7.604   1.806   5.007  0.2393 -1.9685  1.6718
16006SOL    HW249460   7.471   1.848   4.948  1.0379  1.4085  2.0614
16007SOL     OW49461   1.403   6.224   6.497 -0.2406  0.2402  0.6926
16007SOL    HW149462   1.451   6.306   6.484  0.9378 -0.4481  0.6006
16007SOL    HW249463   1.333   6.227   6.432  0.3934  0.7250  0.0204
16008SOL     OW49464   1.572   4.441  11.347  0.0426 -0.3883  0.3299
16008SOL    HW149465   1.555   4.385  11.271  2.0274 -1.6969  0.7981
16008SOL    HW249466   1.527   4.399  11.419  0.5816 -0.7650  0.4505
16009SOL     OW49467   5.725   5.154   8.122  0.0941 -0.0448  0.2594
16009SOL    HW149468   5.810   5.156   8.078 -0.3063 -1.6043 -0.6844
16009SOL    HW249469   5.662   5.142   8.051 -0.7489 -0.6976  1.0921
16010SOL     OW49470   3.401   6.432  12.014 -0.2203  0.0694 -0.3414
16010SOL    HW149471   3.318   6.391  11.989  0.2267 -0.3090 -1.2237
16010SOL    HW249472   3.378   6.525  12.027 -0.8531 -0.1017 -0.1915
16011SOL     OW49473   3.188   6.235   1.217  0.2417  0.1209  0.3391
16011SOL    HW149474   3.092   6.237   1.216  0.1286  1.9042  3.2381
16011SOL    HW249475   3.213   6.264   1.129 -1.9295  2.4047  0.3534
16012SOL     OW49476   7.908   0.807   8.320 -0.0450 -0.1313  0.1133
16012SOL    HW149477   7.961   0.728   8.307  0.1805 -0.0158  0.3153
16012SOL    HW249478   7.941   0.845   8.401 -0.0403  0.2597 -0.0670
16013SOL     OW49479   7.402   1.720  11.269  0.5097 -0.5022 -0.2623
16013SOL    HW149480   7.445   1.668  11.202 -0.9520 -2.9163  0.5585
16013SOL    HW249481   7.474   1.764  11.315  1.5564  1.3119 -3.3343
16014SOL     OW49482   6.630   0.547   6.427 -0.2828 -0.2833 -0.1547
16014SOL    HW149483   6.662   0.487   6.495 -1.3275 -1.3039 -0.5200
16014SOL    HW249484   6.708   0.568   6.375  0.0814 -1.5157 -0.1449
16015SOL     OW49485   3.418   6.690   7.211 -0.2781 -0.5620  0.3114
16015SOL    HW149486   3.484   6.676   7.279 -0.8258 -1.0708  0.7410
16015SOL    HW249487   3.463   6.667   7.130  0.7943  1.3047  0.3300
16016SOL     OW49488   3.076   7.713   1.310 -1.1947 -0.1940 -0.2870
16016SOL    HW149489   3.122   7.629   1.318 -0.3961  0.3450  0.9993
16016SOL    HW249490   3.071   7.728   1.215  0.2870 -0.8153 -0.4860
16017SOL     OW49491   6.758   7.075  11.867 -0.0087  1.1219 -0.0900
16017SOL    HW149492   6.682   7.017  11.870  0.7161  0.0958 -0.6568
16017SOL    HW249493   6.725   7.157  11.831 -0.8981  0.7739 -0.0749
16018SOL     OW49494   4.103   5.634   7.903  0.1468  0.1205  0.0372
16018SOL    HW149495   4.109   5.593   7.989  0.3044  0.3496  0.1356
16018SOL    HW249496   4.160   5.582   7.847  0.1640  0.0639  0.1070
16019SOL     OW49497   1.687   4.369  11.629 -0.3257 -1.1218 -0.0251
16019SOL    HW149498   1.593   4.367  11.646 -0.4280  0.5159 -0.2091
16019SOL    HW249499   1.703   4.455  11.590  1.5939 -0.3116  2.2593
16020SOL     OW49500   7.558   6.776   0.408 -0.8941  0.2894 -0.2024
16020SOL    HW149501   7.600   6.857   0.381  0.4962 -0.4270 -0.3162
16020SOL    HW249502   7.630   6.712   0.408 -2.0009 -0.9886 -0.3914
16021SOL     OW49503   6.084   5.513   4.318  0.1796 -0.3165 -0.6612
16021SOL    HW149504   6.103   5.522   4.224  1.5608  1.6003 -0.2589
16021SOL    HW249505   6.162   5.548   4.361 -0.3392 -1.3919  1.2208
16022SOL     OW49506   2.916   2.697   4.531 -0.3885  0.2499 -0.6893
16022SOL    HW149507   2.846   2.688   4.596 -0.5573  2.7339 -0.4444
16022SOL    HW249508   2.870   2.688   4.447 -0.6699 -0.0241 -0.5113
16023SOL     OW49509   0.970   1.820   1.810 -0.4693  0.6045 -0.1846
16023SOL    HW149510   0.953   1.914   1.807  0.6430  0.8132 -1.5841
16023SOL    HW249511   1.027   1.804   1.734 -1.3542 -1.3452 -0.5089
16024SOL     OW49512   6.319   3.053   5.198 -0.3551  0.3855  0.0971
16024SOL    HW149513   6.297   2.964   5.171  0.2819 -0.3060  1.7434
16024SOL    HW249514   6.405   3.069   5.161  1.2346 -1.1539  2.7926
16025SOL     OW49515   2.614   3.042   4.717 -0.5796  0.0665  0.2543
16025SOL    HW149516   2.680   3.057   4.786 -1.3295  0.3461  0.9210
16025SOL    HW249517   2.611   3.125   4.669 -2.4843  1.0922  2.0102
16026SOL     OW49518   2.437   5.009  12.023  0.4880 -0.2805 -0.1754
16026SOL    HW149519   2.375   4.967  11.963 -1.1360 -0.6883  1.6886
16026SOL    HW249520   2.408   5.100  12.027  0.1709 -0.4039  0.4730
16027SOL     OW49521   6.650   3.002  11.924  0.3697  0.4495 -0.1333
16027SOL    HW149522   6.681   2.914  11.903 -2.2090 -0.3650 -0.8617
16027SOL    HW249523   6.645   3.047  11.840 -2.0354 -0.0732 -0.3491
16028SOL     OW49524   4.369   7.593   7.883  0.4852  0.0025 -0.3678
16028SOL    HW149525   4.452   7.587   7.931 -0.2798 -0.1573  0.9905
16028SOL    HW249526   4.316   7.652   7.937  0.3515  1.6183 -2.1914
16029SOL     OW49527   2.954   3.710  11.224 -0.3930 -0.2281  0.0434
16029SOL    HW149528   2.986   3.621  11.236 -1.4521 -0.4582  1.2897
16029SOL    HW249529   2.860   3.700  11.206 -0.7023  0.6708  1.0672
16030SOL     OW49530   3.837   6.658   3.621 -0.2972  0.6300 -0.2216
16030SOL    HW149531   3.926   6.633   3.646 -0.9082  0.2516  1.6793
16030SOL    HW249532   3.801   6.580   3.578  0.9515  1.4758 -3.0362
16031SOL     OW49533   4.053   4.369  11.244  0.2545  0.4841  0.1816
16031SOL    HW149534   4.135   4.378  11.195 -0.9127 -2.0739 -2.5549
16031SOL    HW249535   4.067   4.295  11.302  0.5660  1.4799  1.4163
16032SOL     OW49536   7.372   1.823   7.506  0.0264  0.2209  0.5851
16032SOL    HW149537   7.332   1.766   7.571  0.3911  0.3062  0.8857
16032SOL    HW249538   7.370   1.910   7.545 -0.0552  0.3290  0.3438
16033SOL     OW49539   2.985   0.608   7.245  0.1679 -0.3486 -0.2305
16033SOL    HW149540   3.047   0.544   7.281 -1.3290 -2.2316 -0.7974
16033SOL    HW249541   2.900   0.563   7.248 -1.0324  1.7632 -0.3736
16034SOL     OW49542   5.208   6.953  10.886  0.2871  0.4463  0.4367
16034SOL    HW149543   5.258   6.994  10.815 -0.2520  0.5595  0.1207
16034SOL    HW249544   5.193   7.024  10.948  0.8708  0.3182  0.7355
16035SOL     OW49545   2.907   0.514   2.279 -0.2629  0.6310  0.0677
16035SOL    HW149546   2.932   0.512   2.371 -0.4349  2.0115  0.1632
16035SOL    HW249547   2.824   0.467   2.275 -0.5222  1.0327  0.7013
16036SOL     OW49548   2.290   4.563   1.984 -0.1783 -0.3763 -0.3483
16036SOL    HW149549   2.284   4.514   1.902  1.0834  0.5025 -1.0003
16036SOL    HW249550   2.377   4.602   1.982 -0.1142 -0.3558  1.4341
16037SOL     OW49551   5.209   7.132   1.973 -0.0425  0.3464 -0.3426
16037SOL    HW149552   5.272   7.202   1.990 -0.5348  0.4521  1.2891
16037SOL    HW249553   5.242   7.088   1.895  1.0662  1.5004 -0.5634
16038SOL     OW49554   6.492   4.572   1.765 -0.2422 -0.0331  0.4892
16038SOL    HW149555   6.522   4.483   1.782  0.0966  0.0976  0.6019
16038SOL    HW249556   6.403   4.575   1.799 -0.7715 -0.7345 -0.7919
16039SOL     OW49557   7.656   2.042   9.272  0.2040 -0.2656  0.2554
16039SOL    HW149558   7.736   2.051   9.324  0.3441 -0.3506  0.0555
16039SOL    HW249559   7.615   1.962   9.305  0.5920 -0.6453 -0.1634
16040SOL     OW49560   2.561   4.592   0.314 -0.2839  0.0113  0.7563
16040SOL    HW149561   2.640   4.599   0.369 -0.6701  2.0273  1.1239
16040SOL    HW249562   2.508   4.525   0.357 -0.2546  1.0448  2.4865
16041SOL     OW49563   2.121   2.013   9.788 -0.0067 -0.2830  0.3203
16041SOL    HW149564   2.165   2.050   9.865  0.3684 -1.1198  0.5132
16041SOL    HW249565   2.097   1.924   9.813 -0.5463 -0.3214 -0.2828
16042SOL     OW49566   5.998   7.425   1.232 -0.3047  0.5014  0.1305
16042SOL    HW149567   5.929   7.423   1.297 -1.2501 -0.5327 -0.8592
16042SOL    HW249568   6.057   7.353   1.255 -0.2994  0.5275  0.1954
16043SOL     OW49569   0.211   6.328   0.249 -0.0903  1.0312 -0.1488
16043SOL    HW149570   0.282   6.371   0.296  0.0971  1.5090 -0.8542
16043SOL    HW249571   0.166   6.276   0.316  0.9784  0.6373  0.2905
16044SOL     OW49572   0.136   2.857  10.612 -0.6556 -0.1424  0.0411
16044SOL    HW149573   0.209   2.824  10.559 -0.8249 -1.1063  0.3807
16044SOL    HW249574   0.081   2.905  10.551  0.5387  1.0941 -0.1145
16045SOL     OW49575   6.700   5.255   1.777  0.1104 -0.2871 -0.1262
16045SOL    HW149576   6.605   5.254   1.782  0.1942 -0.0400  2.4887
16045SOL    HW249577   6.724   5.165   1.755 -0.6937 -0.4691 -0.2681
16046SOL     OW49578   0.420   5.698   3.793  0.3007  0.3375 -0.0609
16046SOL    HW149579   0.428   5.629   3.727  0.4115  0.4955 -0.2124
16046SOL    HW249580   0.419   5.780   3.743  1.7809  0.5437  0.2074
16047SOL     OW49581   3.668   2.134  11.292  0.2674  0.4396  0.4699
16047SOL    HW149582   3.678   2.212  11.238  1.5122  0.1523  0.2626
16047SOL    HW249583   3.573   2.121  11.298  0.0832  0.3311 -1.8685
16048SOL     OW49584   1.425   3.404   4.119 -0.6560 -0.3575  0.4684
16048SOL    HW149585   1.386   3.345   4.053  1.5750 -1.6666  0.2166
16048SOL    HW249586   1.359   3.473   4.131 -1.1735  0.0180 -3.1992
16049SOL     OW49587   3.239   2.517   6.542  0.1994 -0.7498  0.2647
16049SOL    HW149588   3.149   2.494   6.562  0.2118 -2.2747 -1.2126
16049SOL    HW249589   3.292   2.456   6.592  0.4312 -0.1066  0.8286
16050SOL     OW49590   3.445   7.810   2.930  0.5948 -0.6687 -0.7490
16050SOL    HW149591   3.477   7.724   2.902  0.4171 -0.0412 -3.0983
16050SOL    HW249592   3.508   7.872   2.895 -0.9312  0.3200 -1.8986
16051SOL     OW49593   0.400   3.242   0.348  0.1882 -0.5610 -0.2026
16051SOL    HW149594   0.409   3.251   0.253  1.2868 -0.4312 -0.1001
16051SOL    HW249595   0.353   3.160   0.360 -0.8122 -0.1025 -0.8790
16052SOL     OW49596   2.864   0.210   6.010 -0.7489 -0.2179 -0.4647
16052SOL    HW149597   2.787   0.255   6.046 -0.3695  0.3735 -0.3831
16052SOL    HW249598   2.865   0.236   5.918 -1.6254 -1.6007 -0.9003
16053SOL     OW49599   1.999   4.827   1.595  0.2109 -0.2090  0.0604
16053SOL    HW149600   2.011   4.732   1.591 -2.5294 -0.6362 -0.2461
16053SOL    HW249601   1.930   4.844   1.530 -0.2180  1.8022  0.9892
16054SOL     OW49602   0.268   5.454   2.809  0.1374 -0.4056 -0.6183
16054SOL    HW149603   0.208   5.481   2.878 -0.2877 -1.7344 -0.4401
16054SOL    HW249604   0.229   5.375   2.772  1.3039 -0.7728 -1.1215
16055SOL     OW49605   3.570   5.174   9.959 -0.9367 -0.4221  0.0602
16055SOL    HW149606   3.514   5.185  10.036 -0.5099 -0.5726  0.3925
16055SOL    HW249607   3.655   5.147   9.994 -0.2778  1.0084 -0.3318
16056SOL     OW49608   3.534   6.026   9.391  0.1753  0.6651 -0.4628
16056SOL    HW149609   3.551   5.972   9.469 -3.1701 -1.1093 -0.8173
16056SOL    HW249610   3.525   6.114   9.426 -1.7827 -0.1552  1.3664
16057SOL     OW49611   1.282   7.018   6.960  0.1822 -0.0911 -0.3144
16057SOL    HW149612   1.239   6.935   6.981  0.5616  0.2728  2.2509
16057SOL    HW249613   1.246   7.043   6.875 -2.0779 -1.5059  0.1379
16058SOL     OW49614   1.487   3.311   8.679 -0.1030 -0.0705  0.3346
16058SOL    HW149615   1.485   3.227   8.725 -1.1576 -0.3300 -0.1424
16058SOL    HW249616   1.454   3.374   8.744  2.8408  0.4379  1.4719
16059SOL     OW49617   6.273   2.041   0.939 -0.0726 -0.0700  0.3615
16059SOL    HW149618   6.318   2.111   0.893  2.0724  0.8432  3.5107
16059SOL    HW249619   6.183   2.044   0.906  0.6806  2.1491 -1.7558
16060SOL     OW49620   5.021   4.134  11.822  0.2217  0.4450 -0.1115
16060SOL    HW149621   5.013   4.060  11.761  0.4964 -0.1044  0.5052
16060SOL    HW249622   4.932   4.149  11.854  0.2556 -0.0253  0.2197
16061SOL     OW49623   3.957   0.089   6.566  0.0386 -0.2547 -0.1650
16061SOL    HW149624   3.986   0.003   6.534 -0.5369 -0.0877 -1.1875
16061SOL    HW249625   4.002   0.152   6.509 -0.7163  0.0655 -0.4173
16062SOL     OW49626   3.258   1.136   3.001 -0.0526 -0.1467  0.4062
16062SOL    HW149627   3.343   1.138   3.045  0.1362 -0.4868  0.0716
16062SOL    HW249628   3.274   1.082   2.923 -0.1615  1.1060 -0.5112
16063SOL     OW49629   0.565   7.973   2.656 -0.2259  0.6322  0.4987
16063SOL    HW149630   0.508   7.917   2.709 -1.6222  0.6478 -0.9017
16063SOL    HW249631   0.614   8.024   2.720 -0.9646 -0.1964  1.7821
16064SOL     OW49632   1.981   6.861  10.009  0.5822  0.9036 -0.5791
16064SOL    HW149633   2.054   6.822  10.057 -0.5209 -0.9295 -0.2974
16064SOL    HW249634   1.977   6.951  10.042  2.4449  0.9475 -0.3294
16065SOL     OW49635   6.404   2.286   0.725 -0.5290  0.7262 -0.1603
16065SOL    HW149636   6.482   2.337   0.747 -0.0427 -0.0730  0.0192
16065SOL    HW249637   6.438   2.198   0.708 -1.4448  0.2684  0.3497
16066SOL     OW49638   2.847   5.628   3.860  0.0461 -0.1392  0.0440
16066SOL    HW149639   2.837   5.542   3.900  1.6155 -0.4515 -0.1810
16066SOL    HW249640   2.941   5.641   3.854 -0.1579  0.8910 -1.4279
16067SOL     OW49641   3.766   6.836   4.813 -0.0104 -0.2288 -0.4727
16067SOL    HW149642   3.732   6.831   4.902  2.1406  1.7948  0.5495
16067SOL    HW249643   3.818   6.756   4.803  0.2400 -0.1684  0.3021
16068SOL     OW49644   3.134   3.114  10.719 -0.2231 -0.2408  0.8809
16068SOL    HW149645   3.134   3.018  10.717  2.9386 -0.3628 -0.4079
16068SOL    HW249646   3.163   3.136  10.807 -0.2588 -0.5122  0.9621
16069SOL     OW49647   2.859   1.969   7.138  0.7990 -0.1657 -0.9107
16069SOL    HW149648   2.814   2.027   7.199 -0.3962  0.0766 -1.9771
16069SOL    HW249649   2.905   2.027   7.078 -0.4396 -0.2733 -2.0123
16070SOL     OW49650   2.299   4.245  11.852  0.2089  0.0604  0.4970
16070SOL    HW149651   2.329   4.334  11.832 -1.4940  0.6362  0.2943
16070SOL    HW249652   2.335   4.191  11.782  1.0422  0.6423  0.4639
16071SOL     OW49653   5.634   6.454   4.546 -0.2114  0.2102  0.5853
16071SOL    HW149654   5.574   6.511   4.498 -0.7783 -0.8404  0.0084
16071SOL    HW249655   5.672   6.510   4.613 -0.9911  1.1791  0.2408
16072SOL     OW49656   3.909   1.760   3.581 -0.0422  0.2527 -1.0012
16072SOL    HW149657   3.964   1.742   3.505  0.2326 -0.0139 -0.7471
16072SOL    HW249658   3.906   1.676   3.628  1.6918  0.9320  0.4903
16073SOL     OW49659   7.552   7.779   1.349  0.4603 -0.7365  0.2544
16073SOL    HW149660   7.474   7.825   1.318  1.3011  0.1720 -0.5825
16073SOL    HW249661   7.625   7.830   1.314  1.4902  0.0099  3.2302
16074SOL     OW49662   3.590   3.327   0.512 -0.7185  0.0101 -0.2741
16074SOL    HW149663   3.580   3.320   0.607 -0.0663 -1.8389 -0.2872
16074SOL    HW249664   3.666   3.383   0.499  0.2253 -1.0836  0.3679
16075SOL     OW49665   6.905   5.322   0.379 -0.2216 -0.1577 -0.0364
16075SOL    HW149666   6.856   5.382   0.323 -0.4016 -1.0260 -0.8419
16075SOL    HW249667   6.917   5.370   0.461  0.0849  1.1781 -0.8229
16076SOL     OW49668   4.720   0.256   3.556  0.0240  0.2915 -0.2205
16076SOL    HW149669   4.710   0.163   3.580 -1.2984  0.6708  0.8737
16076SOL    HW249670   4.788   0.256   3.489  0.1125 -1.4640 -0.1991
16077SOL     OW49671   7.299   6.686   7.428 -0.3011 -0.2163 -0.1739
16077SOL    HW149672   7.268   6.669   7.517  0.0872 -0.4244 -0.0759
16077SOL    HW249673   7.393   6.666   7.431 -0.1573  0.3928 -0.4689
16078SOL     OW49674   2.252   5.903   7.406 -0.0240 -0.1440  0.1160
16078SOL    HW149675   2.158   5.917   7.407 -0.1972 -1.2624  0.4112
16078SOL    HW249676   2.286   5.971   7.347 -1.1177 -0.4402 -0.8764
16079SOL     OW49677   3.287   1.070   2.407 -0.0700  0.1415 -0.1022
16079SOL    HW149678   3.257   1.132   2.474 -1.4157 -1.3562  0.7497
16079SOL    HW249679   3.376   1.048   2.433  0.3949  1.6054 -0.3612
16080SOL     OW49680   0.983   5.782   5.012  0.4203 -0.2523 -0.3940
16080SOL    HW149681   0.969   5.706   4.955  1.4808 -0.1624 -0.8049
16080SOL    HW249682   0.971   5.858   4.954 -0.5574 -0.0965 -0.0042
16081SOL     OW49683   7.669   5.823   9.018  0.1685  0.0425 -0.0292
16081SOL    HW149684   7.632   5.883   8.954 -0.6915  0.1110  0.5200
16081SOL    HW249685   7.702   5.750   8.967  0.5824  0.6499 -0.6461
16082SOL     OW49686   5.438   3.189  11.818  0.0838  0.0783  0.2285
16082SOL    HW149687   5.371   3.128  11.849 -0.2137  0.3223  0.0650
16082SOL    HW249688   5.459   3.244  11.893 -0.8042  0.8239 -0.0533
16083SOL     OW49689   3.675   7.204   1.684  0.3555  0.3744  0.2047
16083SOL    HW149690   3.636   7.254   1.612 -0.3833 -1.3582 -0.6398
16083SOL    HW249691   3.768   7.200   1.664  0.4221  1.3346  0.2620
16084SOL     OW49692   4.716   0.015   8.014  0.0315 -0.2485 -0.2070
16084SOL    HW149693   4.760   0.087   7.968  0.5570 -0.2829  0.2344
16084SOL    HW249694   4.779  -0.013   8.080 -0.8808  0.0960  0.8426
16085SOL     OW49695   2.466   4.311  11.519 -0.4368 -0.2745 -0.4688
16085SOL    HW149696   2.557   4.284  11.528 -0.4318 -0.0707  0.0735
16085SOL    HW249697   2.470   4.404  11.495 -0.5274  0.2683  1.4699
16086SOL     OW49698   4.337   4.404   9.339 -0.1290  0.3507  0.1441
16086SOL    HW149699   4.342   4.398   9.243  1.4641  1.6798  0.0936
16086SOL    HW249700   4.250   4.372   9.360 -0.1220 -1.0603 -1.6452
16087SOL     OW49701   3.041   6.677   7.527  0.0849 -0.6906 -0.1605
16087SOL    HW149702   3.099   6.663   7.603 -1.3043 -2.6436  0.6030
16087SOL    HW249703   3.093   6.731   7.468  1.0800  1.3241  2.3356
16088SOL     OW49704   5.464   2.043   9.318 -0.0147 -0.8593  0.2327
16088SOL    HW149705   5.383   2.049   9.367  0.0167  0.2031  0.1615
16088SOL    HW249706   5.532   2.026   9.384  0.2196  1.7864  0.7742
16089SOL     OW49707   1.375   2.442   8.265 -0.5983  0.0694  0.4248
16089SOL    HW149708   1.447   2.480   8.215 -0.3405  1.8970  2.0452
16089SOL    HW249709   1.307   2.425   8.200  0.3873  0.6479 -0.7987
16090SOL     OW49710   6.428   5.978   9.762  0.3591  0.2304 -0.1731
16090SOL    HW149711   6.481   5.907   9.799  0.6915 -0.5190 -1.9589
16090SOL    HW249712   6.428   5.960   9.668 -0.5101  1.9777 -0.5377
16091SOL     OW49713   5.854   2.041   8.065  0.1225 -0.4914  0.1211
16091SOL    HW149714   5.862   1.961   8.011 -1.0750 -0.5206 -0.0374
16091SOL    HW249715   5.770   2.078   8.039 -1.1580 -1.2025  2.8963
16092SOL     OW49716   6.397   5.120   5.940 -0.2688 -0.2846  0.0744
16092SOL    HW149717   6.388   5.108   5.846 -0.2456 -0.8460  0.1408
16092SOL    HW249718   6.450   5.045   5.969  0.4470  0.3358  0.4092
16093SOL     OW49719   1.696   7.955   0.692  0.2929  0.2525 -0.1034
16093SOL    HW149720   1.753   7.922   0.623  0.0854 -1.5727  0.5161
16093SOL    HW249721   1.642   7.879   0.716 -2.0376  1.7374 -0.2887
16094SOL     OW49722   0.901   7.882  12.284  0.3913  0.3833 -0.1153
16094SOL    HW149723   0.813   7.877  12.246  0.4757  1.4589 -0.4643
16094SOL    HW249724   0.892   7.944  12.356  0.2184 -1.6449  1.7270
16095SOL     OW49725   7.071   1.265  11.765  0.2175 -0.1666 -0.0962
16095SOL    HW149726   7.146   1.325  11.759  0.3532 -0.2426  0.6729
16095SOL    HW249727   7.094   1.192  11.708  0.4334  0.1184 -0.3774
16096SOL     OW49728   3.065   3.270   0.289  0.5487 -0.0306  0.3002
16096SOL    HW149729   3.043   3.180   0.312 -1.7991  0.0913 -1.1656
16096SOL    HW249730   3.130   3.296   0.354  0.8320 -2.5532  1.1365
16097SOL     OW49731   0.992   0.934   6.634 -0.1071  0.0849  0.3591
16097SOL    HW149732   1.067   0.993   6.640  0.0297 -0.1826  1.7981
16097SOL    HW249733   0.917   0.989   6.654 -0.3132  0.3435 -1.0415
16098SOL     OW49734   1.796   7.448   1.219 -0.3865  0.4376  0.0521
16098SOL    HW149735   1.885   7.447   1.185 -0.9938  1.1493 -1.6811
16098SOL    HW249736   1.804   7.485   1.307  1.1686 -0.8272  0.4888
16099SOL     OW49737   5.271   7.345   6.466 -0.2442 -0.3500  0.1868
16099SOL    HW149738   5.294   7.256   6.496 -0.7395 -0.2875  0.7671
16099SOL    HW249739   5.301   7.402   6.537  2.2856  0.2160 -1.1920
16100SOL     OW49740   1.847   4.098   7.233 -0.4053  0.1148 -0.5120
16100SOL    HW149741   1.752   4.110   7.231 -0.9763 -2.1627  3.2152
16100SOL    HW249742   1.861   4.011   7.194 -0.1428 -0.4406  0.7834
16101SOL     OW49743   4.997   7.226  11.484  0.0216  0.0860 -0.1134
16101SOL    HW149744   5.080   7.272  11.494  0.4555 -0.6492 -0.2302
16101SOL    HW249745   4.932   7.295  11.471  0.3023  0.8018  1.8644
16102SOL     OW49746   5.366   3.581   7.410  0.2958 -0.1094 -0.1990
16102SOL    HW149747   5.397   3.635   7.483  1.2290  0.9521 -1.3289
16102SOL    HW249748   5.281   3.549   7.439  1.3497 -1.1124  2.0233
16103SOL     OW49749   1.528   3.434   7.845  0.1327  0.3179 -0.5975
16103SOL    HW149750   1.503   3.368   7.909  0.0834  1.3059  0.4422
16103SOL    HW249751   1.564   3.506   7.898 -0.8925  1.6086 -1.5878
16104SOL     OW49752   6.767   3.650  12.052 -0.6686  0.4849  0.1511
16104SOL    HW149753   6.708   3.577  12.072  0.6554 -0.4230  0.8860
16104SOL    HW249754   6.837   3.610  12.000 -1.0140  1.6870 -1.3228
16105SOL     OW49755   5.414   0.397   0.893 -0.0398 -0.1631  0.3090
16105SOL    HW149756   5.455   0.389   0.979  0.1315 -0.4884  0.1963
16105SOL    HW249757   5.396   0.491   0.884  2.3377  0.3105 -0.3925
16106SOL     OW49758   3.712   3.030   5.898 -0.0557 -0.0548  0.0721
16106SOL    HW149759   3.751   3.035   5.986 -0.7263  1.0701  0.3230
16106SOL    HW249760   3.638   3.090   5.901 -0.2900 -0.2569 -1.1761
16107SOL     OW49761   3.276   7.198   1.439  0.1121  0.0764  0.4502
16107SOL    HW149762   3.365   7.166   1.445 -0.1315 -0.4258  1.7745
16107SOL    HW249763   3.260   7.241   1.523 -0.4151  1.4583 -0.3189
16108SOL     OW49764   1.034   7.973   1.796 -0.3364  0.0539 -0.7160
16108SOL    HW149765   0.981   7.925   1.733 -1.6470  0.8218 -0.2560
16108SOL    HW249766   1.051   8.058   1.755  0.3651 -0.1088 -0.7716
16109SOL     OW49767   6.887   3.582   6.739  0.2639 -0.1491  0.3555
16109SOL    HW149768   6.867   3.663   6.788  0.5312 -0.7548  1.4975
16109SOL    HW249769   6.858   3.512   6.797  3.3046 -0.9967  0.9983
16110SOL     OW49770   0.336   4.673   3.300  0.3116  0.2187 -0.1856
16110SOL    HW149771   0.267   4.739   3.304  0.7884  0.6956  0.8046
16110SOL    HW249772   0.370   4.669   3.389  0.0396 -1.6752 -0.1184
16111SOL     OW49773   7.522   6.321   9.607 -0.3891  0.2605 -0.1203
16111SOL    HW149774   7.605   6.307   9.561 -0.8713  2.1167 -1.7269
16111SOL    HW249775   7.524   6.260   9.680  2.6863  0.6615  0.2816
16112SOL     OW49776   3.663   1.120   0.732  0.1353  0.0868  0.0474
16112SOL    HW149777   3.604   1.052   0.766 -0.0508 -0.6790 -1.6913
16112SOL    HW249778   3.637   1.199   0.778 -0.9085 -0.6409  0.7704
16113SOL     OW49779   6.929   0.798   9.513 -0.0623  0.0960 -0.3431
16113SOL    HW149780   6.861   0.787   9.578  1.4784 -1.7119  1.0862
16113SOL    HW249781   6.940   0.711   9.475  0.2243  0.7584 -1.8537
16114SOL     OW49782   6.492   4.603  10.260  0.2386  0.8415 -0.0210
16114SOL    HW149783   6.529   4.682  10.219  0.7399  0.9828  0.6996
16114SOL    HW249784   6.493   4.538  10.190  0.1672  1.3646 -0.5176
16115SOL     OW49785   4.674   4.321   7.341  0.4478  0.4731  0.2639
16115SOL    HW149786   4.659   4.236   7.301  0.0193  0.8722 -0.4396
16115SOL    HW249787   4.728   4.302   7.418  1.0868 -0.3366 -0.3626
16116SOL     OW49788   6.875   7.185   7.518 -0.3642 -0.0245  0.2103
16116SOL    HW149789   6.882   7.112   7.579 -1.9970  0.0574  0.5562
16116SOL    HW249790   6.858   7.262   7.573 -1.2354  0.1562 -0.2793
16117SOL     OW49791   0.327   5.611  12.047  0.3177  0.2558 -0.1121
16117SOL    HW149792   0.259   5.603  12.114  0.9514  0.3055  0.5467
16117SOL    HW249793   0.298   5.685  11.993 -0.6651 -0.3645 -0.4541
16118SOL     OW49794   5.896   3.046   4.109  0.0503  0.5004 -1.1478
16118SOL    HW149795   5.913   3.118   4.171  2.8608  0.0674 -1.2990
16118SOL    HW249796   5.945   3.070   4.031  1.0304 -1.5273 -1.2208
16119SOL     OW49797   0.718   0.137   9.967  0.1299  0.4318 -0.0744
16119SOL    HW149798   0.648   0.176  10.020  1.3883  1.5313  0.8256
16119SOL    HW249799   0.755   0.210   9.918 -0.2407 -0.3798 -1.6588
16120SOL     OW49800   2.465   0.810   9.448 -0.1882  0.1999  0.3610
16120SOL    HW149801   2.544   0.841   9.493 -0.3356  0.2337  0.6014
16120SOL    HW249802   2.417   0.762   9.515 -0.4202  0.2655  0.2432
16121SOL     OW49803   2.761   6.042   7.844 -0.1905 -0.1052 -0.1844
16121SOL    HW149804   2.798   6.119   7.885  0.7938  0.3335 -1.7847
16121SOL    HW249805   2.816   5.969   7.873  0.3261  0.1608 -0.4730
16122SOL     OW49806   3.804   0.981   9.413 -0.0425 -0.5731  0.1532
16122SOL    HW149807   3.899   0.989   9.419  0.0644 -1.0853 -0.6431
16122SOL    HW249808   3.780   0.925   9.487  0.0662  0.8268  1.2966
16123SOL     OW49809   1.562   7.587  10.953 -0.0658  0.3778 -0.1924
16123SOL    HW149810   1.553   7.524  10.882 -1.8253  2.1929 -1.7096
16123SOL    HW249811   1.649   7.625  10.941  0.1875 -0.3027 -0.5268
16124SOL     OW49812   0.608   1.441   2.794 -0.4577 -0.2662  0.1290
16124SOL    HW149813   0.515   1.420   2.780 -1.2500  0.4063  3.5375
16124SOL    HW249814   0.609   1.534   2.815  0.9139 -0.3960  0.7407
16125SOL     OW49815   5.075   6.832  10.675 -0.4719  0.1323  0.2025
16125SOL    HW149816   5.135   6.885  10.728  0.2729  0.7267 -1.2003
16125SOL    HW249817   5.014   6.794  10.739 -0.9870  2.6129  1.3081
16126SOL     OW49818   2.974   2.055   9.971 -0.6679  0.2483  0.1324
16126SOL    HW149819   2.965   2.107  10.051 -0.2790 -0.3651  0.5814
16126SOL    HW249820   3.032   2.107   9.915  2.7716 -1.2666  1.9975
16127SOL     OW49821   6.724   2.424  11.113  0.1958  0.1872 -0.1476
16127SOL    HW149822   6.653   2.391  11.059  0.0949  1.9362 -1.1643
16127SOL    HW249823   6.790   2.354  11.112 -0.5404 -0.5054 -1.0971
16128SOL     OW49824   0.677   3.029   0.198  0.2635  0.1229  0.8012
16128SOL    HW149825   0.758   3.053   0.243  1.0773 -0.1590 -0.4681
16128SOL    HW249826   0.672   2.933   0.208  0.0487  0.1467  0.9308
16129SOL     OW49827   7.401   6.145   1.200  0.6405  0.2577  0.0072
16129SOL    HW149828   7.472   6.137   1.265  0.1632  0.0200  0.5121
16129SOL    HW249829   7.326   6.104   1.243  0.2777  0.2341 -0.6483
16130SOL     OW49830   2.814   7.707   0.222 -0.0861 -0.2045 -0.2876
16130SOL    HW149831   2.903   7.691   0.254  0.4758 -0.6555 -1.9770
16130SOL    HW249832   2.798   7.636   0.160 -0.2310  1.8307 -2.7154
16131SOL     OW49833   4.685   4.347  12.067 -0.4171  0.0563 -0.1640
16131SOL    HW149834   4.611   4.330  12.126  0.1046  1.0056  0.7897
16131SOL    HW249835   4.761   4.355  12.125  0.7585 -2.3480 -1.2204
16132SOL     OW49836   2.005   0.445   2.514  0.0569 -0.9757 -0.2357
16132SOL    HW149837   1.920   0.414   2.546 -0.3286  0.5516  0.3244
16132SOL    HW249838   2.029   0.383   2.445 -1.2815 -1.7142 -0.0705
16133SOL     OW49839   3.039   0.475   4.410 -0.7252 -0.0180  0.3586
16133SOL    HW149840   3.093   0.440   4.480 -0.2571 -0.7200 -0.3418
16133SOL    HW249841   3.063   0.424   4.332 -2.2764 -0.2690 -0.0053
16134SOL     OW49842   1.552   3.516  11.344 -0.6223  0.1944 -0.6241
16134SOL    HW149843   1.610   3.496  11.417 -1.9244  1.7278  0.9212
16134SOL    HW249844   1.546   3.434  11.295  0.3925 -0.8614  0.9200
16135SOL     OW49845   4.749   6.255  11.258 -0.9219 -0.0984  0.5839
16135SOL    HW149846   4.772   6.341  11.224 -1.2016 -0.5602 -0.8227
16135SOL    HW249847   4.804   6.245  11.336 -0.9741  1.3882  0.8372
16136SOL     OW49848   0.555   4.005   2.347  0.1242  0.4282 -0.6051
16136SOL    HW149849   0.598   4.050   2.275  0.8769 -0.7515 -0.9199
16136SOL    HW249850   0.578   4.055   2.425 -0.8191  1.8028 -1.1729
16137SOL     OW49851   4.593   6.227   1.554  0.4038 -0.0714  0.8784
16137SOL    HW149852   4.606   6.133   1.544 -2.3049 -0.4911  0.4610
16137SOL    HW249853   4.638   6.265   1.479  0.5677 -1.1399  0.4130
16138SOL     OW49854   2.102   5.761   1.485 -0.0290 -0.2507  0.2033
16138SOL    HW149855   2.042   5.829   1.455 -0.2516 -0.3172  0.4847
16138SOL    HW249856   2.045   5.692   1.520  0.2144 -0.2117  0.6872
16139SOL     OW49857   7.426   2.730  10.653  0.1544 -0.4800 -0.1763
16139SOL    HW149858   7.437   2.665  10.723  2.0038  1.0351  1.0437
16139SOL    HW249859   7.332   2.733  10.637 -0.3965 -0.5694  2.5940
16140SOL     OW49860   6.989   6.857   7.234 -0.1868 -0.0877  0.1662
16140SOL    HW149861   6.929   6.786   7.253 -0.0275 -0.6067 -1.1670
16140SOL    HW249862   6.937   6.921   7.185 -0.4083  0.8792  1.6091
16141SOL     OW49863   1.329   6.787   7.643 -0.0353 -0.1804 -0.1660
16141SOL    HW149864   1.244   6.743   7.650 -0.0797  0.0774  1.3087
16141SOL    HW249865   1.322   6.862   7.703  0.6681  0.8133 -1.2795
16142SOL     OW49866   6.662   5.695   5.418  0.3423 -0.2023 -0.1675
16142SOL    HW149867   6.748   5.705   5.377 -0.0646 -0.6072 -1.1562
16142SOL    HW249868   6.679   5.701   5.512  1.2353  1.2420 -0.4011
16143SOL     OW49869   5.066   5.986   0.734  0.1031  0.4207  0.5696
16143SOL    HW149870   5.001   5.924   0.701  1.7776  0.6705 -3.7924
16143SOL    HW249871   5.029   6.072   0.715  0.9000  0.5956 -0.2376
16144SOL     OW49872   0.786   2.743  10.570 -0.4110 -0.4210  0.0437
16144SOL    HW149873   0.858   2.697  10.526  0.9709  0.4156  1.3446
16144SOL    HW249874   0.765   2.816  10.512  1.1435  0.4629  0.5455
16145SOL     OW49875   3.654   0.339   8.055  0.2178  0.1239 -0.7055
16145SOL    HW149876   3.709   0.368   7.982 -1.5720 -0.9050 -2.5704
16145SOL    HW249877   3.645   0.416   8.111  3.0413  0.4818 -0.5913
16146SOL     OW49878   4.144   2.979   4.204  0.3060 -0.8566 -0.4033
16146SOL    HW149879   4.156   3.013   4.293 -2.4315  0.3493 -0.4185
16146SOL    HW249880   4.159   2.885   4.212  0.3684 -0.7323  1.2664
16147SOL     OW49881   4.480   1.426   5.934  0.3686  0.0158 -0.4211
16147SOL    HW149882   4.514   1.394   5.850 -1.1039  0.5038 -1.2378
16147SOL    HW249883   4.390   1.450   5.915 -0.2471 -0.6239  1.5244
16148SOL     OW49884   5.716   6.957   0.908  0.3763  0.8656 -0.6244
16148SOL    HW149885   5.626   6.988   0.893  0.0646  0.6797  0.7377
16148SOL    HW249886   5.766   7.037   0.924  0.2964  0.9182 -0.6333
16149SOL     OW49887   4.583   7.667   6.731 -0.1064 -0.2247  0.1265
16149SOL    HW149888   4.665   7.687   6.777  0.4033 -0.8441 -0.4993
16149SOL    HW249889   4.609   7.650   6.641 -0.9336 -0.3978 -0.0890
16150SOL     OW49890   0.642   7.932  12.206  0.5266 -0.2822  0.0969
16150SOL    HW149891   0.609   8.020  12.226  2.1964  0.2736  0.6075
16150SOL    HW249892   0.577   7.895  12.147  0.4174  1.8156 -1.2187
16151SOL     OW49893   1.983   4.535   6.819 -0.4827  0.3561  0.5204
16151SOL    HW149894   1.932   4.613   6.841 -2.3590 -0.8258  0.6115
16151SOL    HW249895   1.926   4.485   6.760  1.0793 -0.4863 -0.3328
16152SOL     OW49896   4.355   1.461   4.253 -0.0385  0.5113 -0.4947
16152SOL    HW149897   4.422   1.445   4.319 -1.5783 -1.3553  0.7379
16152SOL    HW249898   4.293   1.521   4.295 -1.5487 -1.4579  0.2415
16153SOL     OW49899   7.321   6.508   1.692 -0.1522  0.1587  0.3095
16153SOL    HW149900   7.289   6.420   1.716 -0.7142  0.3777  0.3916
16153SOL    HW249901   7.338   6.502   1.598 -1.0473  0.2087  0.1356
16154SOL     OW49902   0.399   6.186  11.399 -0.1108 -0.4528  0.2584
16154SOL    HW149903   0.468   6.165  11.336  1.0266  1.2661  0.8378
16154SOL    HW249904   0.394   6.110  11.456  0.2034 -1.2445 -0.7453
16155SOL     OW49905   2.064   3.210   0.473 -0.0526  0.2936  0.0060
16155SOL    HW149906   2.120   3.214   0.551  1.0112  0.5659 -0.7480
16155SOL    HW249907   1.976   3.229   0.506  0.1987 -0.6471  1.3020
16156SOL     OW49908   4.077   0.181  11.493 -0.0277 -0.1745 -0.3753
16156SOL    HW149909   4.086   0.182  11.398 -1.2082 -0.4993 -0.5070
16156SOL    HW249910   4.030   0.099  11.512  0.4315 -0.2456  0.5081
16157SOL     OW49911   2.970   5.849   5.239  0.1213  0.4397  0.3028
16157SOL    HW149912   2.954   5.755   5.237  0.4605  0.3811  0.2246
16157SOL    HW249913   2.884   5.888   5.253 -0.5121  0.2555 -2.4684
16158SOL     OW49914   1.192   4.526   9.103 -0.3187  0.4185  0.0444
16158SOL    HW149915   1.108   4.556   9.068 -0.9239  0.2769  1.3192
16158SOL    HW249916   1.256   4.557   9.040 -1.4341 -0.8355 -1.8046
16159SOL     OW49917   2.468   5.170  10.937  0.5784  0.5487 -0.2308
16159SOL    HW149918   2.502   5.084  10.960 -0.6442 -1.0945 -3.8710
16159SOL    HW249919   2.545   5.221  10.912  1.1500  0.0732  0.5043
16160SOL     OW49920   4.802   6.953   6.551 -0.1471 -0.2401  0.4577
16160SOL    HW149921   4.891   6.978   6.527  0.1075  0.4596  2.0222
16160SOL    HW249922   4.808   6.861   6.574  0.1340 -0.2396  0.3897
16161SOL     OW49923   6.835   6.514  11.262  0.1049  0.0613 -0.1952
16161SOL    HW149924   6.896   6.458  11.309  0.0100 -1.5226 -1.8322
16161SOL    HW249925   6.836   6.597  11.310  0.6265 -1.1541  2.0463
16162SOL     OW49926   2.240   4.896   1.706 -0.3836  0.1060  0.0579
16162SOL    HW149927   2.163   4.873   1.653 -0.1457  0.6786 -0.5563
16162SOL    HW249928   2.313   4.856   1.659 -0.2546 -0.0353  0.3802
16163SOL     OW49929   1.861   6.764   9.006 -0.4059  0.1550 -0.1958
16163SOL    HW149930   1.895   6.718   8.930  0.9508  1.6846 -0.5742
16163SOL    HW249931   1.885   6.710   9.081 -0.7142 -0.7741 -0.7575
16164SOL     OW49932   1.987   7.826   9.408  0.1356  0.1183 -0.4541
16164SOL    HW149933   1.956   7.862   9.491  1.5219 -0.6242  0.4254
16164SOL    HW249934   1.909   7.825   9.351 -0.8401  0.6204  0.8286
16165SOL     OW49935   4.821   4.112  12.370  0.0445  0.5374  0.1910
16165SOL    HW149936   4.743   4.060  12.353  0.3346  0.3345 -0.5949
16165SOL    HW249937   4.887   4.048  12.396  0.5377  0.4279 -1.2450
16166SOL     OW49938   5.201   7.126   7.170 -0.2556  0.7978  0.0657
16166SOL    HW149939   5.215   7.039   7.209  2.2804  1.3608  0.5880
16166SOL    HW249940   5.232   7.187   7.236 -0.4394  2.0289 -0.9508
16167SOL     OW49941   1.920   1.037   9.108 -0.1861 -0.4927  0.6560
16167SOL    HW149942   1.854   0.999   9.050 -0.8115 -0.9502  1.6452
16167SOL    HW249943   1.950   0.964   9.162  1.2282 -0.3152  0.1521
16168SOL     OW49944   2.057   0.352   3.749  0.1428  0.4306  0.5951
16168SOL    HW149945   2.059   0.445   3.727 -2.5200  0.3141 -0.6025
16168SOL    HW249946   2.002   0.347   3.827 -1.5264 -0.2362 -0.5641
16169SOL     OW49947   5.513   5.256   6.067  0.1708 -0.0032 -0.2123
16169SOL    HW149948   5.517   5.348   6.043 -1.5631 -0.3260 -2.0412
16169SOL    HW249949   5.592   5.217   6.028 -0.3354  0.2976 -1.5694
16170SOL     OW49950   4.618   5.310   3.754 -0.8765  0.3947 -0.1188
16170SOL    HW149951   4.631   5.232   3.699 -0.2872  0.8526 -0.6518
16170SOL    HW249952   4.536   5.294   3.801 -0.1445 -1.0995  0.7148
16171SOL     OW49953   0.613   3.622   3.602 -0.3395 -0.0578 -0.4841
16171SOL    HW149954   0.651   3.709   3.613 -0.3573 -0.1470  0.3311
16171SOL    HW249955   0.538   3.620   3.662  1.0527 -1.4393  1.3225
16172SOL     OW49956   5.346   3.691   2.646 -0.0797 -0.1315  0.5960
16172SOL    HW149957   5.307   3.681   2.559 -0.5037  0.7604  0.6676
16172SOL    HW249958   5.302   3.768   2.683 -0.2943 -0.8331  1.8244
16173SOL     OW49959   0.432   0.788  10.261 -0.2662 -0.4394  0.4487
16173SOL    HW149960   0.494   0.720  10.287  0.6730  0.5684  0.9140
16173SOL    HW249961   0.346   0.753  10.287  0.1824 -1.5049  0.5318
16174SOL     OW49962   7.127   7.738  11.099 -0.4531 -0.0974 -0.2857
16174SOL    HW149963   7.073   7.763  11.173 -0.5829  0.4668 -0.5691
16174SOL    HW249964   7.102   7.647  11.081 -1.0832  0.0612 -0.2207
16175SOL     OW49965   0.816   5.913   7.662 -0.4876  0.5027 -0.2259
16175SOL    HW149966   0.750   5.845   7.665  0.5823 -0.5898 -0.6191
16175SOL    HW249967   0.797   5.962   7.582 -0.3838 -0.2606 -0.7233
16176SOL     OW49968   1.785   5.374   4.338 -0.1853 -0.5000  0.2801
16176SOL    HW149969   1.744   5.291   4.360 -1.9385 -0.2075 -1.6098
16176SOL    HW249970   1.767   5.387   4.245 -0.7788  2.4076  0.6785
16177SOL     OW49971   4.157   7.644   2.382  0.5641  0.4285 -0.4171
16177SOL    HW149972   4.164   7.703   2.457  0.8390 -0.6708  0.4459
16177SOL    HW249973   4.246   7.610   2.371  1.0546  2.1432 -2.5974
16178SOL     OW49974   5.340   3.047  11.470  0.1327 -0.1923  0.0465
16178SOL    HW149975   5.284   3.115  11.507  0.4876 -0.1928  0.6046
16178SOL    HW249976   5.355   2.987  11.543  1.8328  0.4455  0.2815
16179SOL     OW49977   7.185   6.514   2.926 -0.4890  0.1912 -0.5214
16179SOL    HW149978   7.101   6.519   2.971 -0.5967  0.1833 -0.7180
16179SOL    HW249979   7.246   6.480   2.991 -0.8491 -0.7588 -0.6724
16180SOL     OW49980   0.535   0.791   3.496  0.5625 -0.3001 -0.2588
16180SOL    HW149981   0.493   0.845   3.430 -1.7171 -1.5438  0.0686
16180SOL    HW249982   0.628   0.795   3.476  0.1014  0.8642 -2.3680
16181SOL     OW49983   5.979   1.036   0.287  0.1270  0.0985 -0.2802
16181SOL    HW149984   6.022   1.053   0.203 -1.7059 -0.0631 -1.3218
16181SOL    HW249985   6.008   1.106   0.345  1.0531  0.4919 -1.1994
16182SOL     OW49986   0.950   7.425   0.998 -0.0386 -0.1637  0.0508
16182SOL    HW149987   1.022   7.463   0.948  0.3349 -1.6074 -0.5749
16182SOL    HW249988   0.946   7.334   0.968 -1.0191 -0.5643  1.3158
16183SOL     OW49989   5.639   7.269   5.387  0.0967 -0.1622 -0.6540
16183SOL    HW149990   5.666   7.201   5.325 -1.0550 -0.3914 -0.9220
16183SOL    HW249991   5.649   7.351   5.338 -1.9625 -0.4221 -1.6243
16184SOL     OW49992   2.536   7.462   9.863 -0.5480 -0.2411 -0.2586
16184SOL    HW149993   2.531   7.386   9.922  0.3930 -1.7740 -2.0370
16184SOL    HW249994   2.455   7.509   9.878  0.6463  0.9104  4.0493
16185SOL     OW49995   5.958   6.053   2.280 -0.2769  0.1256  0.0515
16185SOL    HW149996   5.959   6.141   2.242 -1.0813  0.5428  0.9610
16185SOL    HW249997   5.866   6.033   2.294 -0.0345 -0.2067  1.3137
16186SOL     OW49998   2.272   3.927   9.632  0.0114  0.0417 -0.2180
16186SOL    HW149999   2.358   3.946   9.672 -0.5490  1.8606  0.2347
16186SOL    HW250000   2.272   3.832   9.619  0.9336 -0.4393  2.5496
16187SOL     OW50001   6.815   3.069   6.311 -0.2601 -0.0300  0.2239
16187SOL    HW150002   6.856   3.053   6.226  0.0791 -0.6519  0.4993
16187SOL    HW250003   6.734   3.018   6.309 -0.1503 -0.2104  0.3498
16188SOL     OW50004   0.880   3.358   4.480  0.8079  0.3176  0.3363
16188SOL    HW150005   0.964   3.336   4.439 -0.2098 -1.3944 -1.0004
16188SOL    HW250006   0.836   3.273   4.490 -1.4689  1.3114 -0.6585
16189SOL     OW50007   7.476   5.167   9.955  0.7029  0.0685 -0.0136
16189SOL    HW150008   7.430   5.134   9.878  0.9890 -0.4974  0.0518
16189SOL    HW250009   7.492   5.259   9.935  2.6480 -0.5332 -1.5743
16190SOL     OW50010   2.742   6.138   4.413  0.1318  0.3094  0.0185
16190SOL    HW150011   2.785   6.054   4.400 -0.9843 -0.2391 -0.1892
16190SOL    HW250012   2.807   6.203   4.385  0.8134 -0.4980 -0.2912
16191SOL     OW50013   1.979   2.430   9.769  0.2641 -0.3509 -0.0974
16191SOL    HW150014   1.971   2.469   9.682  1.0394 -0.8069 -0.3943
16191SOL    HW250015   1.889   2.412   9.796  0.0258 -0.4848 -0.9450
16192SOL     OW50016   0.186   7.386   8.329  0.0613  0.1950  0.0653
16192SOL    HW150017   0.212   7.445   8.400  0.0364  0.7930 -0.4050
16192SOL    HW250018   0.251   7.316   8.330 -0.1987 -0.0385  0.9573
16193SOL     OW50019   6.351   4.885  11.218 -0.0371  0.1788 -0.0386
16193SOL    HW150020   6.300   4.805  11.205  0.4226  0.1113 -1.6769
16193SOL    HW250021   6.305   4.932  11.287 -0.0307 -1.7245  1.3367
16194SOL     OW50022   6.520   1.768   1.771 -0.2378  0.8438 -0.2782
16194SOL    HW150023   6.588   1.703   1.753 -0.5888  0.6487 -0.9141
16194SOL    HW250024   6.490   1.797   1.685 -0.4642  1.4522  0.0010
16195SOL     OW50025   4.517   7.849   8.893  0.0236  0.3594 -0.0939
16195SOL    HW150026   4.581   7.831   8.961  0.2747 -2.2560 -0.9209
16195SOL    HW250027   4.560   7.822   8.811 -1.3844  0.4647 -0.9123
16196SOL     OW50028   1.020   6.026  11.601  0.2752 -0.1175 -0.1074
16196SOL    HW150029   1.110   6.042  11.571  0.7835  0.0416  1.4437
16196SOL    HW250030   0.966   6.078  11.541  1.2706  0.4435 -0.5464
16197SOL     OW50031   6.463   2.672   5.490 -0.3983 -0.5382  0.1439
16197SOL    HW150032   6.472   2.748   5.548  0.6490 -1.5614  1.3633
16197SOL    HW250033   6.521   2.606   5.527  0.8028 -1.0444 -2.4146
16198SOL     OW50034   6.585   6.765  11.065 -0.2297 -0.0804 -0.3451
16198SOL    HW150035   6.574   6.764  11.160 -0.6397 -2.0653 -0.3651
16198SOL    HW250036   6.671   6.725  11.050  0.5103  1.5964 -0.7813
16199SOL     OW50037   3.830   6.638  10.016  0.2715  0.0295  0.0041
16199SOL    HW150038   3.902   6.578   9.997 -0.0419 -0.0624 -0.9525
16199SOL    HW250039   3.828   6.644  10.112  1.0789 -0.5327  0.0648
16200SOL     OW50040   2.887   1.325   7.320 -0.1692 -0.4133  0.1131
16200SOL    HW150041   2.966   1.361   7.361 -0.2880  0.1613 -0.1483
16200SOL    HW250042   2.920   1.258   7.259  0.0759 -0.5435  0.3854
16201SOL     OW50043   7.704   2.561   7.668  0.4408  0.5002 -0.2033
16201SOL    HW150044   7.707   2.491   7.733  0.6939 -0.5783 -1.3490
16201SOL    HW250045   7.699   2.641   7.720 -1.6382 -0.4223  1.1563
16202SOL     OW50046   4.984   7.802   3.958  0.2398 -0.2767  0.3834
16202SOL    HW150047   4.903   7.788   3.910 -0.1817  0.8279  0.7443
16202SOL    HW250048   5.052   7.767   3.901 -0.0887  2.1912 -1.6817
16203SOL     OW50049   6.783   4.162   7.227  0.2904 -0.3300  0.4441
16203SOL    HW150050   6.811   4.092   7.287  1.6543 -0.2040 -0.0099
16203SOL    HW250051   6.726   4.119   7.164 -0.0625 -0.7347  1.0327
16204SOL     OW50052   7.482   4.230   6.787 -0.3720  0.2508 -0.1565
16204SOL    HW150053   7.449   4.292   6.723  0.5140 -0.4924 -1.3788
16204SOL    HW250054   7.539   4.282   6.844  0.4892  0.5756 -1.2602
16205SOL     OW50055   0.106   1.187   5.631 -0.3095  1.0315 -0.2586
16205SOL    HW150056   0.158   1.228   5.701 -1.1618  2.2807 -0.3099
16205SOL    HW250057   0.170   1.164   5.564  0.1704  2.9457 -0.5223
16206SOL     OW50058   6.012   5.478   5.406  0.4100  0.4986  0.7993
16206SOL    HW150059   6.078   5.426   5.360  0.9725  1.8554  0.0248
16206SOL    HW250060   5.933   5.424   5.404  0.9647 -0.2974 -0.0209
16207SOL     OW50061   4.453   2.697   7.419  0.2473 -0.1520  0.7446
16207SOL    HW150062   4.520   2.711   7.486  3.0082 -0.8800 -1.6810
16207SOL    HW250063   4.471   2.610   7.384 -0.1019  0.7329 -1.8863
16208SOL     OW50064   1.058   3.152  12.306 -0.0089 -0.1356 -0.0198
16208SOL    HW150065   1.062   3.234  12.257  0.1779  0.8168  1.5252
16208SOL    HW250066   0.967   3.147  12.336  0.1122 -0.2124  0.3379
16209SOL     OW50067   3.873   7.700   7.214 -0.4933 -0.1821  0.0454
16209SOL    HW150068   3.915   7.655   7.141 -0.0303  1.2334 -0.5816
16209SOL    HW250069   3.788   7.727   7.179 -1.4572 -1.9084  0.9144
16210SOL     OW50070   0.802   7.164   3.585 -0.6094  0.1108 -0.2163
16210SOL    HW150071   0.783   7.230   3.519  0.9738  1.9026  1.0270
16210SOL    HW250072   0.787   7.208   3.669  3.4583  0.0815  0.7619
16211SOL     OW50073   3.581   7.686   0.021 -0.4359 -0.3936  0.4945
16211SOL    HW150074   3.662   7.725  -0.011  0.3264 -1.1584  1.4160
16211SOL    HW250075   3.522   7.689  -0.054  0.6842 -0.4662 -0.4250
16212SOL     OW50076   5.331   2.291   2.957  0.4852  0.6769 -0.7303
16212SOL    HW150077   5.417   2.252   2.952  0.2884  0.3792 -2.1959
16212SOL    HW250078   5.342   2.379   2.921  0.4155  1.0944  0.2318
16213SOL     OW50079   5.618   3.672   7.288  0.3989 -0.4429 -0.1770
16213SOL    HW150080   5.596   3.748   7.235  0.7749 -1.0295 -1.2024
16213SOL    HW250081   5.534   3.630   7.307  0.2293 -0.0102  0.0316
16214SOL     OW50082   6.447   0.652   6.658 -0.3515 -0.4288  0.5568
16214SOL    HW150083   6.537   0.673   6.631 -0.7788  1.7449  0.6690
16214SOL    HW250084   6.456   0.573   6.711  1.0971 -2.1503 -1.9922
16215SOL     OW50085   1.379   2.660   4.236 -0.0216  0.4364  0.3220
16215SOL    HW150086   1.301   2.716   4.227  0.3080  1.1371  1.5719
16215SOL    HW250087   1.417   2.685   4.320  1.3481 -0.1736 -0.0815
16216SOL     OW50088   0.816   0.089   2.021  0.2882 -0.3646 -0.5440
16216SOL    HW150089   0.894   0.141   2.038  1.1457 -1.1111 -2.0209
16216SOL    HW250090   0.825   0.012   2.076  1.9560 -1.7097 -2.5375
16217SOL     OW50091   5.080   4.175   5.550  0.3528  0.3817  0.2528
16217SOL    HW150092   5.005   4.216   5.594  1.6086  3.1463  0.0302
16217SOL    HW250093   5.085   4.218   5.465  2.0836  0.1422  0.1866
16218SOL     OW50094   5.783   7.075   8.403 -0.4756  0.0807  0.2341
16218SOL    HW150095   5.694   7.057   8.434 -0.4918 -0.3809 -0.0603
16218SOL    HW250096   5.831   7.101   8.481 -0.9804  0.7853  0.3191
16219SOL     OW50097   4.900   5.390   0.813 -0.2091  0.2538 -0.6595
16219SOL    HW150098   4.938   5.448   0.879 -0.8224  0.0902 -0.1495
16219SOL    HW250099   4.806   5.395   0.828 -0.3680  0.3743 -1.6708
16220SOL     OW50100   4.674   7.128   8.831  0.1654  0.0790  0.0156
16220SOL    HW150101   4.628   7.143   8.914 -0.0804  1.8037 -0.3840
16220SOL    HW250102   4.747   7.191   8.833 -1.8726  2.7863 -2.5400
16221SOL     OW50103   5.709   6.628   2.137 -0.0303 -0.5374  0.6285
16221SOL    HW150104   5.620   6.595   2.130 -0.5928  1.0208  0.0703
16221SOL    HW250105   5.737   6.641   2.046  1.0825 -1.7663  0.7656
16222SOL     OW50106   3.749   1.334  10.020  0.1262  0.0993  0.5031
16222SOL    HW150107   3.823   1.302   9.968 -0.6315 -1.8100  0.5086
16222SOL    HW250108   3.707   1.399   9.964  0.8823  0.0327 -0.1641
16223SOL     OW50109   6.328   2.393  11.745  0.2138  0.0043  0.5907
16223SOL    HW150110   6.375   2.356  11.819  0.3974 -0.7487  0.1153
16223SOL    HW250111   6.285   2.317  11.704 -2.3439  0.7966  1.6370
16224SOL     OW50112   4.632   7.587   3.167  0.0955 -0.0908 -0.5043
16224SOL    HW150113   4.556   7.531   3.156  0.5928 -0.7527 -0.6309
16224SOL    HW250114   4.688   7.566   3.092  1.6452 -1.6371  0.9924
16225SOL     OW50115   4.304   3.533   3.744 -0.0609 -0.1144  0.3434
16225SOL    HW150116   4.363   3.546   3.818  0.2471  1.2006 -0.1120
16225SOL    HW250117   4.222   3.574   3.771  0.0647  0.4027 -0.0568
16226SOL     OW50118   2.455   4.745   6.088  0.4323 -0.4547 -0.2314
16226SOL    HW150119   2.481   4.835   6.106 -0.8488 -0.2001  0.4128
16226SOL    HW250120   2.391   4.751   6.017  1.9219 -1.0725 -1.6958
16227SOL     OW50121   4.984   2.829   7.863  0.1118 -0.2227  0.9618
16227SOL    HW150122   5.074   2.835   7.895  0.1407  0.3294  0.7924
16227SOL    HW250123   4.978   2.742   7.823  1.0573  0.3329 -0.4648
16228SOL     OW50124   3.101   4.909  11.026 -0.3055  0.0592 -0.2671
16228SOL    HW150125   3.066   4.862  11.102 -0.2418 -2.3706 -1.6318
16228SOL    HW250126   3.192   4.880  11.019 -0.0482  0.9492 -0.7622
16229SOL     OW50127   5.698   0.160  12.065 -0.1591 -0.3938  0.3419
16229SOL    HW150128   5.753   0.222  12.113 -0.0220 -1.0575  1.0518
16229SOL    HW250129   5.610   0.172  12.103 -0.0753 -0.8308  0.6783
16230SOL     OW50130   0.668   1.623   9.911 -0.2266  0.3389  0.4052
16230SOL    HW150131   0.612   1.546   9.896 -1.0871  0.9713  0.2849
16230SOL    HW250132   0.706   1.608   9.997 -2.2180  0.8497  1.4360
16231SOL     OW50133   5.903   1.308   8.837  0.1322 -0.8215  0.2791
16231SOL    HW150134   5.897   1.326   8.743 -0.0194 -0.0476  0.4326
16231SOL    HW250135   5.883   1.214   8.845  0.5497 -0.9864 -0.4997
16232SOL     OW50136   1.968   6.583   9.736 -0.5730  0.1338 -0.2903
16232SOL    HW150137   2.032   6.611   9.669 -0.3225 -1.8004 -0.9121
16232SOL    HW250138   1.905   6.531   9.688 -0.2553 -1.5073  1.0033
16233SOL     OW50139   1.559   0.126  12.303  0.2752 -0.3723 -1.0664
16233SOL    HW150140   1.651   0.147  12.292  0.4019  1.5813  2.2432
16233SOL    HW250141   1.514   0.178  12.237  1.4440 -0.4262 -1.9361
16234SOL     OW50142   4.453   7.039   2.230  0.1171  0.0800  0.4145
16234SOL    HW150143   4.431   6.981   2.303 -0.5053  1.0498  1.0181
16234SOL    HW250144   4.515   7.102   2.268  1.2308 -0.5048 -0.3778
16235SOL     OW50145   5.465   1.753  12.299  0.1853  0.3848  0.5793
16235SOL    HW150146   5.465   1.844  12.270 -0.0168  0.5715  1.1340
16235SOL    HW250147   5.442   1.703  12.222  1.4950  0.6971 -0.0387
16236SOL     OW50148   3.742   4.762   5.118  0.3998 -0.2152 -0.0930
16236SOL    HW150149   3.729   4.736   5.026 -0.4517 -0.1233 -0.0133
16236SOL    HW250150   3.656   4.747   5.158  0.6700  0.0966  0.6030
16237SOL     OW50151   3.522   5.462  10.009 -0.4521 -0.0385 -0.4724
16237SOL    HW150152   3.523   5.430   9.919 -0.1193  0.0341 -0.4962
16237SOL    HW250153   3.575   5.400  10.058  1.7870  1.4456 -0.8735
16238SOL     OW50154   5.894   5.972   3.406  0.7719 -0.2546 -0.2820
16238SOL    HW150155   5.972   6.001   3.453  2.2377 -0.5214 -2.4181
16238SOL    HW250156   5.928   5.921   3.332 -1.1686  2.6811 -3.4816
16239SOL     OW50157   2.218   4.111   8.911  0.1192 -0.1113 -0.2608
16239SOL    HW150158   2.213   4.048   8.983 -0.1609  0.4583  0.2236
16239SOL    HW250159   2.132   4.106   8.870  0.6725 -1.3348 -1.3411
16240SOL     OW50160   0.341   1.252   2.037  0.3546  0.3002 -0.4052
16240SOL    HW150161   0.338   1.233   1.943  1.9580 -0.3279 -0.3621
16240SOL    HW250162   0.420   1.208   2.068 -0.5972 -0.2284  1.4184
16241SOL     OW50163   5.625   0.746   1.834 -0.5129  0.2267  0.2183
16241SOL    HW150164   5.584   0.712   1.914  1.4597  1.5191  1.8820
16241SOL    HW250165   5.693   0.683   1.814 -0.3834  0.4019  0.1071
16242SOL     OW50166   1.365   5.985   6.640 -0.1810 -0.5597  0.0495
16242SOL    HW150167   1.389   6.077   6.624 -1.8866  0.3414  2.2094
16242SOL    HW250168   1.278   5.976   6.601 -0.4929 -0.9222  0.8245
16243SOL     OW50169   4.977   3.742   5.817  0.3448 -0.8701 -0.2530
16243SOL    HW150170   4.918   3.671   5.839  0.5034 -0.9464 -0.0738
16243SOL    HW250171   4.920   3.809   5.778 -0.5184  0.5998  3.1387
16244SOL     OW50172   3.079   7.425   0.095  0.5038 -0.2091 -0.6981
16244SOL    HW150173   3.113   7.362   0.032  1.1042 -0.5124 -0.0838
16244SOL    HW250174   3.146   7.494   0.100 -0.1214  0.4717 -1.3242
16245SOL     OW50175   2.948   0.034   5.343  0.4260 -0.3450  0.2617
16245SOL    HW150176   3.027   0.018   5.395  1.5170  3.1889 -0.0395
16245SOL    HW250177   2.972   0.006   5.255  0.7398 -0.8743  0.5128
16246SOL     OW50178   0.060   6.469   5.529  0.7152  0.6453  0.2838
16246SOL    HW150179  -0.028   6.501   5.510  0.2430 -0.2856  0.8741
16246SOL    HW250180   0.048   6.398   5.592  1.6080 -1.5267 -1.8176
16247SOL     OW50181   2.251   1.391  10.772  0.5117  0.2929 -0.2052
16247SOL    HW150182   2.293   1.318  10.818  1.0786  0.2896 -0.7105
16247SOL    HW250183   2.272   1.376  10.680 -0.6922  0.2401 -0.4926
16248SOL     OW50184   5.693   2.258   9.886 -0.4824 -0.6157 -0.4310
16248SOL    HW150185   5.618   2.219   9.840 -0.1092  0.3719 -1.9411
16248SOL    HW250186   5.720   2.331   9.830  0.6619 -0.0116  0.8645
16249SOL     OW50187   2.073   7.063   7.499 -0.1699 -0.0379  0.3388
16249SOL    HW150188   2.111   7.145   7.468  0.3705 -0.5323 -0.3320
16249SOL    HW250189   2.026   7.087   7.579  1.1013  0.6901  0.8945
16250SOL     OW50190   0.576   0.394   2.218 -0.5843  0.4833  0.4940
16250SOL    HW150191   0.591   0.363   2.308 -0.8390 -0.8381  0.0961
16250SOL    HW250192   0.519   0.328   2.179 -0.3002  0.9356 -0.7133
16251SOL     OW50193   2.701   3.695   5.581 -0.2027 -0.5642 -0.2279
16251SOL    HW150194   2.769   3.630   5.601 -0.1758 -0.3252  0.4993
16251SOL    HW250195   2.747   3.762   5.530  0.3408  0.0309  0.9940
16252SOL     OW50196   1.483   3.227  11.961 -0.6883  0.4182  0.1376
16252SOL    HW150197   1.423   3.165  12.003 -0.9892 -0.5623 -1.6423
16252SOL    HW250198   1.432   3.307  11.953 -1.7973 -0.3717 -1.2525
16253SOL     OW50199   4.274   0.325   6.099 -0.2793 -0.1088 -0.0660
16253SOL    HW150200   4.298   0.417   6.109 -2.7092  0.4526  1.6078
16253SOL    HW250201   4.357   0.277   6.108  1.1761  1.8928 -1.9483
16254SOL     OW50202   6.327   3.244   2.797  0.0545 -0.2311  0.2991
16254SOL    HW150203   6.297   3.170   2.851  0.7555 -0.7215  0.0295
16254SOL    HW250204   6.419   3.226   2.781 -0.2207 -0.3193 -1.3924
16255SOL     OW50205   3.497   4.176   7.720  0.3358 -0.3712  0.5070
16255SOL    HW150206   3.410   4.214   7.728  0.4637  0.0279  0.0983
16255SOL    HW250207   3.488   4.086   7.751 -0.0709 -0.1321  1.0828
16256SOL     OW50208   4.853   6.107  11.058  0.0323  0.2890 -0.1854
16256SOL    HW150209   4.811   6.142  11.136  0.4855  0.5529 -0.0650
16256SOL    HW250210   4.937   6.073  11.088 -0.3459 -0.8227 -0.3098
16257SOL     OW50211   6.860   0.158   1.598 -0.1261  0.2005  0.0505
16257SOL    HW150212   6.882   0.128   1.510  0.6032  1.6181 -0.2743
16257SOL    HW250213   6.770   0.190   1.590 -1.3269 -2.6426  0.6386
16258SOL     OW50214   1.557   7.729   0.755  0.0303  0.1204  0.6363
16258SOL    HW150215   1.604   7.652   0.722  1.5894  0.8546  1.0541
16258SOL    HW250216   1.466   7.701   0.761  0.3048 -1.1918 -0.7316
16259SOL     OW50217   4.667   5.293   7.693  0.0384 -0.2672  0.5804
16259SOL    HW150218   4.653   5.230   7.763 -0.5497 -0.5665  0.1986
16259SOL    HW250219   4.725   5.248   7.631 -2.1139 -1.3100 -0.7863
16260SOL     OW50220   5.111   6.474   2.500 -0.0513 -0.4142  0.3416
16260SOL    HW150221   5.036   6.444   2.448  0.9856 -1.6070 -0.5318
16260SOL    HW250222   5.132   6.560   2.464 -2.4291  1.0895  2.1909
16261SOL     OW50223   6.735   2.558   4.663  0.0064  0.7928 -0.1331
16261SOL    HW150224   6.741   2.473   4.620  1.2841  0.7362  0.0971
16261SOL    HW250225   6.732   2.622   4.591 -0.9064  0.5566 -0.3048
16262SOL     OW50226   0.980   5.132   7.568  0.1620  0.1426 -0.1342
16262SOL    HW150227   0.935   5.090   7.641  0.1443  0.9522  0.3434
16262SOL    HW250228   1.066   5.156   7.603 -0.1562  1.2956 -0.0971
16263SOL     OW50229   3.144   1.412   8.928 -0.4603  0.0506  0.0843
16263SOL    HW150230   3.103   1.460   9.000  0.9013 -1.5015  2.0092
16263SOL    HW250231   3.073   1.399   8.864 -1.4591  2.3438  0.6370
16264SOL     OW50232   7.725   0.549   6.522 -0.0825  0.1829 -0.1079
16264SOL    HW150233   7.719   0.462   6.482  1.6615  1.0726 -2.5816
16264SOL    HW250234   7.693   0.609   6.454  0.5238  1.6264  0.8240
16265SOL     OW50235   0.647   4.879   3.915 -0.4165 -0.5028  0.3471
16265SOL    HW150236   0.738   4.853   3.903 -0.3343  0.3283 -0.9417
16265SOL    HW250237   0.622   4.922   3.833 -1.5654  0.4629  1.1550
16266SOL     OW50238   6.946   6.939   1.804  0.1853  0.0403  0.0378
16266SOL    HW150239   7.002   6.947   1.881 -0.1289 -0.1429  0.2846
16266SOL    HW250240   6.932   7.030   1.776  1.8473  0.0509 -0.9366
16267SOL     OW50241   6.822   5.613   9.119 -0.2818  0.0728  0.0420
16267SOL    HW150242   6.819   5.549   9.190  0.3686  0.1290  0.1227
16267SOL    HW250243   6.835   5.697   9.163 -1.9322  0.3921 -0.0024
16268SOL     OW50244   6.322   0.012   0.630 -0.1774  0.4203 -0.0319
16268SOL    HW150245   6.299   0.099   0.596 -2.1019  0.0895  0.3227
16268SOL    HW250246   6.417   0.016   0.642  0.0301  1.8785 -1.6683
16269SOL     OW50247   6.020   3.732   1.643  0.0825 -0.0131 -0.6120
16269SOL    HW150248   5.947   3.712   1.585 -0.3585  1.4389 -0.5886
16269SOL    HW250249   6.066   3.649   1.653 -0.7801 -0.6479 -1.7135
16270SOL     OW50250   0.997   3.260   5.296 -0.2407  0.3514 -0.1513
16270SOL    HW150251   1.045   3.180   5.318 -1.1015 -0.1022  0.1310
16270SOL    HW250252   0.974   3.249   5.204 -1.4675 -0.3267  0.2243
16271SOL     OW50253   5.549   3.303   9.482 -0.1121 -0.3371  0.3549
16271SOL    HW150254   5.526   3.260   9.400 -2.3348  1.5509 -0.0987
16271SOL    HW250255   5.529   3.238   9.549  1.3855 -1.7674 -0.4977
16272SOL     OW50256   4.314   7.068   0.454  0.5602 -0.3764  0.1904
16272SOL    HW150257   4.282   7.044   0.541  0.4603 -4.7510 -0.7987
16272SOL    HW250258   4.244   7.121   0.415 -0.8182 -1.0259  1.6908
16273SOL     OW50259   3.806   6.895   6.940  0.5340 -0.1598 -0.1460
16273SOL    HW150260   3.842   6.957   6.876 -0.4085  2.1191  1.4216
16273SOL    HW250261   3.716   6.881   6.910  0.5633 -0.3020 -0.1665
16274SOL     OW50262   0.085   6.916   6.416 -0.0530 -0.1842 -0.4355
16274SOL    HW150263   0.137   6.971   6.357  3.7358 -0.4574  2.2746
16274SOL    HW250264   0.027   6.977   6.462  1.7726  1.1294  0.2260
16275SOL     OW50265   0.797   5.543   9.085 -0.0078  0.5400 -0.7997
16275SOL    HW150266   0.818   5.464   9.035  1.0984  1.3013 -1.5949
16275SOL    HW250267   0.870   5.602   9.067 -0.5439  1.5434  0.2223
16276SOL     OW50268   1.473   4.558   5.015 -0.4369  0.5099 -0.1684
16276SOL    HW150269   1.515   4.508   5.085 -1.6201 -2.3856 -1.3317
16276SOL    HW250270   1.410   4.615   5.060  0.7555  0.7728  1.2300
16277SOL     OW50271   6.431   1.729  12.401 -0.5652  0.3468 -0.1286
16277SOL    HW150272   6.350   1.762  12.363 -1.3057 -0.6187  0.5803
16277SOL    HW250273   6.420   1.634  12.404  1.3746 -0.0033 -1.7966
16278SOL     OW50274   0.798   6.238   1.454 -0.1960  0.6263 -0.1668
16278SOL    HW150275   0.843   6.159   1.426 -2.1013 -0.9673  1.0498
16278SOL    HW250276   0.836   6.259   1.539 -0.3018  0.4950 -0.0867
16279SOL     OW50277   5.846   4.622   2.268 -0.1939 -0.1680 -0.4067
16279SOL    HW150278   5.914   4.685   2.290  0.5935 -1.3795  0.7115
16279SOL    HW250279   5.803   4.602   2.351  0.9879 -2.6912 -0.3055
16280SOL     OW50280   1.185   7.402   1.959  0.6819 -0.6447 -0.7268
16280SOL    HW150281   1.270   7.383   1.998  1.2054 -2.3852 -2.5296
16280SOL    HW250282   1.133   7.438   2.031  2.1583 -1.8820  1.0655
16281SOL     OW50283   5.786   2.606   5.807 -0.0102 -0.4704  0.3309
16281SOL    HW150284   5.802   2.700   5.803 -1.7546 -0.1772 -1.0142
16281SOL    HW250285   5.837   2.569   5.735  0.5830 -0.5484  0.7873
16282SOL     OW50286   3.953   0.757  10.467 -0.6907 -0.3359 -0.7820
16282SOL    HW150287   4.006   0.836  10.465 -0.8704 -0.1828  0.2204
16282SOL    HW250288   3.908   0.757  10.382 -2.7679  2.1013  0.1628
16283SOL     OW50289   5.774   5.974   4.330 -0.3095  0.0032  0.1961
16283SOL    HW150290   5.717   5.918   4.278  0.6018 -0.4419 -0.3371
16283SOL    HW250291   5.809   5.916   4.398 -1.6484  0.6195  1.4771
16284SOL     OW50292   0.943   5.242  10.446 -0.0927  0.3520  0.2541
16284SOL    HW150293   0.903   5.311  10.500  0.4736  0.4606  0.5321
16284SOL    HW250294   1.034   5.238  10.475  0.0358 -0.0785 -0.2035
16285SOL     OW50295   1.702   4.442   5.170  0.3619 -0.2994 -0.4509
16285SOL    HW150296   1.760   4.436   5.094  0.3052 -0.4515 -0.4830
16285SOL    HW250297   1.717   4.530   5.206  0.4427 -0.2552 -0.5943
16286SOL     OW50298   1.704   5.124   9.868  0.2506  0.6243 -0.3428
16286SOL    HW150299   1.616   5.087   9.877 -1.2761  3.8131 -0.6459
16286SOL    HW250300   1.763   5.050   9.878 -2.3657 -1.3498  2.2673
16287SOL     OW50301   0.135   5.119  10.915  0.0527  0.8126 -0.1293
16287SOL    HW150302   0.040   5.107  10.924  0.3070 -1.1523  0.5059
16287SOL    HW250303   0.170   5.096  11.001  1.1159  1.6154 -0.3348
16288SOL     OW50304   2.070   1.087   6.611  0.3255 -0.0961 -0.4476
16288SOL    HW150305   2.096   1.067   6.521  1.2035 -1.2832  0.0453
16288SOL    HW250306   2.105   1.014   6.663  1.2557  1.3620  1.0834
16289SOL     OW50307   5.392   7.740   1.717 -0.0707  0.2922  0.2528
16289SOL    HW150308   5.433   7.821   1.687  1.3390 -0.5131 -0.1008
16289SOL    HW250309   5.452   7.705   1.783  0.2770 -1.3465 -0.8765
16290SOL     OW50310   5.077   7.733   1.795  0.3182 -0.1946 -0.3183
16290SOL    HW150311   4.992   7.721   1.754 -1.1184  1.2685  2.0276
16290SOL    HW250312   5.133   7.767   1.725 -1.3225 -0.1072 -1.6403
16291SOL     OW50313   7.264   4.892   4.727 -0.2341 -0.3521  0.4089
16291SOL    HW150314   7.338   4.889   4.787 -0.5673  0.8045  0.9018
16291SOL    HW250315   7.189   4.865   4.780 -0.1883 -1.5368 -0.0930
16292SOL     OW50316   3.259   1.318   7.959 -0.3852 -0.5514  0.2815
16292SOL    HW150317   3.302   1.352   8.038  1.7757 -1.6445 -0.3430
16292SOL    HW250318   3.228   1.396   7.913  0.1527  0.2331  1.2257
16293SOL     OW50319   7.000   1.675   3.424 -0.6192 -0.1559 -0.5938
16293SOL    HW150320   7.095   1.680   3.438 -0.8539  2.6695  0.5392
16293SOL    HW250321   6.969   1.619   3.495 -0.0619  1.2240  0.7909
16294SOL     OW50322   0.745   2.081   3.777  0.6373 -0.4714 -0.1429
16294SOL    HW150323   0.670   2.123   3.735  0.2118 -1.5602 -0.5155
16294SOL    HW250324   0.815   2.145   3.771 -0.3358  0.6806  0.4671
16295SOL     OW50325   7.594   2.657   5.336  0.4402 -0.0142 -0.3836
16295SOL    HW150326   7.564   2.647   5.426 -0.6693  0.8037 -0.6539
16295SOL    HW250327   7.684   2.690   5.345  0.8494 -1.2608  0.4118
16296SOL     OW50328   5.094   0.082   7.945  0.0449 -0.2616 -0.7879
16296SOL    HW150329   5.131   0.164   7.912 -2.3968  2.0613  1.6805
16296SOL    HW250330   5.028   0.057   7.879  0.6377 -0.1291 -1.4406
16297SOL     OW50331   7.953   1.915   4.787  0.1697 -0.1055 -0.0879
16297SOL    HW150332   7.876   1.961   4.752  0.3865  0.5454  0.2560
16297SOL    HW250333   7.918   1.853   4.850 -0.1390 -0.4967 -0.6352
16298SOL     OW50334   2.580   1.001   7.511 -0.0747 -0.0819  0.7093
16298SOL    HW150335   2.604   1.093   7.500 -1.6422  0.3955  1.0151
16298SOL    HW250336   2.662   0.957   7.534  0.8654  1.0768 -0.2718
16299SOL     OW50337   5.288   7.838   6.058  0.5925  0.3464  0.1420
16299SOL    HW150338   5.206   7.795   6.082 -0.4225  2.1265  0.0475
16299SOL    HW250339   5.356   7.773   6.078 -0.8762 -1.5098 -0.6381
16300SOL     OW50340   7.385   4.520  11.827 -0.1133  0.1830 -0.0894
16300SOL    HW150341   7.469   4.479  11.851 -1.3224 -2.2662  0.2976
16300SOL    HW250342   7.406   4.613  11.817  2.8658 -0.4841 -1.1097
16301SOL     OW50343   1.992   6.985   2.075 -0.1339  0.0786  0.0182
16301SOL    HW150344   1.944   7.025   2.002 -1.5451  0.3433  1.0392
16301SOL    HW250345   1.978   6.891   2.063  0.3778  0.0678 -0.5317
16302SOL     OW50346   5.781   3.813   5.177 -0.0523  0.2735  0.4996
16302SOL    HW150347   5.826   3.897   5.190 -0.6594  1.0433 -1.8758
16302SOL    HW250348   5.694   3.838   5.146  0.4287 -1.1749 -2.3576
16303SOL     OW50349   2.340   2.148   9.426  0.1166 -0.4516 -0.0305
16303SOL    HW150350   2.364   2.144   9.518 -1.2824  0.2635  0.4043
16303SOL    HW250351   2.347   2.241   9.403 -2.7797 -0.0404  0.3566
16304SOL     OW50352   1.967   2.879   2.266 -0.7462 -0.1982 -0.3486
16304SOL    HW150353   2.028   2.815   2.302  0.2383  0.8854 -0.0170
16304SOL    HW250354   1.960   2.855   2.173  0.6354 -0.0229 -0.5170
16305SOL     OW50355   1.289   0.324  11.314 -0.1588 -0.1499 -0.5938
16305SOL    HW150356   1.319   0.348  11.226 -1.2845 -1.7205 -1.4487
16305SOL    HW250357   1.335   0.242  11.333  0.8762  0.7007  0.7596
16306SOL     OW50358   6.471   6.199   6.577  0.0073 -0.0185  0.2284
16306SOL    HW150359   6.401   6.141   6.549 -0.6813  1.1313 -0.5483
16306SOL    HW250360   6.427   6.274   6.617  0.8172  0.4132  0.3503
16307SOL     OW50361   3.569   6.574   0.344 -0.3296 -0.2861 -0.1210
16307SOL    HW150362   3.494   6.531   0.386  1.2762 -1.7938  1.4351
16307SOL    HW250363   3.628   6.501   0.322  0.7178  0.8508 -1.1902
16308SOL     OW50364   0.878   3.111   6.274 -0.0678  0.5233 -0.1755
16308SOL    HW150365   0.914   3.171   6.339 -1.2673  1.0168  0.0575
16308SOL    HW250366   0.812   3.162   6.227 -1.1967 -0.6258  0.1043
16309SOL     OW50367   4.809   1.542  10.747  0.0521 -0.4100 -0.5886
16309SOL    HW150368   4.747   1.545  10.820 -1.1626 -2.1753 -1.4712
16309SOL    HW250369   4.755   1.524  10.670  1.2532  1.7486 -2.0368
16310SOL     OW50370   2.056   7.253   2.101 -0.6275 -0.3688  0.2705
16310SOL    HW150371   2.025   7.169   2.069 -1.2351  0.4475 -1.4324
16310SOL    HW250372   2.001   7.271   2.177 -2.1620 -0.4443 -0.7765
16311SOL     OW50373   0.321   7.223   5.290 -0.3332  0.0844 -0.8993
16311SOL    HW150374   0.278   7.308   5.283 -0.4942  0.0923  0.0412
16311SOL    HW250375   0.252   7.160   5.269 -0.0872  0.1905 -2.0923
16312SOL     OW50376   3.283   7.707   4.664  0.1842  0.6371 -0.2482
16312SOL    HW150377   3.232   7.782   4.696 -0.8036 -0.9033  1.9740
16312SOL    HW250378   3.316   7.665   4.743  1.4079 -0.8428 -1.4884
16313SOL     OW50379   5.408   1.748   9.517 -0.3273  0.5150  0.2421
16313SOL    HW150380   5.400   1.737   9.422 -2.0468  0.2080  0.3862
16313SOL    HW250381   5.410   1.842   9.530 -1.1831  0.5828 -0.0492
16314SOL     OW50382   2.512   0.243   0.400  0.1875  0.0474 -0.2602
16314SOL    HW150383   2.476   0.178   0.460  0.3967 -1.2933 -1.5173
16314SOL    HW250384   2.435   0.289   0.366  0.1484  2.0165  2.2257
16315SOL     OW50385   7.132   0.986  12.406 -0.0733 -0.0230 -0.4987
16315SOL    HW150386   7.044   0.984  12.442  0.3074  0.9638  0.5379
16315SOL    HW250387   7.131   0.920  12.336 -1.0399 -1.5118  0.8496
16316SOL     OW50388   4.847   1.977  10.126  0.1122 -0.3201 -0.0778
16316SOL    HW150389   4.815   2.044  10.186  0.4566 -1.5931  1.5793
16316SOL    HW250390   4.770   1.922  10.108 -0.1139  0.3391 -1.2482
16317SOL     OW50391   6.361   5.691   3.923  0.4694  0.1224 -0.0008
16317SOL    HW150392   6.429   5.714   3.986  0.7608 -2.2686  0.6532
16317SOL    HW250393   6.409   5.651   3.850 -0.0255  1.1829 -0.9424
16318SOL     OW50394   1.305   3.892   2.884  0.3833 -0.2293  0.2796
16318SOL    HW150395   1.217   3.912   2.916  0.4622  1.2165 -0.3255
16318SOL    HW250396   1.345   3.978   2.870  1.6374 -0.8643 -0.1318
16319SOL     OW50397   7.175   3.613  12.138 -0.1134  0.3918 -0.4301
16319SOL    HW150398   7.229   3.536  12.152 -1.0407  0.0841  2.1103
16319SOL    HW250399   7.224   3.685  12.179 -0.4590  0.6123 -0.3957
16320SOL     OW50400   0.758   2.930  10.377 -0.6734  0.0611  0.2666
16320SOL    HW150401   0.669   2.947  10.346  0.3666  2.4461 -1.7502
16320SOL    HW250402   0.808   3.008  10.352  1.5619 -0.2058  3.2650
16321SOL     OW50403   1.788   5.754   9.767  0.0573  0.2179  0.4834
16321SOL    HW150404   1.783   5.671   9.718 -1.1633  0.3322  0.3887
16321SOL    HW250405   1.699   5.789   9.764  0.5586  1.5328  0.5484
16322SOL     OW50406   5.472   0.780  11.417  0.0241  0.0963 -0.1357
16322SOL    HW150407   5.426   0.849  11.464 -1.3971  0.8860 -2.4756
16322SOL    HW250408   5.561   0.782  11.451 -0.9046  0.4872  2.5126
16323SOL     OW50409   4.729   5.004   6.287  0.2767  0.5627 -0.1570
16323SOL    HW150410   4.719   4.912   6.309 -0.7113  0.7011  0.0132
16323SOL    HW250411   4.797   5.006   6.219 -1.4380 -0.5454 -1.9720
16324SOL     OW50412   4.787   7.080  11.357 -0.1195 -0.6371  0.9089
16324SOL    HW150413   4.873   7.080  11.400 -0.2523 -2.6239  1.2662
16324SOL    HW250414   4.724   7.070  11.428 -0.6107  0.1239  0.5891
16325SOL     OW50415   3.832   7.644   8.402 -0.1631  0.2292 -0.0075
16325SOL    HW150416   3.872   7.727   8.375  0.1044 -0.5168 -2.0788
16325SOL    HW250417   3.776   7.668   8.476  0.5406  2.1067 -0.0214
16326SOL     OW50418   0.007   6.854   1.786  0.0397  0.5408 -0.3153
16326SOL    HW150419  -0.060   6.811   1.838  0.4206  0.5818  0.2249
16326SOL    HW250420   0.079   6.868   1.848  0.1113  1.5002 -0.6067
16327SOL     OW50421   2.438   2.478   7.063 -0.7969 -0.3755  0.3354
16327SOL    HW150422   2.376   2.419   7.021 -1.9372  0.7049  0.4398
16327SOL    HW250423   2.523   2.438   7.048 -1.5355 -2.1118  0.5402
16328SOL     OW50424   4.474   4.852  11.939  0.2419 -0.0417 -0.1760
16328SOL    HW150425   4.569   4.854  11.948  0.3132  0.7573 -0.9165
16328SOL    HW250426   4.446   4.776  11.990  1.2601 -0.2032  0.1626
16329SOL     OW50427   3.373   6.047   8.223  0.2218 -0.0353  0.1352
16329SOL    HW150428   3.333   5.964   8.248 -1.3380  0.8281  0.6247
16329SOL    HW250429   3.405   6.032   8.134 -2.7190 -0.3215 -0.9820
16330SOL     OW50430   5.291   7.465   5.217  0.2079 -0.0227  0.1560
16330SOL    HW150431   5.374   7.511   5.206  0.2217 -0.2167 -0.5560
16330SOL    HW250432   5.264   7.488   5.306  0.2112  1.3778 -0.1734
16331SOL     OW50433   5.026   7.842   3.613 -0.0391  0.3252  0.0119
16331SOL    HW150434   5.067   7.763   3.646 -0.4696  0.2709  0.4376
16331SOL    HW250435   5.051   7.847   3.521 -1.7592 -1.4783 -0.6186
16332SOL     OW50436   3.822   4.514   6.111  0.9659 -0.3641 -0.3054
16332SOL    HW150437   3.802   4.606   6.127 -0.1672 -0.3552 -1.6816
16332SOL    HW250438   3.809   4.472   6.197  1.4381  0.7154  0.3205
16333SOL     OW50439   3.502   6.978   3.592 -0.2168 -0.5522 -0.1221
16333SOL    HW150440   3.571   7.043   3.574  0.3586 -1.5879 -1.9073
16333SOL    HW250441   3.535   6.897   3.554 -2.2663 -1.1670 -0.6987
16334SOL     OW50442   3.502   6.564   3.365  0.0407  0.2269 -0.6080
16334SOL    HW150443   3.551   6.635   3.407 -0.5753  0.6025 -0.5140
16334SOL    HW250444   3.437   6.538   3.430 -0.1063 -0.0333 -0.8583
16335SOL     OW50445   3.190   5.069  12.203 -0.0096 -0.2660  0.4576
16335SOL    HW150446   3.200   5.087  12.297  0.7722 -1.1833  0.5711
16335SOL    HW250447   3.256   5.123  12.161  0.5131 -0.8013  0.5654
16336SOL     OW50448   6.353   1.123   4.801  0.1222  0.1069 -0.6165
16336SOL    HW150449   6.340   1.214   4.828  0.4995 -0.2215  0.7457
16336SOL    HW250450   6.440   1.122   4.760  2.3271 -0.4065  3.5074
16337SOL     OW50451   1.901   7.596   4.938 -0.2191  0.0250 -0.3598
16337SOL    HW150452   1.996   7.605   4.930 -0.2730  0.5527 -0.4760
16337SOL    HW250453   1.877   7.540   4.864 -0.3219  2.2662 -2.1495
16338SOL     OW50454   7.379   5.200   5.686  0.0903  0.2726 -0.0483
16338SOL    HW150455   7.290   5.232   5.672  0.2564  0.1308 -1.5693
16338SOL    HW250456   7.368   5.130   5.751 -1.2162 -1.0083 -1.5326
16339SOL     OW50457   3.752   5.452   8.504 -0.4104 -0.5060  0.2808
16339SOL    HW150458   3.695   5.512   8.553 -0.7770 -0.1366 -0.5830
16339SOL    HW250459   3.777   5.501   8.426 -1.4283 -1.7898 -0.8947
16340SOL     OW50460   2.364   4.138  11.288  0.2599  0.4398 -0.1307
16340SOL    HW150461   2.425   4.075  11.326  0.3181  0.9083  0.5557
16340SOL    HW250462   2.395   4.223  11.318 -0.5162  0.7127 -0.0762
16341SOL     OW50463   2.445   6.406   5.624  0.2522  0.4652  0.4045
16341SOL    HW150464   2.443   6.314   5.599  0.9208  0.0481  1.7644
16341SOL    HW250465   2.491   6.450   5.552 -3.3621  0.4570 -2.1693
16342SOL     OW50466   6.843   3.173   9.035  0.3115  0.5532 -0.4201
16342SOL    HW150467   6.811   3.263   9.028  2.3838  1.6058  1.9101
16342SOL    HW250468   6.816   3.144   9.122  2.1080  0.0467  0.0230
16343SOL     OW50469   4.599   3.975  12.328  0.2490 -0.1530 -0.2130
16343SOL    HW150470   4.648   3.896  12.352  0.7143  0.0828 -0.3596
16343SOL    HW250471   4.526   3.979  12.389 -0.4977 -1.3846 -0.9952
16344SOL     OW50472   1.208   6.921   6.354  0.2296 -0.0738 -0.1560
16344SOL    HW150473   1.132   6.957   6.309  0.4310  0.2179 -0.2595
16344SOL    HW250474   1.171   6.876   6.430 -0.2128 -1.4984 -1.1702
16345SOL     OW50475   4.912   7.062   8.297 -0.1548  0.0908 -0.0266
16345SOL    HW150476   4.848   6.994   8.317  1.0549 -0.3468  2.6917
16345SOL    HW250477   4.994   7.030   8.333  1.3448  1.2988 -2.1266
16346SOL     OW50478   5.056   6.600   0.734 -0.2392  0.3521  0.8022
16346SOL    HW150479   4.962   6.598   0.751 -0.1658 -1.2744  1.2173
16346SOL    HW250480   5.091   6.662   0.798 -0.8625 -0.1887  1.6893
16347SOL     OW50481   3.533   5.507   2.881  0.3683 -0.5686 -0.2290
16347SOL    HW150482   3.587   5.442   2.836 -0.6181 -1.5110 -0.0983
16347SOL    HW250483   3.484   5.456   2.946 -2.0400 -0.0975 -1.5450
16348SOL     OW50484   1.433   1.885   2.046 -0.2028 -0.1782  0.2439
16348SOL    HW150485   1.389   1.959   2.087  0.1901  0.7297 -0.9156
16348SOL    HW250486   1.364   1.843   1.994 -0.0897  0.2757 -0.2823
16349SOL     OW50487   5.898   1.036   5.064 -0.4865  0.0751 -0.5260
16349SOL    HW150488   5.962   1.005   5.001  0.5661  1.7259 -0.3313
16349SOL    HW250489   5.946   1.099   5.118 -1.9776  0.4875  0.3835
16350SOL     OW50490   4.634   1.735   1.088 -0.3125 -0.4592 -0.3597
16350SOL    HW150491   4.673   1.779   1.163  0.3448 -1.5653 -0.0292
16350SOL    HW250492   4.588   1.804   1.041 -0.1426  0.3848  0.6733
16351SOL     OW50493   0.354   1.135   6.992 -0.2268 -0.1189 -1.0792
16351SOL    HW150494   0.291   1.200   6.960 -0.2295 -0.0745 -0.9839
16351SOL    HW250495   0.303   1.077   7.048  0.5732  2.5199  2.7541
16352SOL     OW50496   1.672   3.999   2.828  0.8501 -0.2793 -0.2623
16352SOL    HW150497   1.665   3.922   2.771  1.9867 -1.0783  0.6408
16352SOL    HW250498   1.709   3.966   2.909  1.0387  1.1763  0.2751
16353SOL     OW50499   4.276   6.422   1.199 -0.4581  0.1898  0.2114
16353SOL    HW150500   4.182   6.435   1.184 -0.5422 -0.2838  0.3112
16353SOL    HW250501   4.312   6.511   1.203 -0.8633  0.3707 -0.0639
16354SOL     OW50502   6.562   5.767   9.317 -0.1327 -0.5339  0.1926
16354SOL    HW150503   6.648   5.808   9.306 -0.0329 -0.4457  1.1819
16354SOL    HW250504   6.576   5.675   9.294  0.4575 -0.7213  1.2595
16355SOL     OW50505   5.484   7.126   4.502 -0.1077  0.7700  0.4613
16355SOL    HW150506   5.441   7.084   4.428 -0.5171  0.7227  0.7249
16355SOL    HW250507   5.412   7.153   4.560  0.2588 -0.4528  1.5349
16356SOL     OW50508   2.988   3.352   9.019 -0.1056 -0.1665 -0.5073
16356SOL    HW150509   3.022   3.386   9.102  1.0819 -0.3365 -0.9054
16356SOL    HW250510   2.974   3.430   8.966 -1.7735  0.0227  0.1522
16357SOL     OW50511   2.211   0.176  10.601 -0.4997 -0.1002 -0.0703
16357SOL    HW150512   2.242   0.089  10.577  0.1024  0.0713  0.0585
16357SOL    HW250513   2.143   0.196  10.537  0.9313  0.2750 -1.5483
16358SOL     OW50514   4.165   7.795   2.649 -0.1460 -0.0967  0.4829
16358SOL    HW150515   4.150   7.726   2.714 -1.9044  0.9995  1.3257
16358SOL    HW250516   4.206   7.866   2.699  0.2945  0.0272 -0.0456
16359SOL     OW50517   2.144   6.466   5.056 -0.4611 -0.0860 -0.2923
16359SOL    HW150518   2.106   6.548   5.088 -2.3840 -0.2443 -1.9831
16359SOL    HW250519   2.118   6.461   4.964  0.9453 -1.8503 -0.6485
16360SOL     OW50520   7.163   5.840   0.457 -0.2286  0.7533  0.0123
16360SOL    HW150521   7.192   5.902   0.524 -0.1204  0.0550  0.6202
16360SOL    HW250522   7.069   5.855   0.449 -0.3561  0.3926  0.7943
16361SOL     OW50523   5.501   2.892  10.376  0.1963 -0.1278  0.2142
16361SOL    HW150524   5.548   2.948  10.315 -2.5112  1.6128 -0.4970
16361SOL    HW250525   5.448   2.835  10.320 -0.8616  0.1439  0.9088
16362SOL     OW50526   5.799   6.923   2.208 -0.4236 -0.8322 -0.0409
16362SOL    HW150527   5.748   6.843   2.205  2.2164 -2.6582  0.2217
16362SOL    HW250528   5.874   6.907   2.150  0.5281  1.1693  0.5283
16363SOL     OW50529   2.125   5.093   6.912 -0.3800 -0.1197 -0.2618
16363SOL    HW150530   2.191   5.159   6.934  0.1294 -0.6851 -0.0652
16363SOL    HW250531   2.051   5.143   6.877  0.2667  0.4982 -0.7549
16364SOL     OW50532   2.504   3.700   4.050  0.2726 -0.5257  0.0459
16364SOL    HW150533   2.540   3.770   3.995 -0.7287 -1.5599 -2.0358
16364SOL    HW250534   2.570   3.631   4.048  0.1070 -0.6820 -0.1290
16365SOL     OW50535   7.650   2.809   4.576 -0.3784  0.0743  0.3579
16365SOL    HW150536   7.641   2.871   4.504  0.2394 -0.9086 -0.5898
16365SOL    HW250537   7.566   2.764   4.580  0.8079 -2.9097 -2.6926
16366SOL     OW50538   7.102   5.165   6.483 -0.5793  0.1127  0.0567
16366SOL    HW150539   7.108   5.172   6.578  1.7649  1.9115 -0.1399
16366SOL    HW250540   7.127   5.075   6.464  2.7095  0.6879  1.0294
16367SOL     OW50541   3.306   4.141   8.992  0.5654 -0.0919  0.4254
16367SOL    HW150542   3.289   4.125   8.899 -1.2160 -2.5067  1.0353
16367SOL    HW250543   3.366   4.071   9.018 -0.6994 -0.8269  1.5051
16368SOL     OW50544   3.382   2.214  12.029  0.1469 -0.1308 -0.0137
16368SOL    HW150545   3.379   2.267  11.950 -0.7465 -1.0783 -0.6398
16368SOL    HW250546   3.392   2.277  12.100  2.4940  0.6610 -0.9368
16369SOL     OW50547   3.926   4.263   2.007 -0.3826  0.0356  0.0105
16369SOL    HW150548   3.888   4.348   1.984 -1.0641 -0.4667 -0.7988
16369SOL    HW250549   3.898   4.248   2.097 -1.1008  0.2314 -0.1658
16370SOL     OW50550   5.940   7.316   5.899  0.5323  0.1514 -0.0915
16370SOL    HW150551   5.862   7.262   5.903  0.0412  0.8967  0.8431
16370SOL    HW250552   5.914   7.394   5.849  1.0800 -0.2046 -0.9634
16371SOL     OW50553   6.526   0.084   7.666  0.2548 -0.1412 -0.4979
16371SOL    HW150554   6.489   0.053   7.749 -0.5739 -1.0721 -1.2006
16371SOL    HW250555   6.450   0.091   7.607  1.2052 -2.5651 -2.1286
16372SOL     OW50556   0.083   7.160   1.072  0.0300 -0.1037  0.2024
16372SOL    HW150557   0.115   7.248   1.094 -1.0286  0.1229  0.9155
16372SOL    HW250558   0.079   7.114   1.156  0.5572 -0.8499 -0.1630
16373SOL     OW50559   1.270   1.217   3.500 -0.1992 -0.3666 -0.6997
16373SOL    HW150560   1.255   1.140   3.555 -0.3408 -0.6727 -1.1608
16373SOL    HW250561   1.224   1.198   3.419  1.7318 -0.8391 -1.7506
16374SOL     OW50562   2.711   4.995   5.186 -0.4970  0.0123  0.4119
16374SOL    HW150563   2.648   4.924   5.202 -0.9803 -0.1219 -1.8159
16374SOL    HW250564   2.662   5.075   5.205 -0.3734 -0.1641  1.5835
16375SOL     OW50565   0.843   5.881   2.686  0.1520  0.1340 -0.5021
16375SOL    HW150566   0.877   5.948   2.745  0.2277 -0.2515 -0.0989
16375SOL    HW250567   0.771   5.841   2.735  0.5958 -0.5903 -0.4274
16376SOL     OW50568   0.586   6.455  10.759  0.1116  0.4575 -0.0473
16376SOL    HW150569   0.574   6.538  10.714  2.4928  0.0975 -1.5357
16376SOL    HW250570   0.646   6.405  10.703  0.1505 -1.5805  1.6450
16377SOL     OW50571   2.236   4.556   7.734 -0.1646 -0.5491 -0.1748
16377SOL    HW150572   2.291   4.495   7.781 -0.6340  0.4151  1.7084
16377SOL    HW250573   2.154   4.508   7.719  0.0239 -0.8900 -0.1141
16378SOL     OW50574   4.607   3.482   4.613 -0.1748  0.1285 -0.0479
16378SOL    HW150575   4.659   3.543   4.562  0.3620  0.1033  0.4590
16378SOL    HW250576   4.666   3.452   4.683 -1.0259  0.5147  0.8628
16379SOL     OW50577   7.576   4.291   5.464  0.2773  0.3613  0.1078
16379SOL    HW150578   7.540   4.273   5.377  0.4833 -0.6120  0.2100
16379SOL    HW250579   7.586   4.386   5.466 -4.1466  1.0400  0.8105
16380SOL     OW50580   2.361   4.567  10.739  0.2174 -0.1387 -0.0861
16380SOL    HW150581   2.377   4.473  10.729 -1.0695 -0.2757 -1.0763
16380SOL    HW250582   2.443   4.609  10.711  0.2641 -0.9244 -1.1876
16381SOL     OW50583   5.248   5.785   1.702 -0.3015  0.1846  0.4945
16381SOL    HW150584   5.263   5.828   1.617 -1.7867  1.2203  0.7255
16381SOL    HW250585   5.334   5.754   1.728  0.2940  0.3854 -1.1127
16382SOL     OW50586   7.515   4.085   3.173  0.4690 -0.0483 -0.0178
16382SOL    HW150587   7.474   3.999   3.185 -0.2260  0.2673 -0.0379
16382SOL    HW250588   7.604   4.075   3.207  0.2535 -0.6590  0.3769
16383SOL     OW50589   1.516   3.395   7.334 -0.0343  0.5680  0.0856
16383SOL    HW150590   1.488   3.363   7.420  0.3347  0.4930  0.1794
16383SOL    HW250591   1.451   3.361   7.273  0.6104 -0.7885  0.1178
16384SOL     OW50592   7.290   2.902   5.371  0.1337  0.7052 -0.0567
16384SOL    HW150593   7.368   2.913   5.426 -0.0405  1.5402  0.0486
16384SOL    HW250594   7.320   2.851   5.296 -0.0068 -1.9663  1.5914
16385SOL     OW50595   0.822   4.566   7.131  0.0267 -0.8147 -0.1088
16385SOL    HW150596   0.755   4.523   7.078 -1.0235  1.9206 -1.1567
16385SOL    HW250597   0.786   4.653   7.150  2.9029  0.4404  0.0634
16386SOL     OW50598   4.724   5.834   2.803  0.1813  0.5617  0.1451
16386SOL    HW150599   4.692   5.820   2.714 -0.1746  0.8215  0.2336
16386SOL    HW250600   4.814   5.802   2.801  0.9686  2.6662 -0.9278
16387SOL     OW50601   5.446   1.076   0.600 -0.0564 -0.0657 -0.4402
16387SOL    HW150602   5.482   1.022   0.530 -0.2126  0.9972 -1.3715
16387SOL    HW250603   5.499   1.055   0.677  0.6423 -0.6602 -1.0708
16388SOL     OW50604   4.764   5.118   5.504 -0.3160 -0.2545  0.1222
16388SOL    HW150605   4.709   5.148   5.577  0.5574  3.1476 -0.4299
16388SOL    HW250606   4.854   5.125   5.537 -0.0115 -2.2959 -0.1515
16389SOL     OW50607   1.163   2.478  10.840 -0.1494  0.5092  0.3799
16389SOL    HW150608   1.195   2.500  10.927  0.3610  1.6849 -0.0825
16389SOL    HW250609   1.202   2.392  10.821  0.6492  0.7626  0.8553
16390SOL     OW50610   0.900   4.221   4.964  0.0484  0.0603 -0.4169
16390SOL    HW150611   0.841   4.294   4.947 -0.1944 -0.1280 -0.3849
16390SOL    HW250612   0.858   4.171   5.034  0.9334  0.6977  0.6003
16391SOL     OW50613   5.084   0.922   2.681  0.4029  0.1539  0.3467
16391SOL    HW150614   5.034   1.002   2.700  0.5984  0.3024  0.2446
16391SOL    HW250615   5.060   0.861   2.751 -3.2241 -1.3527 -1.8887
16392SOL     OW50616   7.234   2.791   8.778  0.0407  0.3975  0.1495
16392SOL    HW150617   7.151   2.778   8.823  0.0798 -1.6075 -0.2687
16392SOL    HW250618   7.300   2.773   8.845  0.1007 -0.8826 -0.2253
16393SOL     OW50619   0.528   4.006  11.478  0.2451  0.2493  0.0675
16393SOL    HW150620   0.488   3.952  11.410 -1.0664  3.9967 -2.4542
16393SOL    HW250621   0.455   4.054  11.516  1.5777  2.3509  0.1126
16394SOL     OW50622   6.466   3.631   2.684 -0.0008  0.3951  0.3823
16394SOL    HW150623   6.437   3.596   2.600  0.1999 -0.0865  0.5147
16394SOL    HW250624   6.558   3.606   2.691 -0.0337  0.3772  0.7772
16395SOL     OW50625   4.183   2.274   2.353  0.5351 -0.5594 -0.6905
16395SOL    HW150626   4.107   2.277   2.410  0.4375 -1.3438 -0.7690
16395SOL    HW250627   4.242   2.341   2.387 -0.3257  0.2777 -0.8368
16396SOL     OW50628   3.869   7.958   9.982 -0.1180 -0.5579 -0.1361
16396SOL    HW150629   3.824   8.014  10.046  1.5352  0.9394 -0.1797
16396SOL    HW250630   3.806   7.944   9.913 -1.5006 -1.0609  1.1755
16397SOL     OW50631   7.605   3.448   2.431 -0.3616 -0.4113  0.2644
16397SOL    HW150632   7.520   3.472   2.468 -0.5756 -1.7488  0.6773
16397SOL    HW250633   7.593   3.457   2.336 -1.4605 -2.0125  0.2020
16398SOL     OW50634   7.415   2.183   2.570 -0.5415  0.1017  0.4860
16398SOL    HW150635   7.494   2.149   2.529 -1.6743  0.7191 -2.4461
16398SOL    HW250636   7.359   2.106   2.583 -0.5916  0.0136 -0.2017
16399SOL     OW50637   4.944   1.410   3.512 -0.2282  0.0692 -0.1294
16399SOL    HW150638   4.919   1.489   3.559 -0.8567 -0.7393  0.9308
16399SOL    HW250639   5.039   1.404   3.525 -0.0784  0.9670 -0.7407
16400SOL     OW50640   7.413   6.632   5.266 -0.2196  0.5236  0.5471
16400SOL    HW150641   7.396   6.663   5.355 -0.9998 -0.1151  0.6264
16400SOL    HW250642   7.502   6.662   5.247 -0.1078  0.8123  1.4757
16401SOL     OW50643   3.485   4.155   6.911 -0.5361  0.5387 -0.0078
16401SOL    HW150644   3.551   4.190   6.971  0.2354 -0.9734  0.0577
16401SOL    HW250645   3.417   4.121   6.968  0.8163 -2.1332  0.1496
16402SOL     OW50646   3.613   7.089   7.892  0.1459 -0.7578  0.0337
16402SOL    HW150647   3.671   7.068   7.819 -0.7957 -1.2349 -0.6128
16402SOL    HW250648   3.648   7.170   7.929 -0.9482  1.1623 -2.7678
16403SOL     OW50649   3.407   2.370   0.299 -0.0107 -0.5113  0.1427
16403SOL    HW150650   3.493   2.409   0.284 -0.4822  0.2522 -0.7365
16403SOL    HW250651   3.400   2.301   0.233  0.0479 -0.7765  0.4133
16404SOL     OW50652   0.457   4.793   4.877  0.8619  0.3888  0.5356
16404SOL    HW150653   0.381   4.819   4.928  2.0796  0.3342  2.4895
16404SOL    HW250654   0.473   4.702   4.902  1.5070  0.3649  0.0768
16405SOL     OW50655   4.437   5.668   9.371  0.1385  0.2986 -0.3630
16405SOL    HW150656   4.456   5.696   9.461  2.5037  0.3365 -0.8109
16405SOL    HW250657   4.392   5.584   9.381 -0.2242  0.6145  0.8480
16406SOL     OW50658   2.021   2.250   7.915 -0.1467  0.8242  0.0884
16406SOL    HW150659   2.077   2.185   7.874 -0.6335  1.5134 -1.7645
16406SOL    HW250660   2.063   2.334   7.896  0.1832  1.1205  1.9763
16407SOL     OW50661   1.540   5.488   6.575  0.2325 -0.0797 -0.4574
16407SOL    HW150662   1.634   5.504   6.561  0.3560 -0.3436  0.0421
16407SOL    HW250663   1.508   5.462   6.489  0.1349  2.2125 -1.1787
16408SOL     OW50664   1.114   7.451  11.330 -0.0076  0.0360 -0.0233
16408SOL    HW150665   1.119   7.355  11.331 -0.7767 -0.0093 -0.0924
16408SOL    HW250666   1.053   7.473  11.401  1.6070  0.5886  1.2718
16409SOL     OW50667   0.974   1.391   3.228  0.6474 -0.2489  0.0554
16409SOL    HW150668   1.002   1.469   3.276 -3.4688  1.3847  0.2844
16409SOL    HW250669   0.981   1.416   3.136  2.4412 -0.9290 -0.0182
16410SOL     OW50670   1.932   3.976   7.472  0.2464 -0.0203  0.1268
16410SOL    HW150671   1.910   4.021   7.391 -1.5066  0.0718  0.6208
16410SOL    HW250672   1.972   3.893   7.443  0.2341  0.2925 -0.8053
16411SOL     OW50673   0.590   6.081   8.612 -0.6884 -0.3462 -0.1321
16411SOL    HW150674   0.544   6.095   8.529 -0.7092  0.2271 -0.0262
16411SOL    HW250675   0.589   5.986   8.624  1.1403 -0.6508 -1.8415
16412SOL     OW50676   7.312   1.409   9.816  0.4003 -0.5639  0.6393
16412SOL    HW150677   7.361   1.457   9.749 -0.3453  2.4206  2.0749
16412SOL    HW250678   7.274   1.335   9.769  2.3332 -0.2954 -1.5342
16413SOL     OW50679   1.124   5.991   6.518 -0.5362  0.0289  0.3491
16413SOL    HW150680   1.069   5.946   6.453  0.0907  0.8827 -0.7991
16413SOL    HW250681   1.149   6.073   6.476  0.0793  0.5017  1.5921
16414SOL     OW50682   7.627   6.287   1.001  0.2241  0.1759 -0.1426
16414SOL    HW150683   7.704   6.307   1.055  0.9702 -2.6591 -0.0208
16414SOL    HW250684   7.568   6.241   1.059  0.1616 -1.1377 -1.2057
16415SOL     OW50685   3.561   5.545   1.308  0.0750  0.0681 -0.2338
16415SOL    HW150686   3.544   5.461   1.351  0.3832  0.6197  1.0224
16415SOL    HW250687   3.483   5.561   1.255 -0.9754  0.0079  1.2333
16416SOL     OW50688   6.120   6.092   3.500 -0.4303 -0.2001  0.1331
16416SOL    HW150689   6.131   6.146   3.422 -0.5647  0.3280  0.4786
16416SOL    HW250690   6.069   6.146   3.561  2.2469  0.6103  1.8010
16417SOL     OW50691   0.461   3.848   7.666 -0.0065  0.3638 -0.6244
16417SOL    HW150692   0.529   3.913   7.683  1.0406 -1.2072  1.8005
16417SOL    HW250693   0.392   3.870   7.729  0.3868 -0.8548  0.2632
16418SOL     OW50694   4.849   5.248  10.183 -0.1527  0.0408  0.3553
16418SOL    HW150695   4.916   5.186  10.212  0.0567 -0.3265 -0.8559
16418SOL    HW250696   4.883   5.283  10.100 -0.5469  1.3379  0.7158
16419SOL     OW50697   5.386   4.864  11.453 -0.2894 -0.3338  0.4625
16419SOL    HW150698   5.473   4.860  11.492  0.4797 -0.2513 -1.1429
16419SOL    HW250699   5.377   4.954  11.423 -0.6000 -0.5355 -0.0700
16420SOL     OW50700   5.657   1.981   9.505  0.5622 -0.0195  0.4765
16420SOL    HW150701   5.752   1.968   9.505  0.6256  0.0684  2.6392
16420SOL    HW250702   5.642   2.053   9.567 -0.8829  0.4345 -0.3433
16421SOL     OW50703   7.693   1.896   8.263 -0.7525  0.6526  0.2173
16421SOL    HW150704   7.677   1.805   8.290  0.4106  0.1739 -0.6434
16421SOL    HW250705   7.755   1.930   8.328 -0.2787  0.4497 -0.1230
16422SOL     OW50706   0.491   5.428   4.388 -0.0623  0.4372 -0.5031
16422SOL    HW150707   0.557   5.414   4.320 -0.1131  0.0375 -0.4727
16422SOL    HW250708   0.452   5.342   4.402 -1.1196  0.8011 -1.0589
16423SOL     OW50709   6.328   1.096   3.016  0.2091  0.5679 -0.3613
16423SOL    HW150710   6.330   1.155   3.091 -1.3780 -0.2000  0.3296
16423SOL    HW250711   6.284   1.147   2.947  0.1221  0.6921 -0.2150
16424SOL     OW50712   3.982   2.778   2.159 -0.3199  0.1817 -0.1891
16424SOL    HW150713   4.016   2.863   2.189 -2.5684  0.6030  1.3948
16424SOL    HW250714   4.029   2.714   2.213 -2.6829  0.8214  2.9218
16425SOL     OW50715   7.918   5.956  11.719  0.0608 -0.0315 -0.3203
16425SOL    HW150716   7.860   5.882  11.734 -1.0216  1.1204  1.5368
16425SOL    HW250717   8.006   5.920  11.729 -0.4633 -0.8828  1.7089
16426SOL     OW50718   0.929   3.498   0.135  0.9946 -0.4869  0.3302
16426SOL    HW150719   0.842   3.521   0.103 -0.4014 -0.0101  3.9677
16426SOL    HW250720   0.989   3.533   0.069 -1.4727  1.4167 -1.0814
16427SOL     OW50721   0.592   2.063   1.870  0.3112 -0.1820  1.0452
16427SOL    HW150722   0.579   2.147   1.825  5.0752 -0.3991 -1.3438
16427SOL    HW250723   0.563   1.998   1.807  0.4005 -0.3762  1.2051
16428SOL     OW50724   6.556   7.876  11.013  0.5674 -0.3532 -0.4754
16428SOL    HW150725   6.554   7.786  10.983 -3.3017 -0.4213 -0.4882
16428SOL    HW250726   6.515   7.926  10.942  0.9499  1.1367  0.3124
16429SOL     OW50727   7.342   6.376   7.109 -0.6631 -0.0379  0.3066
16429SOL    HW150728   7.384   6.323   7.042  1.5451  0.8087  0.9469
16429SOL    HW250729   7.328   6.461   7.066  1.1422  0.6384  0.9952
16430SOL     OW50730   6.755   7.427   3.011  0.2820 -0.4606 -0.0115
16430SOL    HW150731   6.726   7.466   3.094 -1.1667 -1.6354  0.0697
16430SOL    HW250732   6.850   7.439   3.011  0.0595  1.9187  0.5669
16431SOL     OW50733   5.551   0.743   9.544  0.1053 -0.1562  0.2253
16431SOL    HW150734   5.580   0.811   9.483  0.8646 -0.6107  0.0668
16431SOL    HW250735   5.627   0.727   9.600 -0.1015 -0.8082  0.3239
16432SOL     OW50736   4.179   0.223  11.197 -0.2735  0.4175 -0.4825
16432SOL    HW150737   4.261   0.181  11.224 -1.2732 -1.6837 -0.5287
16432SOL    HW250738   4.207   0.290  11.135  1.4811  0.3430  0.1637
16433SOL     OW50739   0.841   4.842   4.615 -0.0668 -0.2651 -0.2944
16433SOL    HW150740   0.792   4.865   4.694  0.5625  1.2961 -0.3315
16433SOL    HW250741   0.786   4.872   4.543 -0.4666 -1.3454 -0.4527
16434SOL     OW50742   1.962   5.533  11.148  0.2306  0.4358 -0.4873
16434SOL    HW150743   1.906   5.479  11.093  0.0783 -0.5651  0.5957
16434SOL    HW250744   2.016   5.583  11.087  2.2876 -2.8818 -1.6324
16435SOL     OW50745   6.014   1.308  10.645 -0.2604  0.2892  0.3768
16435SOL    HW150746   5.984   1.306  10.554  0.1627  1.0712  0.2116
16435SOL    HW250747   5.982   1.226  10.683 -0.6341  0.0630 -0.4141
16436SOL     OW50748   3.572   4.187   6.419 -0.3095 -0.1672 -0.3889
16436SOL    HW150749   3.557   4.272   6.377 -0.8937 -0.2383 -0.3348
16436SOL    HW250750   3.591   4.209   6.511  0.6299 -0.0345 -0.6009
16437SOL     OW50751   1.587   7.172   0.440  0.1819  0.2680 -0.0018
16437SOL    HW150752   1.621   7.089   0.474 -1.1332  0.4817  2.0116
16437SOL    HW250753   1.493   7.158   0.430  0.1568  1.0660 -1.0857
16438SOL     OW50754   2.436   7.616   7.954  0.0286  0.3064 -0.0358
16438SOL    HW150755   2.458   7.563   7.878 -0.6295 -0.7455  0.4695
16438SOL    HW250756   2.362   7.670   7.925 -0.9737 -0.9088  0.1460
16439SOL     OW50757   2.406   1.655   0.209 -0.2526  0.2434  0.0318
16439SOL    HW150758   2.381   1.734   0.162 -0.0676  1.1175  1.3297
16439SOL    HW250759   2.378   1.671   0.300  2.3310  0.0854  0.9505
16440SOL     OW50760   3.601   1.647   7.426 -0.0436  0.0395 -0.0388
16440SOL    HW150761   3.675   1.612   7.476  0.1040 -0.7518 -0.7884
16440SOL    HW250762   3.639   1.714   7.370 -0.2250  0.9966  0.9557
16441SOL     OW50763   2.625   7.838   1.650  0.1888 -0.6093 -0.0103
16441SOL    HW150764   2.679   7.822   1.573 -0.4074  3.3133 -1.4479
16441SOL    HW250765   2.566   7.763   1.655  0.7823 -1.3632 -2.8982
16442SOL     OW50766   0.034   2.796   3.265  0.2874  0.1834 -0.0800
16442SOL    HW150767   0.063   2.805   3.356  0.5050 -2.1504  0.1527
16442SOL    HW250768   0.105   2.834   3.213  1.2317 -0.4812  0.6792
16443SOL     OW50769   3.387   7.379   8.286 -0.4485  0.2458  0.0269
16443SOL    HW150770   3.476   7.414   8.276 -0.5059  0.1384 -0.9951
16443SOL    HW250771   3.339   7.413   8.210 -1.2193  0.0943  0.4330
16444SOL     OW50772   0.853   5.921  11.193  0.0538 -0.4608 -0.0449
16444SOL    HW150773   0.829   5.891  11.280 -0.7556 -1.4040 -0.5789
16444SOL    HW250774   0.773   5.913  11.141  0.3082  0.8437 -0.6998
16445SOL     OW50775   0.816   4.175   8.887 -0.3544 -0.0546  0.4715
16445SOL    HW150776   0.901   4.152   8.924 -0.2809  0.8646  0.9018
16445SOL    HW250777   0.752   4.127   8.940 -0.2271  0.9513  1.5753
16446SOL     OW50778   5.199   5.582   8.355 -0.2910  0.0580 -0.0626
16446SOL    HW150779   5.273   5.557   8.299 -0.8831 -0.3329 -0.6881
16446SOL    HW250780   5.198   5.516   8.424 -1.3555 -1.2415 -1.2571
16447SOL     OW50781   6.569   2.442   3.632  0.0607 -0.3414  0.2769
16447SOL    HW150782   6.649   2.442   3.685 -0.4641 -1.8185  1.1233
16447SOL    HW250783   6.599   2.459   3.542  1.3416 -1.0291  0.5583
16448SOL     OW50784   1.428   4.561   4.323 -0.3013 -0.7136  0.3808
16448SOL    HW150785   1.489   4.629   4.297 -2.4803  1.5669  0.8918
16448SOL    HW250786   1.463   4.529   4.407 -0.2286  1.2017  1.1369
16449SOL     OW50787   2.816   6.123   2.491 -0.1213 -0.1188  0.0086
16449SOL    HW150788   2.870   6.146   2.566  0.4644  1.7403 -0.9155
16449SOL    HW250789   2.870   6.145   2.415 -0.8874 -1.4794 -0.9650
16450SOL     OW50790   7.824   3.598   7.617 -0.4368 -0.2385 -0.1395
16450SOL    HW150791   7.797   3.567   7.703  1.3681 -1.9056 -0.1027
16450SOL    HW250792   7.892   3.663   7.634 -1.0147  0.4290 -0.3138
16451SOL     OW50793   3.167   6.762   9.480  0.3838 -0.3762  0.0006
16451SOL    HW150794   3.155   6.678   9.524 -1.6142  1.1624  2.6808
16451SOL    HW250795   3.253   6.792   9.509  0.5175 -0.8750  0.1371
16452SOL     OW50796   1.068   6.001   9.210 -0.2999  0.0230 -0.0245
16452SOL    HW150797   1.074   5.994   9.114  2.4630  1.5992 -0.0741
16452SOL    HW250798   0.974   6.012   9.227 -0.7226  1.7935 -2.7711
16453SOL     OW50799   2.441   7.568  10.814  0.7761  0.1951  0.6499
16453SOL    HW150800   2.518   7.538  10.863  0.5772  0.1138  0.9127
16453SOL    HW250801   2.385   7.491  10.807  1.0041  0.0833 -0.1043
16454SOL     OW50802   2.487   5.281   2.048 -0.0277 -0.4426  0.6903
16454SOL    HW150803   2.483   5.364   2.095 -1.7023  0.1554 -0.4232
16454SOL    HW250804   2.417   5.228   2.086 -0.4828 -0.4671 -0.1601
16455SOL     OW50805   6.129   6.941  10.809 -0.1572  0.4206 -0.2292
16455SOL    HW150806   6.217   6.906  10.794 -0.6043  0.2638 -3.0006
16455SOL    HW250807   6.143   7.034  10.829  0.6422  0.6000 -1.4915
16456SOL     OW50808   4.796   1.279  11.126  0.5258 -0.2561  0.1122
16456SOL    HW150809   4.739   1.211  11.090  1.8758 -1.5863  0.3614
16456SOL    HW250810   4.800   1.259  11.220  1.5388 -0.3138  0.0669
16457SOL     OW50811   5.260   5.541   9.567  0.2785 -0.2725  0.3049
16457SOL    HW150812   5.310   5.459   9.560 -0.9912 -1.0060 -0.5086
16457SOL    HW250813   5.271   5.583   9.482 -2.6811 -1.7886 -0.9553
16458SOL     OW50814   4.427   3.656   7.456 -0.0191  0.2274  0.6205
16458SOL    HW150815   4.375   3.719   7.507  0.3421  0.2771  0.9333
16458SOL    HW250816   4.369   3.582   7.444 -0.5376  0.7204  0.0353
16459SOL     OW50817   0.709   2.839   6.567 -0.5111 -0.1273 -0.1362
16459SOL    HW150818   0.789   2.805   6.607 -0.7896 -1.5843 -0.7654
16459SOL    HW250819   0.657   2.871   6.641 -0.0005 -0.5706  0.4235
16460SOL     OW50820   5.116   4.218   3.688 -0.2129  0.5832 -0.1190
16460SOL    HW150821   5.136   4.271   3.611 -0.6172  0.5044 -0.2822
16460SOL    HW250822   5.059   4.149   3.655 -0.5695  0.6751  0.2860
16461SOL     OW50823   6.776   7.047   6.501  0.2367 -0.5702 -0.1790
16461SOL    HW150824   6.802   7.103   6.574 -0.0826 -0.4822 -0.1294
16461SOL    HW250825   6.778   7.104   6.425  0.4523 -0.6316 -0.2188
16462SOL     OW50826   4.892   3.252   3.350  0.0175 -0.3238  0.5504
16462SOL    HW150827   4.804   3.214   3.357 -0.4570  0.9597  2.6177
16462SOL    HW250828   4.926   3.247   3.440  0.7807  2.0406  0.4533
16463SOL     OW50829   3.247   7.358   3.893 -0.3907  0.2229  0.1698
16463SOL    HW150830   3.254   7.354   3.988  1.2451 -0.1800  0.0633
16463SOL    HW250831   3.337   7.373   3.863 -0.7486 -0.4542 -1.3425
16464SOL     OW50832   7.801   0.614   4.363  0.0956 -0.3480  0.0015
16464SOL    HW150833   7.787   0.653   4.277  4.7843 -2.1569 -1.8919
16464SOL    HW250834   7.847   0.681   4.413  1.6600 -0.8344 -0.7114
16465SOL     OW50835   6.317   1.627   8.598 -0.0594 -0.6136  0.4300
16465SOL    HW150836   6.316   1.550   8.541  0.3107  0.1903 -0.6842
16465SOL    HW250837   6.234   1.622   8.646 -0.8593 -0.7488 -0.9357
16466SOL     OW50838   2.624   4.200   3.268 -0.2245  0.0297  0.2553
16466SOL    HW150839   2.682   4.216   3.343  0.5643  0.5087 -0.4448
16466SOL    HW250840   2.683   4.192   3.193 -0.7858 -2.7744 -0.0131
16467SOL     OW50841   1.638   4.844   3.121 -0.2695 -0.0390 -0.0456
16467SOL    HW150842   1.600   4.834   3.034  1.0029  0.6209 -0.7007
16467SOL    HW250843   1.603   4.927   3.153 -0.2010  0.0530 -0.2114
16468SOL     OW50844   2.696   5.120  11.928  0.0641 -0.1632 -0.3441
16468SOL    HW150845   2.786   5.103  11.954 -0.1293  0.4417  0.7595
16468SOL    HW250846   2.648   5.041  11.953 -0.0689  0.3022  0.9345
16469SOL     OW50847   7.550   7.702   3.483  0.3107 -0.1578  0.3187
16469SOL    HW150848   7.524   7.665   3.567  0.2717  0.5598  0.6355
16469SOL    HW250849   7.637   7.665   3.466  0.9691  0.8087  1.4041
16470SOL     OW50850   1.803   1.822  10.595  0.2167 -0.1503 -0.2539
16470SOL    HW150851   1.779   1.826  10.688  0.9489 -0.3723 -0.0470
16470SOL    HW250852   1.794   1.912  10.564 -0.2505 -0.1164 -0.0253
16471SOL     OW50853   4.070   6.622  11.787  0.0130  0.8232  0.3045
16471SOL    HW150854   4.042   6.532  11.803 -0.0946  0.9812  1.0542
16471SOL    HW250855   4.152   6.613  11.739 -0.5066  0.3446 -0.5061
16472SOL     OW50856   4.975   2.470   7.070  0.7217 -0.0877 -0.4635
16472SOL    HW150857   4.989   2.564   7.078 -0.0575  0.0205 -0.3405
16472SOL    HW250858   4.883   2.460   7.045  0.4853 -0.8535  0.6211
16473SOL     OW50859   3.401   6.060   3.934 -0.0169  0.5275 -0.5362
16473SOL    HW150860   3.359   5.978   3.959 -0.6913  1.3240  1.1657
16473SOL    HW250861   3.369   6.078   3.846  0.9854 -1.5242 -1.3958
16474SOL     OW50862   2.180   3.108   8.347  0.3660 -0.0853  0.1947
16474SOL    HW150863   2.226   3.129   8.428  1.5109  0.5533 -0.6034
16474SOL    HW250864   2.223   3.029   8.315  0.2519 -0.0496 -0.0492
16475SOL     OW50865   0.454   6.483   8.525 -0.1729  0.1108  0.0243
16475SOL    HW150866   0.544   6.451   8.515 -0.7475 -1.0456 -2.0985
16475SOL    HW250867   0.399   6.407   8.507 -1.5817  1.2169 -0.5770
16476SOL     OW50868   2.456   7.326   7.480  0.0962  0.3025 -0.1248
16476SOL    HW150869   2.462   7.292   7.391 -1.7615 -0.0100 -0.1710
16476SOL    HW250870   2.452   7.421   7.470  0.9034  0.3261 -0.2873
16477SOL     OW50871   6.701   0.085   8.479 -0.1591  0.7443  0.1277
16477SOL    HW150872   6.670   0.019   8.541 -0.9691  2.0065  1.1251
16477SOL    HW250873   6.659   0.063   8.396  1.8457 -1.6642 -0.3632
16478SOL     OW50874   2.066   4.665   8.449 -0.2367  0.2047 -0.2281
16478SOL    HW150875   2.089   4.602   8.380 -1.5972 -0.2355 -0.3277
16478SOL    HW250876   1.984   4.631   8.485  1.1339 -0.3900  2.6319
16479SOL     OW50877   3.956   3.165   3.509  0.1321 -0.0802 -0.1960
16479SOL    HW150878   4.024   3.198   3.568  1.0193 -2.1461  0.0172
16479SOL    HW250879   4.001   3.156   3.424 -0.2508 -0.1494 -0.3913
16480SOL     OW50880   6.951   0.878   0.197  0.5157  0.1085 -0.1871
16480SOL    HW150881   6.986   0.822   0.267  0.9983  0.2300 -0.3241
16480SOL    HW250882   6.874   0.831   0.165  0.5860 -0.1966  0.0840
16481SOL     OW50883   2.301   0.566   2.541 -0.3957 -0.3959 -0.0625
16481SOL    HW150884   2.208   0.551   2.557 -0.1679 -0.9758  0.8233
16481SOL    HW250885   2.319   0.519   2.460 -0.6929 -1.0379  0.2308
16482SOL     OW50886   1.888   7.097   8.907  0.3806  0.3335  0.7515
16482SOL    HW150887   1.965   7.110   8.851  0.0102 -3.2412 -0.8518
16482SOL    HW250888   1.922   7.064   8.989  0.6564  1.4609  1.1136
16483SOL     OW50889   3.227   0.777   4.821  0.1342  0.3797 -0.7717
16483SOL    HW150890   3.161   0.743   4.881 -0.4372  1.7401 -0.5927
16483SOL    HW250891   3.178   0.830   4.759  1.2054  4.0780  1.2243
16484SOL     OW50892   6.033   6.641   4.634 -0.3496 -0.6001 -0.7181
16484SOL    HW150893   6.067   6.632   4.723 -0.2254  1.3144 -0.5498
16484SOL    HW250894   6.106   6.675   4.584 -0.0748 -2.6814 -1.8547
16485SOL     OW50895   3.088   7.131   3.296 -0.3440 -0.4222 -0.3397
16485SOL    HW150896   3.169   7.080   3.295 -0.1080 -0.0763 -1.6427
16485SOL    HW250897   3.035   7.092   3.365  0.5266 -1.2961 -0.1456
16486SOL     OW50898   2.804   0.534   0.611  0.6978 -0.2516 -0.3141
16486SOL    HW150899   2.840   0.616   0.577  2.9476 -0.4303  1.3980
16486SOL    HW250900   2.861   0.466   0.577  1.8161 -0.5969  2.0067
16487SOL     OW50901   4.438   1.888   0.956  0.3565  0.7138  0.3442
16487SOL    HW150902   4.478   1.975   0.962 -0.5180  1.2640 -1.2272
16487SOL    HW250903   4.345   1.903   0.970  0.2597 -0.0614  0.5897
16488SOL     OW50904   7.552   6.478   1.485  0.0100 -0.0131 -0.4833
16488SOL    HW150905   7.500   6.398   1.483  0.0767 -0.2249  2.4809
16488SOL    HW250906   7.637   6.451   1.520 -0.2016  1.3909  1.2832
16489SOL     OW50907   3.565   2.400   8.337 -0.2886  0.1247  0.5552
16489SOL    HW150908   3.485   2.436   8.299 -0.8807  1.0945  2.5848
16489SOL    HW250909   3.634   2.460   8.309 -0.7935  1.1121  1.3507
16490SOL     OW50910   5.523   3.806   0.052 -0.0701  0.3197  0.7151
16490SOL    HW150911   5.469   3.823   0.129 -0.7062  1.8398 -0.0036
16490SOL    HW250912   5.459   3.796  -0.019  0.5433  0.6282  0.1090
16491SOL     OW50913   1.423   3.237   9.433 -0.3454 -0.4599 -0.2851
16491SOL    HW150914   1.421   3.320   9.386 -2.7744 -0.2079  0.1653
16491SOL    HW250915   1.516   3.216   9.439  0.3592  2.2852 -0.2829
16492SOL     OW50916   1.265   2.693   3.893  0.1866  0.7931  0.2962
16492SOL    HW150917   1.290   2.608   3.930 -1.7824  0.1708  0.3216
16492SOL    HW250918   1.313   2.698   3.810 -0.4842 -0.8500 -0.2195
16493SOL     OW50919   7.542   5.403   2.242 -0.2162 -0.3901  0.0626
16493SOL    HW150920   7.597   5.436   2.170 -0.8715  0.1418 -0.2069
16493SOL    HW250921   7.535   5.309   2.226 -0.6291 -0.2295 -0.7708
16494SOL     OW50922   3.085   6.772   5.914 -0.0720 -0.7231 -0.0378
16494SOL    HW150923   2.991   6.779   5.898 -0.0474 -0.3448 -0.0211
16494SOL    HW250924   3.112   6.694   5.866 -0.4180 -0.9065  0.0634
16495SOL     OW50925   0.765   3.363   9.158 -0.2688 -0.0249  0.4163
16495SOL    HW150926   0.696   3.385   9.220 -0.2764 -0.6376  0.6296
16495SOL    HW250927   0.722   3.308   9.093 -0.1350  0.1571  0.1740
16496SOL     OW50928   2.119   5.912   3.217 -0.0572  0.0466 -0.1052
16496SOL    HW150929   2.151   5.977   3.155 -0.3197 -0.3273 -0.6441
16496SOL    HW250930   2.199   5.873   3.254  0.0987  0.7115  0.2673
16497SOL     OW50931   0.063   0.297   0.778  0.0786  0.0669  0.1412
16497SOL    HW150932   0.101   0.232   0.837  1.1982 -0.1914 -0.8193
16497SOL    HW250933   0.008   0.247   0.718 -0.7738  0.2858  0.7220
16498SOL     OW50934   2.374   3.365   0.997 -0.1292  0.3080  0.0238
16498SOL    HW150935   2.443   3.312   0.956 -0.2169 -0.4795  0.8775
16498SOL    HW250936   2.352   3.430   0.930  1.0597  0.2395 -0.4708
16499SOL     OW50937   3.338   3.362   9.081 -0.5870  0.2009 -0.3195
16499SOL    HW150938   3.314   3.271   9.063 -0.4704 -0.3486  2.0146
16499SOL    HW250939   3.347   3.366   9.176  0.7872  2.3238 -0.4775
16500SOL     OW50940   2.925   1.608   5.985 -0.3993  0.3164  0.7499
16500SOL    HW150941   3.004   1.607   6.039 -0.3978  0.2757  0.7466
16500SOL    HW250942   2.855   1.631   6.046  0.0685  3.7577  0.1643
16501SOL     OW50943   1.377   3.884   4.159 -0.0644 -0.0910 -0.3467
16501SOL    HW150944   1.458   3.840   4.135 -1.0589 -1.4207 -1.4316
16501SOL    HW250945   1.341   3.915   4.076 -0.7106  0.4213  0.1117
16502SOL     OW50946   3.276   4.660   0.351  0.1207 -0.1316 -0.3217
16502SOL    HW150947   3.332   4.709   0.291  0.4872  1.7495  1.4797
16502SOL    HW250948   3.335   4.599   0.395  0.2353 -0.0729 -0.3940
16503SOL     OW50949   3.645   2.699   6.256 -0.1583  0.8102  0.5459
16503SOL    HW150950   3.701   2.622   6.257  0.0946  0.9955  0.6291
16503SOL    HW250951   3.697   2.768   6.297  0.1600  1.4034 -0.8087
16504SOL     OW50952   3.377   7.126   8.162  0.2799  0.0388 -0.2022
16504SOL    HW150953   3.377   7.202   8.219 -0.8635  0.9073 -1.3104
16504SOL    HW250954   3.465   7.089   8.170  0.2664  0.3692  1.7699
16505SOL     OW50955   7.884   5.329  10.597  0.3887  0.1311  0.3530
16505SOL    HW150956   7.809   5.371  10.640 -0.1132 -0.6607  0.2684
16505SOL    HW250957   7.850   5.246  10.565  0.8575  0.5130 -1.2162
16506SOL     OW50958   2.175   4.351   0.360  0.4412  0.8296  1.2251
16506SOL    HW150959   2.120   4.377   0.434  0.4118  1.3538  1.0204
16506SOL    HW250960   2.214   4.268   0.387 -1.0921  0.0090  1.0473
16507SOL     OW50961   1.571   0.704   7.012 -0.0493 -0.1493  0.0260
16507SOL    HW150962   1.562   0.782   6.958 -1.4282 -0.6820 -0.5790
16507SOL    HW250963   1.664   0.700   7.034  0.0533  1.6419  0.0728
16508SOL     OW50964   7.554   4.351   2.535 -0.5389  0.0547  1.2350
16508SOL    HW150965   7.614   4.301   2.479 -1.8601 -0.0155 -0.1873
16508SOL    HW250966   7.596   4.352   2.621  0.8723 -1.0750  0.5960
16509SOL     OW50967   3.772   0.085  12.438  0.6923  0.2014 -0.5169
16509SOL    HW150968   3.809   0.085  12.349  0.2339  2.8311 -0.7746
16509SOL    HW250969   3.811   0.162  12.480 -0.8238  0.2974  0.7951
16510SOL     OW50970   4.141   5.192   7.918  0.1218 -0.3345 -0.5382
16510SOL    HW150971   4.225   5.229   7.891 -0.7198  1.2215 -1.1358
16510SOL    HW250972   4.127   5.118   7.858  0.1222  0.6732 -1.8150
16511SOL     OW50973   5.348   3.010   6.068 -0.0242  0.2400 -0.1593
16511SOL    HW150974   5.305   2.952   6.005 -0.0743  1.6122 -1.4463
16511SOL    HW250975   5.282   3.076   6.089  0.5264  0.7279  0.0720
16512SOL     OW50976   4.523   2.432   2.570 -0.5265 -0.1151 -0.0004
16512SOL    HW150977   4.612   2.418   2.537  0.1065 -2.1939  2.3003
16512SOL    HW250978   4.532   2.501   2.636 -0.4244 -0.8506  0.7794
16513SOL     OW50979   7.688   2.701   5.777  0.1567 -0.4285  0.3586
16513SOL    HW150980   7.649   2.688   5.690  0.2642  0.8357  0.0942
16513SOL    HW250981   7.661   2.624   5.827 -2.3789  0.1666  0.0774
16514SOL     OW50982   7.954   7.616   4.906 -0.1955  0.5730  0.2138
16514SOL    HW150983   7.959   7.631   4.812 -1.4388 -0.0290  0.0398
16514SOL    HW250984   7.930   7.524   4.915  1.4894  0.1775  1.1725
16515SOL     OW50985   0.532   4.133   5.333 -0.1433  0.2103 -0.6557
16515SOL    HW150986   0.512   4.043   5.360 -2.5493  0.2262 -2.0861
16515SOL    HW250987   0.485   4.188   5.395  2.0481  0.6005  0.7695
16516SOL     OW50988   6.097   7.525   0.534 -0.3967 -0.5190  0.0324
16516SOL    HW150989   6.079   7.569   0.451 -2.7603 -0.7483  0.3642
16516SOL    HW250990   6.111   7.596   0.596 -2.5640 -0.1986  0.2193
16517SOL     OW50991   0.960   2.941   4.455  0.7321 -0.2280 -0.3412
16517SOL    HW150992   0.959   2.863   4.509 -1.0889  0.4800  0.7354
16517SOL    HW250993   0.926   2.913   4.370  1.1340 -0.7972 -0.3185
16518SOL     OW50994   0.992   3.329  11.314  0.0520 -0.0260  0.2816
16518SOL    HW150995   0.979   3.411  11.361  0.2865  0.0010  0.3032
16518SOL    HW250996   0.919   3.274  11.341 -0.4957  0.4213 -0.2816
16519SOL     OW50997   3.431   1.007   5.417 -0.6616  0.3690  0.0969
16519SOL    HW150998   3.496   1.058   5.370 -1.1426 -0.2900 -1.3505
16519SOL    HW250999   3.360   1.069   5.434 -0.1668  0.7970  0.6230
16520SOL     OW51000   0.213   7.768   4.201 -0.1549  0.5382  0.2456
16520SOL    HW151001   0.196   7.700   4.136 -0.1723  1.6167 -0.9037
16520SOL    HW251002   0.308   7.773   4.207 -0.1215  1.4902 -0.8532
16521SOL     OW51003   0.257   3.342   0.995 -0.3140  0.1269  0.2045
16521SOL    HW151004   0.298   3.359   1.079 -0.4366 -0.0459  0.3016
16521SOL    HW251005   0.296   3.260   0.965 -1.5040 -0.7348  0.9053
16522SOL     OW51006   7.046   2.913   5.524  0.2866  0.2142 -0.1119
16522SOL    HW151007   7.125   2.890   5.477  1.0506  1.3704  0.5376
16522SOL    HW251008   7.032   2.841   5.586  1.9239  0.8400  1.0589
16523SOL     OW51009   3.906   5.786   7.999 -0.0811 -0.3704 -0.6166
16523SOL    HW151010   3.972   5.722   7.971 -0.0315 -1.3445  1.4977
16523SOL    HW251011   3.824   5.737   8.003  0.0672 -0.5417  1.6047
16524SOL     OW51012   7.802   1.813   2.586 -0.2558 -0.1365  0.4904
16524SOL    HW151013   7.828   1.868   2.512  1.3865  0.1953  1.2694
16524SOL    HW251014   7.786   1.727   2.548 -1.3896  0.4729 -0.5171
16525SOL     OW51015   2.095   6.036  11.174  0.5802  0.2044  0.5063
16525SOL    HW151016   2.136   5.961  11.132 -0.3952 -0.8374  1.3395
16525SOL    HW251017   2.158   6.063  11.241  0.7333 -0.1648  0.5141
16526SOL     OW51018   6.740   4.959   7.143 -0.1060  0.1980 -0.1023
16526SOL    HW151019   6.718   4.929   7.231  1.4245  0.6844  0.4633
16526SOL    HW251020   6.730   4.880   7.088 -1.3588 -0.0346  0.4150
16527SOL     OW51021   4.899   7.196   3.220  0.6451 -0.1144  0.3226
16527SOL    HW151022   4.923   7.157   3.136  1.8289 -0.5313  0.8355
16527SOL    HW251023   4.894   7.290   3.201 -0.3286 -0.3060 -0.4777
16528SOL     OW51024   7.254   7.174   9.308  0.0128  0.1983 -0.6646
16528SOL    HW151025   7.196   7.234   9.261 -1.2421  0.3129  0.9482
16528SOL    HW251026   7.333   7.226   9.324 -1.3943  1.8757  1.5368
16529SOL     OW51027   0.338   0.701   6.283  0.1240 -0.1592  0.0803
16529SOL    HW151028   0.329   0.796   6.295  0.5222 -0.2638  1.3391
16529SOL    HW251029   0.429   0.689   6.256  0.8993 -0.3649  2.5387
16530SOL     OW51030   1.199   0.776   1.209  0.6466  0.6856 -0.3814
16530SOL    HW151031   1.192   0.695   1.260  0.4466  1.0137  0.1160
16530SOL    HW251032   1.129   0.832   1.243  3.2666  2.6483  2.1728
16531SOL     OW51033   0.869   1.095   0.469  0.5948 -0.3317  0.3580
16531SOL    HW151034   0.851   1.001   0.470  0.9750 -0.4036  0.7679
16531SOL    HW251035   0.931   1.109   0.541 -1.0058  0.5647  1.6298
16532SOL     OW51036   3.643   4.443   7.024  0.0260  0.5852  0.4064
16532SOL    HW151037   3.733   4.414   7.043  0.0010  0.8478  0.9507
16532SOL    HW251038   3.592   4.407   7.097 -0.3467  0.2639 -0.0108
16533SOL     OW51039   0.302   6.964   6.742 -0.4191 -0.1186  0.3705
16533SOL    HW151040   0.353   7.038   6.775 -0.7707  0.0415  0.5617
16533SOL    HW251041   0.358   6.923   6.676 -0.1199  0.1663  0.4477
16534SOL     OW51042   5.691   2.835   3.008 -0.2529 -0.2459  1.2332
16534SOL    HW151043   5.739   2.878   3.078 -0.0796 -0.6391  1.3600
16534SOL    HW251044   5.712   2.885   2.930 -0.8497  0.5027  1.5447
16535SOL     OW51045   3.891   4.656   1.529  0.1597 -0.1551  0.6447
16535SOL    HW151046   3.871   4.590   1.595  0.1897 -1.3674 -0.5309
16535SOL    HW251047   3.805   4.689   1.501  0.0253 -1.2272 -0.2661
16536SOL     OW51048   0.357   2.092   3.925  0.4042  0.0289 -0.1535
16536SOL    HW151049   0.391   2.066   3.840 -0.9977 -0.6966 -0.5305
16536SOL    HW251050   0.266   2.115   3.908  0.5322  1.3932  0.8956
16537SOL     OW51051   0.698   7.101   5.156  0.4460 -0.6380  0.0842
16537SOL    HW151052   0.740   7.176   5.198 -2.2650  0.7786  0.4315
16537SOL    HW251053   0.728   7.104   5.065 -2.0427  2.9691 -0.8122
16538SOL     OW51054   4.594   0.451   0.371 -0.1827 -0.3256 -0.1594
16538SOL    HW151055   4.609   0.364   0.409  0.8663  0.0372  0.2992
16538SOL    HW251056   4.630   0.512   0.435 -1.8586  0.5318  0.0129
16539SOL     OW51057   2.008   4.123   6.469 -0.0265 -0.6102 -0.0717
16539SOL    HW151058   1.939   4.079   6.520 -0.6295 -0.1582 -0.4726
16539SOL    HW251059   1.968   4.206   6.443  1.1083  0.2215  0.7440
16540SOL     OW51060   7.840   0.572   0.025  0.0513  0.1636  0.8003
16540SOL    HW151061   7.777   0.529   0.083  0.3202 -0.8077  0.3944
16540SOL    HW251062   7.883   0.500  -0.021 -0.7000  0.9113 -1.1898
16541SOL     OW51063   0.011   2.804   7.803 -0.0705 -0.2632  0.2116
16541SOL    HW151064  -0.080   2.773   7.804  0.1012 -0.8245 -0.4323
16541SOL    HW251065   0.046   2.772   7.720  0.4160  0.8626 -0.0302
16542SOL     OW51066   7.666   3.852   2.645 -0.5435  0.2793 -0.2784
16542SOL    HW151067   7.667   3.844   2.550 -1.4363  1.1376 -0.3710
16542SOL    HW251068   7.654   3.762   2.677  0.2521 -0.0756 -0.9496
16543SOL     OW51069   3.533   5.182  10.466 -0.2265  0.2171 -0.5217
16543SOL    HW151070   3.524   5.131  10.386  0.1400  0.2893 -0.6130
16543SOL    HW251071   3.468   5.251  10.458 -1.8042 -1.0995  0.2946
16544SOL     OW51072   3.469   6.946  11.894 -0.6376  0.4679  0.3661
16544SOL    HW151073   3.427   7.026  11.864  1.8019  1.8061  0.2585
16544SOL    HW251074   3.503   6.967  11.981  0.0925 -0.4300  0.3196
16545SOL     OW51075   1.318   1.842   2.435  0.0580  0.5210 -0.2900
16545SOL    HW151076   1.402   1.833   2.389 -0.2222  1.0180 -0.9060
16545SOL    HW251077   1.253   1.847   2.365 -0.3156  1.9876  0.1347
16546SOL     OW51078   4.088   6.038   8.585 -0.1771 -0.6696  0.2598
16546SOL    HW151079   4.017   6.101   8.575 -0.0288 -0.6198 -0.5768
16546SOL    HW251080   4.117   6.048   8.676  1.6299  2.4054 -0.4945
16547SOL     OW51081   2.612   4.799  11.833 -0.0573  0.4724 -0.1000
16547SOL    HW151082   2.597   4.716  11.788  1.7040  0.6889 -1.1814
16547SOL    HW251083   2.549   4.860  11.793 -1.2006 -0.2476  0.5460
16548SOL     OW51084   3.278   3.460   8.819  0.6724  0.8653  0.1963
16548SOL    HW151085   3.331   3.432   8.894  1.1442 -2.7860 -1.2575
16548SOL    HW251086   3.336   3.448   8.743 -0.0887  3.5156 -0.9132
16549SOL     OW51087   0.947   6.628   1.780 -0.5666  0.4692  0.3926
16549SOL    HW151088   0.885   6.666   1.843 -0.3602  1.4531  0.0169
16549SOL    HW251089   1.009   6.698   1.762  0.9055 -0.6255  1.0417
16550SOL     OW51090   6.374   2.146  10.220 -0.5929  0.3388  0.0552
16550SOL    HW151091   6.390   2.184  10.134  1.6680 -0.7454 -0.0639
16550SOL    HW251092   6.278   2.146  10.228 -0.8741  0.5088 -2.4226
16551SOL     OW51093   1.770   1.381   6.577 -0.3760 -0.6720  0.3138
16551SOL    HW151094   1.822   1.461   6.580 -0.7716 -0.2988 -1.3742
16551SOL    HW251095   1.793   1.340   6.493 -2.5701 -0.6150 -0.3976
16552SOL     OW51096   3.667   4.952   4.194 -0.6369  0.8467 -1.0827
16552SOL    HW151097   3.746   4.922   4.238 -1.1461  0.3123 -0.5050
16552SOL    HW251098   3.674   4.917   4.105 -0.1579  0.9369 -1.0819
16553SOL     OW51099   4.478   1.762   4.999 -0.1384 -0.0250  0.3705
16553SOL    HW151100   4.441   1.734   5.083  0.4859 -0.5102  0.4955
16553SOL    HW251101   4.526   1.842   5.020 -0.3554  0.1050  0.3821
16554SOL     OW51102   0.996   5.229   5.177 -0.2368  0.7557  0.0486
16554SOL    HW151103   1.034   5.214   5.091 -0.1464  1.0099  0.0432
16554SOL    HW251104   1.028   5.315   5.203  0.1376  0.4782  0.5450
16555SOL     OW51105   6.513   5.933   1.808  0.2146 -0.5163 -0.0738
16555SOL    HW151106   6.524   5.951   1.902 -1.7911  0.6804 -0.0264
16555SOL    HW251107   6.583   5.983   1.766 -0.6987  1.4317  0.6171
16556SOL     OW51108   6.201   7.320  11.430  0.1141  0.6084  0.3026
16556SOL    HW151109   6.151   7.360  11.502 -1.4645  0.3966 -0.6354
16556SOL    HW251110   6.160   7.354  11.351 -0.6013 -1.9894 -0.5245
16557SOL     OW51111   4.875   2.085   4.986  0.1971 -0.3283  0.3689
16557SOL    HW151112   4.896   2.155   5.048 -0.6325  0.4543 -0.2092
16557SOL    HW251113   4.899   2.120   4.901 -0.3151 -0.7026  0.0621
16558SOL     OW51114   0.284   3.315  12.108 -0.4754  0.3755  0.2689
16558SOL    HW151115   0.368   3.285  12.075  0.2420  0.1453  2.1598
16558SOL    HW251116   0.305   3.367  12.186 -2.0421  0.8490  0.4252
16559SOL     OW51117   0.213   1.147   0.615 -0.1159 -0.0799 -0.3104
16559SOL    HW151118   0.200   1.237   0.585  0.7577 -0.4666 -1.9741
16559SOL    HW251119   0.300   1.147   0.654 -0.4661 -0.0251  0.4910
16560SOL     OW51120   0.517   3.305  10.154  0.0873  0.2418  0.4054
16560SOL    HW151121   0.576   3.360  10.103  0.0557 -0.5028 -0.4452
16560SOL    HW251122   0.523   3.340  10.243  2.2905 -0.2104  0.4849
16561SOL     OW51123   4.848   1.705   0.140  0.1320 -0.3280 -0.4251
16561SOL    HW151124   4.928   1.733   0.185  0.2212  1.5492 -1.6663
16561SOL    HW251125   4.777   1.750   0.187 -0.0629 -0.7606 -0.2981
16562SOL     OW51126   1.459   1.480  11.320 -0.2980 -0.3894  0.4946
16562SOL    HW151127   1.413   1.505  11.240 -0.3283 -0.4072  0.5061
16562SOL    HW251128   1.549   1.509  11.307 -0.0310 -1.3919 -0.0118
16563SOL     OW51129   1.151   2.295   9.687 -0.0829  0.0797  0.3415
16563SOL    HW151130   1.064   2.326   9.665 -0.9698 -1.7881  0.9904
16563SOL    HW251131   1.178   2.348   9.762 -0.5594  0.7895  0.0203
16564SOL     OW51132   3.208   5.871   4.037 -0.4929 -0.4475 -0.4419
16564SOL    HW151133   3.118   5.878   4.068  0.3180  0.6365  1.9239
16564SOL    HW251134   3.204   5.810   3.963 -3.1170 -0.5004 -0.3249
16565SOL     OW51135   7.845   6.906  11.582 -0.0949  0.3035  0.5594
16565SOL    HW151136   7.784   6.954  11.639  0.2546  0.6933  0.6070
16565SOL    HW251137   7.791   6.837  11.544 -0.4340  0.2899  1.0444
16566SOL     OW51138   3.216   4.740   3.015 -0.2144  0.4409  0.1421
16566SOL    HW151139   3.202   4.665   3.073  0.6327 -1.7373 -2.3036
16566SOL    HW251140   3.308   4.733   2.989 -0.4022  1.7489 -0.9503
16567SOL     OW51141   3.145   2.478  12.190  0.1590 -0.1067  0.8937
16567SOL    HW151142   3.237   2.494  12.170  0.8257 -0.2666  3.4040
16567SOL    HW251143   3.147   2.424  12.270 -2.1077 -2.6415 -0.5809
16568SOL     OW51144   6.176   1.189  10.970 -0.2877  0.5876 -0.0902
16568SOL    HW151145   6.194   1.122  11.036 -0.3484  0.0843 -0.5794
16568SOL    HW251146   6.140   1.262  11.019  0.7009  0.6438  0.5770
16569SOL     OW51147   6.806   0.396   8.931 -0.3598  0.1072  0.6471
16569SOL    HW151148   6.774   0.481   8.900  0.4237 -0.4742 -1.9981
16569SOL    HW251149   6.874   0.417   8.994  0.8043  1.5087 -0.9965
16570SOL     OW51150   4.506   6.604   0.934 -0.5773  0.3573 -0.1546
16570SOL    HW151151   4.457   6.526   0.910  0.3616 -0.9029  1.7902
16570SOL    HW251152   4.481   6.622   1.025  2.5419 -0.4437  1.0085
16571SOL     OW51153   4.663   2.189   7.055 -0.2912  0.0088  0.1809
16571SOL    HW151154   4.645   2.105   7.099 -3.8627 -0.1060 -1.1399
16571SOL    HW251155   4.644   2.255   7.121  1.0523 -0.1450  0.7623
16572SOL     OW51156   1.113   7.455  10.471 -0.0672  0.4250 -0.0360
16572SOL    HW151157   1.148   7.486  10.387 -2.2213 -0.2885 -1.2728
16572SOL    HW251158   1.087   7.364  10.454 -1.1827  0.4917  1.1889
16573SOL     OW51159   4.972   5.624   5.495  0.1883  0.0810 -0.4897
16573SOL    HW151160   5.025   5.552   5.527 -0.1903 -0.2884 -0.6812
16573SOL    HW251161   5.035   5.691   5.469  0.5314 -0.0400  0.0168
16574SOL     OW51162   2.503   1.968   1.714  0.3031 -0.2588  0.1206
16574SOL    HW151163   2.511   1.874   1.732  0.4190 -0.6197 -1.7016
16574SOL    HW251164   2.420   1.976   1.667 -0.3237  0.7480  1.3228
16575SOL     OW51165   5.708   1.492   5.878  0.5401 -1.0485 -0.0467
16575SOL    HW151166   5.765   1.538   5.817 -1.4541  0.3976 -0.9304
16575SOL    HW251167   5.697   1.553   5.951  0.3435 -1.4189  0.2376
16576SOL     OW51168   2.017   4.351   1.575 -0.0838  0.2549 -0.1742
16576SOL    HW151169   1.997   4.400   1.495  0.1083  0.6680  0.0245
16576SOL    HW251170   2.026   4.419   1.642 -1.3188 -0.1480  0.4305
16577SOL     OW51171   0.314   4.450   6.425 -0.2346 -0.4683  0.1228
16577SOL    HW151172   0.299   4.540   6.454 -0.0385 -0.7517  1.1651
16577SOL    HW251173   0.409   4.438   6.433  0.0118 -0.1518 -1.9354
16578SOL     OW51174   4.260   5.572   1.366  0.3719  0.3725 -0.0086
16578SOL    HW151175   4.234   5.639   1.303  0.3265 -0.9132 -1.4186
16578SOL    HW251176   4.348   5.546   1.337 -0.3774 -1.5423 -0.7420
16579SOL     OW51177   5.972   1.725   9.442  0.3305  0.3820 -0.4734
16579SOL    HW151178   6.030   1.717   9.518  0.5204  1.4196 -0.4860
16579SOL    HW251179   5.971   1.819   9.423  1.9767 -0.0140 -3.0632
16580SOL     OW51180   0.095   0.686   5.788  0.4633 -0.2153 -0.1694
16580SOL    HW151181   0.085   0.627   5.862 -0.0532 -0.1043 -0.1493
16580SOL    HW251182   0.190   0.695   5.778  0.5426  0.0823  0.7301
16581SOL     OW51183   6.979   4.497   4.397  0.2482  0.0093  0.1172
16581SOL    HW151184   7.005   4.407   4.377 -0.1676  0.1264 -0.9717
16581SOL    HW251185   7.005   4.508   4.489  1.6593 -0.7301 -0.1580
16582SOL     OW51186   6.019   7.450  10.389  0.4155 -0.1760  0.3894
16582SOL    HW151187   5.956   7.482  10.325  1.3676 -0.6196 -0.8178
16582SOL    HW251188   5.988   7.483  10.473 -0.2477  1.3661 -0.4374
16583SOL     OW51189   6.431   2.173   7.096 -0.4396  0.3192  0.4218
16583SOL    HW151190   6.507   2.127   7.061  0.3080 -0.7562  3.1848
16583SOL    HW251191   6.467   2.250   7.140 -1.2323  1.1470 -0.3302
16584SOL     OW51192   0.523   0.920   9.663  0.3838 -0.1944 -1.0066
16584SOL    HW151193   0.526   0.827   9.685  0.6952 -0.1602 -0.8918
16584SOL    HW251194   0.430   0.941   9.657  0.3037 -0.7494 -2.0251
16585SOL     OW51195   2.182   3.907   3.941  0.0276  0.5930 -0.2937
16585SOL    HW151196   2.270   3.933   3.913  1.0377  0.9203  2.8395
16585SOL    HW251197   2.197   3.843   4.010 -2.2620 -0.0652 -0.3339
16586SOL     OW51198   1.827   0.905   8.348  0.5740  0.1253  0.1319
16586SOL    HW151199   1.805   0.887   8.257  2.0710 -0.5241 -0.1235
16586SOL    HW251200   1.836   0.818   8.388  2.6894  0.2989  0.1728
16587SOL     OW51201   5.528   0.806   2.902  0.0435 -0.1849 -0.8932
16587SOL    HW151202   5.449   0.759   2.874  0.2437 -1.2461  0.2018
16587SOL    HW251203   5.599   0.763   2.855  0.0656  0.1492 -1.1677
16588SOL     OW51204   3.069   3.103   8.907 -0.1813  0.3850  0.3543
16588SOL    HW151205   3.026   3.186   8.929 -0.6830  0.1047  0.4603
16588SOL    HW251206   3.135   3.092   8.975  2.4997  2.5075 -1.6818
16589SOL     OW51207   4.200   0.294   8.280 -0.6742 -0.0264  0.5100
16589SOL    HW151208   4.239   0.222   8.229 -0.1503 -0.4213  1.4492
16589SOL    HW251209   4.208   0.266   8.371 -2.8664  0.0123  0.7853
16590SOL     OW51210   1.636   2.265   8.514  0.5910  0.1167 -0.4914
16590SOL    HW151211   1.674   2.188   8.556  0.6272  0.9672  1.1274
16590SOL    HW251212   1.642   2.247   8.421  0.8338 -1.7153 -0.1558
16591SOL     OW51213   7.439   4.312   0.898  0.1836 -0.2754 -0.1612
16591SOL    HW151214   7.367   4.295   0.837 -1.0225 -0.7168  1.3380
16591SOL    HW251215   7.409   4.385   0.952  0.4065 -1.1297  1.1578
16592SOL     OW51216   3.741   7.049   6.554 -0.6444  0.1013 -0.1844
16592SOL    HW151217   3.673   7.095   6.604 -0.8424 -0.2482 -0.1280
16592SOL    HW251218   3.710   6.958   6.549  0.4557 -0.3661  0.9892
16593SOL     OW51219   0.452   7.810   0.223 -0.2121  0.4183 -0.5049
16593SOL    HW151220   0.403   7.751   0.166  0.1968 -0.7834  0.3437
16593SOL    HW251221   0.496   7.871   0.163 -2.3865  1.2970 -1.3049
16594SOL     OW51222   3.609   7.811   4.208 -0.1358  0.2028 -0.0907
16594SOL    HW151223   3.619   7.785   4.300  0.0678  0.6858  0.0287
16594SOL    HW251224   3.677   7.763   4.161 -0.3374 -0.1618 -0.0162
16595SOL     OW51225   2.509   5.002   6.101  0.1496 -0.0461  0.4843
16595SOL    HW151226   2.517   5.059   6.025 -1.2436  0.3948  0.6522
16595SOL    HW251227   2.531   5.058   6.175 -0.4451  0.0624  0.5793
16596SOL     OW51228   6.954   4.518   1.242 -0.0383  0.4116  0.0309
16596SOL    HW151229   7.003   4.448   1.286 -0.1198 -0.6783 -1.5337
16596SOL    HW251230   6.866   4.512   1.279 -0.1679 -0.6476 -0.4156
16597SOL     OW51231   2.553   0.062   7.202 -0.0470 -0.0538 -0.3125
16597SOL    HW151232   2.631   0.098   7.245 -1.0688  1.3519  0.4834
16597SOL    HW251233   2.567  -0.032   7.200  0.8739  0.0108  1.4734
16598SOL     OW51234   5.556   4.758   8.040 -0.3027  0.0909 -0.0975
16598SOL    HW151235   5.541   4.688   7.976 -0.5728  0.0063  0.0578
16598SOL    HW251236   5.573   4.836   7.987 -1.4882  0.2354 -0.2859
16599SOL     OW51237   3.694   2.628   1.761 -0.1406  0.1059  0.4843
16599SOL    HW151238   3.738   2.656   1.681  1.8976  0.0011  1.5316
16599SOL    HW251239   3.721   2.690   1.828 -1.4834 -0.0572  1.2306
16600SOL     OW51240   6.544   4.807   7.876 -0.2861  0.2232  0.1475
16600SOL    HW151241   6.618   4.783   7.933 -0.6694 -0.2157  0.4626
16600SOL    HW251242   6.474   4.829   7.937 -0.1116  1.6741 -0.1318
16601SOL     OW51243   7.041   2.634   9.520 -0.1272  0.0530 -0.3566
16601SOL    HW151244   7.030   2.721   9.559  1.7408  0.5828 -0.9300
16601SOL    HW251245   7.106   2.646   9.451  1.3611 -2.0947  0.5603
16602SOL     OW51246   0.730   6.032   0.173 -0.2265  0.1969  0.1748
16602SOL    HW151247   0.635   6.033   0.183 -0.5987 -0.1430 -2.4918
16602SOL    HW251248   0.752   5.940   0.157  0.2350  0.5445 -1.3414
16603SOL     OW51249   1.934   3.983   0.066  0.0985 -0.4235 -0.0494
16603SOL    HW151250   1.958   3.926  -0.006 -1.8387 -1.5642  0.1277
16603SOL    HW251251   1.922   4.069   0.026  1.4448 -0.4891 -0.6178
16604SOL     OW51252   4.372   4.188  10.405  0.3456 -0.0323  0.4006
16604SOL    HW151253   4.379   4.186  10.310  3.7554 -1.0017  0.5401
16604SOL    HW251254   4.456   4.225  10.434 -0.6223  0.3087  3.0508
16605SOL     OW51255   1.295   3.011   1.631  0.5833  0.7001 -0.1690
16605SOL    HW151256   1.263   2.970   1.712  1.4592 -0.5645 -0.4329
16605SOL    HW251257   1.216   3.047   1.590 -0.7073 -2.6610 -0.9927
16606SOL     OW51258   1.491   2.769   4.466  0.8608 -0.2225 -0.6071
16606SOL    HW151259   1.582   2.766   4.494  0.4124 -0.5440  0.9094
16606SOL    HW251260   1.446   2.820   4.533 -0.6280 -2.6729  0.4145
16607SOL     OW51261   0.563   0.361   8.989 -0.2396 -0.0623  0.0528
16607SOL    HW151262   0.589   0.400   9.073 -0.7525 -0.2280  0.2933
16607SOL    HW251263   0.534   0.273   9.011 -0.1390 -0.1934 -0.3362
16608SOL     OW51264   2.144   7.468   0.568 -0.0505 -0.4915  0.2354
16608SOL    HW151265   2.217   7.526   0.547  0.6221 -1.2409  0.4738
16608SOL    HW251266   2.092   7.517   0.633 -0.2970  0.4350 -0.6418
16609SOL     OW51267   5.256   3.576   3.032 -0.1365  0.4550 -0.3403
16609SOL    HW151268   5.272   3.543   3.120  1.0434  0.6939 -0.4472
16609SOL    HW251269   5.325   3.641   3.018  0.3309 -0.3362 -1.8304
16610SOL     OW51270   3.951   6.967  12.222  0.3424 -0.6187  0.1552
16610SOL    HW151271   4.027   7.025  12.213 -0.1860  0.5473  2.5279
16610SOL    HW251272   3.891   6.994  12.152  2.4980 -2.4218 -2.6301
16611SOL     OW51273   4.222   2.853   7.401 -0.0608 -0.6096  0.2639
16611SOL    HW151274   4.279   2.790   7.445 -0.3535 -0.2920  1.0995
16611SOL    HW251275   4.176   2.897   7.471  0.1491  0.5618 -0.3131
16612SOL     OW51276   2.332   5.734  11.363 -0.0425  0.0080 -0.8833
16612SOL    HW151277   2.294   5.649  11.341 -0.0909 -0.3335  0.4658
16612SOL    HW251278   2.320   5.786  11.284 -0.3334 -1.1223 -1.6119
16613SOL     OW51279   5.194   5.770   8.762  0.0389  0.0092 -0.0838
16613SOL    HW151280   5.219   5.678   8.773  0.0272  0.1231  0.9690
16613SOL    HW251281   5.103   5.774   8.792  0.1497  0.4268  0.2026
16614SOL     OW51282   3.730   7.873   6.469 -0.1753 -0.0138  0.6415
16614SOL    HW151283   3.735   7.874   6.565 -0.6627 -0.1289  0.6714
16614SOL    HW251284   3.811   7.831   6.441 -0.0907 -0.0985  1.0079
16615SOL     OW51285   6.604   0.948   6.109  0.0429  0.0408 -0.1541
16615SOL    HW151286   6.691   0.963   6.147 -1.2516 -1.0334  3.6848
16615SOL    HW251287   6.577   1.035   6.078  0.6934  1.5254  2.9948
16616SOL     OW51288   7.314   5.319  10.122 -0.0803 -0.5303  0.1574
16616SOL    HW151289   7.307   5.296  10.214  0.2279 -0.8680  0.0984
16616SOL    HW251290   7.377   5.256  10.086  0.3366  0.0404 -0.1326
16617SOL     OW51291   4.697   0.938   6.752 -0.2151 -0.3199  0.3891
16617SOL    HW151292   4.643   0.987   6.689  1.1594  0.7179 -0.0134
16617SOL    HW251293   4.681   0.981   6.836  0.7485  0.6538  0.0909
16618SOL     OW51294   5.767   1.294   4.746 -0.1792 -0.3009  0.1786
16618SOL    HW151295   5.775   1.224   4.681  0.5222 -0.5824  0.5543
16618SOL    HW251296   5.797   1.254   4.828 -0.8526  0.1095  0.6360
16619SOL     OW51297   3.738   6.635   0.747 -0.1635 -0.6092  0.1952
16619SOL    HW151298   3.662   6.603   0.699  1.8758 -2.7695 -1.7819
16619SOL    HW251299   3.726   6.730   0.748 -3.0791 -0.8777  0.3963
16620SOL     OW51300   5.273   5.310   8.026 -0.6446  0.3227 -0.4511
16620SOL    HW151301   5.280   5.363   7.947 -0.5621 -0.7845 -1.2045
16620SOL    HW251302   5.262   5.220   7.995  2.2365 -0.5660  0.7179
16621SOL     OW51303   0.636   2.782  10.990  0.4406  1.3902 -0.4856
16621SOL    HW151304   0.564   2.767  11.051  0.7282 -0.2193 -0.5055
16621SOL    HW251305   0.615   2.728  10.914  3.0972 -1.6181  0.7244
16622SOL     OW51306   5.982   2.774   2.217  0.1082  0.1006  0.4443
16622SOL    HW151307   5.947   2.842   2.273 -0.3995  1.5813 -1.5659
16622SOL    HW251308   5.984   2.813   2.130 -2.5330 -3.2164 -1.3216
16623SOL     OW51309   0.960   5.549   5.519 -0.5910 -0.0166 -0.0777
16623SOL    HW151310   0.993   5.498   5.593 -1.7054 -0.4447  0.1493
16623SOL    HW251311   0.930   5.631   5.558 -0.5113  0.0513 -0.1606
16624SOL     OW51312   4.656   2.350   9.998 -0.0800  0.3461  0.7778
16624SOL    HW151313   4.665   2.259   9.969 -0.0778 -0.5828  3.4217
16624SOL    HW251314   4.656   2.401   9.917  0.1154 -1.9729 -0.7846
16625SOL     OW51315   2.185   2.377   0.274 -0.3740 -0.4857 -0.1803
16625SOL    HW151316   2.142   2.294   0.294 -0.4388 -0.1429  1.1785
16625SOL    HW251317   2.195   2.421   0.359  2.1488 -0.3088 -0.4805
16626SOL     OW51318   4.766   7.000   4.789 -0.0513 -0.0248 -0.3911
16626SOL    HW151319   4.716   7.013   4.870 -0.8700 -1.1880 -0.6823
16626SOL    HW251320   4.827   7.074   4.786 -0.0708  0.0938  1.2335
16627SOL     OW51321   1.161   1.536  10.296 -0.2716 -0.1215 -0.3630
16627SOL    HW151322   1.185   1.568  10.209  0.2759  0.6733  0.0716
16627SOL    HW251323   1.244   1.530  10.344 -0.4575 -1.4182 -0.1662
16628SOL     OW51324   3.996   0.129  10.341  0.0886  0.0297  0.1563
16628SOL    HW151325   3.917   0.095  10.300 -0.4856  2.5671 -1.0350
16628SOL    HW251326   3.978   0.126  10.435 -0.6959 -0.9967 -0.0091
16629SOL     OW51327   2.894   6.266   1.229  0.4395 -0.3035  0.1747
16629SOL    HW151328   2.826   6.202   1.248 -0.2859  0.2893 -0.4116
16629SOL    HW251329   2.885   6.331   1.299 -0.6220  0.5840 -0.7593
16630SOL     OW51330   7.524   1.489   1.642  0.0634 -0.2626  0.2233
16630SOL    HW151331   7.564   1.413   1.685  1.6154  0.8331  0.8024
16630SOL    HW251332   7.465   1.525   1.708  0.4839 -0.0852  0.5071
16631SOL     OW51333   2.739   0.790   8.740 -0.3777  0.3004  0.3932
16631SOL    HW151334   2.809   0.810   8.677  0.1579  1.2165  1.2541
16631SOL    HW251335   2.660   0.825   8.699 -0.1243  0.4192 -0.0070
16632SOL     OW51336   1.563   3.723  11.127  0.2487 -0.1234 -0.1897
16632SOL    HW151337   1.478   3.678  11.133 -0.2965  0.8579 -0.3797
16632SOL    HW251338   1.607   3.701  11.208  0.3523 -1.6921 -0.6251
16633SOL     OW51339   3.812   2.580   4.367 -0.3290 -0.3834  0.2308
16633SOL    HW151340   3.769   2.544   4.290 -0.5824 -0.7069  0.5243
16633SOL    HW251341   3.741   2.609   4.424 -0.1429 -0.1196  0.3348
16634SOL     OW51342   1.623   1.459  10.857 -0.1285 -0.4599 -0.6196
16634SOL    HW151343   1.554   1.431  10.797 -0.2419  1.0384 -1.2346
16634SOL    HW251344   1.689   1.500  10.800  0.3029 -0.0489  0.1576
16635SOL     OW51345   0.120   4.783  11.237 -0.1500  0.2687  0.1372
16635SOL    HW151346   0.079   4.724  11.300  1.1848 -1.6946 -0.7521
16635SOL    HW251347   0.048   4.810  11.179 -0.6355 -1.2072  0.0238
16636SOL     OW51348   2.525   6.047   5.694  0.1452  0.4563  0.3321
16636SOL    HW151349   2.579   6.035   5.771 -0.7208  1.8278  1.2073
16636SOL    HW251350   2.584   6.086   5.629  0.7355 -0.1719  0.4823
16637SOL     OW51351   1.093   3.149   7.176  0.1748  0.1398 -0.3371
16637SOL    HW151352   1.067   3.203   7.251 -0.0575  0.5404 -0.6966
16637SOL    HW251353   1.027   3.079   7.173 -0.1261  0.4225 -0.4753
16638SOL     OW51354   3.667   5.334  11.265 -0.8215  0.1686 -0.3291
16638SOL    HW151355   3.621   5.254  11.240 -0.4660  0.4148 -1.8650
16638SOL    HW251356   3.613   5.404  11.232  0.2362  0.4816 -1.4667
16639SOL     OW51357   2.314   5.520   9.456  0.4122  0.3073  0.2399
16639SOL    HW151358   2.368   5.599   9.452  0.0096  0.5452 -0.8966
16639SOL    HW251359   2.352   5.469   9.527  1.0728  1.2363  0.5738
16640SOL     OW51360   5.637   5.803   4.181  0.1335 -0.2310  0.2076
16640SOL    HW151361   5.552   5.783   4.221 -0.7278  1.6509 -0.5609
16640SOL    HW251362   5.672   5.718   4.157 -2.7262 -1.0032 -1.8230
16641SOL     OW51363   6.379   0.681   8.752  0.0862 -0.6221 -0.2392
16641SOL    HW151364   6.368   0.689   8.657  0.4956  0.1748 -0.2287
16641SOL    HW251365   6.447   0.744   8.773 -2.2418  1.6591  1.0205
16642SOL     OW51366   2.286   2.649   0.055  0.2728  0.0555  0.0374
16642SOL    HW151367   2.211   2.616   0.006  0.5418  0.1422 -0.4410
16642SOL    HW251368   2.359   2.647  -0.008  0.1751  2.0984 -0.2082
16643SOL     OW51369   6.346   4.838   9.463 -0.3540  0.1605 -0.4614
16643SOL    HW151370   6.250   4.839   9.459 -0.4452 -1.6716  0.3996
16643SOL    HW251371   6.373   4.843   9.371 -1.3117 -0.4495 -0.7923
16644SOL     OW51372   7.958   6.035   8.157 -0.0296 -0.3274  0.4432
16644SOL    HW151373   7.992   6.091   8.088  1.0691 -0.4978  0.8339
16644SOL    HW251374   7.978   5.946   8.129  0.2423 -0.4083  0.8883
16645SOL     OW51375   3.511   6.634   6.599 -0.8172 -0.1499 -0.0637
16645SOL    HW151376   3.448   6.606   6.666  1.0837 -1.2238  1.3954
16645SOL    HW251377   3.512   6.729   6.605  0.0923 -0.2454  2.2870
16646SOL     OW51378   2.530   4.387   9.991  0.4020 -0.4691 -0.6393
16646SOL    HW151379   2.563   4.430   9.913  0.0044  1.2119  0.0643
16646SOL    HW251380   2.512   4.458  10.052 -0.4061 -1.6411  0.5642
16647SOL     OW51381   6.810   3.187   2.072  0.1434 -0.5062  0.0581
16647SOL    HW151382   6.775   3.240   1.999  1.4043  1.8770  1.0629
16647SOL    HW251383   6.864   3.121   2.029  0.5613  0.6005 -1.2159
16648SOL     OW51384   0.963   3.383  10.446  0.1194  0.1218  0.0604
16648SOL    HW151385   0.981   3.301  10.491  1.9096 -0.7575 -2.1054
16648SOL    HW251386   0.876   3.371  10.408 -1.0018  0.5148  2.3280
16649SOL     OW51387   2.599   2.878   0.001  0.0437  0.2218 -0.4593
16649SOL    HW151388   2.542   2.893   0.076 -0.3959 -0.2431 -0.6957
16649SOL    HW251389   2.556   2.924  -0.071  0.2942  0.3929 -0.5003
16650SOL     OW51390   0.553   0.309   4.003  0.1025  0.3174 -0.0411
16650SOL    HW151391   0.470   0.351   3.981 -0.1168 -1.4078 -3.1001
16650SOL    HW251392   0.530   0.217   4.019  1.3695 -0.2387 -1.1782
16651SOL     OW51393   4.637   5.261   4.546 -0.0510 -0.2347  0.2094
16651SOL    HW151394   4.553   5.295   4.577 -0.7569  0.4694 -2.2273
16651SOL    HW251395   4.691   5.339   4.533  0.7595 -0.6317  1.0437
16652SOL     OW51396   6.099   1.562  10.494  0.0752 -0.6601 -0.3185
16652SOL    HW151397   6.017   1.611  10.499 -0.4801 -1.6338  0.5390
16652SOL    HW251398   6.084   1.484  10.548  2.4106  0.3718  2.0192
16653SOL     OW51399   7.181   6.187   8.542  0.2694 -0.6148 -0.5427
16653SOL    HW151400   7.145   6.123   8.480 -1.8288  0.4399 -0.5156
16653SOL    HW251401   7.261   6.147   8.574  0.5312 -1.9463 -2.6549
16654SOL     OW51402   3.103   5.795  10.419  0.2003 -0.1449 -0.1314
16654SOL    HW151403   3.110   5.767  10.510 -1.5015 -0.4640 -0.0706
16654SOL    HW251404   3.042   5.733  10.379 -0.1987  0.8389 -1.1132
16655SOL     OW51405   0.700   4.131  11.087  0.2691 -0.8134  0.2828
16655SOL    HW151406   0.730   4.040  11.099  0.6318 -0.7447 -0.0675
16655SOL    HW251407   0.762   4.168  11.024 -0.6995 -0.7308 -0.6464
16656SOL     OW51408   7.287   2.494   1.905 -0.1393  0.2157  0.5814
16656SOL    HW151409   7.234   2.441   1.964 -0.5315 -0.0836 -0.0224
16656SOL    HW251410   7.307   2.435   1.832 -1.3132  1.1259 -0.5311
16657SOL     OW51411   2.275   6.104   5.806 -0.0376 -0.3773 -0.1995
16657SOL    HW151412   2.341   6.084   5.740 -1.0273  0.0103 -1.3368
16657SOL    HW251413   2.194   6.067   5.771 -0.6194 -0.0034  0.7139
16658SOL     OW51414   5.742   0.768   8.888  0.2143  0.0206  0.5221
16658SOL    HW151415   5.767   0.765   8.981 -2.2533 -0.2332  1.2456
16658SOL    HW251416   5.651   0.736   8.887 -0.3687  1.5662 -1.7799
16659SOL     OW51417   2.004   3.915   9.721  0.4820 -0.3135  0.3668
16659SOL    HW151418   2.013   3.839   9.779 -1.2155 -0.9313 -0.1295
16659SOL    HW251419   2.087   3.919   9.674  1.0194 -1.1799  1.2010
16660SOL     OW51420   7.500   0.016  10.314 -0.4274  0.9029  0.3899
16660SOL    HW151421   7.478  -0.010  10.225  0.2186  2.3897 -0.2276
16660SOL    HW251422   7.562   0.088  10.304 -0.2060  0.9834  2.0398
16661SOL     OW51423   6.993   3.613   4.498  0.2142  0.3544  0.1578
16661SOL    HW151424   7.083   3.617   4.464  0.1886 -2.4092 -0.4577
16661SOL    HW251425   6.938   3.618   4.420 -0.0861 -0.0927  0.3392
16662SOL     OW51426   6.051   1.641   3.958 -0.4163  0.5365 -0.1877
16662SOL    HW151427   6.000   1.592   3.893  0.5211 -0.7256 -0.0237
16662SOL    HW251428   6.083   1.573   4.018 -0.6777  1.5926  1.2032
16663SOL     OW51429   5.798   0.983   5.960  0.1969 -0.2026  0.2667
16663SOL    HW151430   5.888   0.958   5.936 -0.1009  0.4699 -1.6606
16663SOL    HW251431   5.774   1.051   5.898 -2.8802 -2.6990 -1.5629
16664SOL     OW51432   0.375   7.790   0.654 -0.6210  0.0186  0.4433
16664SOL    HW151433   0.354   7.720   0.592  0.3152 -2.1943  2.4620
16664SOL    HW251434   0.454   7.758   0.699  0.6630  3.0260  0.5389
16665SOL     OW51435   2.499   3.820   7.648 -0.0665  0.2010 -0.3035
16665SOL    HW151436   2.405   3.836   7.635  0.0188  1.6041  0.6189
16665SOL    HW251437   2.522   3.875   7.723  1.8486  1.2466 -1.5813
16666SOL     OW51438   2.509   7.754  10.630 -0.0324 -0.1017 -0.2049
16666SOL    HW151439   2.472   7.685  10.575  1.2333  0.5224 -1.9569
16666SOL    HW251440   2.486   7.729  10.719 -0.4985 -2.2375 -0.8591
16667SOL     OW51441   5.030   6.128   7.053  0.4019  0.3808  0.3914
16667SOL    HW151442   4.959   6.159   7.109  2.2657  2.4927  1.7246
16667SOL    HW251443   5.092   6.086   7.113  0.6165 -0.8897 -0.6677
16668SOL     OW51444   7.841   3.097   9.667  0.3204  0.1305 -0.6961
16668SOL    HW151445   7.782   3.138   9.604 -2.2438 -0.6380  1.0725
16668SOL    HW251446   7.849   3.160   9.738  1.2799 -0.0013 -0.6667
16669SOL     OW51447   4.872   3.997   4.377 -0.0549 -0.7289 -0.1728
16669SOL    HW151448   4.833   4.006   4.464  2.1162 -0.8554  0.8678
16669SOL    HW251449   4.934   4.070   4.370 -0.5678 -0.4061 -1.8512
16670SOL     OW51450   0.055   4.454   9.946 -0.2167 -0.1733 -0.3232
16670SOL    HW151451   0.009   4.536   9.927  0.7874  0.7022  0.8996
16670SOL    HW251452   0.030   4.432  10.035  1.9711  0.5421  0.5292
16671SOL     OW51453   3.124   2.710   4.838 -0.2295 -0.3775  0.1756
16671SOL    HW151454   3.043   2.715   4.889  0.2148  0.2320  0.8470
16671SOL    HW251455   3.098   2.733   4.749 -0.5712  1.2125  0.6573
16672SOL     OW51456   0.838   3.365   5.639 -0.0532 -0.0686 -0.2622
16672SOL    HW151457   0.851   3.373   5.545  0.7687 -2.7389 -0.4656
16672SOL    HW251458   0.755   3.318   5.648  0.3315 -0.6592  0.2952
16673SOL     OW51459   6.536   5.089   0.032 -0.0042 -0.2919  0.6436
16673SOL    HW151460   6.564   5.088  -0.059 -1.3093 -0.9008  0.2287
16673SOL    HW251461   6.447   5.055   0.030  0.1461 -0.8412  2.2179
16674SOL     OW51462   0.386   1.911   3.700  0.2389 -0.1429  0.1567
16674SOL    HW151463   0.319   1.843   3.702  0.6477 -0.7132 -2.1528
16674SOL    HW251464   0.357   1.971   3.631  0.7557  1.1116  0.9877
16675SOL     OW51465   1.357   0.344   3.063 -0.1038  0.2013  0.2006
16675SOL    HW151466   1.402   0.424   3.092 -0.5895  0.5507  0.0117
16675SOL    HW251467   1.427   0.289   3.027  0.2403  0.5322  0.3550
16676SOL     OW51468   0.215   4.505   5.973  0.2327  0.1732  0.2086
16676SOL    HW151469   0.308   4.509   5.949 -0.0125  0.6368 -0.6994
16676SOL    HW251470   0.183   4.594   5.961 -0.4739 -0.1120 -0.0583
16677SOL     OW51471   6.957   6.650   4.747 -0.0375 -0.3646 -0.0089
16677SOL    HW151472   6.981   6.721   4.688 -1.2523  0.4405  0.4392
16677SOL    HW251473   7.040   6.622   4.786  0.5861  0.0721 -0.9839
16678SOL     OW51474   1.027   6.884   9.163 -0.1764 -0.6646 -0.0440
16678SOL    HW151475   1.098   6.895   9.100 -1.1934 -0.5985 -1.2018
16678SOL    HW251476   1.072   6.870   9.247  1.1980 -1.1550 -0.8303
16679SOL     OW51477   1.660   1.719   6.640  0.5533 -0.1262  0.1335
16679SOL    HW151478   1.666   1.696   6.547 -1.2682  0.5398 -0.1898
16679SOL    HW251479   1.625   1.641   6.682  1.1122 -0.3318  0.2242
16680SOL     OW51480   3.687   7.916   2.902  0.1253 -0.1970 -0.0670
16680SOL    HW151481   3.767   7.864   2.904 -0.7847 -1.6603 -0.0856
16680SOL    HW251482   3.715   8.004   2.929  1.7302 -0.6522 -0.1367
16681SOL     OW51483   0.354   3.569   0.727  0.6974  0.7425 -0.0223
16681SOL    HW151484   0.410   3.551   0.652 -0.1883 -0.2937 -0.4699
16681SOL    HW251485   0.327   3.483   0.757  1.7988  1.0756  2.1168
16682SOL     OW51486   2.473   4.225   5.272  0.2481  0.0223 -0.1233
16682SOL    HW151487   2.556   4.200   5.230  1.1819  0.3482  1.4306
16682SOL    HW251488   2.410   4.161   5.241  0.7390  0.5181 -2.3717
16683SOL     OW51489   2.239   3.821  10.992  0.0751 -0.1964  0.0890
16683SOL    HW151490   2.196   3.744  10.955  1.5456 -2.2688  2.3740
16683SOL    HW251491   2.167   3.874  11.028 -0.8995 -0.8224 -0.8594
16684SOL     OW51492   3.302   5.497   6.835  0.7806 -0.5655  0.4311
16684SOL    HW151493   3.289   5.430   6.769 -0.2983  1.7553 -1.8805
16684SOL    HW251494   3.257   5.464   6.913 -1.2135 -1.7623 -1.1435
16685SOL     OW51495   1.120   3.085   3.056 -0.0322  0.1795  0.5757
16685SOL    HW151496   1.173   3.104   3.133 -1.1415  1.2030  1.1221
16685SOL    HW251497   1.121   3.166   3.006 -0.1128 -0.1731 -0.0026
16686SOL     OW51498   2.141   7.667   6.724  0.2302  0.4882  0.1781
16686SOL    HW151499   2.179   7.748   6.689  0.8873 -0.6990 -2.0940
16686SOL    HW251500   2.210   7.629   6.778  0.8516  0.2768 -0.7391
16687SOL     OW51501   3.664   4.133   2.476 -0.2458  0.2000  0.1768
16687SOL    HW151502   3.591   4.140   2.537 -1.0427 -0.8949 -0.6037
16687SOL    HW251503   3.712   4.055   2.505  1.0176  1.2571  1.0641
16688SOL     OW51504   2.179   2.947   9.572  0.6369  0.2427 -0.7408
16688SOL    HW151505   2.200   2.905   9.489  1.7442  0.8895 -0.8090
16688SOL    HW251506   2.258   2.937   9.626  0.8445  1.9133 -0.6591
16689SOL     OW51507   1.874   4.964  11.337 -0.1538  0.0723  0.1459
16689SOL    HW151508   1.944   4.929  11.392 -1.2232 -0.7120  1.0590
16689SOL    HW251509   1.887   5.058  11.339  1.1457 -0.0799 -0.0974
16690SOL     OW51510   3.073   3.355   2.600  0.3530 -0.0349  0.1213
16690SOL    HW151511   3.113   3.376   2.684  1.5413 -0.4359 -0.3276
16690SOL    HW251512   2.991   3.311   2.623  0.8457 -0.4747  1.0779
16691SOL     OW51513   5.692   6.710  12.191  0.4533 -0.1015  0.4726
16691SOL    HW151514   5.717   6.759  12.113 -1.7093  1.0726  0.4230
16691SOL    HW251515   5.757   6.734  12.257  2.4882 -1.3273 -0.9640
16692SOL     OW51516   2.831   3.321  11.449  0.8977 -0.2906  0.2417
16692SOL    HW151517   2.824   3.278  11.534 -1.4083 -3.0432 -1.1873
16692SOL    HW251518   2.797   3.410  11.464  2.4431 -0.0040  2.5409
16693SOL     OW51519   3.780   6.000   1.248 -0.0573 -0.3340  0.5769
16693SOL    HW151520   3.721   5.977   1.320  0.5490 -0.9142  0.8938
16693SOL    HW251521   3.777   5.924   1.189  0.8144 -0.6185  0.8859
16694SOL     OW51522   2.047   6.765   5.904 -0.3029  0.1892  0.0637
16694SOL    HW151523   2.007   6.708   5.970 -2.9884  1.2308 -0.5253
16694SOL    HW251524   2.066   6.846   5.950 -2.8969  1.1967 -0.4945
16695SOL     OW51525   4.426   7.846  10.038  0.1759  0.1813  0.2941
16695SOL    HW151526   4.414   7.763  10.084  0.0892 -1.8869 -3.1227
16695SOL    HW251527   4.338   7.884  10.032 -0.5800 -1.6733 -1.6891
16696SOL     OW51528   4.906   7.491   5.395  0.4253 -0.5012 -0.1993
16696SOL    HW151529   4.841   7.430   5.431 -0.1437 -0.9113 -1.7868
16696SOL    HW251530   4.897   7.481   5.300  2.1936  0.1125 -0.4749
16697SOL     OW51531   2.059   2.165   6.474 -0.1155 -0.0453  0.1991
16697SOL    HW151532   2.100   2.237   6.521  0.0884  0.4004 -0.6268
16697SOL    HW251533   1.976   2.202   6.442 -1.0023 -0.8251  1.5422
16698SOL     OW51534   3.443   4.291   8.357  0.2724 -0.3235 -0.0835
16698SOL    HW151535   3.458   4.224   8.423 -0.6979 -1.1308 -0.6581
16698SOL    HW251536   3.525   4.295   8.307  0.2341 -1.2998 -0.2364
16699SOL     OW51537   1.393   3.055   0.861  0.0931  0.2564  0.0349
16699SOL    HW151538   1.298   3.053   0.860  0.1037 -1.1199  0.3654
16699SOL    HW251539   1.417   3.032   0.951  0.7447  1.5441  0.2288
16700SOL     OW51540   6.720   6.499   2.935 -0.1637 -0.4346  0.2735
16700SOL    HW151541   6.625   6.505   2.925 -0.2694  0.7337  1.5933
16700SOL    HW251542   6.743   6.415   2.897 -1.4620  0.0724 -1.7776
16701SOL     OW51543   7.141   4.745  12.324  1.0106  0.0108 -0.2443
16701SOL    HW151544   7.086   4.815  12.358 -1.8746 -1.4796 -1.5377
16701SOL    HW251545   7.097   4.715  12.245  1.9516 -3.3993  0.3443
16702SOL     OW51546   2.234   2.993   5.186  1.1683 -0.5307 -0.5412
16702SOL    HW151547   2.244   2.900   5.167 -0.0113 -1.1544  1.5384
16702SOL    HW251548   2.268   3.003   5.275 -1.3236  0.3928  0.3992
16703SOL     OW51549   0.963   7.814   9.480 -0.4685  0.0441 -0.0438
16703SOL    HW151550   0.996   7.821   9.570 -0.7559  1.6248 -0.0281
16703SOL    HW251551   1.018   7.747   9.440 -1.0863 -1.5364  1.6064
16704SOL     OW51552   0.398   2.779   3.823  0.0375  0.3113  0.0610
16704SOL    HW151553   0.469   2.757   3.883 -0.0527 -1.1800 -0.3229
16704SOL    HW251554   0.378   2.871   3.841 -0.7682 -0.3431  3.1551
16705SOL     OW51555   3.378   4.644   7.324 -0.0056 -0.0966  0.2639
16705SOL    HW151556   3.313   4.649   7.395 -0.5968  0.7155 -0.3172
16705SOL    HW251557   3.349   4.710   7.261  0.3730 -0.9887 -0.8638
16706SOL     OW51558   4.658   1.134   0.045 -0.4918  0.1324 -0.5030
16706SOL    HW151559   4.604   1.085  -0.018 -3.4989  2.3255  0.1445
16706SOL    HW251560   4.658   1.224   0.013  0.2906  0.7648  1.1523
16707SOL     OW51561   2.408   1.683   7.662 -0.2298 -0.0368 -0.2247
16707SOL    HW151562   2.422   1.694   7.756  2.0924 -0.0220 -0.5194
16707SOL    HW251563   2.413   1.771   7.625 -1.6812  0.0266 -0.3449
16708SOL     OW51564   3.216   6.905   0.397  0.2111  0.6001  0.1494
16708SOL    HW151565   3.187   6.820   0.430 -0.6394  0.6590 -0.4227
16708SOL    HW251566   3.280   6.884   0.329  0.6396  0.4412  0.5981
16709SOL     OW51567   4.921   1.191  12.111 -0.5216  0.6943 -0.1614
16709SOL    HW151568   4.970   1.217  12.189 -0.7687  0.1935  0.1665
16709SOL    HW251569   4.866   1.266  12.090 -1.6487  0.2461  1.1037
16710SOL     OW51570   7.254   6.936  10.007  0.1404 -0.1271  0.6275
16710SOL    HW151571   7.329   6.984  10.041  0.6544  0.7187 -1.5211
16710SOL    HW251572   7.240   6.865  10.069  2.9208 -0.4910  0.9441
16711SOL     OW51573   5.498   7.985   8.502 -0.0022  0.3316  0.4282
16711SOL    HW151574   5.503   7.890   8.511  0.7688  0.3289  0.0191
16711SOL    HW251575   5.404   8.004   8.500 -0.1764 -0.3204  1.5208
16712SOL     OW51576   0.122   0.607  11.977  0.1064 -0.0155  0.4319
16712SOL    HW151577   0.131   0.567  12.064 -1.2806  0.6670  0.9349
16712SOL    HW251578   0.120   0.701  11.994 -2.1116  0.0910 -0.0680
16713SOL     OW51579   1.444   2.678  12.217  0.0269 -0.0329 -0.2719
16713SOL    HW151580   1.474   2.759  12.258  1.7401  0.7592 -2.8843
16713SOL    HW251581   1.480   2.608  12.272  2.4192  0.9778 -0.4692
16714SOL     OW51582   0.860   2.526   3.866 -0.6288  0.3514  0.3475
16714SOL    HW151583   0.911   2.564   3.795 -1.8264  3.7755  1.1363
16714SOL    HW251584   0.853   2.433   3.843  1.4902  0.7357 -2.4137
16715SOL     OW51585   2.222   0.020   6.155 -0.5640  0.7749 -0.2909
16715SOL    HW151586   2.135   0.003   6.119 -0.0012  0.4717 -1.5740
16715SOL    HW251587   2.237   0.113   6.136 -0.4000  0.6948 -0.5637
16716SOL     OW51588   2.764   7.564   9.134 -0.4696  0.2790  0.0753
16716SOL    HW151589   2.796   7.590   9.221  0.3333  1.6319 -0.5819
16716SOL    HW251590   2.807   7.480   9.117 -0.3571  0.1717  0.8373
16717SOL     OW51591   6.676   4.694   9.857 -0.1059 -0.1202 -0.1690
16717SOL    HW151592   6.598   4.647   9.828 -0.8882  1.9523 -1.6214
16717SOL    HW251593   6.653   4.727   9.943 -1.0065  0.7625 -0.7236
16718SOL     OW51594   4.288   0.131   2.035 -0.3584 -0.0542  0.3266
16718SOL    HW151595   4.344   0.108   1.961  0.2758 -0.2689  0.8660
16718SOL    HW251596   4.313   0.221   2.056 -0.1158 -0.1969  0.6543
16719SOL     OW51597   2.624   4.188   7.710 -0.5829 -0.2638 -0.6271
16719SOL    HW151598   2.552   4.249   7.726 -0.7165  0.0619 -2.3064
16719SOL    HW251599   2.607   4.114   7.769 -1.4232  0.4935  0.1066
16720SOL     OW51600   1.096   3.960   8.564  0.3954  0.3791  0.2445
16720SOL    HW151601   1.026   3.911   8.608 -2.0738  3.4441  0.1744
16720SOL    HW251602   1.126   3.902   8.494 -0.3782 -1.9871  1.7465
16721SOL     OW51603   0.066   6.242   6.592  0.4203 -0.3157 -0.3940
16721SOL    HW151604   0.024   6.327   6.576 -0.2677 -0.0080  2.4462
16721SOL    HW251605   0.108   6.219   6.509 -1.6512  1.4977 -2.0498
16722SOL     OW51606   3.685   3.520   8.990  0.6997 -0.3527  0.4318
16722SOL    HW151607   3.652   3.448   8.936  0.5422 -0.8752  1.2196
16722SOL    HW251608   3.682   3.596   8.932 -0.6878 -0.6406  0.0825
16723SOL     OW51609   5.616   5.567   7.289 -0.1514 -0.1003  0.5432
16723SOL    HW151610   5.549   5.631   7.264 -0.8437 -1.2539 -0.6546
16723SOL    HW251611   5.595   5.545   7.380 -1.0387  0.0075  0.3771
16724SOL     OW51612   2.486   4.332   0.415  0.4427  0.7690  0.5698
16724SOL    HW151613   2.551   4.293   0.473  0.2866 -0.6587 -0.1740
16724SOL    HW251614   2.475   4.268   0.345 -1.7636  0.9606  0.6666
16725SOL     OW51615   3.525   5.236   4.955 -0.3103  0.3768  0.4137
16725SOL    HW151616   3.475   5.251   4.875 -0.1607 -0.4695  0.1473
16725SOL    HW251617   3.617   5.241   4.928 -0.2533  0.9509  0.7045
16726SOL     OW51618   4.620   7.427   1.060 -0.2380  0.3161  0.0504
16726SOL    HW151619   4.634   7.518   1.035  1.7667  0.5409  1.6993
16726SOL    HW251620   4.618   7.429   1.156  0.6085 -1.4547  0.1403
16727SOL     OW51621   5.457   0.671   1.037 -0.1824  0.2182 -0.0692
16727SOL    HW151622   5.541   0.688   1.079  0.4380  0.6888 -1.4430
16727SOL    HW251623   5.472   0.692   0.945 -1.7297  0.0351 -0.3843
16728SOL     OW51624   3.190   1.734  12.122  0.1235 -0.2792 -0.3653
16728SOL    HW151625   3.237   1.779  12.052  0.3657 -1.2678 -0.8571
16728SOL    HW251626   3.214   1.780  12.202  1.3057 -0.2844 -0.7084
16729SOL     OW51627   7.721   7.940   9.271 -0.4945  0.1557 -0.0198
16729SOL    HW151628   7.769   7.862   9.297  0.1174  0.4036 -0.3729
16729SOL    HW251629   7.786   8.011   9.275 -1.0822  0.6772  0.4688
16730SOL     OW51630   6.152   2.977   2.645 -0.7414  0.4678 -0.0219
16730SOL    HW151631   6.097   3.055   2.636 -2.2205 -0.2896  1.7689
16730SOL    HW251632   6.089   2.905   2.652  0.5707 -0.7752 -0.6123
16731SOL     OW51633   2.331   3.150   4.000 -0.0662  0.8941 -0.2268
16731SOL    HW151634   2.393   3.086   4.035  0.3513  0.4136 -1.7818
16731SOL    HW251635   2.386   3.219   3.963 -0.4829  1.1086 -0.4523
16732SOL     OW51636   0.522   0.909   2.189  0.2580  0.3062 -0.2669
16732SOL    HW151637   0.510   0.856   2.110  2.4490 -0.2407 -0.2937
16732SOL    HW251638   0.471   0.863   2.256 -1.7097  0.8324 -1.3137
16733SOL     OW51639   4.127   7.158   5.691 -0.0938 -0.1388 -0.9341
16733SOL    HW151640   4.118   7.114   5.775 -0.9108  1.6471 -0.0386
16733SOL    HW251641   4.065   7.114   5.633 -1.2401  0.1251  0.0702
16734SOL     OW51642   7.233   7.516   8.459 -0.0636 -0.4612 -0.5490
16734SOL    HW151643   7.254   7.425   8.438  0.1773 -0.1908 -1.5320
16734SOL    HW251644   7.222   7.516   8.554 -0.5714 -1.6147 -0.5844
16735SOL     OW51645   0.253   2.683   5.682  0.6695 -0.0282 -0.3224
16735SOL    HW151646   0.217   2.677   5.594  0.0511 -0.6696 -0.0358
16735SOL    HW251647   0.234   2.773   5.709  0.0758 -0.0878 -0.5196
16736SOL     OW51648   4.539   0.520  10.598  0.1718  0.1374 -0.4797
16736SOL    HW151649   4.502   0.451  10.653  1.0761 -1.0058 -1.2490
16736SOL    HW251650   4.530   0.600  10.651  0.9589 -0.8930  1.3206
16737SOL     OW51651   0.683   7.824   9.501 -0.3536 -0.0547 -0.9932
16737SOL    HW151652   0.770   7.804   9.466 -0.2296 -0.0813 -0.6670
16737SOL    HW251653   0.699   7.850   9.591 -0.6319  0.4197 -1.0787
16738SOL     OW51654   3.623   3.477   8.282 -0.3533 -0.3571 -0.4859
16738SOL    HW151655   3.644   3.539   8.213 -1.3004 -1.9588 -2.2834
16738SOL    HW251656   3.528   3.472   8.282 -0.3180 -1.2907  0.1133
16739SOL     OW51657   7.310   0.734   4.246 -0.4272  0.4892 -0.0193
16739SOL    HW151658   7.392   0.782   4.257  1.0329 -1.5785 -1.3852
16739SOL    HW251659   7.324   0.678   4.170 -2.6707 -0.8298  0.4458
16740SOL     OW51660   7.029   7.948   8.850  0.0494 -0.5360  0.0727
16740SOL    HW151661   7.049   7.996   8.931 -0.9626  0.3975 -0.2022
16740SOL    HW251662   6.960   8.000   8.808 -0.1661 -1.5583 -0.8860
16741SOL     OW51663   5.946   2.649  10.373  0.1378 -0.1116 -0.1908
16741SOL    HW151664   5.944   2.608  10.287  0.0724  0.6592 -0.5717
16741SOL    HW251665   5.912   2.738  10.358  0.5385  0.1778  0.5437
16742SOL     OW51666   6.605   6.327   3.863  0.7588  0.3802 -0.3782
16742SOL    HW151667   6.574   6.246   3.821  1.0508  0.3116 -0.4605
16742SOL    HW251668   6.651   6.374   3.793 -0.4538  1.1916 -0.6667
16743SOL     OW51669   7.947   2.387   7.518  0.0666  0.4549  0.3857
16743SOL    HW151670   7.973   2.303   7.556 -0.4101 -0.4832 -1.2650
16743SOL    HW251671   7.963   2.451   7.587  0.4204 -0.9957  1.6882
16744SOL     OW51672   7.490   1.218   8.825 -0.1230 -0.4381  0.5875
16744SOL    HW151673   7.543   1.143   8.854 -2.0950 -1.6140  1.3227
16744SOL    HW251674   7.458   1.193   8.739  0.5909  0.3409  0.0771
16745SOL     OW51675   7.333   1.089  10.310 -0.2673 -0.2736  0.5442
16745SOL    HW151676   7.419   1.129  10.309 -0.6891  0.6933  1.2697
16745SOL    HW251677   7.311   1.077  10.218 -0.0606  1.0491  0.3017
16746SOL     OW51678   7.704   7.894   8.494 -0.4551  0.2946 -0.1519
16746SOL    HW151679   7.724   7.917   8.403 -1.3867 -0.3075 -0.5243
16746SOL    HW251680   7.746   7.962   8.546 -2.2085  2.2364 -1.1546
16747SOL     OW51681   6.108   3.934   7.407  0.0826  0.3216  0.0543
16747SOL    HW151682   6.166   3.858   7.401  1.2731  1.2134 -0.1454
16747SOL    HW251683   6.078   3.949   7.318  0.6178  0.6406 -0.0815
16748SOL     OW51684   6.872   0.774   7.638 -0.6658  0.2682  0.1128
16748SOL    HW151685   6.880   0.751   7.731 -1.4246 -0.3115  0.0474
16748SOL    HW251686   6.812   0.708   7.603  1.0789 -0.7122 -1.2064
16749SOL     OW51687   6.587   1.476   7.647  0.5295  0.1799 -0.2782
16749SOL    HW151688   6.657   1.471   7.583 -0.9993  0.7118 -2.0656
16749SOL    HW251689   6.525   1.408   7.622  0.2367 -0.1055  1.0929
16750SOL     OW51690   5.893   2.212  12.375  0.0541 -0.6611  0.1006
16750SOL    HW151691   5.830   2.144  12.351 -0.0339  0.2314 -2.5471
16750SOL    HW251692   5.977   2.180  12.343  0.2388 -0.0838 -0.0018
16751SOL     OW51693   6.939   2.723   1.817  0.7084  0.0076  0.6027
16751SOL    HW151694   6.849   2.731   1.787  1.0073  0.4142 -0.2166
16751SOL    HW251695   6.948   2.630   1.841  0.0514 -0.0120  0.7746
16752SOL     OW51696   2.908   2.063   5.169 -0.0726 -0.5387 -0.0131
16752SOL    HW151697   2.939   1.981   5.206 -2.4520 -1.4029  0.2726
16752SOL    HW251698   2.897   2.121   5.245  1.4000  0.0140 -0.1914
16753SOL     OW51699   3.176   7.273   2.522  0.0208  0.0956  0.0567
16753SOL    HW151700   3.169   7.366   2.544 -0.8795  0.0245  0.1245
16753SOL    HW251701   3.124   7.263   2.442  0.9547 -0.1679 -0.5268
16754SOL     OW51702   6.424   5.846   5.324 -0.3025 -0.1200 -0.1361
16754SOL    HW151703   6.367   5.829   5.398 -2.5918 -0.8229 -1.9231
16754SOL    HW251704   6.504   5.796   5.342 -1.6611 -2.0351  0.8691
16755SOL     OW51705   6.386   6.059   3.204 -0.1641 -0.0205 -0.3291
16755SOL    HW151706   6.314   6.118   3.223  0.5273  0.9754 -0.6937
16755SOL    HW251707   6.346   5.984   3.162 -0.8768  0.9885 -1.5012
16756SOL     OW51708   7.492   4.813   4.861  0.0539  0.0209 -0.2614
16756SOL    HW151709   7.457   4.754   4.928  0.4461  0.0282 -0.0474
16756SOL    HW251710   7.559   4.864   4.907 -0.8130  1.1931 -0.2355
16757SOL     OW51711   5.978   6.253   7.963 -0.0318 -0.1856  0.1044
16757SOL    HW151712   6.037   6.314   8.007 -0.5781  0.2298  0.2880
16757SOL    HW251713   5.918   6.310   7.914 -0.5642 -0.5781  0.2920
16758SOL     OW51714   7.886   3.907   2.215  0.1942 -0.0916 -0.1286
16758SOL    HW151715   7.905   3.833   2.157 -3.7223  1.0170 -3.3041
16758SOL    HW251716   7.826   3.873   2.280  0.4182 -0.2173  0.0141
16759SOL     OW51717   5.819   1.347   5.304 -0.4866 -0.4259  0.2658
16759SOL    HW151718   5.829   1.439   5.329 -0.4569 -0.4425  0.3158
16759SOL    HW251719   5.889   1.302   5.351 -0.8961 -0.5692  0.7445
16760SOL     OW51720   5.632   3.842   8.500  0.0585  0.5497 -0.1605
16760SOL    HW151721   5.727   3.851   8.498  0.2837 -1.2189  0.9968
16760SOL    HW251722   5.605   3.858   8.409  1.4779  0.7654 -0.5692
16761SOL     OW51723   2.604   2.387  12.181 -0.8838  0.2664  0.6891
16761SOL    HW151724   2.670   2.445  12.220 -0.5063  0.5684 -0.3461
16761SOL    HW251725   2.553   2.444  12.124 -0.6770 -0.3615 -0.1459
16762SOL     OW51726   1.242   5.173  11.919  0.8898 -0.2126  0.5535
16762SOL    HW151727   1.208   5.096  11.874 -0.8088  0.1680  1.1122
16762SOL    HW251728   1.270   5.231  11.848 -1.7164  0.3634 -0.0993
16763SOL     OW51729   3.631   1.080   7.058 -0.4572 -0.6958  0.2233
16763SOL    HW151730   3.601   1.130   7.135  0.2400  1.7730 -1.0111
16763SOL    HW251731   3.552   1.038   7.025 -1.3024  0.4276  0.7411
16764SOL     OW51732   7.923   0.885   1.458  0.1393  0.4378 -0.0817
16764SOL    HW151733   7.860   0.956   1.447 -0.1452  0.0688 -0.9295
16764SOL    HW251734   7.877   0.821   1.513  0.0060  0.4504 -0.1776
16765SOL     OW51735   7.358   5.776   3.007  0.7133  0.2844  0.7927
16765SOL    HW151736   7.264   5.756   3.011  0.7253  0.1464  0.3911
16765SOL    HW251737   7.362   5.870   2.989  0.6566  0.5313  1.9812
16766SOL     OW51738   7.903   5.112   2.825  0.6439  0.4069  0.2084
16766SOL    HW151739   7.857   5.193   2.850 -1.3164 -0.2981 -0.9099
16766SOL    HW251740   7.901   5.112   2.729  1.8019 -0.3337  0.1729
16767SOL     OW51741   3.063   4.541  12.328  0.5914 -0.1666 -0.3090
16767SOL    HW151742   3.080   4.521  12.236  0.4829 -0.3161 -0.2983
16767SOL    HW251743   3.149   4.534  12.370  1.1832  2.5889 -0.8527
16768SOL     OW51744   2.895   5.278  10.995  0.4707 -0.2303 -0.7564
16768SOL    HW151745   2.882   5.187  11.022 -0.0398  0.0633  0.0060
16768SOL    HW251746   2.928   5.322  11.073  0.0650  0.3829 -0.9273
16769SOL     OW51747   3.914   1.947   4.315 -0.3322  0.0903 -0.2351
16769SOL    HW151748   3.828   1.976   4.287  0.0364  0.4286 -1.0519
16769SOL    HW251749   3.897   1.878   4.380 -1.2321  2.0757  1.7710
16770SOL     OW51750   3.500   5.650   2.642  0.4688  0.5887  0.2041
16770SOL    HW151751   3.449   5.725   2.673 -0.2515 -0.3666  1.4026
16770SOL    HW251752   3.523   5.603   2.722  0.0670 -1.0118 -0.5946
16771SOL     OW51753   0.885   3.242   2.378 -0.0725 -0.1607  0.5337
16771SOL    HW151754   0.918   3.170   2.431 -0.6729  0.2198  1.4409
16771SOL    HW251755   0.932   3.319   2.411 -0.3776  0.0652  0.4450
16772SOL     OW51756   0.460   3.219   6.112  0.0750  0.4005  0.3412
16772SOL    HW151757   0.478   3.276   6.037 -0.4502  1.4887  1.0218
16772SOL    HW251758   0.546   3.204   6.151  0.4009 -0.4697 -0.6732
16773SOL     OW51759   5.218   0.060   8.508  0.5766  0.5141  0.1611
16773SOL    HW151760   5.203   0.144   8.552 -1.3931  0.7416 -0.8235
16773SOL    HW251761   5.134   0.040   8.466  1.3482 -1.3991 -0.5724
16774SOL     OW51762   6.280   2.402   2.926  0.0617 -0.2631 -0.4373
16774SOL    HW151763   6.255   2.468   2.861  0.4923  2.9505  2.3589
16774SOL    HW251764   6.369   2.427   2.951  0.1231 -1.7658  0.9452
16775SOL     OW51765   4.215   4.440  10.406  0.2144  0.2569 -0.2463
16775SOL    HW151766   4.273   4.512  10.381  1.3263  0.6353  2.9908
16775SOL    HW251767   4.271   4.362  10.400  0.4802  0.3479  0.9113
16776SOL     OW51768   1.041   4.729   1.471  0.8682 -0.1333  0.4160
16776SOL    HW151769   1.095   4.768   1.402  0.2112  0.2343  0.0947
16776SOL    HW251770   0.951   4.751   1.446  0.6015 -0.2690  1.2258
16777SOL     OW51771   5.491   3.217   2.377 -0.3516 -0.3793  0.1448
16777SOL    HW151772   5.421   3.280   2.362 -1.1615 -1.0324  1.0014
16777SOL    HW251773   5.504   3.174   2.293 -0.3806  0.3381 -0.2301
16778SOL     OW51774   3.329   4.990   3.715 -0.1967  0.0300 -0.5693
16778SOL    HW151775   3.271   5.049   3.668 -0.7506  0.8389  1.0604
16778SOL    HW251776   3.326   5.020   3.806  1.8830 -0.6351 -0.2344
16779SOL     OW51777   0.222   7.879   9.298 -0.2784 -0.2737 -0.4844
16779SOL    HW151778   0.256   7.814   9.236 -1.7196 -1.5489 -0.0143
16779SOL    HW251779   0.209   7.829   9.379 -0.4340  0.8635  0.2059
16780SOL     OW51780   1.078   7.808   6.967  1.1798 -0.0746 -0.1867
16780SOL    HW151781   1.132   7.879   6.935  2.3195 -1.2845 -1.0613
16780SOL    HW251782   1.007   7.800   6.902  0.4549  0.8973  0.4607
16781SOL     OW51783   2.199   7.837   0.925  0.1533  0.1249  0.5993
16781SOL    HW151784   2.143   7.839   1.003 -0.1224  0.5721  0.4017
16781SOL    HW251785   2.264   7.770   0.943 -1.3469 -1.4939  0.2158
16782SOL     OW51786   2.251   5.579   3.495 -0.3804 -0.2129 -0.3043
16782SOL    HW151787   2.176   5.525   3.471  0.2913 -2.0074  1.3968
16782SOL    HW251788   2.327   5.526   3.470  0.3043 -0.3755  1.9074
16783SOL     OW51789   4.241   6.883   6.537 -0.6727  0.2017 -0.4748
16783SOL    HW151790   4.172   6.949   6.532  0.7866  1.8789  0.3539
16783SOL    HW251791   4.237   6.851   6.627 -0.2430  0.4631 -0.3597
16784SOL     OW51792   1.418   0.979  10.888  0.1724 -0.6929  0.4992
16784SOL    HW151793   1.478   1.041  10.928 -0.7038 -1.0304  2.4635
16784SOL    HW251794   1.365   1.032  10.828  1.1801 -0.0782  0.1199
16785SOL     OW51795   3.339   3.800   9.852  0.0203  0.0996  0.0696
16785SOL    HW151796   3.423   3.817   9.894 -0.6465  0.7758  1.1655
16785SOL    HW251797   3.284   3.874   9.877 -1.4830 -1.2495  0.9710
16786SOL     OW51798   3.677   4.561   4.036 -0.8378  0.5579 -0.4107
16786SOL    HW151799   3.741   4.530   4.101  0.7697 -0.5426 -2.4084
16786SOL    HW251800   3.593   4.553   4.080  0.2469  0.6988  1.8415
16787SOL     OW51801   5.274   0.577   9.023 -0.0614 -0.3689 -0.0658
16787SOL    HW151802   5.216   0.563   9.098  0.1897  1.1109  0.4376
16787SOL    HW251803   5.220   0.626   8.960  0.5023  0.7198  0.2663
16788SOL     OW51804   3.890   0.317  11.696 -0.4405  0.1440  0.0821
16788SOL    HW151805   3.836   0.346  11.623  0.4871  1.7566 -0.0241
16788SOL    HW251806   3.978   0.309  11.659 -0.0906  0.3122  0.8435
16789SOL     OW51807   2.465   0.065   0.594 -0.1692 -0.3519 -0.5219
16789SOL    HW151808   2.454  -0.027   0.567  1.1107 -0.7858  0.3327
16789SOL    HW251809   2.426   0.069   0.682  1.9031 -0.7303  0.4887
16790SOL     OW51810   2.955   0.553  10.966 -0.0225 -0.0443  0.0907
16790SOL    HW151811   2.985   0.463  10.976  1.1131  0.4141  1.1014
16790SOL    HW251812   2.991   0.582  10.883 -0.7971 -0.6537 -0.4744
16791SOL     OW51813   5.588   7.711  12.268  0.2063 -0.1938  0.6762
16791SOL    HW151814   5.642   7.641  12.232 -0.0928 -0.6320  1.0668
16791SOL    HW251815   5.560   7.762  12.192 -0.6900 -1.3041  0.2447
16792SOL     OW51816   1.999   7.213  12.120 -0.4273  0.2156  0.1298
16792SOL    HW151817   1.937   7.284  12.104  0.8727  1.0078 -1.7118
16792SOL    HW251818   2.004   7.166  12.037  1.4679  0.2495  0.1818
16793SOL     OW51819   0.005   0.789   9.422  0.0359  0.1679  0.5830
16793SOL    HW151820   0.004   0.881   9.394 -0.1912  0.3306  1.1120
16793SOL    HW251821  -0.040   0.742   9.352  0.2311  0.4452  0.2668
16794SOL     OW51822   4.728   6.135   6.170  0.3282 -0.0810  0.9452
16794SOL    HW151823   4.693   6.203   6.226 -0.0749 -0.0786  0.6927
16794SOL    HW251824   4.683   6.055   6.199 -0.2446  0.0016  0.3119
16795SOL     OW51825   6.378   4.546   3.201  0.6897  0.1779  0.2332
16795SOL    HW151826   6.307   4.492   3.166  0.4999  0.1831  0.6085
16795SOL    HW251827   6.455   4.489   3.198  0.6118  0.0792  0.0896
16796SOL     OW51828   2.937   6.969  10.936 -0.2133  0.0813 -0.1690
16796SOL    HW151829   2.926   6.932  10.848 -0.1287  0.5976 -0.4033
16796SOL    HW251830   3.032   6.975  10.947 -0.2136 -0.5071  0.1874
16797SOL     OW51831   0.491   1.982   6.361 -0.3861  0.0510  0.1669
16797SOL    HW151832   0.550   2.033   6.416  0.4985 -2.4277  1.6706
16797SOL    HW251833   0.405   1.993   6.401 -0.0941 -0.1214  0.8543
16798SOL     OW51834   0.587   5.943   3.966 -0.7850 -0.3227  0.4152
16798SOL    HW151835   0.588   5.874   3.900  0.1387  0.3811 -0.3394
16798SOL    HW251836   0.540   5.905   4.040 -1.7232 -1.1810 -0.5867
16799SOL     OW51837   3.640   1.293  11.418  0.4540  0.6541 -0.1002
16799SOL    HW151838   3.589   1.224  11.377 -1.9733  1.8828  0.6769
16799SOL    HW251839   3.613   1.373  11.372 -0.3268  1.6885  2.0185
16800SOL     OW51840   3.901   2.150   5.696 -0.4842 -0.0534  0.3241
16800SOL    HW151841   3.867   2.122   5.610  0.2021 -0.3288  0.1362
16800SOL    HW251842   3.892   2.245   5.695  2.0970  0.2777 -1.2311
16801SOL     OW51843   5.415   3.757  11.982 -0.4156 -0.0159 -0.0157
16801SOL    HW151844   5.330   3.795  12.006  0.6678  1.2963  2.0774
16801SOL    HW251845   5.452   3.727  12.064  1.2093 -0.4412 -0.8570
16802SOL     OW51846   0.726   5.731   6.164  0.3207  0.3172  0.2612
16802SOL    HW151847   0.815   5.704   6.183  0.1522 -1.0122 -0.7508
16802SOL    HW251848   0.675   5.650   6.167 -0.6493  0.8906 -0.2974
16803SOL     OW51849   3.421   2.189   3.364  0.5544 -0.0106  0.1707
16803SOL    HW151850   3.441   2.233   3.282  1.9013 -0.8337  0.0328
16803SOL    HW251851   3.343   2.136   3.344  1.8923 -1.6217 -1.1597
16804SOL     OW51852   0.203   3.366   6.072  0.2604  0.3098  0.4792
16804SOL    HW151853   0.165   3.278   6.079 -1.4202  1.0875  2.3103
16804SOL    HW251854   0.282   3.354   6.020 -0.8879 -1.9598 -0.9055
16805SOL     OW51855   2.643   6.646  11.889  0.0616  0.1854 -0.2216
16805SOL    HW151856   2.708   6.622  11.824 -0.4519  0.0775 -0.7093
16805SOL    HW251857   2.559   6.618  11.851 -0.5007  2.1519 -0.5545
16806SOL     OW51858   5.958   7.837   7.256 -0.6956 -0.0174 -0.6034
16806SOL    HW151859   5.906   7.771   7.212  0.6008 -0.8310 -0.9847
16806SOL    HW251860   5.899   7.911   7.267 -1.5819 -0.4710 -2.0320
16807SOL     OW51861   0.897   6.666   6.884 -0.2722  0.6223  0.2759
16807SOL    HW151862   0.854   6.712   6.956 -0.8925  2.0307 -0.9341
16807SOL    HW251863   0.859   6.579   6.884 -1.5238  1.1541  0.5917
16808SOL     OW51864   0.906   4.989   0.879 -0.0802 -0.3401 -0.2030
16808SOL    HW151865   0.946   5.060   0.830 -2.2172 -0.5250 -2.3954
16808SOL    HW251866   0.968   4.916   0.869  1.7297  0.8556  1.3898
16809SOL     OW51867   3.703   6.549   8.220 -0.6322  0.2547  0.1593
16809SOL    HW151868   3.609   6.562   8.213 -0.5775  1.2839  1.1567
16809SOL    HW251869   3.713   6.454   8.229 -1.5759  0.1518  0.2578
16810SOL     OW51870   1.151   0.395   6.856  0.0553  0.2799 -0.1910
16810SOL    HW151871   1.088   0.403   6.783 -2.3304  0.1400  1.7211
16810SOL    HW251872   1.191   0.482   6.861  0.6386  0.1480 -1.9547
16811SOL     OW51873   2.624   3.293   6.781  0.2996 -0.0584  0.4438
16811SOL    HW151874   2.558   3.226   6.796 -0.1790 -0.1444 -1.7200
16811SOL    HW251875   2.699   3.246   6.744 -0.0597  0.5685 -1.1338
16812SOL     OW51876   2.899   7.750   6.541 -0.3646  0.0604 -0.2054
16812SOL    HW151877   2.922   7.808   6.469  0.4531 -1.9533 -1.6735
16812SOL    HW251878   2.848   7.680   6.500  0.2851 -1.2558  1.1311
16813SOL     OW51879   4.471   4.789   5.222 -0.1475 -0.0075 -0.0119
16813SOL    HW151880   4.513   4.799   5.307  0.0126  1.1542 -0.2122
16813SOL    HW251881   4.538   4.815   5.158 -0.1663 -1.1472 -0.5223
16814SOL     OW51882   2.276   6.715   2.300 -0.3695 -0.5608  0.3090
16814SOL    HW151883   2.233   6.650   2.244 -2.2197 -0.4951  1.5721
16814SOL    HW251884   2.205   6.762   2.342  0.8907 -0.7272  2.8583
16815SOL     OW51885   5.462   3.718   5.807  0.3216  0.0348  1.1561
16815SOL    HW151886   5.525   3.786   5.829  0.1881 -0.0677  1.9027
16815SOL    HW251887   5.393   3.764   5.758  1.6369 -0.1121 -0.9371
16816SOL     OW51888   7.171   5.709   0.058  0.0707 -0.7539  0.1061
16816SOL    HW151889   7.227   5.739   0.130 -0.1523  1.1261 -0.4397
16816SOL    HW251890   7.149   5.619   0.081 -1.8811  0.4096  3.5992
16817SOL     OW51891   0.460   1.270   3.345  0.6851 -0.0596 -0.2717
16817SOL    HW151892   0.440   1.326   3.269  2.9516  1.2629 -0.0056
16817SOL    HW251893   0.532   1.215   3.315 -0.8120 -2.1674 -0.1734
16818SOL     OW51894   1.610   5.726   0.814 -0.0080  0.1686 -0.1357
16818SOL    HW151895   1.558   5.717   0.734  0.4525  1.4121 -0.5880
16818SOL    HW251896   1.546   5.746   0.882 -0.2329  0.6760 -0.4961
16819SOL     OW51897   4.420   5.459   2.401 -0.1504 -0.6140 -0.3002
16819SOL    HW151898   4.402   5.400   2.474 -0.2993 -0.5611 -0.2934
16819SOL    HW251899   4.361   5.533   2.415  2.0580  0.9686  1.3342
16820SOL     OW51900   5.868   7.821   2.318 -0.4341 -0.1094 -0.2917
16820SOL    HW151901   5.781   7.830   2.356 -0.4625 -1.2106 -0.0534
16820SOL    HW251902   5.899   7.910   2.305 -0.9423  0.2862  1.1280
16821SOL     OW51903   1.763   4.941   4.564  0.1058  0.3020 -0.2583
16821SOL    HW151904   1.846   4.978   4.535  0.6544 -0.1019  0.7695
16821SOL    HW251905   1.696   4.998   4.524  0.8156 -0.1401 -2.1701
16822SOL     OW51906   2.591   5.042   7.342 -0.4952 -0.0017  0.4411
16822SOL    HW151907   2.560   4.952   7.356 -0.0143 -0.3576 -0.6869
16822SOL    HW251908   2.581   5.084   7.428  2.3913 -2.0666  1.9541
16823SOL     OW51909   0.835   4.530  11.887  0.4824  0.0171  0.0548
16823SOL    HW151910   0.837   4.570  11.974  1.6556 -2.0687  1.0685
16823SOL    HW251911   0.742   4.511  11.872  0.0473  1.9379  0.0398
16824SOL     OW51912   7.664   7.226   6.912  0.3795 -0.0649  0.1995
16824SOL    HW151913   7.740   7.168   6.918  1.3516  0.9512 -1.3149
16824SOL    HW251914   7.695   7.299   6.859 -1.9008 -0.0161 -1.1921
16825SOL     OW51915   2.923   6.263   1.612 -0.4047  0.0270 -0.6441
16825SOL    HW151916   2.927   6.255   1.708  0.3810 -0.9907 -0.7409
16825SOL    HW251917   2.913   6.173   1.581 -1.8495  0.4506 -1.4919
16826SOL     OW51918   3.839   0.777   1.217 -0.4652  0.5078  0.3991
16826SOL    HW151919   3.849   0.869   1.191 -2.2541  0.5750 -0.1978
16826SOL    HW251920   3.885   0.771   1.301 -1.0426  2.1820  0.8859
16827SOL     OW51921   1.959   2.620   8.134  0.1544 -0.4616  0.2096
16827SOL    HW151922   1.949   2.692   8.196  1.5478  0.8505 -0.9915
16827SOL    HW251923   2.037   2.573   8.164 -0.1939 -0.8928  0.4445
16828SOL     OW51924   3.872   1.806  10.190 -0.0618  0.0742  0.3213
16828SOL    HW151925   3.905   1.762  10.269 -1.8481 -1.8262  0.1105
16828SOL    HW251926   3.905   1.753  10.117 -1.2077 -0.2426  0.0003
16829SOL     OW51927   6.987   2.262   9.098  0.1305 -0.4958 -0.2938
16829SOL    HW151928   6.959   2.259   9.006 -0.9943  0.1625  0.0018
16829SOL    HW251929   7.067   2.314   9.097 -0.3501  0.2704 -0.8224
16830SOL     OW51930   5.636   2.415  12.187 -0.6924 -0.0824  0.0169
16830SOL    HW151931   5.603   2.348  12.127  2.3699 -1.3497 -0.4394
16830SOL    HW251932   5.685   2.366  12.253  1.1774  1.6207 -0.0070
16831SOL     OW51933   7.423   7.333   5.360 -0.0919 -0.0310  0.4086
16831SOL    HW151934   7.385   7.289   5.284 -1.7899 -1.0632  1.7867
16831SOL    HW251935   7.393   7.423   5.353 -0.5083 -0.1958  0.0385
16832SOL     OW51936   6.294   7.708   9.741  0.2278 -0.0073  0.3540
16832SOL    HW151937   6.293   7.798   9.773  0.2892 -0.3553  1.3751
16832SOL    HW251938   6.324   7.656   9.816  0.0377 -0.8967 -0.1675
16833SOL     OW51939   6.269   6.380  10.051  0.5086  0.0084  0.0372
16833SOL    HW151940   6.313   6.463  10.033 -1.1552  1.7225  3.0263
16833SOL    HW251941   6.186   6.406  10.091 -1.4622 -3.1068 -1.6215
16834SOL     OW51942   2.268   2.589  11.004 -0.8827  0.5491 -0.3039
16834SOL    HW151943   2.357   2.574  10.973 -0.1780  1.5721  1.0893
16834SOL    HW251944   2.223   2.630  10.930 -0.4561 -0.7146 -1.2957
16835SOL     OW51945   4.817   6.559   0.889  0.2611 -0.1551 -0.5906
16835SOL    HW151946   4.761   6.574   0.965 -0.6573  0.1078 -1.2990
16835SOL    HW251947   4.763   6.583   0.814  0.9242 -1.0424 -1.3739
16836SOL     OW51948   1.553   7.126   2.491  0.1980 -0.4000  0.0475
16836SOL    HW151949   1.589   7.054   2.440 -0.8981 -0.6829 -0.3645
16836SOL    HW251950   1.627   7.160   2.542  1.2874 -0.1822 -1.6306
16837SOL     OW51951   2.978   6.481   5.017 -0.5029  0.0367  0.0992
16837SOL    HW151952   2.983   6.546   5.087 -1.7944  0.2149  0.0437
16837SOL    HW251953   2.931   6.525   4.946  0.1395 -0.3876 -0.6114
16838SOL     OW51954   3.079   7.222   6.015  0.4121 -0.0506  0.0374
16838SOL    HW151955   3.153   7.168   5.986 -0.2655 -0.3913 -1.1014
16838SOL    HW251956   3.006   7.161   6.023  0.0480  0.4220  0.3416
16839SOL     OW51957   3.795   4.074   5.009 -0.4385  0.8505 -0.0196
16839SOL    HW151958   3.728   4.113   5.065  1.2832  1.7752  1.5204
16839SOL    HW251959   3.877   4.111   5.041  1.0416 -1.8962 -0.3641
16840SOL     OW51960   3.624   6.024  10.563  0.3261 -0.3961  0.0450
16840SOL    HW151961   3.651   6.066  10.481  0.2309 -1.4839 -0.5620
16840SOL    HW251962   3.706   6.010  10.611  0.4084  0.0069  0.0243
16841SOL     OW51963   3.826   1.549   3.752  0.1455 -0.1767  0.1334
16841SOL    HW151964   3.858   1.478   3.808  0.6738  0.3300  0.4830
16841SOL    HW251965   3.792   1.614   3.812 -1.4665 -0.6278 -0.2213
16842SOL     OW51966   4.901   7.354   8.447 -0.3812  0.0966 -0.5592
16842SOL    HW151967   4.966   7.418   8.477 -1.0854  1.5647 -2.0303
16842SOL    HW251968   4.952   7.279   8.420  0.6869  1.0202 -1.1914
16843SOL     OW51969   2.002   3.678   7.612  0.4592  0.0302  0.4805
16843SOL    HW151970   1.912   3.680   7.646 -0.5994 -0.3033 -2.0722
16843SOL    HW251971   2.044   3.606   7.659 -0.5130  0.3477  1.8920
16844SOL     OW51972   2.825   0.447   3.181 -0.7915  0.1388  0.5262
16844SOL    HW151973   2.783   0.397   3.111 -1.4763  0.3788  0.7580
16844SOL    HW251974   2.835   0.385   3.253 -1.1227  0.1891  0.6149
16845SOL     OW51975   6.102   5.114   6.343  0.3090  0.3972 -0.1078
16845SOL    HW151976   6.144   5.053   6.404 -0.1985 -0.8719 -0.9765
16845SOL    HW251977   6.173   5.150   6.291  0.4742 -0.9136 -0.8425
16846SOL     OW51978   4.387   3.597   2.849  0.2107 -0.2234  0.3966
16846SOL    HW151979   4.476   3.609   2.883 -0.9040  1.9685  2.8991
16846SOL    HW251980   4.391   3.628   2.759  1.8353  0.5603  0.6951
16847SOL     OW51981   6.295   0.418   8.444 -0.1014  0.0848  0.6881
16847SOL    HW151982   6.326   0.503   8.474  1.6187 -0.3706  0.2927
16847SOL    HW251983   6.364   0.356   8.469 -1.5776 -1.3290  1.5320
16848SOL     OW51984   1.464   7.037  10.178 -0.3693  0.0863 -0.2391
16848SOL    HW151985   1.504   7.120  10.204  0.9579 -0.4186 -0.5750
16848SOL    HW251986   1.432   7.052  10.089 -0.4515  0.3397 -0.1672
16849SOL     OW51987   6.699   4.773   6.936  0.4604  0.3814 -0.9411
16849SOL    HW151988   6.731   4.832   6.867 -0.6838  0.3863 -1.4841
16849SOL    HW251989   6.605   4.768   6.921  0.2520  0.0565  0.3890
16850SOL     OW51990   6.631   7.608   4.234 -0.3137  0.0952 -0.2740
16850SOL    HW151991   6.589   7.577   4.154 -0.6839  0.3346 -0.1752
16850SOL    HW251992   6.664   7.529   4.276 -0.8546 -0.1197 -0.2470
16851SOL     OW51993   4.299   3.901   8.761  0.0904  0.3167 -0.2373
16851SOL    HW151994   4.327   3.970   8.821  1.4737 -0.1809 -0.2726
16851SOL    HW251995   4.356   3.911   8.684 -1.3734  0.6821 -1.3014
16852SOL     OW51996   4.180   7.245   2.438 -0.0922  0.2861 -0.1468
16852SOL    HW151997   4.202   7.285   2.354  0.7608 -1.1985 -0.6528
16852SOL    HW251998   4.141   7.161   2.416 -3.7379  1.5230  0.8179
16853SOL     OW51999   6.798   1.647   5.750  0.6308 -0.6031 -0.4104
16853SOL    HW152000   6.884   1.649   5.792  2.0641  0.7675 -3.1374
16853SOL    HW252001   6.809   1.588   5.676 -1.0040 -0.9161 -0.4405
16854SOL     OW52002   0.201   4.808   8.340  0.1094  0.1108  0.3025
16854SOL    HW152003   0.148   4.734   8.311 -1.9370  2.5539 -2.9041
16854SOL    HW252004   0.288   4.771   8.354 -0.9910 -3.0144 -0.2129
16855SOL     OW52005   4.051   4.063  10.135 -0.3565 -0.1071 -0.0614
16855SOL    HW152006   4.099   4.097  10.060  0.2178 -0.0448  0.3269
16855SOL    HW252007   4.111   4.000  10.175 -0.2404  0.6084  0.9311
16856SOL     OW52008   1.566   2.751   8.269 -0.1245 -0.8550  0.1013
16856SOL    HW152009   1.644   2.732   8.321 -0.1880  1.4044  1.1591
16856SOL    HW252010   1.495   2.752   8.334 -0.3702  0.9963 -0.1515
16857SOL     OW52011   6.956   5.939   3.594 -0.2017  0.1689 -0.5173
16857SOL    HW152012   7.033   5.932   3.537 -1.5538  0.2178 -2.4334
16857SOL    HW252013   6.952   6.031   3.618  1.1605 -0.0905  0.8607
16858SOL     OW52014   3.068   3.744   7.687  0.1691 -0.8676 -0.0712
16858SOL    HW152015   2.998   3.786   7.737  1.7398  1.4473  0.3296
16858SOL    HW252016   3.148   3.786   7.718  1.4800 -1.4445 -2.4421
16859SOL     OW52017   6.685   7.259   1.055 -0.6390  0.2006  0.8658
16859SOL    HW152018   6.755   7.202   1.024  0.4795  0.8868  2.0351
16859SOL    HW252019   6.605   7.225   1.014  0.3421 -0.7346 -0.3103
16860SOL     OW52020   1.676   5.826   7.198 -0.1743  0.0633 -0.3741
16860SOL    HW152021   1.636   5.775   7.128 -0.8157  1.4431 -1.0511
16860SOL    HW252022   1.603   5.864   7.246  0.2126 -1.7025  1.7640
16861SOL     OW52023   2.182   0.964   2.547  0.6875  0.3964  0.2930
16861SOL    HW152024   2.169   0.870   2.530  1.0709  0.2968  0.5302
16861SOL    HW252025   2.121   0.984   2.618 -3.1284  1.4800 -2.9294
16862SOL     OW52026   0.997   3.507   4.726 -0.2533  0.0298  0.1960
16862SOL    HW152027   0.955   3.543   4.648 -2.3376  1.7567  1.9719
16862SOL    HW252028   0.978   3.413   4.723 -0.4496  0.0983 -1.2634
16863SOL     OW52029   1.559   7.520   6.501 -0.2697  0.2024  0.5286
16863SOL    HW152030   1.582   7.582   6.570 -0.3218  0.1077  0.6339
16863SOL    HW252031   1.464   7.530   6.491 -0.2454  0.2909  0.3980
16864SOL     OW52032   7.410   2.270   7.743 -0.1668  0.0440 -0.1222
16864SOL    HW152033   7.364   2.346   7.779  0.4235  0.2699  0.1486
16864SOL    HW252034   7.342   2.223   7.694 -0.7659  0.2104  0.5308
16865SOL     OW52035   0.026   2.810   5.111  0.1205  0.0540  0.2381
16865SOL    HW152036   0.054   2.732   5.159  0.5509  0.7763  1.1934
16865SOL    HW252037   0.055   2.883   5.165 -0.5933  0.8793 -0.4644
16866SOL     OW52038   3.659   1.737  11.933 -0.0528  0.2140 -0.2619
16866SOL    HW152039   3.580   1.685  11.950  0.6828 -1.2986 -1.2173
16866SOL    HW252040   3.646   1.817  11.983 -0.9678 -1.1378  1.7905
16867SOL     OW52041   6.782   1.559  12.452  0.0576  0.1627  0.2705
16867SOL    HW152042   6.847   1.569  12.522 -0.5591 -1.5159  1.1426
16867SOL    HW252043   6.699   1.582  12.493 -0.1396  0.4858 -0.3077
16868SOL     OW52044   4.918   1.529   6.977 -0.0578  0.2294 -0.3331
16868SOL    HW152045   4.904   1.556   7.068 -0.4385  2.1944 -0.9210
16868SOL    HW252046   4.884   1.602   6.925  0.0865 -0.8772 -2.0674
16869SOL     OW52047   2.504   1.916   6.413 -0.4540 -0.1544  0.1110
16869SOL    HW152048   2.425   1.902   6.360  0.4031 -2.4053 -0.7130
16869SOL    HW252049   2.518   1.832   6.457  0.5199  0.7628  1.6344
16870SOL     OW52050   3.432   7.754   7.566 -0.1239 -0.3185 -0.1235
16870SOL    HW152051   3.426   7.664   7.596 -1.9511 -0.3575 -0.4357
16870SOL    HW252052   3.449   7.805   7.645  1.2795 -0.9342  0.0062
16871SOL     OW52053   5.542   7.850   3.204 -0.9247 -0.1380  0.5053
16871SOL    HW152054   5.599   7.909   3.156 -1.4796  0.2452  0.3052
16871SOL    HW252055   5.531   7.774   3.146 -0.3784 -0.3502  0.6755
16872SOL     OW52056   2.658   4.206   6.747 -0.1855  0.2713 -0.2140
16872SOL    HW152057   2.678   4.180   6.657 -2.5410  0.5033 -0.8763
16872SOL    HW252058   2.726   4.269   6.770  1.4553 -1.0764 -1.1769
16873SOL     OW52059   6.480   3.152   1.239 -0.0657 -0.9425 -0.3169
16873SOL    HW152060   6.539   3.225   1.256  0.4041 -0.8717 -2.1001
16873SOL    HW252061   6.394   3.192   1.227  0.4033 -0.4965 -2.5451
16874SOL     OW52062   5.977   6.312   2.189 -0.3984  0.0145 -0.5989
16874SOL    HW152063   6.006   6.380   2.251 -0.6750  0.5355 -1.0305
16874SOL    HW252064   5.981   6.354   2.103  1.0928 -1.0634 -1.0909
16875SOL     OW52065   3.605   0.292   9.434 -0.7027 -0.4944  0.3554
16875SOL    HW152066   3.632   0.350   9.505 -0.1650 -0.8528  0.4561
16875SOL    HW252067   3.648   0.327   9.356  3.7354 -3.3447  1.1117
16876SOL     OW52068   0.443   1.458   5.903 -0.0920 -0.1655  0.4485
16876SOL    HW152069   0.490   1.485   5.981  0.6296 -1.8601  0.6399
16876SOL    HW252070   0.511   1.440   5.838 -0.6347  0.2651 -0.2657
16877SOL     OW52071   6.062   5.811  10.109  0.3247 -0.1932 -0.2929
16877SOL    HW152072   6.102   5.856  10.035 -0.2757 -0.2273 -0.6456
16877SOL    HW252073   6.063   5.719  10.085  0.8358 -0.2858  0.0829
16878SOL     OW52074   3.197   7.637   6.037 -0.1998 -0.1735 -0.5799
16878SOL    HW152075   3.170   7.559   6.086 -0.2130 -0.6550 -1.3194
16878SOL    HW252076   3.145   7.708   6.072 -2.1309 -0.9850 -1.6357
16879SOL     OW52077   0.092   2.898   6.825 -0.1484  0.1604  0.4086
16879SOL    HW152078   0.106   2.915   6.732 -1.7554 -2.0674 -0.3342
16879SOL    HW252079   0.007   2.936   6.843 -0.7429 -1.1113  0.4107
16880SOL     OW52080   6.997   4.110   4.631 -0.2964  0.6815 -0.4379
16880SOL    HW152081   7.072   4.050   4.626  0.0165  0.8951  1.1708
16880SOL    HW252082   6.925   4.061   4.592  0.2997 -0.1501 -0.5346
16881SOL     OW52083   7.411   7.208   3.531 -0.4928  0.5425  0.3633
16881SOL    HW152084   7.484   7.219   3.591 -0.9996  0.4888  1.0001
16881SOL    HW252085   7.412   7.287   3.477  2.3226 -1.0286 -2.2086
16882SOL     OW52086   1.877   3.494   0.510 -0.2105 -0.0996  0.3329
16882SOL    HW152087   1.872   3.520   0.602 -0.3523 -1.2367  0.6541
16882SOL    HW252088   1.870   3.399   0.511 -0.2395 -0.1247 -0.8619
16883SOL     OW52089   2.414   6.648   6.052 -0.2516  0.0392  0.3124
16883SOL    HW152090   2.459   6.718   6.006  0.9539 -1.0368 -0.2067
16883SOL    HW252091   2.435   6.569   6.003 -0.1786 -0.9390  1.8369
16884SOL     OW52092   2.661   6.837   4.633 -0.0546 -0.0441  0.8787
16884SOL    HW152093   2.577   6.796   4.652  0.3414 -1.2242  0.1584
16884SOL    HW252094   2.648   6.883   4.550 -0.4651  1.2427  1.6281
16885SOL     OW52095   7.236   7.665   8.161 -0.6234  0.0380 -0.0316
16885SOL    HW152096   7.142   7.662   8.148 -0.7797  1.6710  0.4043
16885SOL    HW252097   7.259   7.580   8.197 -1.7939 -0.6658 -0.9050
16886SOL     OW52098   5.820   4.094   5.147 -0.7141 -0.2434  0.2369
16886SOL    HW152099   5.906   4.133   5.128 -2.0762  3.1370  0.1590
16886SOL    HW252100   5.765   4.123   5.074 -1.9479 -2.4157  0.2307
16887SOL     OW52101   0.334   4.128   4.294 -0.9230 -0.1285 -0.2974
16887SOL    HW152102   0.263   4.066   4.310 -0.3802 -0.7447 -0.2487
16887SOL    HW252103   0.385   4.089   4.224  1.7930 -1.8392  2.3752
16888SOL     OW52104   2.927   6.192  12.340  0.1593 -0.0782  0.2264
16888SOL    HW152105   2.882   6.176  12.257  0.4602  0.5485 -0.0626
16888SOL    HW252106   3.000   6.250  12.317 -0.4538  1.0945  1.1183
16889SOL     OW52107   1.808   5.483   5.434  0.7550 -0.1444 -0.2525
16889SOL    HW152108   1.787   5.473   5.527  0.0101 -0.7519 -0.4778
16889SOL    HW252109   1.771   5.568   5.410 -2.5364 -1.6269 -0.8923
16890SOL     OW52110   3.783   4.614   7.965  0.4148 -0.0942 -0.1703
16890SOL    HW152111   3.726   4.608   8.042 -0.6786  5.1845 -0.1760
16890SOL    HW252112   3.723   4.622   7.891  1.4030 -1.2622 -1.1554
16891SOL     OW52113   0.405   5.361   4.063  0.0729  0.1540  0.0056
16891SOL    HW152114   0.454   5.441   4.079  2.2703 -0.9572 -0.8654
16891SOL    HW252115   0.471   5.293   4.056 -1.6583 -1.5619 -0.4492
16892SOL     OW52116   6.172   0.183   7.654  0.2955  0.0012  0.2301
16892SOL    HW152117   6.128   0.263   7.684 -1.2539 -0.4688 -0.7267
16892SOL    HW252118   6.213   0.208   7.571 -0.7352 -0.3352 -0.3998
16893SOL     OW52119   0.480   3.906   8.990 -0.3764  0.4598 -0.0560
16893SOL    HW152120   0.510   3.977   9.047  1.0953  0.0295 -0.2429
16893SOL    HW252121   0.502   3.826   9.037  1.2011  0.0933 -1.3355
16894SOL     OW52122   2.351   2.930   1.388 -0.2020  0.6126 -0.0680
16894SOL    HW152123   2.396   2.858   1.432 -2.5227 -0.1944  1.1326
16894SOL    HW252124   2.322   2.894   1.305  2.4780  1.5598 -1.5095
16895SOL     OW52125   5.847   6.299  10.476  0.0924  0.3959 -0.5267
16895SOL    HW152126   5.868   6.277  10.567 -1.0751 -0.8696 -0.5347
16895SOL    HW252127   5.779   6.236  10.451 -0.5111  1.5285 -1.8740
16896SOL     OW52128   6.814   5.366   5.898  0.0700 -0.1231 -0.1690
16896SOL    HW152129   6.718   5.368   5.897 -0.0275 -1.0095  2.0141
16896SOL    HW252130   6.836   5.278   5.929  1.6390 -0.2650 -1.5486
16897SOL     OW52131   2.237   2.790   9.077  0.2001  0.4220  0.3660
16897SOL    HW152132   2.235   2.788   8.981  1.2366 -1.3780  0.3377
16897SOL    HW252133   2.196   2.708   9.104  0.7700  0.4627  1.4255
16898SOL     OW52134   7.861   2.873   8.678 -0.4123  0.2592 -0.4433
16898SOL    HW152135   7.900   2.788   8.697  0.7604  0.7444 -0.5861
16898SOL    HW252136   7.771   2.866   8.711  0.0187 -0.6290  0.6244
16899SOL     OW52137   5.608   4.503   3.846  0.1845  0.4886  0.2540
16899SOL    HW152138   5.673   4.435   3.860 -0.1366 -0.1695 -1.2732
16899SOL    HW252139   5.639   4.551   3.769  0.0273  1.6284  0.8747
16900SOL     OW52140   5.206   7.034   8.321  0.0305 -0.1383  0.9297
16900SOL    HW152141   5.298   7.008   8.328  0.6998  1.8818  0.2675
16900SOL    HW252142   5.204   7.124   8.354 -1.3447  0.5307 -0.8406
16901SOL     OW52143   3.171   6.247   8.241  0.1152 -0.6040 -0.0086
16901SOL    HW152144   3.233   6.174   8.233  1.5206  0.7486 -2.8852
16901SOL    HW252145   3.090   6.214   8.202  0.0771 -1.2441  0.5791
16902SOL     OW52146   6.101   0.248  12.112 -0.1535 -0.6121 -0.3258
16902SOL    HW152147   6.014   0.270  12.146 -0.1820 -0.4914 -0.4773
16902SOL    HW252148   6.124   0.167  12.157 -0.4660 -0.7946 -0.4914
16903SOL     OW52149   0.965   7.026   2.007  0.1510 -0.0941 -0.0312
16903SOL    HW152150   1.013   7.073   1.938  2.8505 -1.6625  0.6093
16903SOL    HW252151   1.013   7.045   2.087  0.4304 -2.5806  0.4888
16904SOL     OW52152   6.912   2.037   5.532  0.4558 -0.1936 -0.0775
16904SOL    HW152153   6.962   1.963   5.566 -0.8857 -0.7152  0.8155
16904SOL    HW252154   6.912   2.101   5.604 -1.6586 -0.9461  0.6538
16905SOL     OW52155   7.267   4.732   0.934 -0.4499 -0.6907 -0.6201
16905SOL    HW152156   7.312   4.795   0.990 -0.6224 -1.3597  0.2924
16905SOL    HW252157   7.175   4.738   0.961 -0.8873  0.4244 -2.2352
16906SOL     OW52158   6.953   3.012  10.883 -0.3306 -0.0028 -0.0544
16906SOL    HW152159   6.932   2.925  10.916 -0.2592  0.3955  1.0652
16906SOL    HW252160   7.048   3.009  10.867 -0.0441  0.3507  1.4959
16907SOL     OW52161   3.627   0.933   7.553 -0.5393 -0.1849 -0.3922
16907SOL    HW152162   3.665   0.874   7.488 -0.8141 -0.9402  0.1265
16907SOL    HW252163   3.564   0.880   7.601 -0.0939  0.2605  0.7271
16908SOL     OW52164   3.237   6.658  10.561  0.3626 -0.2308  0.1098
16908SOL    HW152165   3.257   6.565  10.563  3.7213  0.2227 -2.4320
16908SOL    HW252166   3.298   6.697  10.624  2.0184  0.4869 -1.8123
16909SOL     OW52167   5.590   0.213  10.059  0.0346  0.1865  0.3178
16909SOL    HW152168   5.571   0.306  10.058 -0.6942  0.0434 -0.3613
16909SOL    HW252169   5.564   0.182   9.972  0.2285 -0.6554  0.5455
16910SOL     OW52170   7.863   3.907  11.662  0.4846  0.2229  0.1003
16910SOL    HW152171   7.905   3.822  11.646 -1.2287 -0.4502 -1.2052
16910SOL    HW252172   7.770   3.887  11.667  0.0316  2.0362 -0.3000
16911SOL     OW52173   1.607   2.213   4.040  0.0383  0.2092  0.3200
16911SOL    HW152174   1.673   2.190   4.106 -1.1942  0.3359  1.6494
16911SOL    HW252175   1.542   2.263   4.088 -1.3194 -0.3804 -0.8396
16912SOL     OW52176   6.614   2.167   9.826  0.1035  0.5779 -0.7669
16912SOL    HW152177   6.684   2.103   9.812  0.8950  1.1842  0.2941
16912SOL    HW252178   6.658   2.252   9.822 -0.7370  1.0136 -0.9983
16913SOL     OW52179   5.368   2.139  11.038  0.4354  0.2056 -0.0713
16913SOL    HW152180   5.395   2.227  11.011  0.0377  1.1467  2.3982
16913SOL    HW252181   5.287   2.153  11.086  0.8022 -1.4107  1.0738
16914SOL     OW52182   0.241   3.510   7.564  0.1157 -0.3023  0.1648
16914SOL    HW152183   0.234   3.426   7.609  1.1087 -0.6700 -0.3427
16914SOL    HW252184   0.332   3.537   7.578 -0.1948  0.7122  0.3441
16915SOL     OW52185   5.515   6.649   0.230  0.1440  0.3974 -0.1427
16915SOL    HW152186   5.425   6.681   0.227  0.1087  0.4989  1.1419
16915SOL    HW252187   5.521   6.606   0.316  1.3742  0.5838 -0.1287
16916SOL     OW52188   0.623   3.989   3.819 -0.4865 -0.2635 -0.1590
16916SOL    HW152189   0.659   4.078   3.818 -2.1088  0.4882  1.4366
16916SOL    HW252190   0.650   3.950   3.736 -0.3105  1.9607 -1.2004
16917SOL     OW52191   4.593   5.872  11.044  0.2317  0.2301  0.0860
16917SOL    HW152192   4.641   5.950  11.072  1.4777 -0.5431  0.1524
16917SOL    HW252193   4.545   5.901  10.967  1.4587  0.8149 -0.4884
16918SOL     OW52194   3.824   1.786   4.520  0.4893  0.2080 -0.3676
16918SOL    HW152195   3.796   1.852   4.584  0.4256  0.3939 -0.5869
16918SOL    HW252196   3.745   1.737   4.499  0.8294 -0.9955  1.0038
16919SOL     OW52197   5.263   3.806   7.147  0.2102  0.3679  0.5705
16919SOL    HW152198   5.252   3.818   7.241 -1.3343  0.6527  0.3798
16919SOL    HW252199   5.224   3.720   7.129 -0.3357  0.7152  0.0644
16920SOL     OW52200   5.248   1.284   5.323  0.1301 -0.3221  0.9164
16920SOL    HW152201   5.194   1.305   5.399 -0.7296 -1.2177  0.5761
16920SOL    HW252202   5.321   1.233   5.359 -1.0328 -2.0125  1.0196
16921SOL     OW52203   0.910   1.677   5.535 -0.6192  0.0326  0.2860
16921SOL    HW152204   0.921   1.770   5.512 -2.1986  0.2216  0.1933
16921SOL    HW252205   0.821   1.671   5.569  0.8041 -0.6534  4.4124
16922SOL     OW52206   5.487   5.070  10.193 -0.6144  0.2133  0.1368
16922SOL    HW152207   5.467   5.093  10.102 -2.1402 -2.3218 -0.2758
16922SOL    HW252208   5.500   5.154  10.237  0.3655  1.5115 -2.4287
16923SOL     OW52209   7.783   2.413  10.131 -0.2883 -0.3083 -0.4126
16923SOL    HW152210   7.767   2.504  10.157  1.4140 -0.2414  0.5376
16923SOL    HW252211   7.763   2.411  10.037 -2.4971  0.4730 -0.0276
16924SOL     OW52212   5.593   0.607   2.677  0.2878 -0.2063 -0.4968
16924SOL    HW152213   5.531   0.672   2.643 -1.4898 -1.4255  0.2653
16924SOL    HW252214   5.651   0.588   2.603 -0.2349  0.9745 -1.2377
16925SOL     OW52215   1.615   4.741   3.367  0.1841 -0.4303 -0.2348
16925SOL    HW152216   1.600   4.735   3.273 -1.0159  1.7410 -0.2372
16925SOL    HW252217   1.545   4.798   3.399  1.1759 -0.2779  1.8245
16926SOL     OW52218   1.200   0.016   8.131 -0.1506  0.4436 -0.6801
16926SOL    HW152219   1.149   0.094   8.108  1.4834  2.0903  0.8998
16926SOL    HW252220   1.236  -0.014   8.048 -0.3569  1.7284 -1.2588
16927SOL     OW52221   1.963   5.223   9.930  0.0777 -0.4359 -0.1031
16927SOL    HW152222   2.023   5.177   9.871 -0.7599 -1.5199 -0.1280
16927SOL    HW252223   1.881   5.229   9.880 -0.7649 -1.7148  1.0781
16928SOL     OW52224   4.785   0.299   1.561  0.4488  0.0194  0.4213
16928SOL    HW152225   4.775   0.321   1.653  3.0246 -0.6475  0.9240
16928SOL    HW252226   4.783   0.203   1.558  0.8619  0.0225 -0.1457
16929SOL     OW52227   1.683   5.344   4.689  0.3501 -0.1265 -0.2257
16929SOL    HW152228   1.614   5.306   4.634 -0.1084 -0.9866  0.9012
16929SOL    HW252229   1.764   5.328   4.639  0.0441 -1.6412 -0.3019
16930SOL     OW52230   0.554   3.239   2.071 -0.1452  0.1373 -0.3062
16930SOL    HW152231   0.488   3.262   2.136  0.7369  0.7465  0.4123
16930SOL    HW252232   0.582   3.324   2.034  0.9244 -0.0127  0.1186
16931SOL     OW52233   1.650   5.073  11.983 -0.5834  0.9017 -0.5386
16931SOL    HW152234   1.716   5.066  11.914  0.2936 -0.8793  0.4253
16931SOL    HW252235   1.632   4.983  12.008 -1.4023  1.4895  1.0854
16932SOL     OW52236   1.998   2.942   5.784 -0.2817 -0.0818  0.1700
16932SOL    HW152237   1.967   2.961   5.873 -2.5091 -0.4362 -0.4746
16932SOL    HW252238   1.995   3.027   5.739  0.5554  0.0406  0.3282
16933SOL     OW52239   3.762   0.338   4.780  0.4210 -0.5549  0.2818
16933SOL    HW152240   3.727   0.253   4.752  2.1660 -1.3469  0.3968
16933SOL    HW252241   3.733   0.347   4.871 -1.6360  0.0363 -0.3811
16934SOL     OW52242   0.576   3.284   7.928 -0.7898  0.0008 -0.0060
16934SOL    HW152243   0.668   3.258   7.936 -1.4554 -2.2391  1.1173
16934SOL    HW252244   0.578   3.364   7.875  1.7314 -0.3928 -0.6152
16935SOL     OW52245   5.703   4.412   5.278  0.6544  0.9106  0.1756
16935SOL    HW152246   5.727   4.441   5.189 -1.1810 -0.0727 -0.7045
16935SOL    HW252247   5.615   4.375   5.268  0.4996  0.5510  2.3859
16936SOL     OW52248   7.829   6.604   5.050  0.2605 -0.3529  0.1320
16936SOL    HW152249   7.801   6.555   4.972 -0.7697  2.2886 -1.3258
16936SOL    HW252250   7.896   6.665   5.017 -2.1317  2.7648  0.4982
16937SOL     OW52251   0.426   1.483   2.322 -0.3279  0.0438  0.1793
16937SOL    HW152252   0.385   1.427   2.257  0.5709 -0.3198 -0.0957
16937SOL    HW252253   0.477   1.424   2.377  3.3224  0.7778 -2.0984
16938SOL     OW52254   2.425   1.790   0.557  0.0741  0.2918 -0.1846
16938SOL    HW152255   2.513   1.776   0.594 -0.1655  0.3074  0.4077
16938SOL    HW252256   2.411   1.884   0.567 -0.2228  0.2058  0.2092
16939SOL     OW52257   7.789   4.806   1.038  0.1714 -0.3243  0.2815
16939SOL    HW152258   7.738   4.781   0.960  0.4950 -0.6210  0.1648
16939SOL    HW252259   7.727   4.799   1.110  0.0263 -0.6154  0.1291
16940SOL     OW52260   5.795   2.121   2.922 -0.0499 -0.2313  0.1824
16940SOL    HW152261   5.823   2.054   2.985  2.6750  1.6944  1.2127
16940SOL    HW252262   5.856   2.113   2.849 -2.0137 -1.1900 -1.4475
16941SOL     OW52263   1.370   6.263   2.657  0.1382 -0.3586  0.0514
16941SOL    HW152264   1.377   6.266   2.561  2.7678 -0.7953  0.1600
16941SOL    HW252265   1.302   6.327   2.678  0.4410  0.7297 -2.0193
16942SOL     OW52266   4.651   7.529   0.122 -0.0795 -0.2835 -0.3304
16942SOL    HW152267   4.711   7.595   0.087  0.3515 -0.2521  0.4304
16942SOL    HW252268   4.664   7.535   0.217 -0.9993 -0.5551 -0.1852
16943SOL     OW52269   7.450   6.604   9.751 -0.0140  0.5867  0.4596
16943SOL    HW152270   7.407   6.565   9.674  1.3163 -0.5190  0.2365
16943SOL    HW252271   7.425   6.546   9.823 -1.1885  1.5738  0.8766
16944SOL     OW52272   2.856   2.938  12.000 -0.8980 -0.3619 -0.5301
16944SOL    HW152273   2.919   2.869  11.979  0.2451  0.3751  0.3833
16944SOL    HW252274   2.788   2.930  11.933  0.7183 -0.4716 -2.2084
16945SOL     OW52275   5.353   7.719   6.636  0.1423  0.2785 -0.0923
16945SOL    HW152276   5.446   7.741   6.629  0.0819  0.1376 -2.3429
16945SOL    HW252277   5.313   7.764   6.561 -0.7458 -3.6621 -2.2641
16946SOL     OW52278   7.294   1.060   2.544 -0.4684 -0.1066 -0.1042
16946SOL    HW152279   7.308   0.971   2.578  1.6827 -0.4645 -1.6905
16946SOL    HW252280   7.382   1.091   2.523 -1.3093  1.8791 -0.9252
16947SOL     OW52281   4.612   1.914   0.665  0.1993 -0.1410  0.5482
16947SOL    HW152282   4.573   1.867   0.739 -0.7357  0.8028  0.6815
16947SOL    HW252283   4.550   1.900   0.593 -0.3280  1.1957  0.7022
16948SOL     OW52284   7.117   4.117   7.187  0.9328  0.1620 -0.4958
16948SOL    HW152285   7.183   4.140   7.123 -0.3400  0.8594 -1.6118
16948SOL    HW252286   7.063   4.196   7.196  0.8487 -0.0491  1.1472
16949SOL     OW52287   1.947   4.442   2.690 -0.8119 -0.0776  0.0380
16949SOL    HW152288   1.930   4.450   2.597  1.0572  1.8509 -0.2230
16949SOL    HW252289   1.903   4.517   2.730 -1.4152 -0.7610  0.6959
16950SOL     OW52290   7.046   2.846   0.972 -0.0804 -0.0128  0.5147
16950SOL    HW152291   7.096   2.905   0.915  0.1992 -0.3437  0.4152
16950SOL    HW252292   6.985   2.802   0.912  2.1015 -2.4529 -0.0755
16951SOL     OW52293   4.230   5.926   4.812 -0.0001 -0.5627 -0.0657
16951SOL    HW152294   4.155   5.868   4.799 -0.3424 -0.4686  1.3798
16951SOL    HW252295   4.282   5.884   4.881  0.0130  0.5697  0.6363
16952SOL     OW52296   7.381   1.154   3.266  0.1242 -0.0721  0.0938
16952SOL    HW152297   7.365   1.156   3.171  0.7643 -0.8717 -0.0423
16952SOL    HW252298   7.334   1.076   3.296  0.4424 -0.1724  0.3312
16953SOL     OW52299   2.318   2.942   1.102  0.1668 -0.2257 -0.1492
16953SOL    HW152300   2.245   2.918   1.159  0.5702 -1.7710 -0.2468
16953SOL    HW252301   2.280   2.946   1.014 -0.5276  2.4731  0.1635
16954SOL     OW52302   1.032   0.688   9.005  0.2258 -0.1019 -0.1904
16954SOL    HW152303   1.001   0.728   8.924 -1.2380  2.3335  1.4419
16954SOL    HW252304   0.959   0.697   9.066  1.0252 -2.5105  1.2297
16955SOL     OW52305   7.358   5.176   1.573  0.3674 -0.7422  0.2136
16955SOL    HW152306   7.274   5.194   1.615  0.4113 -0.5483  0.2205
16955SOL    HW252307   7.369   5.249   1.511  1.3814  0.2430  1.4886
16956SOL     OW52308   4.987   3.391   7.703  0.0740  0.3253 -0.0269
16956SOL    HW152309   4.919   3.324   7.707  0.6757 -0.3183 -0.4185
16956SOL    HW252310   4.946   3.469   7.742 -1.2785  0.3024 -1.3357
16957SOL     OW52311   6.840   7.705   1.415 -0.0854  0.6485 -0.1849
16957SOL    HW152312   6.867   7.642   1.481  1.0242  0.6534 -0.6182
16957SOL    HW252313   6.744   7.709   1.423 -0.0483 -0.0798  0.7397
16958SOL     OW52314   6.686   5.871   7.120 -0.0916 -0.1065  0.2033
16958SOL    HW152315   6.737   5.792   7.139  2.1650  1.0583 -0.6493
16958SOL    HW252316   6.652   5.856   7.032 -3.2006 -1.7888  1.5328
16959SOL     OW52317   1.994   2.443   2.943  0.0835 -0.4923  0.0232
16959SOL    HW152318   2.023   2.352   2.935  2.4954  0.1594  0.4458
16959SOL    HW252319   2.069   2.488   2.982 -1.6482  1.3907  1.3433
16960SOL     OW52320   3.060   5.710   4.230  0.6150 -0.6773  0.7303
16960SOL    HW152321   3.044   5.624   4.191 -0.4967 -1.1775  2.2011
16960SOL    HW252322   3.149   5.705   4.264  1.9110  0.0210 -2.2350
16961SOL     OW52323   5.121   1.506   4.786  0.4719 -0.2809 -0.2708
16961SOL    HW152324   5.032   1.539   4.772  0.4958 -0.6036 -1.2752
16961SOL    HW252325   5.122   1.421   4.742  1.5820  0.1719 -1.1549
16962SOL     OW52326   2.391   1.100   5.230 -0.6345 -0.2719  0.4024
16962SOL    HW152327   2.330   1.062   5.292 -1.7302  0.3872 -0.2386
16962SOL    HW252328   2.367   1.193   5.227 -0.6553 -0.3025 -1.0357
16963SOL     OW52329   0.736   0.214   0.532  0.2795  0.4808  0.3843
16963SOL    HW152330   0.684   0.264   0.595  0.5548 -1.6527  2.4721
16963SOL    HW252331   0.678   0.143   0.504  0.8609  0.2017 -0.1502
16964SOL     OW52332   7.361   2.961   0.022 -0.0235 -0.3458  0.5823
16964SOL    HW152333   7.333   3.052   0.028  0.9831  0.0595 -0.3526
16964SOL    HW252334   7.456   2.967   0.009 -0.0859 -1.4838 -0.5336
16965SOL     OW52335   3.172   7.069   3.920 -0.0839 -0.3505 -0.2430
16965SOL    HW152336   3.208   7.132   3.858  0.2070 -0.8638 -0.5957
16965SOL    HW252337   3.078   7.073   3.907  0.0348 -1.2501 -1.4977
16966SOL     OW52338   7.415   4.869   8.171 -0.5211  0.3893 -0.2870
16966SOL    HW152339   7.448   4.845   8.084 -2.5738 -0.2209 -0.9582
16966SOL    HW252340   7.493   4.884   8.223  0.8444 -2.2105 -1.3991
16967SOL     OW52341   5.172   7.061   0.879 -0.1767  0.5706  0.2361
16967SOL    HW152342   5.122   7.105   0.810 -2.6805  1.8085  2.6741
16967SOL    HW252343   5.120   7.073   0.958  3.5496  1.0611  2.8444
16968SOL     OW52344   2.512   0.113   5.704  0.9465  0.2548 -0.2127
16968SOL    HW152345   2.502   0.078   5.616 -0.0573 -0.9774  0.3445
16968SOL    HW252346   2.568   0.050   5.749  1.0687  0.6196  0.1544
16969SOL     OW52347   3.264   0.192   8.477 -0.0933  0.0898 -0.4992
16969SOL    HW152348   3.346   0.238   8.493 -0.9764  1.6955 -0.4371
16969SOL    HW252349   3.247   0.144   8.558 -0.9051  2.4649  0.8140
16970SOL     OW52350   0.024   6.260   5.701  0.2391  1.2793  0.3533
16970SOL    HW152351  -0.069   6.247   5.722  0.1613  1.1219 -0.0694
16970SOL    HW252352   0.069   6.256   5.786  0.3689 -2.8831  0.3041
16971SOL     OW52353   7.281   1.970   2.631 -0.2656 -0.7900 -0.3163
16971SOL    HW152354   7.204   1.921   2.657  0.8333 -3.4085 -1.5661
16971SOL    HW252355   7.322   1.916   2.564  0.9795  2.0147 -2.0201
16972SOL     OW52356   6.134   5.492   8.576 -0.2503  0.2951  0.3205
16972SOL    HW152357   6.076   5.417   8.589  0.4671 -0.4513 -0.6130
16972SOL    HW252358   6.099   5.536   8.499  0.7410 -0.5209 -0.6384
16973SOL     OW52359   4.230   4.661  11.036  0.6045  0.1499 -0.2488
16973SOL    HW152360   4.256   4.569  11.038 -0.6914 -0.2519 -1.0948
16973SOL    HW252361   4.291   4.704  11.096  1.9721 -1.0566 -0.7097
16974SOL     OW52362   3.264   1.829   4.513 -0.3909  0.0200  0.2162
16974SOL    HW152363   3.182   1.852   4.471 -0.4249 -0.2501  0.1315
16974SOL    HW252364   3.304   1.913   4.536 -0.8748  0.1424  0.6181
16975SOL     OW52365   6.778   5.392   1.392 -0.1266 -0.2586 -0.0553
16975SOL    HW152366   6.821   5.307   1.377  0.7714  0.0509  0.6696
16975SOL    HW252367   6.847   5.457   1.378 -0.5526  0.2975  0.3742
16976SOL     OW52368   0.374   2.081  11.086 -0.1529  0.1391  0.1977
16976SOL    HW152369   0.455   2.113  11.047 -0.7145  0.9126 -0.3520
16976SOL    HW252370   0.322   2.160  11.103 -1.9310 -0.4592 -1.9995
16977SOL     OW52371   7.944   4.656   5.226 -0.4408 -0.2019 -0.6765
16977SOL    HW152372   7.853   4.627   5.231 -0.8154  1.0897  3.3940
16977SOL    HW252373   7.939   4.751   5.224  0.6088  0.1840  4.2170
16978SOL     OW52374   4.689   6.820   3.814  0.3080 -0.2521 -0.1922
16978SOL    HW152375   4.723   6.761   3.882  2.4191  2.8882  1.7705
16978SOL    HW252376   4.597   6.832   3.837 -0.0573 -2.3198 -0.3756
16979SOL     OW52377   7.214   0.631  11.164 -0.0028  0.5816 -0.0705
16979SOL    HW152378   7.155   0.694  11.205 -0.2990  0.6931 -0.6644
16979SOL    HW252379   7.257   0.680  11.093  0.6928  0.4613  0.2587
16980SOL     OW52380   7.117   2.298   2.597  0.2762 -0.0827 -0.2334
16980SOL    HW152381   7.212   2.297   2.604  0.2877 -2.1054 -0.2514
16980SOL    HW252382   7.087   2.302   2.688  0.4015 -1.2157 -0.1291
16981SOL     OW52383   7.830   5.210   4.630 -0.4343  0.4256 -0.0195
16981SOL    HW152384   7.737   5.224   4.645 -0.2707  1.4175  0.1437
16981SOL    HW252385   7.834   5.148   4.557 -1.2218  1.1421 -0.6932
16982SOL     OW52386   3.718   1.756   3.908  0.4707  0.8211  0.3502
16982SOL    HW152387   3.623   1.744   3.910  0.3577  1.6745  1.6453
16982SOL    HW252388   3.731   1.831   3.850  0.3663  0.6035  0.0450
16983SOL     OW52389   2.883   4.600   1.899 -0.6044  0.4258 -0.7630
16983SOL    HW152390   2.976   4.584   1.880 -0.2988  1.5247 -0.2419
16983SOL    HW252391   2.872   4.694   1.890 -1.5959  0.3557 -0.4272
16984SOL     OW52392   7.218   5.489   8.549 -0.1303 -0.1968 -0.2193
16984SOL    HW152393   7.298   5.541   8.536  0.2150 -0.6352  0.1515
16984SOL    HW252394   7.161   5.515   8.476 -0.2139  1.1794  0.3003
16985SOL     OW52395   7.038   6.177   7.738  0.0734  0.0808  0.1836
16985SOL    HW152396   7.073   6.178   7.649 -0.5060 -0.3413 -0.0573
16985SOL    HW252397   6.980   6.254   7.741  0.7576  0.5934  0.4790
16986SOL     OW52398   5.566   0.122   4.297  0.0856 -0.4875 -0.1692
16986SOL    HW152399   5.483   0.137   4.254 -0.7948  0.0117  1.5995
16986SOL    HW252400   5.549   0.048   4.356  0.7104 -0.0055  0.6380
16987SOL     OW52401   6.794   5.400   9.331 -0.1611  0.0888 -0.2372
16987SOL    HW152402   6.717   5.344   9.333  0.0500 -0.3026 -1.9899
16987SOL    HW252403   6.864   5.345   9.297  0.8715  0.5022  1.1126
16988SOL     OW52404   7.000   6.466   2.177 -0.3143  0.5649  0.0468
16988SOL    HW152405   7.007   6.422   2.261  1.7172  0.7787  0.0446
16988SOL    HW252406   6.934   6.534   2.191  1.3136  1.8521  2.1079
16989SOL     OW52407   7.437   3.976   2.748  0.1252  0.0274 -0.1335
16989SOL    HW152408   7.377   3.975   2.674 -1.2140 -1.6323  0.8984
16989SOL    HW252409   7.517   3.935   2.715 -0.3034 -0.3084 -0.7684
16990SOL     OW52410   0.165   5.822   3.273  0.4045  0.1679  0.1533
16990SOL    HW152411   0.152   5.728   3.260  1.8246 -0.0511  0.1046
16990SOL    HW252412   0.077   5.858   3.284 -0.2460 -0.9870 -1.0465
16991SOL     OW52413   2.957   2.290  12.058  0.5033  0.1023 -0.2899
16991SOL    HW152414   3.017   2.351  12.100  1.1560 -0.2162 -0.7298
16991SOL    HW252415   3.014   2.219  12.028 -0.0536 -0.0427 -1.0115
16992SOL     OW52416   7.455   0.325   0.394 -0.3149 -0.3444 -0.5695
16992SOL    HW152417   7.400   0.403   0.405  2.1820  1.2221  2.1442
16992SOL    HW252418   7.392   0.254   0.379 -2.7350  1.9884 -2.4143
16993SOL     OW52419   3.582   4.474   5.711  0.2512  0.6875  0.6567
16993SOL    HW152420   3.526   4.509   5.780 -0.9217 -2.4016  1.4364
16993SOL    HW252421   3.649   4.425   5.759 -0.4123 -1.2629 -0.3301
16994SOL     OW52422   0.007   7.335   6.191  0.4991  0.3670  0.0406
16994SOL    HW152423  -0.073   7.289   6.165  0.8998  0.1618 -0.8835
16994SOL    HW252424   0.051   7.354   6.108  0.2798  2.5712  0.3578
16995SOL     OW52425   7.866   2.696  10.406  0.8798 -0.0605 -0.2777
16995SOL    HW152426   7.954   2.661  10.391  0.5062 -1.2534  0.1867
16995SOL    HW252427   7.813   2.618  10.426  0.6566  0.9672  4.1111
16996SOL     OW52428   1.774   1.065   6.582  0.1304 -0.0525  0.9222
16996SOL    HW152429   1.859   1.022   6.593  1.1187  1.0897 -1.5649
16996SOL    HW252430   1.795   1.159   6.580 -0.6713  0.1627 -2.8171
16997SOL     OW52431   1.883   6.076   1.141 -0.1870 -0.2560  0.0084
16997SOL    HW152432   1.794   6.098   1.115 -0.4797 -1.1159  0.2704
16997SOL    HW252433   1.938   6.120   1.076 -0.8380 -0.7160 -0.8725
16998SOL     OW52434   6.698   0.911   3.536  0.6032  0.2557  0.2861
16998SOL    HW152435   6.732   0.887   3.622  1.0263 -1.1794 -0.2652
16998SOL    HW252436   6.775   0.919   3.481  0.2933  0.6651 -0.0975
16999SOL     OW52437   0.401   3.521   9.761  0.6264 -0.0274  0.0709
16999SOL    HW152438   0.325   3.573   9.735  2.1965  1.5870 -1.5470
16999SOL    HW252439   0.445   3.574   9.828  0.8055 -0.5235  0.3527
17000SOL     OW52440   7.011   3.935   4.958  0.3791  0.2459 -0.0816
17000SOL    HW152441   7.068   3.986   5.015 -0.0085  0.3022  0.2630
17000SOL    HW252442   7.043   3.953   4.869  0.4613  0.8190  0.0607
17001SOL     OW52443   7.551   7.811   0.420  0.5343  0.1058  0.8690
17001SOL    HW152444   7.601   7.848   0.346 -0.2866 -0.1820  0.1548
17001SOL    HW252445   7.461   7.809   0.389  0.3796 -1.3783  1.3251
17002SOL     OW52446   7.847   1.302   5.555  0.3509 -0.6119 -0.3934
17002SOL    HW152447   7.928   1.264   5.590  0.6426 -0.5156 -0.9522
17002SOL    HW252448   7.839   1.264   5.467 -1.7118 -2.8542  0.6536
17003SOL     OW52449   1.362   2.730   8.520 -0.1606  0.1165 -0.3278
17003SOL    HW152450   1.289   2.694   8.569  0.0677  1.4094  1.0221
17003SOL    HW252451   1.324   2.799   8.466  0.0326  0.7466  0.3274
17004SOL     OW52452   6.353   2.434  10.877  0.3422  0.0399 -0.2144
17004SOL    HW152453   6.394   2.371  10.819 -1.7271 -0.7617 -0.9140
17004SOL    HW252454   6.299   2.489  10.819  0.1045  0.7691  0.6724
17005SOL     OW52455   2.197   0.093   5.233  0.1759 -0.1798 -0.0468
17005SOL    HW152456   2.105   0.087   5.211 -0.2049  0.4106  1.2795
17005SOL    HW252457   2.241   0.036   5.170 -1.0699 -0.3668 -0.7745
17006SOL     OW52458   2.596   5.354  10.237  0.6220  0.1306 -0.6260
17006SOL    HW152459   2.588   5.448  10.224  1.9841  0.5273  1.1373
17006SOL    HW252460   2.506   5.325  10.256  0.3851  1.3137  0.1654
17007SOL     OW52461   5.241   0.955  11.186 -0.5651 -0.7159 -0.2885
17007SOL    HW152462   5.261   0.974  11.278 -0.7538  1.0527 -0.5714
17007SOL    HW252463   5.244   0.860  11.180  2.0004 -0.7930  0.9590
17008SOL     OW52464   7.103   0.632   7.493 -0.3637  0.4090  0.1950
17008SOL    HW152465   7.045   0.639   7.569  0.2118 -0.0602  0.6856
17008SOL    HW252466   7.191   0.646   7.528 -0.1663  1.1306 -0.5420
17009SOL     OW52467   4.510   6.758   5.282  0.4838 -0.6530 -0.0363
17009SOL    HW152468   4.474   6.675   5.313 -1.6862  1.0287  2.3644
17009SOL    HW252469   4.576   6.781   5.348  0.0320  0.1730  0.1438
17010SOL     OW52470   6.034   3.352   9.480  0.2391 -0.6250  0.0288
17010SOL    HW152471   5.951   3.379   9.520  0.1753 -0.9927  0.1456
17010SOL    HW252472   6.032   3.256   9.482  0.8161 -0.6347  0.3391
17011SOL     OW52473   6.329   7.454  12.331 -0.2841  0.3524  0.2255
17011SOL    HW152474   6.410   7.409  12.353 -0.3260  0.3505  0.3805
17011SOL    HW252475   6.313   7.513  12.405 -1.2304 -0.7611  0.9406
17012SOL     OW52476   7.829   5.348   2.968 -0.4404  0.1142 -0.1618
17012SOL    HW152477   7.760   5.321   3.030  1.6709  0.4322  2.4926
17012SOL    HW252478   7.808   5.439   2.947 -0.5544  0.3835  1.0541
17013SOL     OW52479   0.636   0.410   8.199  0.1785  0.2170  0.1556
17013SOL    HW152480   0.607   0.384   8.112  0.1522  0.9557 -0.0590
17013SOL    HW252481   0.704   0.476   8.184 -0.2031  0.7477  0.6902
17014SOL     OW52482   1.573   5.643  11.620  0.0304 -0.3253  0.3461
17014SOL    HW152483   1.644   5.595  11.664  0.2091 -0.6143 -0.2586
17014SOL    HW252484   1.507   5.576  11.602 -0.9559  0.1407  1.9961
17015SOL     OW52485   4.315   4.205   1.303  0.3971  0.4014 -0.2170
17015SOL    HW152486   4.377   4.229   1.234 -0.8580 -1.0099 -1.9136
17015SOL    HW252487   4.349   4.123   1.338  2.1286  2.0578  2.3618
17016SOL     OW52488   7.199   2.544   1.244 -0.2655 -0.0861 -0.0202
17016SOL    HW152489   7.236   2.536   1.332  0.2630 -2.1369 -0.3533
17016SOL    HW252490   7.236   2.625   1.209 -0.2917  0.6268  1.5391
17017SOL     OW52491   7.096   7.922   3.987  0.6872  0.4441 -0.4248
17017SOL    HW152492   7.042   7.907   3.910 -0.2116  1.3197  0.0090
17017SOL    HW252493   7.034   7.951   4.055  1.3777 -0.7598  0.7745
17018SOL     OW52494   1.328   0.407   9.994  0.2500 -0.0306  0.0802
17018SOL    HW152495   1.254   0.356  10.029  0.5115 -0.0598  0.6037
17018SOL    HW252496   1.342   0.475  10.060  1.1874 -0.4931  0.3746
17019SOL     OW52497   4.691   0.382   0.733  0.4264  0.0854  0.5741
17019SOL    HW152498   4.680   0.455   0.794 -0.5182 -0.2186  0.7824
17019SOL    HW252499   4.785   0.365   0.732  0.6083  1.0480  0.8222
17020SOL     OW52500   5.487   1.748   3.277  0.0481  0.3976  0.0875
17020SOL    HW152501   5.396   1.738   3.307 -0.0204  1.9770  0.4994
17020SOL    HW252502   5.521   1.820   3.330  1.9036 -0.8799  0.7096
17021SOL     OW52503   3.750   0.385   9.227  0.6177 -0.2088 -0.3716
17021SOL    HW152504   3.835   0.391   9.181  0.2361  0.5838 -1.0078
17021SOL    HW252505   3.718   0.475   9.229 -1.6155 -0.8104 -2.8668
17022SOL     OW52506   1.482   6.949   5.487 -0.1317  0.2410  0.1083
17022SOL    HW152507   1.508   7.016   5.424 -0.0259 -0.4879 -0.6366
17022SOL    HW252508   1.485   6.993   5.572 -1.4111  1.5656 -0.4981
17023SOL     OW52509   5.671   2.268   8.291 -0.0637 -0.0104  0.0860
17023SOL    HW152510   5.694   2.192   8.237  0.6138 -0.4702  0.9946
17023SOL    HW252511   5.751   2.319   8.296  0.2474 -0.6086  1.6581
17024SOL     OW52512   3.598   7.140   4.092 -0.2016  0.1699  0.6211
17024SOL    HW152513   3.552   7.154   4.009 -0.5236  0.3927  0.8397
17024SOL    HW252514   3.614   7.228   4.126  0.6406  0.1146  0.4096
17025SOL     OW52515   4.861   5.581   9.005  0.3031  0.0809 -0.0941
17025SOL    HW152516   4.930   5.627   9.052 -0.1817  0.2615  0.4479
17025SOL    HW252517   4.836   5.640   8.934  1.0915 -0.2281 -0.6483
17026SOL     OW52518   2.781   4.858   7.996 -0.1399 -0.5073 -0.0471
17026SOL    HW152519   2.821   4.775   7.972 -2.2797 -1.5412 -0.2419
17026SOL    HW252520   2.807   4.917   7.925  3.2164 -0.2701  1.1706
17027SOL     OW52521   5.312   0.349   2.991 -0.0654 -0.6795 -0.7481
17027SOL    HW152522   5.281   0.384   3.074  0.2466 -1.4162 -0.3125
17027SOL    HW252523   5.396   0.393   2.977 -0.2056 -0.4166 -0.7643
17028SOL     OW52524   2.739   1.172   8.821  0.1915  0.3110  0.5824
17028SOL    HW152525   2.648   1.186   8.845 -0.2185 -1.1264  0.0249
17028SOL    HW252526   2.763   1.091   8.866  1.6079  1.3200  1.7340
17029SOL     OW52527   1.495   6.747   0.724 -0.8309  0.5750  0.2180
17029SOL    HW152528   1.509   6.811   0.794 -1.0219 -0.2474  1.0122
17029SOL    HW252529   1.403   6.759   0.699 -0.9141  0.4760  0.4857
17030SOL     OW52530   5.118   0.852   6.557  0.2869  0.1249  0.0819
17030SOL    HW152531   5.157   0.939   6.553  2.0347 -0.5547  1.2439
17030SOL    HW252532   5.122   0.820   6.467  1.3016  0.5670 -0.0463
17031SOL     OW52533   4.957   1.205  11.790 -0.2552 -0.2595 -0.7335
17031SOL    HW152534   4.931   1.220  11.881  1.9516 -0.4452 -0.0027
17031SOL    HW252535   4.934   1.286  11.745 -0.6979  0.1203  0.1563
17032SOL     OW52536   1.259   3.237   9.633 -0.1151  0.7370 -0.3036
17032SOL    HW152537   1.252   3.148   9.667  1.4109  1.0209  0.8718
17032SOL    HW252538   1.308   3.228   9.551  1.3443  0.6120  0.5567
17033SOL     OW52539   2.460   7.284  12.070  0.0117  0.1795  0.1222
17033SOL    HW152540   2.554   7.269  12.056 -0.2083 -1.0589 -0.1535
17033SOL    HW252541   2.431   7.328  11.990  0.8283  3.0475  1.2696
17034SOL     OW52542   3.857   5.730   9.766 -0.1438  0.0285  0.0335
17034SOL    HW152543   3.885   5.810   9.721  1.0818 -0.4654 -0.1003
17034SOL    HW252544   3.856   5.755   9.859  0.4675  0.1380  0.0157
17035SOL     OW52545   0.986   7.824   7.463 -1.0007 -0.0521 -0.0340
17035SOL    HW152546   0.903   7.798   7.505 -0.0326 -1.2886  1.1861
17035SOL    HW252547   1.023   7.890   7.522  0.3244 -1.7355  1.1203
17036SOL     OW52548   2.463   4.231   9.729  0.1108  0.6449 -0.0786
17036SOL    HW152549   2.514   4.311   9.714  1.2832  0.0220  0.4549
17036SOL    HW252550   2.443   4.233   9.823  4.0772 -1.8195  1.0702
17037SOL     OW52551   7.079   3.471   8.346 -0.1167  0.5722  0.2231
17037SOL    HW152552   7.147   3.439   8.287  0.1948 -0.4170  1.0755
17037SOL    HW252553   7.002   3.417   8.326  0.3463 -0.6389  1.5170
17038SOL     OW52554   1.491   4.428   6.784 -0.4151  0.9184 -0.7745
17038SOL    HW152555   1.415   4.459   6.833 -1.0232 -0.0448 -1.0777
17038SOL    HW252556   1.476   4.334   6.774  2.0517  0.1829  1.3657
17039SOL     OW52557   1.118   2.953   5.011 -0.4013 -0.1579  0.2352
17039SOL    HW152558   1.119   2.883   5.077  0.8426 -1.8880 -1.5150
17039SOL    HW252559   1.115   2.907   4.927 -0.3561  1.9328 -0.9803
17040SOL     OW52560   7.028   3.229   9.522 -0.2078 -0.8359  0.2390
17040SOL    HW152561   6.944   3.262   9.552 -0.2720  0.0322 -0.8396
17040SOL    HW252562   7.027   3.243   9.427  2.5704  2.6499  0.5108
17041SOL     OW52563   2.320   3.285   0.047 -0.6336 -0.1653 -0.5451
17041SOL    HW152564   2.321   3.327  -0.039 -0.7528 -0.1269 -0.5285
17041SOL    HW252565   2.240   3.319   0.089 -0.0317  0.6236 -0.0142
17042SOL     OW52566   5.204   0.571   5.945 -0.1013 -0.2630 -0.4934
17042SOL    HW152567   5.172   0.656   5.915 -1.9565 -0.4949  0.6794
17042SOL    HW252568   5.146   0.508   5.903  0.0644 -0.8364  0.1317
17043SOL     OW52569   0.490   3.184   0.086 -0.0124 -0.1164 -0.5513
17043SOL    HW152570   0.548   3.116   0.122  0.9305  0.8863 -0.1274
17043SOL    HW252571   0.523   3.199  -0.003 -0.3132 -0.3046 -0.6974
17044SOL     OW52572   7.074   1.256   6.079 -0.0453 -0.4838 -0.1942
17044SOL    HW152573   7.054   1.241   5.987 -0.7057 -0.0551 -0.1268
17044SOL    HW252574   7.161   1.219   6.091 -0.3948 -1.5053 -0.7305
17045SOL     OW52575   4.008   1.237   0.374  0.1078  0.1319 -0.2541
17045SOL    HW152576   4.029   1.289   0.452 -1.7717  1.1903 -0.3891
17045SOL    HW252577   3.942   1.175   0.404 -2.6988  2.3052 -1.4270
17046SOL     OW52578   2.652   3.823   7.426  0.3236  0.1582  0.0731
17046SOL    HW152579   2.601   3.871   7.360 -1.6935 -0.6378  0.9903
17046SOL    HW252580   2.603   3.833   7.507  1.6989 -0.5646  1.0343
17047SOL     OW52581   7.460   0.035   2.030 -0.2044  0.0077 -0.0760
17047SOL    HW152582   7.517   0.035   2.106 -0.2561  3.0219  0.0854
17047SOL    HW252583   7.377   0.070   2.062 -0.6361  0.1118 -1.2427
17048SOL     OW52584   3.166   7.893  10.980  0.1520 -0.3477  0.0018
17048SOL    HW152585   3.127   7.935  10.903  0.9293 -1.1829 -0.8740
17048SOL    HW252586   3.199   7.809  10.947 -0.2771 -1.1165  1.4361
17049SOL     OW52587   4.192   7.390   5.466  0.7068  0.3784  0.1223
17049SOL    HW152588   4.255   7.320   5.449  0.3373 -0.4713  1.9886
17049SOL    HW252589   4.132   7.387   5.392  0.4129 -1.6479  0.4039
17050SOL     OW52590   7.806   2.504   3.038  0.2720 -0.2068 -0.4619
17050SOL    HW152591   7.786   2.432   3.097  0.0876 -0.4374 -0.8020
17050SOL    HW252592   7.770   2.477   2.953  0.6519  0.0584 -0.7131
17051SOL     OW52593   1.077   6.678   7.666 -0.1911 -0.3814  0.1972
17051SOL    HW152594   1.043   6.743   7.604 -1.0511 -0.8061  0.2118
17051SOL    HW252595   1.010   6.610   7.670  0.4165 -0.9745  0.6553
17052SOL     OW52596   3.030   0.039  10.795  0.0285  0.4419 -0.2877
17052SOL    HW152597   2.936   0.041  10.773 -0.3598 -4.2625  0.0588
17052SOL    HW252598   3.073   0.009  10.715  1.0795  1.0764  0.0186
17053SOL     OW52599   5.031   4.764  10.819 -0.2321  0.3385 -0.4983
17053SOL    HW152600   5.053   4.790  10.908  0.1264  0.0986 -0.5154
17053SOL    HW252601   4.957   4.705  10.828  1.2245 -1.5147 -0.1621
17054SOL     OW52602   5.353   5.285   9.539  0.1078  0.3177  0.7072
17054SOL    HW152603   5.315   5.257   9.456  1.2201 -0.6454  0.4974
17054SOL    HW252604   5.337   5.211   9.599 -0.4620  0.8979  1.2983
17055SOL     OW52605   5.285   2.147   8.528  0.2039  0.2312 -0.1029
17055SOL    HW152606   5.311   2.123   8.616 -1.5512 -0.4795  0.2657
17055SOL    HW252607   5.353   2.110   8.471  2.2018  2.0344  0.9734
17056SOL     OW52608   7.783   1.460   4.633  0.3542  0.8343  0.1680
17056SOL    HW152609   7.712   1.505   4.678 -1.1135 -0.1370 -1.0791
17056SOL    HW252610   7.859   1.473   4.690 -0.9403  1.3861  1.8676
17057SOL     OW52611   2.868   6.880   8.131 -0.1594  0.1326 -0.3850
17057SOL    HW152612   2.864   6.819   8.205  0.5753 -0.5026 -0.8507
17057SOL    HW252613   2.858   6.967   8.171  0.1208 -0.2058  0.4481
17058SOL     OW52614   2.141   1.565   4.124 -0.1742 -0.3161 -0.3264
17058SOL    HW152615   2.075   1.569   4.192  0.6169 -1.8165  0.6000
17058SOL    HW252616   2.128   1.480   4.082 -0.0143  0.1629 -1.3930
17059SOL     OW52617   2.191   4.211   8.443 -0.1442  0.1958  0.0280
17059SOL    HW152618   2.102   4.234   8.417 -0.8434 -1.2659  1.0618
17059SOL    HW252619   2.214   4.136   8.388 -0.3361 -0.7183  1.1583
17060SOL     OW52620   2.174   6.492   9.490  0.1253  0.0609 -0.4231
17060SOL    HW152621   2.152   6.438   9.414 -1.4711 -0.3702  0.2838
17060SOL    HW252622   2.188   6.579   9.454  0.1927 -0.3028 -1.3053
17061SOL     OW52623   2.637   4.420   8.746  0.2815  0.3011  0.6639
17061SOL    HW152624   2.573   4.491   8.752  0.1186  0.1675  0.5251
17061SOL    HW252625   2.722   4.463   8.755  0.3100  0.8214 -1.4374
17062SOL     OW52626   1.014   6.078   5.462  0.2364  0.3711 -0.4703
17062SOL    HW152627   0.927   6.117   5.468  0.0703  0.0134 -0.5491
17062SOL    HW252628   1.072   6.152   5.442  0.1642  0.8773  0.9971
17063SOL     OW52629   6.358   1.079   1.059  0.0355 -0.0674  0.3761
17063SOL    HW152630   6.403   1.034   1.131 -0.5493 -0.9220  0.2300
17063SOL    HW252631   6.336   1.008   0.997 -0.0791  0.5595 -0.3123
17064SOL     OW52632   6.352   0.976   9.666  0.3375 -0.0508 -0.9047
17064SOL    HW152633   6.308   0.982   9.581  0.3554  1.1275 -0.8468
17064SOL    HW252634   6.305   1.037   9.722  1.5007  0.5875 -0.5999
17065SOL     OW52635   1.390   0.119   0.056 -0.7420  0.7599 -0.0514
17065SOL    HW152636   1.342   0.201   0.047 -1.8975  0.0895 -0.2112
17065SOL    HW252637   1.465   0.128  -0.003 -1.0592  1.5605 -0.3376
17066SOL     OW52638   3.961   4.049   5.373  0.9297 -0.0026  0.1049
17066SOL    HW152639   4.039   4.089   5.334 -0.3971  0.9916 -1.6604
17066SOL    HW252640   3.894   4.117   5.368 -0.4330 -1.2797  0.3146
17067SOL     OW52641   5.871   2.475   8.337 -1.1948  0.2473 -0.0525
17067SOL    HW152642   5.900   2.566   8.343 -1.6194  0.4138 -0.4618
17067SOL    HW252643   5.838   2.455   8.424 -1.1287  0.4945  0.0307
17068SOL     OW52644   0.798   6.114  12.144  0.1114 -0.2443 -0.0938
17068SOL    HW152645   0.713   6.156  12.135 -0.8226 -1.6871  1.4577
17068SOL    HW252646   0.787   6.028  12.102  0.3347 -0.9872  1.3151
17069SOL     OW52647   4.434   5.884  12.290 -0.0976 -0.1570 -0.1071
17069SOL    HW152648   4.404   5.837  12.368 -0.6725  1.2712  0.5528
17069SOL    HW252649   4.500   5.826  12.251  1.1580 -0.3305  2.1484
17070SOL     OW52650   7.352   1.073   2.998 -0.4350  0.2941 -0.2498
17070SOL    HW152651   7.357   0.978   2.994  0.1345  0.3391 -3.6888
17070SOL    HW252652   7.276   1.096   2.945 -0.2232  1.7851  0.0304
17071SOL     OW52653   3.013   4.860   1.446 -0.6228 -0.0173  0.3729
17071SOL    HW152654   3.089   4.840   1.392 -1.1968 -0.1566 -0.3991
17071SOL    HW252655   2.951   4.789   1.429 -0.7692 -0.1325  1.3168
17072SOL     OW52656   1.537   3.060  11.331 -0.2391  0.2182 -0.1391
17072SOL    HW152657   1.576   3.147  11.332  0.4994 -0.0967 -0.8857
17072SOL    HW252658   1.606   3.003  11.367 -1.3021  0.1552  1.9822
17073SOL     OW52659   7.331   3.103   5.115 -0.0788  0.3569  0.1974
17073SOL    HW152660   7.334   3.063   5.027  1.9475 -3.1836  1.6683
17073SOL    HW252661   7.244   3.079   5.148 -0.7586  1.4994 -0.6512
17074SOL     OW52662   1.853   1.394   2.693  0.0400 -0.1638  0.2186
17074SOL    HW152663   1.915   1.332   2.653  0.6452 -0.2658  1.2586
17074SOL    HW252664   1.859   1.472   2.639 -0.6934 -0.9797 -1.0899
17075SOL     OW52665   0.499   1.082   3.725 -0.4595 -0.1160  0.3469
17075SOL    HW152666   0.493   1.022   3.800  1.3390 -0.9002 -0.1024
17075SOL    HW252667   0.586   1.069   3.690 -1.1606  0.4522 -1.7410
17076SOL     OW52668   6.856   5.356   5.123  0.3716 -0.3949 -0.0211
17076SOL    HW152669   6.792   5.307   5.174 -0.3514  0.0937 -0.4479
17076SOL    HW252670   6.839   5.332   5.032  0.9338 -0.4214 -0.1257
17077SOL     OW52671   6.044   3.555   0.506  0.0212  0.9571 -0.5763
17077SOL    HW152672   6.119   3.597   0.548  0.4408 -1.7798  1.6792
17077SOL    HW252673   5.970   3.577   0.563 -0.1883  0.6517 -0.7269
17078SOL     OW52674   7.402   6.832   2.504  0.4140 -0.3827 -0.0944
17078SOL    HW152675   7.334   6.887   2.543  0.8716 -0.9468  1.6176
17078SOL    HW252676   7.389   6.746   2.544  1.0823 -0.9315 -1.0284
17079SOL     OW52677   0.731   5.734   4.340 -0.0007 -0.0994  0.0696
17079SOL    HW152678   0.713   5.813   4.391 -0.2674 -0.1748  0.0927
17079SOL    HW252679   0.731   5.663   4.405  2.1510  0.1076  0.3636
17080SOL     OW52680   4.403   1.949   1.739  0.1747 -0.4273  0.2789
17080SOL    HW152681   4.493   1.932   1.714 -0.5338 -1.5776 -1.6936
17080SOL    HW252682   4.403   1.946   1.835  2.2125 -0.3377  0.3064
17081SOL     OW52683   2.978   5.687   5.919  0.4410 -0.0132  0.2148
17081SOL    HW152684   3.066   5.675   5.954  0.9707 -0.8052 -1.3146
17081SOL    HW252685   2.966   5.614   5.858 -1.2674  0.1012  0.3629
17082SOL     OW52686   3.303   3.411   3.093 -0.1480 -0.7189  0.3246
17082SOL    HW152687   3.342   3.495   3.117  0.4704 -0.4007 -1.6618
17082SOL    HW252688   3.321   3.354   3.168  0.2189  0.6514  1.3173
17083SOL     OW52689   1.305   3.654   5.636  0.0356  0.2605 -0.1706
17083SOL    HW152690   1.344   3.571   5.608  3.1222  1.2181  0.7796
17083SOL    HW252691   1.339   3.718   5.574 -1.3494  0.9891 -0.2025
17084SOL     OW52692   1.981   6.744  11.164 -0.0018 -0.1334 -0.3292
17084SOL    HW152693   2.048   6.812  11.163 -0.1531  0.0194 -0.0324
17084SOL    HW252694   1.998   6.694  11.244 -0.2318 -0.1039 -0.2611
17085SOL     OW52695   7.627   2.428   2.576  0.0564  0.5527 -0.3508
17085SOL    HW152696   7.544   2.381   2.570  0.6207 -0.8100  1.6805
17085SOL    HW252697   7.672   2.407   2.494 -0.8192 -0.2785 -0.6404
17086SOL     OW52698   7.740   0.590  11.661 -0.8929 -0.1164 -0.1808
17086SOL    HW152699   7.790   0.621  11.585 -3.0244  1.6347 -0.9771
17086SOL    HW252700   7.806   0.553  11.719  1.0183 -0.0528 -2.1663
17087SOL     OW52701   3.588   5.754   3.887  0.4443 -0.6792 -0.2010
17087SOL    HW152702   3.621   5.681   3.938  1.4302 -1.5074 -1.9326
17087SOL    HW252703   3.569   5.717   3.801 -0.0892  0.8707 -0.7879
17088SOL     OW52704   0.071   3.521   0.994 -0.2430  0.5832 -0.0390
17088SOL    HW152705   0.119   3.591   1.039 -0.7288 -0.3082  1.9791
17088SOL    HW252706   0.127   3.444   1.004 -0.9098  0.1087  0.0975
17089SOL     OW52707   5.286   4.934   5.974  0.0435 -0.0605  0.4446
17089SOL    HW152708   5.323   4.915   6.060 -0.0486  0.5506  0.6196
17089SOL    HW252709   5.240   4.853   5.950  1.3544 -0.7746  0.2822
17090SOL     OW52710   7.355   0.678   7.611 -0.6215 -0.6880  0.8185
17090SOL    HW152711   7.372   0.754   7.666 -0.4506  0.1529 -0.3647
17090SOL    HW252712   7.435   0.667   7.559 -1.8760  0.4950 -1.5176
17091SOL     OW52713   5.258   2.885  11.684  0.1111  0.8367 -0.1502
17091SOL    HW152714   5.303   2.878  11.768 -2.4107 -1.7895  1.1532
17091SOL    HW252715   5.190   2.951  11.699 -1.7587 -1.1339  0.7810
17092SOL     OW52716   4.337   6.596   5.731 -0.7674 -0.1477  0.1231
17092SOL    HW152717   4.307   6.510   5.761 -1.0524  0.2159  0.9075
17092SOL    HW252718   4.432   6.587   5.726 -0.8263 -0.6366 -0.2237
17093SOL     OW52719   5.022   6.333   7.876 -0.3979 -0.3096  0.3439
17093SOL    HW152720   4.983   6.375   7.800  0.0745 -0.1376  0.1959
17093SOL    HW252721   5.006   6.394   7.948 -1.6617 -0.8914  0.5826
17094SOL     OW52722   4.500   4.559   5.551 -0.8721  0.4962 -0.6136
17094SOL    HW152723   4.517   4.579   5.643 -3.4408  2.6983 -0.4919
17094SOL    HW252724   4.563   4.490   5.530  1.8530  1.9375  1.9296
17095SOL     OW52725   2.362   6.015   5.401  0.3925  0.3414  0.2048
17095SOL    HW152726   2.382   5.978   5.315 -0.1328  1.3516 -0.3611
17095SOL    HW252727   2.399   6.103   5.399 -1.9068  1.3788  0.0060
17096SOL     OW52728   6.453   0.108   3.410 -0.3301  0.1639 -0.0318
17096SOL    HW152729   6.408   0.118   3.494  0.4759  1.6106  0.2591
17096SOL    HW252730   6.382   0.107   3.345 -0.9013  0.0719  0.5801
17097SOL     OW52731   7.705   2.362   7.208  0.2460 -0.1769  0.3103
17097SOL    HW152732   7.622   2.399   7.237 -0.3793 -0.9550 -0.4207
17097SOL    HW252733   7.726   2.411   7.128  0.8090  0.4200  0.8089
17098SOL     OW52734   1.197   4.611  12.478 -0.2305 -0.2826  0.6446
17098SOL    HW152735   1.254   4.537  12.455  0.8156  1.1094 -1.6061
17098SOL    HW252736   1.245   4.659  12.546  0.6706  0.1122 -0.2489
17099SOL     OW52737   7.976   3.468  10.645  0.1791 -0.2066 -0.1215
17099SOL    HW152738   7.900   3.425  10.684  0.2461 -0.6470 -0.4710
17099SOL    HW252739   7.951   3.560  10.638 -0.2744 -0.3293 -0.1290
17100SOL     OW52740   5.230   6.984   4.557  0.8396 -0.2323 -0.7084
17100SOL    HW152741   5.259   7.024   4.475 -1.4030  1.9886 -0.5339
17100SOL    HW252742   5.157   6.927   4.532  0.2455  0.3341 -0.3193
17101SOL     OW52743   0.605   4.203   2.537  0.2928 -0.3698  0.3556
17101SOL    HW152744   0.592   4.190   2.631 -1.7212  1.6714  0.4459
17101SOL    HW252745   0.686   4.255   2.531  0.8802 -1.2012  0.8721
17102SOL     OW52746   5.076   5.717   4.192  0.2346  0.3482 -0.4692
17102SOL    HW152747   5.102   5.779   4.124  1.9209 -1.8667 -1.9793
17102SOL    HW252748   5.133   5.641   4.179 -0.8718 -1.0538  2.0732
17103SOL     OW52749   2.840   0.715   1.115  0.1785 -0.0808 -0.3014
17103SOL    HW152750   2.833   0.803   1.079 -0.8124 -0.1385 -0.2888
17103SOL    HW252751   2.844   0.658   1.038  1.3956 -0.0003 -0.3126
17104SOL     OW52752   6.791   5.988   5.638 -0.5820  0.4331 -0.4421
17104SOL    HW152753   6.697   6.001   5.643 -0.4626  1.0947  0.2671
17104SOL    HW252754   6.829   6.068   5.675  0.2514  0.0746 -0.4882
17105SOL     OW52755   5.621   2.554   4.396 -0.1686 -0.4230  0.2768
17105SOL    HW152756   5.616   2.563   4.300 -0.9052  0.9215  0.4256
17105SOL    HW252757   5.715   2.546   4.414 -0.0844 -1.7982 -0.6342
17106SOL     OW52758   3.798   1.031   2.314  0.5761  0.0663 -0.2222
17106SOL    HW152759   3.881   1.020   2.270  0.1993 -0.9766 -0.6868
17106SOL    HW252760   3.733   0.994   2.254  0.0440 -1.2783  1.1289
17107SOL     OW52761   4.666   0.708   7.920 -0.3119 -0.2933 -0.1898
17107SOL    HW152762   4.643   0.696   7.828 -2.6666  0.4241  0.2452
17107SOL    HW252763   4.735   0.775   7.919  1.2396 -1.8082 -1.5019
17108SOL     OW52764   7.891   2.050  12.311 -0.4285  0.1596  0.4973
17108SOL    HW152765   7.799   2.053  12.336 -0.2139 -1.4600  1.6671
17108SOL    HW252766   7.920   1.963  12.339  0.8675 -0.2975 -1.9425
17109SOL     OW52767   0.339   3.938   3.422  0.4926  0.1007  0.2063
17109SOL    HW152768   0.374   3.857   3.385 -1.8593 -0.8230 -0.2068
17109SOL    HW252769   0.297   3.982   3.348  1.0356  1.3034  0.5942
17110SOL     OW52770   6.173   1.488   6.408 -0.4057 -0.0269 -0.0458
17110SOL    HW152771   6.103   1.424   6.417 -0.4938 -0.0043 -0.5377
17110SOL    HW252772   6.245   1.439   6.368 -0.8516  0.4256 -1.4675
17111SOL     OW52773   7.554   0.603   0.124 -0.5266  0.3161 -0.3853
17111SOL    HW152774   7.592   0.542   0.187  1.3441  1.6062 -0.2181
17111SOL    HW252775   7.515   0.672   0.177 -1.6545 -0.1256 -0.6059
17112SOL     OW52776   7.746   6.382   7.117 -0.1286  0.0245 -0.1793
17112SOL    HW152777   7.669   6.363   7.064  0.1942  0.0576 -0.6613
17112SOL    HW252778   7.787   6.457   7.075  1.1444 -1.0652 -0.9727
17113SOL     OW52779   7.729   6.030  10.001  0.5919 -0.1595 -0.0251
17113SOL    HW152780   7.768   5.944   9.983 -0.1758 -0.4286 -0.4403
17113SOL    HW252781   7.685   6.019  10.085 -1.6449 -0.9471 -1.2293
17114SOL     OW52782   7.761   4.466   7.477 -0.3524 -0.1268  0.4732
17114SOL    HW152783   7.763   4.371   7.463 -0.5608 -0.1688  0.7182
17114SOL    HW252784   7.771   4.476   7.571  0.5216  0.1341  0.3539
17115SOL     OW52785   6.785   1.612  11.176 -0.3188 -0.4953  0.1833
17115SOL    HW152786   6.693   1.613  11.153 -0.3149  0.6418  0.1616
17115SOL    HW252787   6.805   1.702  11.203  0.7317 -0.7643  0.3863
17116SOL     OW52788   5.192   3.001   4.188 -0.1248  0.7247 -0.2710
17116SOL    HW152789   5.115   3.003   4.245  1.0955 -0.2053  1.4979
17116SOL    HW252790   5.224   2.911   4.194  0.5686  0.8381 -1.7547
17117SOL     OW52791   3.698   6.331   0.280 -0.3234  0.3644 -0.3677
17117SOL    HW152792   3.629   6.271   0.252  0.2962 -0.8045  0.5537
17117SOL    HW252793   3.777   6.295   0.241  0.1639  0.1355  0.7980
17118SOL     OW52794   5.122   0.481   4.619  0.3500  0.4590 -0.2810
17118SOL    HW152795   5.148   0.474   4.528  0.8316 -0.1737 -0.1090
17118SOL    HW252796   5.111   0.574   4.635  3.3558  0.9158 -0.1694
17119SOL     OW52797   3.014   6.472  10.271 -0.5071 -0.2354 -0.3970
17119SOL    HW152798   3.044   6.562  10.264  0.2894 -0.4429  0.1998
17119SOL    HW252799   3.075   6.431  10.331 -0.2430 -1.4414 -1.4395
17120SOL     OW52800   5.932   1.663  10.187  0.0109  0.3212  0.2185
17120SOL    HW152801   6.016   1.629  10.216 -1.1350 -2.4927  0.5084
17120SOL    HW252802   5.874   1.654  10.263 -1.2942 -0.7010 -0.8343
17121SOL     OW52803   7.942   5.325   8.344  0.0542 -0.5622  0.0436
17121SOL    HW152804   8.032   5.317   8.376  0.7332  3.0150 -0.5611
17121SOL    HW252805   7.948   5.302   8.251  1.2813  2.9995 -0.9314
17122SOL     OW52806   6.285   3.656  10.255 -0.4399  0.1616  0.3938
17122SOL    HW152807   6.224   3.618  10.192  0.1803  1.7766 -1.2932
17122SOL    HW252808   6.266   3.612  10.338 -2.0714 -1.2327 -0.6701
17123SOL     OW52809   5.553   3.927   7.240 -0.4510  0.2944  0.2855
17123SOL    HW152810   5.615   3.984   7.194 -1.4161  2.0058  1.0042
17123SOL    HW252811   5.502   3.987   7.294 -1.6414 -1.2659  0.9465
17124SOL     OW52812   5.541   3.943   5.580  0.2610 -0.9649  0.1112
17124SOL    HW152813   5.627   3.949   5.620 -0.2787 -2.0730  1.5083
17124SOL    HW252814   5.482   3.982   5.645 -0.4017 -1.0314 -0.4392
17125SOL     OW52815   1.325   3.098   2.295 -0.4249  0.4268 -0.2161
17125SOL    HW152816   1.404   3.066   2.252  0.0396  1.0635  0.1415
17125SOL    HW252817   1.279   3.018   2.322  0.1634  0.0437 -0.3074
17126SOL     OW52818   1.142   7.132   6.757 -0.1417 -0.6619  0.3175
17126SOL    HW152819   1.127   7.087   6.674 -1.9100  0.7457 -0.1865
17126SOL    HW252820   1.209   7.198   6.738 -0.5136 -0.3702  0.0212
17127SOL     OW52821   5.786   0.462   1.349 -0.3710 -0.6031 -0.1288
17127SOL    HW152822   5.844   0.437   1.277 -1.2507 -0.1384 -1.0193
17127SOL    HW252823   5.712   0.504   1.307 -2.0189 -2.3584  0.8537
17128SOL     OW52824   2.746   6.885  10.365  0.0057  0.4783  0.0084
17128SOL    HW152825   2.834   6.849  10.376 -0.6877 -0.8119  2.3028
17128SOL    HW252826   2.745   6.964  10.419 -0.4046  0.0968  0.5803
17129SOL     OW52827   3.883   0.938   3.498 -0.0456  0.2069  0.3396
17129SOL    HW152828   3.962   0.992   3.505  1.5388 -1.4901 -2.4597
17129SOL    HW252829   3.914   0.848   3.503 -1.9042 -0.5071 -0.0878
17130SOL     OW52830   6.182   1.876   1.558 -0.3545 -0.1040 -0.2777
17130SOL    HW152831   6.169   1.815   1.485  3.4214 -2.2255  0.5416
17130SOL    HW252832   6.152   1.827   1.635  0.2239  0.1401  0.1062
17131SOL     OW52833   3.857   7.586   9.909  0.3539  0.5511 -0.0900
17131SOL    HW152834   3.898   7.504   9.934  1.6419  1.3807  0.6270
17131SOL    HW252835   3.900   7.611   9.828  0.6067  0.9674  0.1722
17132SOL     OW52836   3.324   2.816  12.201 -0.2434  0.2859 -0.0298
17132SOL    HW152837   3.365   2.896  12.232  0.1861  0.7904 -1.7729
17132SOL    HW252838   3.386   2.746  12.221 -0.4840  0.4166  1.2206
17133SOL     OW52839   3.034   0.954  10.902  0.3697 -0.5058 -0.0500
17133SOL    HW152840   3.073   0.994  10.980  1.6011 -1.7944  0.0253
17133SOL    HW252841   2.948   0.923  10.931  0.6377 -0.5795  0.6848
17134SOL     OW52842   5.317   2.099   0.452 -0.5454  1.1283  0.0710
17134SOL    HW152843   5.265   2.100   0.532 -2.0073 -0.4120 -0.8049
17134SOL    HW252844   5.254   2.090   0.381  0.7937  1.2643 -1.2084
17135SOL     OW52845   0.154   3.364   3.510  0.3022  0.4827 -0.3370
17135SOL    HW152846   0.101   3.430   3.554 -0.9781 -0.4812 -0.3834
17135SOL    HW252847   0.235   3.361   3.561  0.0478  1.4861  0.1528
17136SOL     OW52848   4.840   4.823   1.421 -0.0378 -0.4102 -0.3408
17136SOL    HW152849   4.798   4.856   1.342 -0.4718  0.1939  0.1365
17136SOL    HW252850   4.768   4.789   1.475  0.3131 -1.3863 -0.4552
17137SOL     OW52851   0.762   7.031   9.621 -0.1197 -0.6000  0.0974
17137SOL    HW152852   0.832   7.097   9.625 -1.5002  0.9081  0.1314
17137SOL    HW252853   0.681   7.081   9.620 -1.2005 -2.1941 -2.1068
17138SOL     OW52854   7.753   1.223   9.571 -1.1711 -0.0776 -0.6400
17138SOL    HW152855   7.704   1.177   9.639 -1.5469  2.4379  0.9150
17138SOL    HW252856   7.686   1.269   9.520 -0.6483  1.8898  0.3445
17139SOL     OW52857   5.537   3.724   5.413 -0.0055  0.3624  0.4472
17139SOL    HW152858   5.496   3.651   5.460 -2.2603  0.7139 -0.8159
17139SOL    HW252859   5.518   3.800   5.468  0.6351  0.2788  0.7926
17140SOL     OW52860   6.781   6.698   7.329 -0.0278 -0.2278 -0.4642
17140SOL    HW152861   6.734   6.633   7.381  0.2296  0.5289  0.7613
17140SOL    HW252862   6.733   6.780   7.345  1.5072  0.5133  0.6068
17141SOL     OW52863   0.495   6.291   7.558 -0.6128  0.1131 -0.0464
17141SOL    HW152864   0.542   6.260   7.636 -1.5004  0.0926  0.4976
17141SOL    HW252865   0.534   6.376   7.539  0.5072 -0.4486 -0.3783
17142SOL     OW52866   6.069   4.983  12.208 -0.3231 -0.0322 -0.0188
17142SOL    HW152867   5.979   4.973  12.176 -0.8866 -0.5581  1.6508
17142SOL    HW252868   6.069   4.941  12.293  1.4269  0.3142  0.1861
17143SOL     OW52869   7.941   7.351  11.982  0.1975 -0.5619 -0.1527
17143SOL    HW152870   7.869   7.352  12.045  1.6402 -2.2061  1.6214
17143SOL    HW252871   7.901   7.322  11.900 -1.3794 -0.1502  0.4391
17144SOL     OW52872   7.362   6.527   0.230  0.8234  0.2403  0.3098
17144SOL    HW152873   7.445   6.547   0.188  1.1612 -0.4095  0.6553
17144SOL    HW252874   7.385   6.500   0.319  0.2776 -0.2356  0.3193
17145SOL     OW52875   5.673   1.358   6.280 -0.9988 -0.2392  0.0889
17145SOL    HW152876   5.707   1.269   6.289 -0.5870 -0.1246 -0.3011
17145SOL    HW252877   5.735   1.402   6.222 -1.0743  0.3698  0.4617
17146SOL     OW52878   2.666   1.265   7.473 -0.0596 -0.5193 -0.1146
17146SOL    HW152879   2.744   1.269   7.418 -0.5722 -1.6428 -0.9900
17146SOL    HW252880   2.657   1.353   7.510  1.8461 -0.4851  0.3680
17147SOL     OW52881   6.106   7.316   3.209 -0.3851 -0.1189  0.0105
17147SOL    HW152882   6.014   7.341   3.216 -0.7039 -0.7772 -1.3856
17147SOL    HW252883   6.126   7.322   3.116  1.2878  0.9688  0.3901
17148SOL     OW52884   6.125   7.668   8.976 -0.4590 -0.3582  0.2243
17148SOL    HW152885   6.219   7.668   8.993 -0.3402  0.1089 -0.3971
17148SOL    HW252886   6.092   7.594   9.027  0.3259 -0.8845 -0.0046
17149SOL     OW52887   0.566   2.370   3.829 -0.4313 -0.4737  0.6859
17149SOL    HW152888   0.486   2.338   3.789  0.3258 -3.2311  1.1045
17149SOL    HW252889   0.605   2.427   3.763 -2.0103 -0.2448 -0.0957
17150SOL     OW52890   7.956   5.336   8.724  0.0455 -0.7035  0.0759
17150SOL    HW152891   7.873   5.299   8.753 -1.1471 -0.3450 -2.5958
17150SOL    HW252892   8.003   5.262   8.685  0.9750 -0.8710  1.4326
17151SOL     OW52893   6.229   3.365   0.690  0.8528  0.3025 -0.3532
17151SOL    HW152894   6.247   3.454   0.659  0.5464 -0.1561 -1.9806
17151SOL    HW252895   6.310   3.317   0.673  0.6744  0.0350 -0.4546
17152SOL     OW52896   4.308   7.506  10.040  0.4290  0.3418  0.2182
17152SOL    HW152897   4.225   7.552  10.024  2.3495  3.6551 -1.1830
17152SOL    HW252898   4.344   7.548  10.118  1.5477  0.1855 -0.1921
17153SOL     OW52899   2.421   3.448  11.515 -0.9247 -0.2084 -0.4314
17153SOL    HW152900   2.387   3.518  11.460 -0.2396  0.3085 -0.2094
17153SOL    HW252901   2.373   3.457  11.598 -0.2305  0.5494 -0.1015
17154SOL     OW52902   2.533   2.100   5.552  0.5335 -0.2872 -0.2398
17154SOL    HW152903   2.465   2.157   5.587  0.3952 -0.0487 -0.8740
17154SOL    HW252904   2.594   2.088   5.625 -0.3002 -0.6957  0.4015
17155SOL     OW52905   0.233   1.930   2.743 -0.3092  0.0594  0.1967
17155SOL    HW152906   0.239   2.018   2.705  0.4303  0.0922  0.3881
17155SOL    HW252907   0.232   1.871   2.667  0.6540  0.1532  0.0973
17156SOL     OW52908   2.984   2.321   2.055 -0.0315 -0.1419  0.1264
17156SOL    HW152909   3.021   2.249   2.004 -0.1515 -0.1349  0.0285
17156SOL    HW252910   2.898   2.337   2.015  1.0473  1.8323 -1.5704
17157SOL     OW52911   5.607   0.416   8.786  0.3160 -0.5849  0.3173
17157SOL    HW152912   5.635   0.495   8.834  0.1230 -0.3983  0.1227
17157SOL    HW252913   5.547   0.372   8.846 -0.0983 -0.2369  0.1633
17158SOL     OW52914   1.837   2.605   6.717  0.2074  0.2984  0.1598
17158SOL    HW152915   1.929   2.601   6.743  0.3421  1.9944  0.0346
17158SOL    HW252916   1.796   2.659   6.785 -0.2904  1.2222 -0.8590
17159SOL     OW52917   7.387   1.523   5.514 -0.0655  0.6455 -0.2116
17159SOL    HW152918   7.382   1.449   5.454  3.0954  0.8328 -0.8893
17159SOL    HW252919   7.355   1.489   5.598 -0.8610 -0.7765 -1.0684
17160SOL     OW52920   7.103   4.947  11.397 -0.0091  0.2676 -0.1174
17160SOL    HW152921   7.148   4.865  11.376 -1.3614 -0.7641  0.8048
17160SOL    HW252922   7.036   4.921  11.461  0.5335  2.3666  1.3681
17161SOL     OW52923   4.481   1.947   6.540 -0.3831  0.0957 -0.4638
17161SOL    HW152924   4.521   1.981   6.620 -1.3998 -0.2197  0.1961
17161SOL    HW252925   4.458   2.026   6.489  0.4433  0.2902 -0.5515
17162SOL     OW52926   5.081   3.773   7.836  0.0739 -0.5929  0.3416
17162SOL    HW152927   4.992   3.769   7.873  0.7699 -2.6070  2.0069
17162SOL    HW252928   5.121   3.690   7.862  1.5730 -0.9736 -2.7636
17163SOL     OW52929   2.886   1.057   1.147  0.0606  0.6942 -0.3108
17163SOL    HW152930   2.819   1.117   1.178 -0.5107  0.2383 -0.6359
17163SOL    HW252931   2.928   1.104   1.075  1.1261  1.5913  0.8557
17164SOL     OW52932   5.900   1.548   6.528 -0.6187  0.1268 -0.5177
17164SOL    HW152933   5.850   1.477   6.568 -0.7829 -0.0157 -0.9673
17164SOL    HW252934   5.858   1.628   6.559  0.4493  0.1029  1.1770
17165SOL     OW52935   1.210   4.527   9.535  0.0183 -0.2375  0.2428
17165SOL    HW152936   1.164   4.458   9.487  1.1648  0.4662 -2.0657
17165SOL    HW252937   1.288   4.544   9.482  0.7764  1.4642  1.7978
17166SOL     OW52938   1.396   5.847   7.699  0.0117 -0.2430 -0.1338
17166SOL    HW152939   1.359   5.858   7.787 -2.4564 -0.7891 -1.0111
17166SOL    HW252940   1.366   5.925   7.651 -0.8631 -1.1657 -1.1397
17167SOL     OW52941   5.904   7.256   8.729  0.0156 -0.0846  0.3519
17167SOL    HW152942   5.844   7.327   8.704  0.4889 -0.5792 -2.6304
17167SOL    HW252943   5.989   7.299   8.740 -0.0580  0.0544  0.3833
17168SOL     OW52944   0.271   5.294   5.745  0.3799 -0.2703  0.4286
17168SOL    HW152945   0.348   5.296   5.688  1.1054 -1.2969  1.3122
17168SOL    HW252946   0.209   5.238   5.699  0.7576 -0.6594  0.3788
17169SOL     OW52947   1.541   7.639   2.052  0.5430  0.2806 -0.4919
17169SOL    HW152948   1.589   7.587   2.117  1.4772  1.1822 -0.4230
17169SOL    HW252949   1.519   7.578   1.982 -0.7219 -0.7814  0.7744
17170SOL     OW52950   4.163   7.715   1.760 -0.0855  0.7783 -0.4088
17170SOL    HW152951   4.201   7.728   1.673 -0.0742  2.0467 -0.2296
17170SOL    HW252952   4.228   7.665   1.808  0.2739  0.7938 -0.8761
17171SOL     OW52953   4.737   4.367   5.045 -0.1911  0.1200 -0.0232
17171SOL    HW152954   4.722   4.452   5.004  0.3732  0.3530  0.2432
17171SOL    HW252955   4.803   4.324   4.990 -0.4312 -0.1259 -0.1250
17172SOL     OW52956   4.852   0.884   6.331 -0.1295 -0.1739  0.0898
17172SOL    HW152957   4.822   0.814   6.390  0.3766 -1.5489 -1.2041
17172SOL    HW252958   4.833   0.851   6.243  1.5737  0.6022 -0.6242
17173SOL     OW52959   3.074   2.271   4.105 -0.0730  0.6343  0.0132
17173SOL    HW152960   3.117   2.273   4.019 -1.2493 -1.2346 -0.6705
17173SOL    HW252961   3.136   2.224   4.161  0.3324  1.1426  0.0080
17174SOL     OW52962   2.885   0.059   3.685 -0.5702 -0.0531 -0.2214
17174SOL    HW152963   2.950  -0.011   3.691 -1.7130 -0.9999  2.7947
17174SOL    HW252964   2.907   0.120   3.755 -1.3935  1.0437 -0.8668
17175SOL     OW52965   3.138   6.358   9.338 -0.2224  0.3026 -0.0448
17175SOL    HW152966   3.132   6.410   9.418  1.9249 -1.0579  1.1104
17175SOL    HW252967   3.162   6.421   9.270 -3.5614  1.7358 -0.0568
17176SOL     OW52968   3.785   4.628   3.066 -0.2007  0.2589 -0.6787
17176SOL    HW152969   3.875   4.604   3.047 -0.3376 -0.2026 -0.7572
17176SOL    HW252970   3.786   4.655   3.158 -0.5386 -2.7883  0.3364
17177SOL     OW52971   7.940   5.424   7.429 -0.7225  0.3445 -0.8079
17177SOL    HW152972   7.896   5.471   7.500 -2.6515  0.6915 -2.1428
17177SOL    HW252973   8.020   5.389   7.469 -1.5291  0.8570  1.4124
17178SOL     OW52974   4.237   1.635   1.745 -0.1344  0.1725 -0.9523
17178SOL    HW152975   4.262   1.544   1.726  1.3532  0.1918  0.7207
17178SOL    HW252976   4.317   1.676   1.778 -0.6975  2.2195 -2.0160
17179SOL     OW52977   7.885   6.718   7.360 -0.0569  0.5434 -0.1993
17179SOL    HW152978   7.979   6.736   7.360  0.0938  0.0603  2.1429
17179SOL    HW252979   7.845   6.800   7.331  1.0822  0.2524 -2.8944
17180SOL     OW52980   4.872   3.665   5.532  0.0579  0.5298 -0.0688
17180SOL    HW152981   4.893   3.656   5.625  0.8223 -0.1890 -0.2875
17180SOL    HW252982   4.811   3.593   5.515 -0.0455  0.6325 -0.1248
17181SOL     OW52983   1.257   1.440   8.898  0.2420 -0.1749  0.0667
17181SOL    HW152984   1.308   1.508   8.853  0.9731 -0.9905 -0.3797
17181SOL    HW252985   1.290   1.440   8.988  1.4911 -1.0747 -0.3504
17182SOL     OW52986   7.338   4.651   4.187 -0.6757 -0.0340 -0.1609
17182SOL    HW152987   7.346   4.619   4.277  1.3904 -1.7533 -0.8741
17182SOL    HW252988   7.244   4.665   4.175 -1.2225 -1.6914  1.6362
17183SOL     OW52989   0.697   1.076   2.267  0.5215 -0.4870  0.7344
17183SOL    HW152990   0.644   1.001   2.242  0.9413 -0.5947  0.1467
17183SOL    HW252991   0.644   1.123   2.331 -1.8584  1.3280 -2.2783
17184SOL     OW52992   4.149   5.811  11.825 -0.3200  0.2664  0.2945
17184SOL    HW152993   4.210   5.874  11.786 -0.4679 -0.1207 -0.5765
17184SOL    HW252994   4.144   5.739  11.762 -1.4386  0.1455  0.4910
17185SOL     OW52995   5.663   4.784   7.482  0.5566  0.3138 -0.2079
17185SOL    HW152996   5.608   4.728   7.426 -0.8048  1.4087 -0.0303
17185SOL    HW252997   5.682   4.860   7.427  0.8550  0.5148  0.1727
17186SOL     OW52998   4.060   1.687   4.598 -0.2231  0.2173  0.7677
17186SOL    HW152999   4.072   1.754   4.665  1.5594  0.1856  0.5368
17186SOL    HW253000   3.979   1.711   4.552 -0.1172  1.6477  1.3116
17187SOL     OW53001   5.385   3.475   0.733 -0.0359  0.6035 -0.3731
17187SOL    HW153002   5.436   3.505   0.808 -0.4005  0.6109 -0.1186
17187SOL    HW253003   5.294   3.475   0.765 -0.0473 -0.8563 -0.3127
17188SOL     OW53004   0.969   4.553   3.426  0.8116  0.0483  0.3556
17188SOL    HW153005   0.965   4.586   3.336  0.2575 -2.5538 -0.6810
17188SOL    HW253006   1.016   4.470   3.418  0.0564 -0.6168  2.3395
17189SOL     OW53007   3.105   0.365   4.047 -0.8473 -0.8454 -0.0538
17189SOL    HW153008   3.029   0.416   4.074  0.1392 -0.2007  1.6776
17189SOL    HW253009   3.099   0.284   4.099  0.8429  0.2170  1.9423
17190SOL     OW53010   6.337   0.180   7.421  0.0340  0.1165 -0.2539
17190SOL    HW153011   6.400   0.211   7.357 -1.0270 -0.8401 -1.8227
17190SOL    HW253012   6.297   0.102   7.381 -0.7566 -0.4439  1.5070
17191SOL     OW53013   7.594   0.200   5.639 -0.2260  0.7232  0.4376
17191SOL    HW153014   7.502   0.205   5.664 -0.4137  0.0619 -0.0857
17191SOL    HW253015   7.598   0.127   5.577  0.6950  0.5737  0.6566
17192SOL     OW53016   2.683   4.611  10.280 -0.4408 -0.6005 -0.0758
17192SOL    HW153017   2.632   4.616  10.199 -0.1269 -0.2165 -0.2529
17192SOL    HW253018   2.644   4.677  10.338  0.8280  0.8464 -0.7818
17193SOL     OW53019   0.168   0.391  10.135 -0.3286 -0.1623  0.1906
17193SOL    HW153020   0.136   0.455  10.198  1.5327 -0.6561  1.7428
17193SOL    HW253021   0.089   0.348  10.102 -1.4142  0.7298  1.5178
17194SOL     OW53022   5.974   2.017   5.961  0.3190  0.1828 -0.0903
17194SOL    HW153023   5.902   2.049   6.016  1.1874 -0.7609  1.6605
17194SOL    HW253024   6.041   1.989   6.023  1.2186 -1.2428 -1.6284
17195SOL     OW53025   1.073   2.945   6.540  0.5728 -0.0819 -0.1242
17195SOL    HW153026   1.079   3.020   6.481  0.0132 -0.1052 -0.2195
17195SOL    HW253027   1.057   2.983   6.626  2.8248  0.0261  0.2939
17196SOL     OW53028   5.647   6.436   4.960 -0.2613  0.3951 -0.5648
17196SOL    HW153029   5.672   6.501   4.894  0.6120  1.1475  0.4566
17196SOL    HW253030   5.660   6.482   5.044 -2.2857 -0.1891  0.1197
17197SOL     OW53031   2.506   7.623   7.452  0.1007 -0.2491 -0.1650
17197SOL    HW153032   2.598   7.596   7.451  1.3136  3.1830 -3.1610
17197SOL    HW253033   2.504   7.698   7.512 -0.2097  0.9331 -1.5926
17198SOL     OW53034   5.209   4.819   3.473 -0.1411  0.1088  0.1469
17198SOL    HW153035   5.157   4.763   3.530 -1.3411  1.3736  0.3326
17198SOL    HW253036   5.273   4.860   3.532  0.5235 -0.7619  0.0637
17199SOL     OW53037   0.802   6.226   5.495  0.6050 -0.6566 -0.2123
17199SOL    HW153038   0.778   6.284   5.423  0.0953 -1.9827 -1.1609
17199SOL    HW253039   0.764   6.267   5.573 -0.0342  0.1022 -0.9014
17200SOL     OW53040   0.552   7.623   5.173 -0.3539  0.3315 -0.5525
17200SOL    HW153041   0.613   7.560   5.135  0.9682  0.9290  0.4939
17200SOL    HW253042   0.467   7.578   5.171  0.2660 -0.8563 -1.2548
17201SOL     OW53043   0.257   6.727   4.098  0.5678  0.0915 -0.1950
17201SOL    HW153044   0.269   6.684   4.013 -0.1082 -0.5573  0.0384
17201SOL    HW253045   0.165   6.753   4.100  0.9250  1.4597 -0.2801
17202SOL     OW53046   5.908   0.650   3.726 -0.5147 -0.8705 -0.1790
17202SOL    HW153047   5.901   0.646   3.631  0.2327 -0.4114 -0.2600
17202SOL    HW253048   6.002   0.649   3.744 -0.6224 -0.1869  0.5155
17203SOL     OW53049   4.451   4.336   0.323  0.0609 -1.0629 -0.1114
17203SOL    HW153050   4.527   4.323   0.381  1.2732  0.0595 -1.3792
17203SOL    HW253051   4.436   4.430   0.323 -2.2541 -1.3524  1.1508
17204SOL     OW53052   7.017   2.540   4.194  0.3466 -0.4601  0.1920
17204SOL    HW153053   7.028   2.564   4.102  0.7186 -0.6200  0.1928
17204SOL    HW253054   6.930   2.501   4.199 -0.4108  1.1652  0.2478
17205SOL     OW53055   5.898   1.268  11.125  0.1200 -0.4036 -0.2964
17205SOL    HW153056   5.877   1.225  11.042  0.6568 -1.3224  0.0248
17205SOL    HW253057   5.814   1.304  11.155  0.0545  0.5873 -1.5773
17206SOL     OW53058   2.079   4.394  12.123  0.2219  0.3180 -0.0369
17206SOL    HW153059   2.117   4.315  12.161 -0.1568  0.1601  0.0155
17206SOL    HW253060   2.013   4.362  12.061  0.4459  0.5827 -0.4128
17207SOL     OW53061   0.004   7.071   4.572 -0.4350  0.2899  0.0275
17207SOL    HW153062  -0.019   7.162   4.592  1.1973  1.3659 -2.5325
17207SOL    HW253063  -0.030   7.022   4.647 -1.6661  2.9277  1.3716
17208SOL     OW53064   4.624   4.901   9.421  0.2334 -0.1388 -0.6538
17208SOL    HW153065   4.631   4.897   9.326 -1.2832  0.7467 -0.8262
17208SOL    HW253066   4.679   4.829   9.452  0.7804 -0.4155 -2.1851
17209SOL     OW53067   5.169   5.917   9.416  0.1195  0.0317  0.1599
17209SOL    HW153068   5.198   5.948   9.502 -1.8232  0.2153  0.8179
17209SOL    HW253069   5.249   5.903   9.367  1.2556  0.8827  1.6744
17210SOL     OW53070   2.482   1.067   1.401  0.3988  0.4861  0.2632
17210SOL    HW153071   2.534   0.992   1.429  0.2408 -0.2741 -1.3540
17210SOL    HW253072   2.401   1.062   1.453  0.0583 -0.9388 -0.3671
17211SOL     OW53073   0.143   0.989   4.918  0.4545 -1.0209 -0.4335
17211SOL    HW153074   0.082   0.935   4.969  0.8614 -0.6815  0.4299
17211SOL    HW253075   0.105   0.991   4.830  0.5909 -2.9822 -0.5841
17212SOL     OW53076   4.115   6.962   4.471  0.3110  0.1439  0.2710
17212SOL    HW153077   4.126   6.867   4.473  1.0380  0.2072  2.5561
17212SOL    HW253078   4.083   6.985   4.559  3.2678  2.2978  0.9376
17213SOL     OW53079   1.724   7.959   5.030 -0.6856 -0.3055 -0.2880
17213SOL    HW153080   1.777   8.030   4.993 -1.6730  0.2953 -0.5939
17213SOL    HW253081   1.647   7.955   4.973 -1.3482 -0.6237  0.6054
17214SOL     OW53082   2.122   4.471   8.270  0.4889  0.1507 -0.2699
17214SOL    HW153083   2.106   4.471   8.176  0.7172  3.6484 -0.4573
17214SOL    HW253084   2.217   4.456   8.278  0.2904 -1.2929 -0.4895
17215SOL     OW53085   1.500   4.567   5.723 -0.2719  0.3959  0.0022
17215SOL    HW153086   1.557   4.539   5.651 -1.7595 -0.6079 -0.8229
17215SOL    HW253087   1.466   4.652   5.694  0.4780  0.8233  0.3328
17216SOL     OW53088   2.670   2.031  10.264  0.1128  0.8841  0.3979
17216SOL    HW153089   2.578   2.030  10.292 -0.4150  0.5936 -1.2398
17216SOL    HW253090   2.719   2.034  10.346 -1.3253 -0.2522  1.3679
17217SOL     OW53091   6.150   2.680   3.799 -0.0962  0.5738 -0.3386
17217SOL    HW153092   6.226   2.691   3.742 -1.1998 -3.1578 -2.8878
17217SOL    HW253093   6.173   2.606   3.855 -1.4477 -0.0208 -0.5254
17218SOL     OW53094   1.960   1.761   2.175 -0.1509  0.5042 -0.2660
17218SOL    HW153095   1.978   1.836   2.119  0.0475  0.2544 -0.5428
17218SOL    HW253096   1.908   1.796   2.247  0.7239  1.0775  0.1042
17219SOL     OW53097   1.289   4.503   3.782  0.1007 -0.0833 -0.0371
17219SOL    HW153098   1.332   4.427   3.822  0.9839  0.7412  0.6097
17219SOL    HW253099   1.349   4.530   3.712 -0.8592 -0.7804 -1.1635
17220SOL     OW53100   2.604   4.081   1.874 -0.1561  0.2093 -0.1581
17220SOL    HW153101   2.542   4.096   1.945  1.4751 -0.2516  1.4272
17220SOL    HW253102   2.679   4.038   1.915  0.7812 -0.2600 -2.1994
17221SOL     OW53103   3.408   0.235   9.204 -0.2817 -0.1567  0.1411
17221SOL    HW153104   3.444   0.319   9.176 -0.9512 -0.3396 -1.3953
17221SOL    HW253105   3.464   0.207   9.277  0.4557  1.2127  0.1276
17222SOL     OW53106   2.828   3.218   2.687 -0.0726  0.4109  0.2810
17222SOL    HW153107   2.774   3.280   2.738  1.2233  0.6771  1.3861
17222SOL    HW253108   2.792   3.223   2.598 -2.0434  0.3595  1.0217
17223SOL     OW53109   1.692   1.520   1.472 -0.0040  0.1007 -0.2300
17223SOL    HW153110   1.602   1.489   1.477  0.7319 -2.4670 -1.0796
17223SOL    HW253111   1.736   1.477   1.545  0.7932  0.1938 -0.6400
17224SOL     OW53112   7.487   3.868   5.692 -0.1897  0.1441  0.1804
17224SOL    HW153113   7.515   3.855   5.602  0.4720  0.3122  0.3577
17224SOL    HW253114   7.525   3.952   5.717 -1.1446  0.5492  0.3195
17225SOL     OW53115   6.702   3.796   4.178  0.2627  0.3620  0.1077
17225SOL    HW153116   6.614   3.783   4.215  0.8187  1.0289  1.7760
17225SOL    HW253117   6.709   3.891   4.166  0.5122  0.2495 -0.6574
17226SOL     OW53118   0.117   3.695   3.170  0.4335  0.5760  0.0955
17226SOL    HW153119   0.107   3.644   3.089 -0.7423 -0.9082  1.1209
17226SOL    HW253120   0.178   3.644   3.223 -0.8864  0.0721  1.1994
17227SOL     OW53121   4.746   3.106   5.410  0.5496 -0.0129  0.3238
17227SOL    HW153122   4.754   3.139   5.500  0.3780  0.1089  0.2945
17227SOL    HW253123   4.755   3.011   5.419  1.0823  0.0394  0.4025
17228SOL     OW53124   5.415   6.183  10.192 -0.1401  0.0926 -0.1051
17228SOL    HW153125   5.423   6.187  10.097 -1.3046  0.7979 -0.1991
17228SOL    HW253126   5.332   6.138  10.207  0.6877 -1.2413  0.6143
17229SOL     OW53127   2.368   3.721   8.083  0.5785 -0.5731  0.2718
17229SOL    HW153128   2.408   3.753   8.164 -0.1790  1.3084 -0.0334
17229SOL    HW253129   2.315   3.646   8.110  1.5577 -0.9346  1.2472
17230SOL     OW53130   2.058   4.343   7.339 -0.0663  0.1402 -0.2200
17230SOL    HW153131   1.962   4.346   7.338 -0.1322  1.3080 -3.7777
17230SOL    HW253132   2.079   4.250   7.343 -1.4467 -0.2821 -1.8647
17231SOL     OW53133   2.942   1.545   3.964 -0.1571 -0.3249  1.0596
17231SOL    HW153134   3.006   1.474   3.958 -0.4135 -0.5708  1.2129
17231SOL    HW253135   2.857   1.501   3.961 -0.3879  0.1361 -1.6319
17232SOL     OW53136   7.288   0.604   5.955  0.7488 -0.9721  0.0168
17232SOL    HW153137   7.305   0.657   5.877 -2.3843  0.9396  0.4872
17232SOL    HW253138   7.261   0.519   5.920 -2.5902  0.4460 -1.2345
17233SOL     OW53139   7.957   0.608   6.654 -0.3569 -0.0822 -0.2847
17233SOL    HW153140   8.028   0.595   6.592  0.4120 -2.6908  0.9595
17233SOL    HW253141   7.880   0.569   6.612 -0.1361 -0.6890 -0.1369
17234SOL     OW53142   1.649   3.349  12.212 -0.3891  0.6928 -0.3467
17234SOL    HW153143   1.581   3.381  12.270 -0.7636  0.0893 -0.4358
17234SOL    HW253144   1.611   3.355  12.124 -0.4361  0.1155 -0.3738
17235SOL     OW53145   6.516   7.721   8.365  0.5246 -0.2093 -0.2167
17235SOL    HW153146   6.426   7.746   8.385  0.7722  0.0468  0.6122
17235SOL    HW253147   6.562   7.803   8.348  0.5917 -0.3422 -0.6966
17236SOL     OW53148   5.621   0.794  11.142 -0.1388  0.6163  0.1322
17236SOL    HW153149   5.570   0.844  11.206  1.9575  0.7332  1.8339
17236SOL    HW253150   5.572   0.713  11.130 -0.5196  0.4954  2.1011
17237SOL     OW53151   3.537   4.600   5.278  0.6903 -0.0986 -0.0666
17237SOL    HW153152   3.523   4.563   5.191 -0.7042  0.0964  0.0586
17237SOL    HW253153   3.536   4.525   5.337  0.9589 -0.1611 -0.1389
17238SOL     OW53154   0.460   3.783   1.510  0.5131 -0.2290 -0.1851
17238SOL    HW153155   0.522   3.821   1.449  1.3327 -1.7043 -0.3179
17238SOL    HW253156   0.420   3.858   1.555  2.1116  0.7588 -0.3656
17239SOL     OW53157   3.723   4.870   2.581 -0.1637  0.3122  0.3721
17239SOL    HW153158   3.783   4.942   2.558 -0.3998  0.0577 -1.1571
17239SOL    HW253159   3.714   4.876   2.676  0.0177  2.1643  0.3223
17240SOL     OW53160   6.110   0.289   9.000 -0.4968  0.0974 -0.2718
17240SOL    HW153161   6.159   0.215   8.965 -1.1905 -0.4713 -0.0674
17240SOL    HW253162   6.137   0.364   8.947 -0.1455 -0.3967 -0.7962
17241SOL     OW53163   1.677   3.624   3.902 -0.2503  0.1289  0.0614
17241SOL    HW153164   1.737   3.572   3.849 -0.1968  0.8615 -0.6191
17241SOL    HW253165   1.591   3.585   3.887 -0.1588  0.0189 -0.1758
17242SOL     OW53166   5.456   0.008   6.359  0.2058 -0.3279 -0.3454
17242SOL    HW153167   5.520   0.028   6.427  1.1155  0.7982 -1.4837
17242SOL    HW253168   5.406   0.089   6.349 -1.4396 -1.1879  0.5221
17243SOL     OW53169   6.220   7.916  12.087 -0.3131  0.0860 -0.0452
17243SOL    HW153170   6.244   7.956  12.171  0.7847 -0.3209 -0.1572
17243SOL    HW253171   6.226   7.822  12.102 -1.4645 -0.0306 -0.2021
17244SOL     OW53172   2.828   3.407  10.379  0.2268  0.6624 -0.1077
17244SOL    HW153173   2.834   3.352  10.300 -2.6691  0.4236 -0.2926
17244SOL    HW253174   2.868   3.354  10.448 -0.3190 -0.6911 -0.7694
17245SOL     OW53175   0.408   3.182   9.353  0.4981  0.0753 -0.4439
17245SOL    HW153176   0.403   3.207   9.261  0.9245 -1.1431 -0.8149
17245SOL    HW253177   0.434   3.263   9.398 -0.6673  0.9258 -1.2487
17246SOL     OW53178   7.962   0.987   5.253 -0.4920 -0.0283  0.0183
17246SOL    HW153179   7.958   0.894   5.235 -0.7043 -0.3510  1.5552
17246SOL    HW253180   8.022   0.995   5.328 -1.9047  0.8292  1.1292
17247SOL     OW53181   2.326   6.525   3.754 -0.1232  0.1732 -0.2057
17247SOL    HW153182   2.385   6.555   3.684 -0.8580  1.1718 -0.4169
17247SOL    HW253183   2.297   6.439   3.725  0.7212 -0.0573 -0.4105
17248SOL     OW53184   1.548   7.310   1.700 -0.4789  0.1115  0.0634
17248SOL    HW153185   1.545   7.403   1.723  0.2225  0.1842 -0.0996
17248SOL    HW253186   1.617   7.304   1.634  0.2763 -0.6790  0.8845
17249SOL     OW53187   1.017   3.459   8.201  0.3649  0.0591 -0.0315
17249SOL    HW153188   1.007   3.371   8.236  0.7978 -0.1592 -0.4360
17249SOL    HW253189   0.952   3.511   8.247 -0.8157 -0.7499 -0.7246
17250SOL     OW53190   2.385   4.021   2.840  0.8070  0.0924 -0.7257
17250SOL    HW153191   2.297   4.030   2.802  0.2562 -2.1310 -0.1063
17250SOL    HW253192   2.435   4.093   2.801 -0.5843 -0.1493 -3.1706
17251SOL     OW53193   2.744   5.137   2.526  0.2072 -0.1711  0.3111
17251SOL    HW153194   2.780   5.062   2.478 -1.0757 -0.9596  0.5092
17251SOL    HW253195   2.740   5.207   2.461 -0.7168 -0.9788 -0.5542
17252SOL     OW53196   0.719   4.968   5.897  0.0494  0.4204  0.1006
17252SOL    HW153197   0.737   4.989   5.806 -0.4366 -1.3394 -0.4537
17252SOL    HW253198   0.631   4.929   5.895  0.1596  0.0689  1.2651
17253SOL     OW53199   4.648   1.748   8.289  0.3256  0.3498  0.0430
17253SOL    HW153200   4.576   1.741   8.226 -0.1889  2.0047  0.3963
17253SOL    HW253201   4.725   1.768   8.236  0.8008 -2.3496 -0.4428
17254SOL     OW53202   5.164   1.221   8.088 -0.3225 -0.3096  0.0502
17254SOL    HW153203   5.084   1.221   8.037 -0.4180 -2.1720  0.1309
17254SOL    HW253204   5.234   1.221   8.023 -0.4185 -0.4685 -0.0554
17255SOL     OW53205   2.901   4.198   7.920  0.5296 -0.2148 -0.7244
17255SOL    HW153206   2.807   4.191   7.940  0.8314 -2.7592  0.2179
17255SOL    HW253207   2.934   4.264   7.980 -0.5573  0.3136 -0.6822
17256SOL     OW53208   4.463   5.647   6.829 -0.6717  0.2146  0.0650
17256SOL    HW153209   4.479   5.553   6.837 -0.8950  0.3435  3.1296
17256SOL    HW253210   4.522   5.675   6.758  2.4650 -1.6066  1.7102
17257SOL     OW53211   0.970   1.887   4.297  0.2785  0.2139 -0.0736
17257SOL    HW153212   1.056   1.878   4.339  0.0454  0.6301  0.5119
17257SOL    HW253213   0.915   1.928   4.364 -0.3613  0.0153 -0.4667
17258SOL     OW53214   5.399   4.660   3.259 -0.2187 -0.0132  0.3366
17258SOL    HW153215   5.397   4.684   3.351  0.3642  1.6010 -0.0185
17258SOL    HW253216   5.481   4.612   3.248  0.1737  0.6066  0.5035
17259SOL     OW53217   4.003   3.711   5.710  0.5068  0.1950  0.0348
17259SOL    HW153218   3.979   3.802   5.693 -1.4092 -0.5159 -1.4824
17259SOL    HW253219   3.934   3.679   5.768  2.5882  0.3378  2.7692
17260SOL     OW53220   6.265   7.206   7.088  0.0735 -0.1353 -0.0973
17260SOL    HW153221   6.232   7.240   7.171  0.6587 -1.2115  0.6004
17260SOL    HW253222   6.342   7.155   7.112  1.3470  1.0359 -1.5252
17261SOL     OW53223   4.440   2.153   5.202 -0.0923 -0.0880  0.5311
17261SOL    HW153224   4.469   2.183   5.288 -0.0623 -0.4477  0.6506
17261SOL    HW253225   4.386   2.224   5.168 -0.2270 -0.0060  0.9135
17262SOL     OW53226   1.926   1.636  11.996 -0.0106  0.3917 -0.3158
17262SOL    HW153227   1.839   1.656  11.961 -1.1798  1.2953  2.7740
17262SOL    HW253228   1.964   1.722  12.017  0.2159 -0.0874  1.3966
17263SOL     OW53229   1.404   0.419  10.589 -0.1945 -0.8615  0.0185
17263SOL    HW153230   1.403   0.354  10.518  0.3056 -0.1345 -0.6728
17263SOL    HW253231   1.495   0.420  10.618 -0.4285 -1.2687  0.7980
17264SOL     OW53232   3.528   6.866   0.322 -0.0147 -0.2449  0.0451
17264SOL    HW153233   3.528   6.795   0.257  1.3017  0.7572 -1.1002
17264SOL    HW253234   3.487   6.827   0.399 -1.5142 -1.5336 -1.3134
17265SOL     OW53235   1.506   7.685   5.342  0.0905  0.1140 -0.2217
17265SOL    HW153236   1.423   7.640   5.357 -0.1521  0.4924 -0.4077
17265SOL    HW253237   1.484   7.754   5.279  0.6589 -0.1233 -0.6826
17266SOL     OW53238   7.317   2.103   7.485  0.2861  0.0933  0.4208
17266SOL    HW153239   7.387   2.101   7.419 -0.8609 -0.0068 -0.8260
17266SOL    HW253240   7.286   2.194   7.484 -0.9056 -0.2953 -0.4801
17267SOL     OW53241   3.267   0.194   9.901  0.1208 -0.1468  0.1614
17267SOL    HW153242   3.201   0.251   9.941 -0.5684 -0.3428 -0.6807
17267SOL    HW253243   3.230   0.106   9.907  0.9752 -0.4761  1.0239
17268SOL     OW53244   2.069   7.620  11.396 -0.8618  0.4248 -0.1933
17268SOL    HW153245   2.095   7.566  11.470  0.2132  1.5070  0.2614
17268SOL    HW253246   2.039   7.702  11.434  0.0623  1.1431 -0.9283
17269SOL     OW53247   6.022   7.059   3.295  0.3616 -0.0456 -0.2873
17269SOL    HW153248   6.056   7.009   3.222  1.9284  0.2794  0.1723
17269SOL    HW253249   6.061   7.146   3.285  1.3677 -0.2500  1.4024
17270SOL     OW53250   6.104   7.982  11.542 -0.0098 -0.2931  0.2801
17270SOL    HW153251   6.075   8.069  11.570 -1.3699 -0.7232  0.3135
17270SOL    HW253252   6.125   7.992  11.449  1.3624  0.4055  0.6421
17271SOL     OW53253   2.718   5.602   5.518 -0.1056  0.4587 -0.1875
17271SOL    HW153254   2.624   5.587   5.509  0.0746 -1.3103  0.4824
17271SOL    HW253255   2.759   5.528   5.473  0.9132 -0.1714  1.6697
17272SOL     OW53256   6.699   3.951  10.951 -0.4268 -0.0293  0.5550
17272SOL    HW153257   6.766   3.943  10.883  0.1230 -1.9443  1.2510
17272SOL    HW253258   6.743   3.997  11.022 -0.4989  0.5267  0.2458
17273SOL     OW53259   1.199   0.808   0.925  0.5975  0.4158 -0.1788
17273SOL    HW153260   1.216   0.801   1.019  0.7111  1.6627 -0.0909
17273SOL    HW253261   1.256   0.742   0.885  1.4521  0.7020  0.5347
17274SOL     OW53262   5.543   1.949   1.695  0.0812 -0.3701  0.5190
17274SOL    HW153263   5.512   1.906   1.616 -0.2768 -1.6553  1.3251
17274SOL    HW253264   5.469   1.946   1.755  0.0918  1.2858  0.6562
17275SOL     OW53265   2.615   6.627   8.352 -0.4563  0.3963 -0.1709
17275SOL    HW153266   2.687   6.628   8.290 -0.2253  0.6967  0.0985
17275SOL    HW253267   2.543   6.672   8.307 -0.5096 -0.0052 -0.4817
17276SOL     OW53268   3.430   4.655   1.719 -0.4530 -0.4388  0.2918
17276SOL    HW153269   3.483   4.676   1.795  0.7228  0.8049 -0.8132
17276SOL    HW253270   3.426   4.559   1.718 -1.6206 -0.4782  2.6088
17277SOL     OW53271   1.349   1.205   8.779  0.1605 -0.1071 -0.3235
17277SOL    HW153272   1.437   1.241   8.788  0.0976 -0.4208  2.5049
17277SOL    HW253273   1.291   1.274   8.811 -0.5397 -0.2468 -1.2674
17278SOL     OW53274   5.306   3.712   8.393  0.5545 -0.6941 -0.2743
17278SOL    HW153275   5.270   3.624   8.398 -0.3567 -0.3046  0.2967
17278SOL    HW253276   5.398   3.703   8.417  0.4535 -1.4778 -0.1841
17279SOL     OW53277   1.775   1.855  10.883 -0.0237  0.1920  0.0573
17279SOL    HW153278   1.812   1.920  10.942  0.3765 -1.0853  1.2837
17279SOL    HW253279   1.680   1.862  10.897 -0.0721  1.2775 -0.6959
17280SOL     OW53280   3.220   2.442   6.262  0.2539 -0.4255  0.1825
17280SOL    HW153281   3.233   2.471   6.352 -0.3373 -0.0825  0.1653
17280SOL    HW253282   3.271   2.503   6.209  0.3922 -0.4675  0.2681
17281SOL     OW53283   1.090   1.877  10.596 -0.1885  0.3308 -0.1842
17281SOL    HW153284   1.066   1.953  10.543  0.5276  0.7938  0.1389
17281SOL    HW253285   1.040   1.805  10.559 -1.6901  1.1518  0.1528
17282SOL     OW53286   5.239   7.462   0.162  0.4067  0.3042  0.3183
17282SOL    HW153287   5.163   7.436   0.109  0.5234 -0.0232  0.3067
17282SOL    HW253288   5.299   7.503   0.100  0.8672 -0.7465  0.0370
17283SOL     OW53289   4.353   2.332   7.287  0.3947  0.0815 -0.3944
17283SOL    HW153290   4.431   2.320   7.341  0.9532  1.6748 -0.7590
17283SOL    HW253291   4.379   2.400   7.225 -1.4823  1.0914 -0.1346
17284SOL     OW53292   6.314   4.662   3.498 -0.3623  0.0542  0.2108
17284SOL    HW153293   6.278   4.706   3.421 -0.0718  0.5491  0.3533
17284SOL    HW253294   6.275   4.575   3.496 -0.1755 -0.0228 -0.6292
17285SOL     OW53295   6.197   7.065  11.131  0.1694  0.2998  0.2364
17285SOL    HW153296   6.213   6.972  11.147 -0.3000  0.1156 -0.3476
17285SOL    HW253297   6.250   7.086  11.055  1.6617  0.9524  1.4039
17286SOL     OW53298   1.000   5.257   2.301  0.6017  0.6500 -0.0398
17286SOL    HW153299   1.092   5.274   2.323  1.0736  0.2833 -1.6159
17286SOL    HW253300   0.963   5.344   2.285  0.7928  0.7713  0.1728
17287SOL     OW53301   2.260   4.441   2.416  0.0954  0.7423  0.0872
17287SOL    HW153302   2.205   4.484   2.350 -0.3967  0.4892  0.3228
17287SOL    HW253303   2.254   4.498   2.493  0.1917  0.7323  0.1025
17288SOL     OW53304   6.587   6.412  11.226  0.5208  0.2297  0.2938
17288SOL    HW153305   6.668   6.460  11.235  1.9304 -2.1628  1.4325
17288SOL    HW253306   6.537   6.433  11.305  1.1111 -0.1199  0.7689
17289SOL     OW53307   4.018   0.431   5.142 -0.1879  0.4096  0.0080
17289SOL    HW153308   4.064   0.374   5.204 -1.8010  0.4042  1.2846
17289SOL    HW253309   4.048   0.402   5.056  1.1996 -0.4167  0.7289
17290SOL     OW53310   0.332   2.262   5.266  0.2658  0.3484 -0.0179
17290SOL    HW153311   0.254   2.206   5.258  1.0547 -0.7768 -0.1908
17290SOL    HW253312   0.342   2.275   5.360 -0.8150  1.5230 -0.0509
17291SOL     OW53313   0.500   7.671   5.964 -0.4685  0.0216 -0.2795
17291SOL    HW153314   0.539   7.732   6.026 -0.1651 -1.3507  0.9348
17291SOL    HW253315   0.574   7.620   5.931 -0.5003  1.2955 -2.4812
17292SOL     OW53316   4.004   0.581   4.454  0.2159 -0.4018  0.3428
17292SOL    HW153317   3.941   0.631   4.402 -1.1599 -1.0403  1.3281
17292SOL    HW253318   4.088   0.593   4.409 -0.8180 -0.5490 -1.7271
17293SOL     OW53319   7.825   2.706   4.933 -0.3129  0.2282 -0.4560
17293SOL    HW153320   7.781   2.628   4.966 -0.7472  0.0526 -1.4291
17293SOL    HW253321   7.870   2.742   5.010 -0.3925 -0.7752  0.0788
17294SOL     OW53322   5.449   4.339  11.793  0.3673  0.4595 -0.3563
17294SOL    HW153323   5.359   4.364  11.773  0.1032  1.1367  1.5049
17294SOL    HW253324   5.452   4.245  11.777 -0.2057  0.6888 -1.9763
17295SOL     OW53325   2.856   5.314   7.375  0.2884 -0.0212 -0.1450
17295SOL    HW153326   2.863   5.369   7.453  2.1387  0.6307 -0.7483
17295SOL    HW253327   2.831   5.374   7.305  0.1591 -0.3465 -0.3793
17296SOL     OW53328   1.556   4.584   7.744  0.0877 -0.1337  0.0573
17296SOL    HW153329   1.652   4.583   7.743  0.1116  0.7310  0.5797
17296SOL    HW253330   1.531   4.500   7.706  1.0453  0.2681 -1.5749
17297SOL     OW53331   0.318   5.240   8.139 -0.1342 -0.1961  0.4900
17297SOL    HW153332   0.311   5.171   8.205 -1.2443 -1.0945 -0.5311
17297SOL    HW253333   0.411   5.261   8.137  0.0126 -0.6086  1.8743
17298SOL     OW53334   2.515   7.537   0.144 -0.2351  0.1360  0.2828
17298SOL    HW153335   2.473   7.510   0.062  0.3535  0.9671 -0.3010
17298SOL    HW253336   2.468   7.616   0.170  2.4016  2.5137 -1.6487
17299SOL     OW53337   7.929   5.662   9.358  0.5084  0.1132  1.2686
17299SOL    HW153338   7.951   5.571   9.377 -1.7113 -0.2875  2.1554
17299SOL    HW253339   7.834   5.664   9.351  0.3690  2.5950  2.5759
17300SOL     OW53340   7.323   5.122   5.982  0.3796 -0.5902  0.6178
17300SOL    HW153341   7.277   5.203   6.004  1.6044  0.2775  0.0551
17300SOL    HW253342   7.331   5.076   6.065 -1.3663 -0.7039  0.7547
17301SOL     OW53343   5.332   1.450   8.194  0.1561  0.7378 -0.0823
17301SOL    HW153344   5.380   1.367   8.187 -0.6394  0.1739  1.0404
17301SOL    HW253345   5.268   1.446   8.123 -1.5493 -0.7528  1.4551
17302SOL     OW53346   4.007   1.545   8.863  0.2076 -0.3065 -0.2600
17302SOL    HW153347   3.954   1.601   8.919 -0.2795 -1.6388  0.6804
17302SOL    HW253348   4.092   1.589   8.856 -0.1416  0.4977  0.4964
17303SOL     OW53349   0.463   6.799   2.112 -0.1574 -0.1523 -0.3651
17303SOL    HW153350   0.539   6.857   2.117  0.0951 -0.1886 -2.6899
17303SOL    HW253351   0.436   6.786   2.203  1.1296  1.8095  0.3484
17304SOL     OW53352   1.710   3.531   1.499  0.0828  0.3607 -0.3613
17304SOL    HW153353   1.719   3.538   1.404  0.0525  2.0950 -0.2620
17304SOL    HW253354   1.646   3.598   1.522  1.3807  1.1753  1.0582
17305SOL     OW53355   6.986   6.524   7.730  0.0750 -0.5830 -0.1908
17305SOL    HW153356   7.039   6.550   7.655  0.8526 -0.7043  0.3055
17305SOL    HW253357   6.981   6.602   7.785 -0.7357 -0.4098 -0.5058
17306SOL     OW53358   1.406   5.515  10.509  0.5540 -0.7707 -0.5397
17306SOL    HW153359   1.487   5.560  10.484  0.4372 -0.6020 -0.6077
17306SOL    HW253360   1.426   5.476  10.594  0.4242 -0.0128 -0.1589
17307SOL     OW53361   6.216   3.643   8.162  0.7502 -0.4181 -0.4514
17307SOL    HW153362   6.294   3.588   8.154  0.8074 -0.4197  0.0808
17307SOL    HW253363   6.241   3.726   8.120  1.4673  0.0106  0.7638
17308SOL     OW53364   4.849   1.218   1.745 -0.3197 -0.7584  0.1895
17308SOL    HW153365   4.905   1.277   1.695 -2.7469  0.8614 -0.7909
17308SOL    HW253366   4.780   1.274   1.780 -0.3098 -2.3174  3.0568
17309SOL     OW53367   3.595   0.541  10.860 -0.0389 -0.2281 -0.2645
17309SOL    HW153368   3.605   0.547  10.955 -1.1426  1.0726 -0.1869
17309SOL    HW253369   3.681   0.515  10.828  0.4911 -0.1676  1.0581
17310SOL     OW53370   6.958   4.384   9.203 -0.0344  0.2240  0.7080
17310SOL    HW153371   6.880   4.439   9.212 -0.5158 -0.3376  0.1571
17310SOL    HW253372   7.008   4.399   9.283 -0.4515  0.9915  0.8374
17311SOL     OW53373   7.964   4.237   0.961 -0.0685  0.1663 -0.2565
17311SOL    HW153374   7.968   4.295   1.037 -1.4002 -1.4489  1.1253
17311SOL    HW253375   7.874   4.203   0.962 -0.4296  0.7731 -3.1279
17312SOL     OW53376   4.621   1.550   4.221 -0.3093  0.6640 -0.5182
17312SOL    HW153377   4.595   1.524   4.310 -1.0115  1.1184 -0.5826
17312SOL    HW253378   4.596   1.475   4.167 -0.2258  0.5372 -0.3819
17313SOL     OW53379   5.689   4.609   4.704  1.0380 -0.4325 -0.1880
17313SOL    HW153380   5.743   4.608   4.783 -0.5538  0.6285  0.9853
17313SOL    HW253381   5.726   4.679   4.650  2.3297 -1.3721 -0.5721
17314SOL     OW53382   2.272   4.142   1.611  0.3886  0.0775 -0.1657
17314SOL    HW153383   2.235   4.176   1.530  0.3323  0.1608 -0.1046
17314SOL    HW253384   2.221   4.063   1.630 -0.0573  0.4414  0.1602
17315SOL     OW53385   2.596   0.461   8.765 -0.4256 -0.0754  0.1228
17315SOL    HW153386   2.688   0.449   8.787  0.4088  0.7849 -2.4486
17315SOL    HW253387   2.571   0.541   8.811  0.2094 -0.1432  0.5949
17316SOL     OW53388   6.304   1.962   3.464 -0.3465  0.3652 -0.2255
17316SOL    HW153389   6.367   2.034   3.456 -1.0551  1.0203 -0.0282
17316SOL    HW253390   6.268   1.952   3.376 -1.1883  1.1358  0.0182
17317SOL     OW53391   6.757   4.988   0.203 -0.3295 -0.1173 -0.4180
17317SOL    HW153392   6.731   5.028   0.286  0.1803  0.5881 -0.5783
17317SOL    HW253393   6.711   5.039   0.137 -0.0220 -0.0795 -0.6060
17318SOL     OW53394   5.757   6.473   0.240 -0.2067 -0.4040  0.5338
17318SOL    HW153395   5.688   6.540   0.236  1.4359  1.5214  2.0682
17318SOL    HW253396   5.777   6.454   0.148 -0.5768  1.4608  0.0148
17319SOL     OW53397   7.674   5.592   9.670  0.2826  0.6099  0.3198
17319SOL    HW153398   7.767   5.570   9.673  0.3588  0.9990  1.3171
17319SOL    HW253399   7.670   5.684   9.697 -0.4135  0.5033  0.6261
17320SOL     OW53400   5.792   3.936   4.113  0.1270 -0.0593  0.4361
17320SOL    HW153401   5.793   3.936   4.209 -0.5238 -1.6105  0.4616
17320SOL    HW253402   5.743   4.015   4.090 -0.0954  0.0955  1.3834
17321SOL     OW53403   3.438   4.756   1.131 -0.0590  0.7527 -0.4908
17321SOL    HW153404   3.364   4.710   1.091  1.9419 -2.8862 -0.3765
17321SOL    HW253405   3.489   4.688   1.174  1.0857  3.6688  3.3285
17322SOL     OW53406   5.838   2.247   6.943 -0.2185 -0.4399 -0.2620
17322SOL    HW153407   5.797   2.288   7.019 -0.1420 -2.1276  0.7275
17322SOL    HW253408   5.765   2.226   6.885 -0.3063  0.5353 -0.5286
17323SOL     OW53409   4.861   5.385   3.222  0.5155  0.2751  1.0561
17323SOL    HW153410   4.939   5.422   3.261  0.3861 -0.1848  1.7793
17323SOL    HW253411   4.823   5.456   3.170  2.9073 -0.2788 -1.6651
17324SOL     OW53412   4.640   0.639   9.398  0.3108  0.3057 -0.1930
17324SOL    HW153413   4.611   0.701   9.465 -0.9845 -0.6877  0.2134
17324SOL    HW253414   4.707   0.686   9.349  0.2831  1.5518  0.9149
17325SOL     OW53415   4.943   3.355   7.390  0.0792  0.1552  0.5586
17325SOL    HW153416   5.030   3.317   7.379 -0.1652 -0.2080 -0.2075
17325SOL    HW253417   4.884   3.280   7.389 -0.5614  0.5783 -2.5556
17326SOL     OW53418   2.913   7.759   8.339  0.3027  0.3286  0.2244
17326SOL    HW153419   2.950   7.695   8.401 -0.8636  1.5159  2.2498
17326SOL    HW253420   2.928   7.844   8.380  0.6765  1.3121 -1.8103
17327SOL     OW53421   6.124   1.261   1.783 -0.3073  0.6159  0.5481
17327SOL    HW153422   6.171   1.339   1.754  0.7852 -0.2156  0.0100
17327SOL    HW253423   6.178   1.188   1.753 -1.1167 -0.3469  1.3680
17328SOL     OW53424   3.545   7.306  11.344  0.3582 -0.3582 -0.2384
17328SOL    HW153425   3.529   7.226  11.395  0.1820  0.0334  0.3312
17328SOL    HW253426   3.463   7.355  11.349 -0.0670 -0.8383 -1.8912
17329SOL     OW53427   5.052   5.168   2.286  0.6031 -0.3655 -0.0154
17329SOL    HW153428   5.067   5.076   2.307  0.0134 -0.2197  1.1305
17329SOL    HW253429   4.989   5.167   2.214  0.5844 -0.8545  0.0044
17330SOL     OW53430   3.901   4.110   6.487 -0.1678  0.0410 -0.1407
17330SOL    HW153431   3.853   4.038   6.527 -0.9686  0.1970 -0.7953
17330SOL    HW253432   3.834   4.166   6.448  0.3711  1.6312  1.1102
17331SOL     OW53433   2.014   6.849   2.923 -0.2593  0.6030 -0.0251
17331SOL    HW153434   2.017   6.920   2.859  0.0217  1.0870  0.5150
17331SOL    HW253435   1.923   6.849   2.955 -1.1236 -1.2749 -2.2023
17332SOL     OW53436   2.118   4.136  11.422  0.0532  0.3960 -0.2601
17332SOL    HW153437   2.061   4.201  11.379 -0.9865 -0.4145 -0.1517
17332SOL    HW253438   2.202   4.144  11.376 -0.3414  1.1452 -0.8915
17333SOL     OW53439   1.894   3.628   4.818  0.7805 -0.6789 -0.9313
17333SOL    HW153440   1.895   3.534   4.805 -0.5185 -0.9351  0.5191
17333SOL    HW253441   1.937   3.640   4.903  0.0472 -0.0639 -0.6405
17334SOL     OW53442   0.272   5.633   3.506  0.2258  0.5890  0.0827
17334SOL    HW153443   0.180   5.626   3.478 -0.4362  1.5337  1.8477
17334SOL    HW253444   0.291   5.547   3.544 -0.2777  0.7079  0.6236
17335SOL     OW53445   6.254   7.804   2.464  0.0968  0.5455  0.0749
17335SOL    HW153446   6.160   7.809   2.449  0.0357 -2.7947 -1.6505
17335SOL    HW253447   6.262   7.795   2.559 -1.4538 -0.4369  0.1490
17336SOL     OW53448   7.795   5.144   6.064  0.6451  0.7081  0.5527
17336SOL    HW153449   7.752   5.078   6.119  1.2686  0.3045  0.5712
17336SOL    HW253450   7.723   5.198   6.031  0.0454 -0.3587  0.0362
17337SOL     OW53451   5.147   1.635   0.887 -0.0228  0.9208  0.5060
17337SOL    HW153452   5.075   1.598   0.938  1.6399 -0.9857  1.5932
17337SOL    HW253453   5.218   1.648   0.951  1.5007  0.2166 -0.9619
17338SOL     OW53454   1.070   5.427   5.757 -0.4023 -0.6624 -0.4604
17338SOL    HW153455   1.005   5.371   5.799 -0.6280 -1.6382 -2.0116
17338SOL    HW253456   1.143   5.369   5.739  0.3722  0.1281  0.0761
17339SOL     OW53457   1.322   2.912   4.029 -0.6073 -0.1636  0.3511
17339SOL    HW153458   1.298   2.847   3.963  1.0051  2.0712 -2.6502
17339SOL    HW253459   1.418   2.909   4.032 -0.5180  1.6711  0.5120
17340SOL     OW53460   1.166   7.292   4.631 -0.2748 -0.0731  0.0972
17340SOL    HW153461   1.210   7.283   4.546 -0.2281  0.0431  0.1087
17340SOL    HW253462   1.086   7.341   4.611  1.2242  2.7913  0.5786
17341SOL     OW53463   4.186   1.374   5.914 -0.1862  0.3254 -0.2964
17341SOL    HW153464   4.114   1.354   5.854  0.9418  1.5767 -2.1641
17341SOL    HW253465   4.186   1.470   5.921  0.7477  0.2879  0.4008
17342SOL     OW53466   4.578   7.745   0.951 -0.3504  0.1575 -0.4421
17342SOL    HW153467   4.641   7.697   0.898 -0.0759 -1.1978  1.0306
17342SOL    HW253468   4.630   7.787   1.018 -0.9011 -0.2087  0.2340
17343SOL     OW53469   0.885   4.534   7.959  0.1032 -0.1122  0.2803
17343SOL    HW153470   0.837   4.615   7.975 -0.9004 -0.7842  0.8184
17343SOL    HW253471   0.918   4.543   7.870  0.6345  1.1767  0.5831
17344SOL     OW53472   7.174   3.575   9.500 -0.6832  0.6094 -0.5634
17344SOL    HW153473   7.268   3.559   9.497 -0.3632  1.9724  0.9894
17344SOL    HW253474   7.150   3.564   9.592 -1.9701  0.7074 -0.8653
17345SOL     OW53475   4.515   3.485   4.912 -0.2229 -0.3449 -0.7118
17345SOL    HW153476   4.512   3.569   4.866  1.0323 -0.2941 -0.7343
17345SOL    HW253477   4.609   3.465   4.920 -0.4398 -0.8302  0.9772
17346SOL     OW53478   0.306   7.241   6.539 -0.0530  0.1158 -0.1197
17346SOL    HW153479   0.325   7.211   6.450 -0.3917  0.3534 -0.2733
17346SOL    HW253480   0.227   7.294   6.530 -1.1250 -1.2741  0.5717
17347SOL     OW53481   3.350   7.688  10.986 -0.0524  0.4982 -0.6625
17347SOL    HW153482   3.420   7.743  11.022 -0.8779  1.0149  0.1931
17347SOL    HW253483   3.361   7.604  11.030 -1.1522  1.1720  0.9859
17348SOL     OW53484   2.113   0.970   4.581  0.3115 -0.0875 -0.3266
17348SOL    HW153485   2.166   1.047   4.560 -1.2757  1.0725 -0.2159
17348SOL    HW253486   2.151   0.936   4.662  0.6978  0.8914 -0.0836
17349SOL     OW53487   0.705   4.811   7.143  0.5343 -0.2396  0.3646
17349SOL    HW153488   0.629   4.813   7.085 -0.2626  0.4969  1.3997
17349SOL    HW253489   0.778   4.841   7.089 -0.2183  0.5573 -0.2235
17350SOL     OW53490   7.290   2.375   7.520  0.0924 -0.6395 -0.2876
17350SOL    HW153491   7.316   2.396   7.610  0.7796 -0.3008 -0.5574
17350SOL    HW253492   7.237   2.451   7.494 -0.8136 -1.1185  0.1047
17351SOL     OW53493   6.907   4.826   2.339  0.0769  0.4979 -0.3976
17351SOL    HW153494   6.880   4.780   2.419  0.8079  1.1369  0.2254
17351SOL    HW253495   6.886   4.918   2.355  2.4113  1.0038  0.0571
17352SOL     OW53496   5.881   1.339  12.204 -0.2580  0.0017 -0.1714
17352SOL    HW153497   5.846   1.395  12.135 -0.9350  1.3952  1.2473
17352SOL    HW253498   5.904   1.257  12.159 -1.3861  0.5817 -1.8986
17353SOL     OW53499   7.152   0.604   8.843  0.1390 -0.1936 -0.2476
17353SOL    HW153500   7.174   0.688   8.882  0.2763 -0.2857 -0.1245
17353SOL    HW253501   7.063   0.614   8.811  0.4649  0.2941 -1.0428
17354SOL     OW53502   5.598   1.531   7.093  0.0267  1.0344  0.3457
17354SOL    HW153503   5.573   1.479   7.169  1.0948 -2.9587 -1.7848
17354SOL    HW253504   5.670   1.586   7.125  1.1029 -1.2182  2.0584
17355SOL     OW53505   1.041   3.602   3.215 -0.5319  0.0707 -0.1597
17355SOL    HW153506   1.006   3.603   3.126 -2.1427  1.0540  0.4481
17355SOL    HW253507   1.052   3.694   3.237 -0.5742 -0.1498  0.8156
17356SOL     OW53508   5.839   7.755   4.490  0.0538  0.3205  0.0398
17356SOL    HW153509   5.891   7.801   4.423 -1.5076  1.1821 -0.6546
17356SOL    HW253510   5.819   7.670   4.450 -0.0130  0.4346 -0.1760
17357SOL     OW53511   1.498   1.248   9.861  0.8275 -0.0287  0.1474
17357SOL    HW153512   1.465   1.196   9.789 -2.1601  1.1237  0.5443
17357SOL    HW253513   1.460   1.208   9.939  1.0319  0.8719  0.7303
17358SOL     OW53514   3.218   2.994  11.108  0.4947 -0.1515 -0.0919
17358SOL    HW153515   3.265   3.035  11.036  1.2095  1.5662  1.2854
17358SOL    HW253516   3.126   3.001  11.083  0.7756 -1.0359 -1.5278
17359SOL     OW53517   5.226   0.749   8.622 -0.4125 -0.1249  0.1382
17359SOL    HW153518   5.181   0.801   8.555  1.8614 -0.3114 -1.6466
17359SOL    HW253519   5.217   0.659   8.592 -0.4103 -0.3336  0.7578
17360SOL     OW53520   0.457   7.562   2.781 -0.0905  0.0838 -0.0795
17360SOL    HW153521   0.485   7.511   2.857 -0.2295  0.4861  0.2447
17360SOL    HW253522   0.531   7.555   2.719  0.1031 -0.0815  0.1697
17361SOL     OW53523   2.547   6.416   7.200  0.9253 -0.2751 -0.2850
17361SOL    HW153524   2.465   6.422   7.151  1.3778  2.1945 -0.8763
17361SOL    HW253525   2.596   6.346   7.158 -0.5488 -1.2524 -0.4227
17362SOL     OW53526   7.292   7.893   8.327  0.6016  0.2729  0.2905
17362SOL    HW153527   7.292   7.812   8.277  2.4278  1.0188 -1.0430
17362SOL    HW253528   7.329   7.870   8.412  0.5818 -0.3893  0.1206
17363SOL     OW53529   4.748   5.507   6.085  0.0495 -0.1905  0.4629
17363SOL    HW153530   4.740   5.456   6.004 -1.3424  1.5495 -0.5533
17363SOL    HW253531   4.821   5.465   6.131 -1.5377 -3.6825  0.1622
17364SOL     OW53532   2.448   7.315   6.646  0.2518  0.0580  0.3304
17364SOL    HW153533   2.466   7.280   6.559  1.2527 -2.7223  1.5320
17364SOL    HW253534   2.353   7.309   6.655  0.1131  0.5998 -0.6247
17365SOL     OW53535   7.515   5.136  10.309  0.9800 -0.4614  0.1854
17365SOL    HW153536   7.423   5.152  10.331  1.4402 -0.6429  2.4282
17365SOL    HW253537   7.540   5.060  10.361  2.4733 -0.2843 -0.2138
17366SOL     OW53538   2.720   5.036   5.596  0.3265  0.2244 -0.0754
17366SOL    HW153539   2.765   4.971   5.544 -2.0094 -2.1892  0.7094
17366SOL    HW253540   2.789   5.095   5.626  2.1331  0.0098 -3.3413
17367SOL     OW53541   5.439   1.389   0.157  0.4477 -0.0611 -0.1312
17367SOL    HW153542   5.452   1.446   0.232 -0.3037  0.5875 -0.4912
17367SOL    HW253543   5.520   1.337   0.153  1.4009  1.3612 -0.1432
17368SOL     OW53544   7.719   5.125   4.046  0.5748  0.2126 -0.1301
17368SOL    HW153545   7.654   5.178   3.999  1.2698  0.4289 -0.8527
17368SOL    HW253546   7.771   5.083   3.977  0.7960 -0.4704  0.4425
17369SOL     OW53547   7.592   7.578  10.718 -0.2921  0.4409  0.0251
17369SOL    HW153548   7.524   7.610  10.657  0.0702  1.0221 -0.0809
17369SOL    HW253549   7.622   7.496  10.678 -0.0975  0.7867 -0.5555
17370SOL     OW53550   4.859   7.019   4.442  0.5210 -0.3667 -0.1210
17370SOL    HW153551   4.884   6.926   4.443 -1.1812 -0.8738  0.0368
17370SOL    HW253552   4.898   7.055   4.521  2.7180 -0.4791 -1.1053
17371SOL     OW53553   5.421   4.919   3.192 -0.1485 -0.9151 -0.4452
17371SOL    HW153554   5.397   4.830   3.217 -3.0473 -0.2831 -0.6933
17371SOL    HW253555   5.443   4.962   3.275 -0.5067 -1.3704 -0.1098
17372SOL     OW53556   4.523   1.868  10.827 -0.6922 -0.4525  0.7125
17372SOL    HW153557   4.589   1.927  10.863 -2.7355  3.0977 -0.8946
17372SOL    HW253558   4.447   1.879  10.884 -0.9157 -2.2295  0.8239
17373SOL     OW53559   7.663   6.276   8.666  0.0820 -0.5367  0.1284
17373SOL    HW153560   7.584   6.273   8.719 -1.2672  2.2847 -1.4901
17373SOL    HW253561   7.724   6.329   8.717  0.5452 -1.6891  0.8242
17374SOL     OW53562   4.381   6.084   8.250  0.3121  0.7544 -0.2028
17374SOL    HW153563   4.452   6.082   8.186  0.9055 -1.5023  0.4535
17374SOL    HW253564   4.301   6.083   8.198  0.7574 -2.9357 -1.0296
17375SOL     OW53565   3.519   7.310   9.200  0.3557  0.5613  0.3252
17375SOL    HW153566   3.568   7.291   9.120  1.0920  0.6836  0.7347
17375SOL    HW253567   3.491   7.401   9.190 -1.0993  0.0506 -0.5713
17376SOL     OW53568   1.374   3.821   3.885  0.3576  0.4347  0.2212
17376SOL    HW153569   1.440   3.888   3.868  0.4753  0.3104  0.1890
17376SOL    HW253570   1.383   3.759   3.813  1.8128 -0.8445  1.4284
17377SOL     OW53571   5.684   2.003   7.593 -0.0338 -0.2357 -0.0286
17377SOL    HW153572   5.671   2.091   7.627 -0.0950  0.1282 -0.9755
17377SOL    HW253573   5.647   1.946   7.660  0.1717  0.4469  0.6747
17378SOL     OW53574   3.162   0.457   2.150 -0.3313  0.2098 -0.4298
17378SOL    HW153575   3.214   0.519   2.201 -0.1471  0.0469 -0.4191
17378SOL    HW253576   3.078   0.454   2.194 -0.5720  0.9720 -0.8230
17379SOL     OW53577   5.836   5.641  11.676  0.1691  0.0453  0.0506
17379SOL    HW153578   5.905   5.670  11.736  0.4781 -1.8208  0.6680
17379SOL    HW253579   5.882   5.613  11.597 -0.0732  0.6787 -0.3216
17380SOL     OW53580   5.080   4.019   9.407 -0.2412 -0.3000  0.3676
17380SOL    HW153581   5.019   3.971   9.463  0.3017 -0.7449  0.5833
17380SOL    HW253582   5.040   4.106   9.398 -0.0724 -0.0345  1.8856
17381SOL     OW53583   5.790   3.342   9.615  0.1919 -0.1754  0.1464
17381SOL    HW153584   5.752   3.318   9.700 -1.2651  2.6366  0.4185
17381SOL    HW253585   5.716   3.340   9.554  0.0933  2.5393  0.0574
17382SOL     OW53586   6.392   7.711   4.586  0.0668  0.0960  0.3365
17382SOL    HW153587   6.323   7.775   4.603 -1.1250 -1.1293  0.3569
17382SOL    HW253588   6.411   7.720   4.493 -0.8383 -0.1960  0.1085
17383SOL     OW53589   2.796   4.225   3.495 -0.3630  0.1474 -0.0467
17383SOL    HW153590   2.732   4.182   3.553 -3.1466  2.5502 -1.0822
17383SOL    HW253591   2.858   4.267   3.555 -1.2493 -0.1355  1.1080
17384SOL     OW53592   1.921   2.486   2.037  0.0589  0.3856  0.0250
17384SOL    HW153593   1.989   2.534   1.990 -1.2426  1.4432 -0.8355
17384SOL    HW253594   1.872   2.440   1.969 -0.8556  0.6283  0.5078
17385SOL     OW53595   7.477   4.521   1.592 -0.3101  0.2434  0.2469
17385SOL    HW153596   7.519   4.599   1.628 -1.2137  1.2038 -0.6998
17385SOL    HW253597   7.441   4.476   1.668  1.2059  0.1150  0.9290
17386SOL     OW53598   1.901   1.842   3.421 -0.0581  0.2009  0.2476
17386SOL    HW153599   1.936   1.883   3.342  0.2712 -0.2196  0.1740
17386SOL    HW253600   1.888   1.916   3.482 -0.6436  0.5674 -0.3105
17387SOL     OW53601   4.441   0.556  12.308  0.4915 -0.2014  0.3928
17387SOL    HW153602   4.528   0.544  12.345  0.6460 -1.3693 -0.2839
17387SOL    HW253603   4.455   0.615  12.234  0.7826 -0.6835  0.0567
17388SOL     OW53604   3.908   7.031   3.507 -0.3239  0.3431 -0.7721
17388SOL    HW153605   3.933   6.999   3.420 -0.9269 -2.1569 -0.1102
17388SOL    HW253606   3.950   6.970   3.568 -0.9539  1.2719  0.6474
17389SOL     OW53607   4.995   0.896   4.289  0.0294  0.0074  0.3363
17389SOL    HW153608   4.932   0.828   4.263 -1.5385  1.1798  0.9036
17389SOL    HW253609   4.976   0.970   4.231  1.3356  0.1867  0.0970
17390SOL     OW53610   3.898   3.334   2.411 -0.1045  0.6364 -0.3043
17390SOL    HW153611   3.898   3.315   2.317 -0.6418  0.1277 -0.2113
17390SOL    HW253612   3.827   3.280   2.445  0.8344 -0.0682  0.5746
17391SOL     OW53613   7.023   3.673   2.750 -0.2999  0.0443  0.4315
17391SOL    HW153614   6.931   3.698   2.742 -0.0278  0.4481 -4.2472
17391SOL    HW253615   7.068   3.753   2.775 -0.9012  0.6798 -0.4837
17392SOL     OW53616   1.579   6.290  10.197  0.0593  0.3315  0.2127
17392SOL    HW153617   1.585   6.323  10.287 -0.2081 -0.1932  0.4279
17392SOL    HW253618   1.621   6.358  10.144  0.5378  0.4806  0.7713
17393SOL     OW53619   2.665   6.789   5.143 -0.5096 -0.2279  0.3759
17393SOL    HW153620   2.631   6.867   5.187 -2.6955 -0.7181 -0.3321
17393SOL    HW253621   2.689   6.819   5.055 -2.1937 -0.4737 -0.2021
17394SOL     OW53622   1.927   6.543  10.959  0.0015  0.1331 -0.4446
17394SOL    HW153623   1.975   6.603  11.015 -0.5652 -0.3889  0.6213
17394SOL    HW253624   1.885   6.481  11.019 -0.3252 -0.6641 -1.4563
17395SOL     OW53625   6.320   6.339   0.585  0.1607  0.1713  0.4078
17395SOL    HW153626   6.382   6.272   0.615 -1.4607 -1.0762  1.1572
17395SOL    HW253627   6.302   6.317   0.494 -0.5249 -0.5747  0.7119
17396SOL     OW53628   1.485   5.594   7.274  0.6966 -0.2296  0.5578
17396SOL    HW153629   1.512   5.624   7.188 -0.4117 -3.1961 -0.9547
17396SOL    HW253630   1.392   5.618   7.279  0.9837  0.8214  1.4296
17397SOL     OW53631   1.814   0.400   7.462 -0.1400  0.2125 -0.2192
17397SOL    HW153632   1.878   0.365   7.401 -0.1973 -1.2162  0.5044
17397SOL    HW253633   1.742   0.338   7.461 -2.1335  2.3567 -1.8867
17398SOL     OW53634   7.896   1.204   8.280  0.6391  0.6654  0.2715
17398SOL    HW153635   7.968   1.168   8.228 -0.1040  0.1700 -0.4355
17398SOL    HW253636   7.822   1.208   8.220 -0.0539  0.7550  1.1016
17399SOL     OW53637   2.561   7.021   7.398  0.1949  0.3244  0.5431
17399SOL    HW153638   2.523   7.090   7.345  0.4468 -0.4009 -0.6168
17399SOL    HW253639   2.648   7.006   7.360  0.3713 -0.2373  1.1359
17400SOL     OW53640   2.408   4.393   1.758  0.2419 -0.4099 -0.2260
17400SOL    HW153641   2.477   4.341   1.717  0.3784 -0.1232 -0.3591
17400SOL    HW253642   2.404   4.474   1.707  0.4778 -0.0096  0.3752
17401SOL     OW53643   7.938   4.757   5.572 -0.1976 -0.0613  0.1785
17401SOL    HW153644   7.872   4.697   5.539  0.2556 -0.4491 -0.0269
17401SOL    HW253645   7.888   4.835   5.598 -0.7795 -0.4909  0.3843
17402SOL     OW53646   7.783   6.457   9.900  0.0629 -0.8990  0.0272
17402SOL    HW153647   7.809   6.367   9.880  1.2410 -0.6820  0.4775
17402SOL    HW253648   7.727   6.448   9.977  0.1460 -1.2581  0.0510
17403SOL     OW53649   7.474   0.058  10.722 -0.3913 -0.4490  0.2664
17403SOL    HW153650   7.417   0.109  10.780  0.0071 -1.6907  1.8125
17403SOL    HW253651   7.476   0.108  10.641 -1.3795  1.0960  1.1429
17404SOL     OW53652   3.732   7.908   3.809  0.0741  0.1892 -0.5223
17404SOL    HW153653   3.767   7.995   3.830 -0.8316  0.5150 -0.2893
17404SOL    HW253654   3.801   7.847   3.835 -0.0863  0.7203  1.3106
17405SOL     OW53655   0.433   5.882   6.064 -0.5969  0.3279  0.3176
17405SOL    HW153656   0.381   5.802   6.074 -1.5802  1.0334  0.9211
17405SOL    HW253657   0.524   5.852   6.074 -0.9432 -0.7142  0.5175
17406SOL     OW53658   0.951   5.885   6.677 -0.0652 -0.1471 -0.0688
17406SOL    HW153659   0.929   5.816   6.614 -2.0668  1.0837 -0.8100
17406SOL    HW253660   1.030   5.925   6.641  0.0887 -0.8919 -0.5948
17407SOL     OW53661   2.118   0.000   4.793  0.0702 -0.2750 -0.3658
17407SOL    HW153662   2.130  -0.077   4.738 -1.7541  0.0658 -1.3083
17407SOL    HW253663   2.102   0.071   4.731 -0.6428  0.3951  0.5536
17408SOL     OW53664   6.723   6.847  10.337  0.3157 -0.1142  0.7658
17408SOL    HW153665   6.795   6.828  10.398  0.3377 -0.6427  0.5875
17408SOL    HW253666   6.746   6.797  10.259 -0.2832 -0.3394  0.7352
17409SOL     OW53667   0.553   5.664  10.225  0.0469  0.3139  0.2201
17409SOL    HW153668   0.519   5.752  10.239 -0.9191 -0.1896  1.2500
17409SOL    HW253669   0.477   5.612  10.200  0.4654 -0.3816  0.3525
17410SOL     OW53670   0.006   1.011   2.517 -0.5839  0.3947  0.2182
17410SOL    HW153671   0.010   1.100   2.552  0.2066  0.8685 -1.0113
17410SOL    HW253672  -0.050   0.964   2.579 -1.6809  1.9389  0.4618
17411SOL     OW53673   3.828   3.719   2.511 -0.3741  0.8802  0.4263
17411SOL    HW153674   3.868   3.799   2.476  1.3453 -0.4389 -0.8200
17411SOL    HW253675   3.898   3.654   2.508 -2.1956 -1.1859 -0.4514
17412SOL     OW53676   5.018   0.560   6.401  0.4797  0.1040  0.3031
17412SOL    HW153677   4.934   0.585   6.363 -0.6605 -1.7460  1.4566
17412SOL    HW253678   5.077   0.633   6.378 -1.1575  1.0178 -1.3323
17413SOL     OW53679   3.899   0.780   0.902 -0.1655  0.5641 -0.0173
17413SOL    HW153680   3.957   0.704   0.891 -0.9008  0.1432 -1.1280
17413SOL    HW253681   3.845   0.758   0.977  1.3109  1.1042  1.2523
17414SOL     OW53682   0.358   1.078   1.089  0.2866 -0.1139  0.0655
17414SOL    HW153683   0.379   1.171   1.084 -0.0314 -0.1052 -1.2711
17414SOL    HW253684   0.374   1.044   1.001 -0.4236 -1.1492  0.3148
17415SOL     OW53685   2.737   6.956   6.512 -0.2574 -0.3573 -0.5153
17415SOL    HW153686   2.777   7.029   6.558 -0.2262 -0.0699 -0.9882
17415SOL    HW253687   2.712   6.895   6.581  1.9112 -1.0196 -0.2388
17416SOL     OW53688   0.122   3.145  11.535  0.3996  0.3286  0.0635
17416SOL    HW153689   0.065   3.068  11.543  0.4958  0.3133  0.6773
17416SOL    HW253690   0.177   3.142  11.613  1.6662  0.0133 -0.8144
17417SOL     OW53691   3.240   4.987   1.236  0.2991 -0.0115  0.1069
17417SOL    HW153692   3.240   4.892   1.231 -0.3830  0.0662 -3.0474
17417SOL    HW253693   3.333   5.010   1.245  0.3300 -0.9192  3.4874
17418SOL     OW53694   3.658   1.708   9.629 -0.3768 -0.1367 -0.2057
17418SOL    HW153695   3.696   1.621   9.644  1.1596  0.3997 -0.7719
17418SOL    HW253696   3.629   1.705   9.538 -2.1681 -0.6805  0.3384
17419SOL     OW53697   7.489   0.249  10.514 -0.1695  0.4599 -0.1073
17419SOL    HW153698   7.473   0.343  10.503  1.5891  0.5807 -2.6062
17419SOL    HW253699   7.431   0.207  10.450  1.7860  0.2140 -1.8298
17420SOL     OW53700   5.125   0.167   6.912 -0.1379 -0.3259  0.2027
17420SOL    HW153701   5.052   0.221   6.883  0.6286  0.4566 -0.2973
17420SOL    HW253702   5.083   0.097   6.963 -1.3079 -0.3543 -0.7353
17421SOL     OW53703   6.246   7.021   0.502 -0.3448  0.2907  0.0019
17421SOL    HW153704   6.203   7.106   0.517  0.9121  1.3554 -1.9087
17421SOL    HW253705   6.196   6.959   0.554 -2.2518  1.9647  0.2951
17422SOL     OW53706   4.493   1.213   1.641  0.1384 -0.0113  0.0055
17422SOL    HW153707   4.530   1.211   1.553 -2.4476  3.3656 -1.4009
17422SOL    HW253708   4.478   1.121   1.663  2.2701 -1.0593 -2.3560
17423SOL     OW53709   7.952   1.245   7.097  0.7496 -0.0815  0.0787
17423SOL    HW153710   7.936   1.294   7.177  2.6967 -1.7217  1.5680
17423SOL    HW253711   7.991   1.162   7.126 -0.9601 -1.9120 -2.4022
17424SOL     OW53712   2.553   7.613   5.954 -0.3087  0.9000  0.0096
17424SOL    HW153713   2.525   7.695   5.994  0.8643  0.9724  0.7262
17424SOL    HW253714   2.515   7.545   6.010 -0.8848  0.9508 -0.3113
17425SOL     OW53715   0.375   4.251   1.302  0.0678  0.7251  0.3878
17425SOL    HW153716   0.345   4.307   1.229  1.2200  1.3234  0.3476
17425SOL    HW253717   0.348   4.163   1.277  2.7836  0.4303 -2.1915
17426SOL     OW53718   0.611   4.854   9.392  0.2633  0.2605 -0.1766
17426SOL    HW153719   0.601   4.768   9.434 -0.1774  0.1973 -0.4069
17426SOL    HW253720   0.703   4.857   9.365 -0.1517 -0.9556 -1.9081
17427SOL     OW53721   3.054   4.239  11.700 -0.8289 -0.1415  0.5791
17427SOL    HW153722   3.097   4.227  11.615 -1.9069  2.2137 -0.4040
17427SOL    HW253723   2.979   4.180  11.697 -0.2661 -0.8616  0.3646
17428SOL     OW53724   7.434   5.243   6.404  0.2494  0.3488  0.2994
17428SOL    HW153725   7.411   5.264   6.313 -0.9784 -1.6089  0.0894
17428SOL    HW253726   7.363   5.280   6.456  0.1019  0.0918  0.2866
17429SOL     OW53727   1.049   4.392   8.790 -0.2868 -0.1684 -0.8570
17429SOL    HW153728   0.968   4.342   8.783 -0.3177 -0.1943 -0.3519
17429SOL    HW253729   1.064   4.400   8.884 -1.0301  1.9891 -0.8650
17430SOL     OW53730   5.359   6.990   4.307  0.8091  0.7522  0.2418
17430SOL    HW153731   5.273   7.003   4.267  0.8192  1.0254  0.3112
17430SOL    HW253732   5.406   6.934   4.245 -0.1039 -1.0654  1.1259
17431SOL     OW53733   0.939   2.624   2.806  0.1070 -0.3473  0.0304
17431SOL    HW153734   0.854   2.580   2.791  1.1001 -2.1846 -0.5663
17431SOL    HW253735   0.944   2.635   2.901 -0.3252 -1.2715  0.1734
17432SOL     OW53736   6.264   0.300   2.469  0.5302 -0.4404 -0.3667
17432SOL    HW153737   6.288   0.239   2.400  3.1528 -0.4378  0.4584
17432SOL    HW253738   6.334   0.365   2.470  0.2557 -0.0983  1.8996
17433SOL     OW53739   0.763   3.248   1.853  0.2315  0.1256 -0.2352
17433SOL    HW153740   0.694   3.308   1.880 -0.1539 -0.5829  0.4280
17433SOL    HW253741   0.845   3.293   1.875 -0.0571  0.2267  0.6553
17434SOL     OW53742   3.084   1.166   2.052  0.0698  0.5926 -0.0230
17434SOL    HW153743   3.157   1.132   1.999  0.4020  0.8405  0.2752
17434SOL    HW253744   3.007   1.120   2.018  0.4867 -0.3332  0.2533
17435SOL     OW53745   3.325   0.751   4.366 -0.0098 -0.1783 -0.9008
17435SOL    HW153746   3.246   0.800   4.387 -0.7007 -1.9578  0.9446
17435SOL    HW253747   3.293   0.676   4.316  0.6453 -0.4030 -0.9868
17436SOL     OW53748   0.371   5.883  10.209  0.2005 -0.0881 -0.0927
17436SOL    HW153749   0.334   5.861  10.123 -0.2246 -0.5005  0.1945
17436SOL    HW253750   0.360   5.978  10.216 -0.2769 -0.1298 -0.2523
17437SOL     OW53751   1.324   5.431   7.925 -0.1449 -0.3495 -0.4137
17437SOL    HW153752   1.291   5.472   7.845  0.1864 -0.0801 -0.4162
17437SOL    HW253753   1.394   5.374   7.895 -0.1799 -0.4294 -0.3429
17438SOL     OW53754   7.600   0.996   7.460 -1.0844 -0.3942  0.5892
17438SOL    HW153755   7.638   0.994   7.548 -0.6141  0.0820  0.3969
17438SOL    HW253756   7.650   0.931   7.411  0.5141  1.2573 -0.0703
17439SOL     OW53757   4.138   2.915   0.038 -0.3222  0.1390 -0.4574
17439SOL    HW153758   4.067   2.853   0.053 -0.1730  0.2250  0.7733
17439SOL    HW253759   4.095   3.001   0.038 -0.1506  0.2559  1.1285
17440SOL     OW53760   4.091   5.383   7.551  0.0793  0.2495  0.7439
17440SOL    HW153761   3.999   5.410   7.556  0.1991  0.4807  1.9816
17440SOL    HW253762   4.095   5.325   7.475 -0.6464  1.9497 -0.6730
17441SOL     OW53763   5.167   1.858  10.328 -0.3753  0.1280  0.1415
17441SOL    HW153764   5.218   1.860  10.409  0.1527  2.0993 -0.1689
17441SOL    HW253765   5.076   1.864  10.357 -0.3559 -1.6241  0.6415
17442SOL     OW53766   5.270   0.962   4.838  0.2827 -0.1679  0.0538
17442SOL    HW153767   5.305   0.987   4.924  0.3418  0.6406 -0.1979
17442SOL    HW253768   5.340   0.983   4.777  0.3690 -1.0629 -0.1571
17443SOL     OW53769   0.604   6.467  10.031  0.0150 -0.5991 -0.1415
17443SOL    HW153770   0.646   6.536   9.980  0.8183 -1.0681 -0.1317
17443SOL    HW253771   0.676   6.411  10.059 -0.7151 -1.9854 -0.9441
17444SOL     OW53772   1.629   7.141   5.324  0.5448 -0.3096  0.4031
17444SOL    HW153773   1.712   7.109   5.290 -0.5117 -1.5482 -1.2227
17444SOL    HW253774   1.595   7.196   5.254 -0.8809 -1.4504  0.1416
17445SOL     OW53775   2.369   3.225  11.352 -0.2287  0.5902  0.0549
17445SOL    HW153776   2.385   3.302  11.406  0.8173  0.3544  0.1093
17445SOL    HW253777   2.453   3.180  11.350 -0.7586 -0.4181 -0.1838
17446SOL     OW53778   4.799   3.399   6.296 -0.2366 -0.4751 -0.1041
17446SOL    HW153779   4.736   3.455   6.341  1.7767  1.1074  0.8922
17446SOL    HW253780   4.794   3.426   6.205 -0.7964 -0.1989  0.0016
17447SOL     OW53781   7.240   4.289   0.728  0.0091 -0.1416  0.3535
17447SOL    HW153782   7.168   4.287   0.791 -0.0215 -2.6326  0.3404
17447SOL    HW253783   7.198   4.290   0.643 -0.0076 -0.2173  0.3604
17448SOL     OW53784   0.957   5.410   1.914  0.2232 -0.0496  0.4131
17448SOL    HW153785   1.044   5.438   1.884 -0.2495  0.1876 -0.7992
17448SOL    HW253786   0.896   5.463   1.862 -0.6515  0.5087  1.9458
17449SOL     OW53787   7.202   4.750   2.392  0.1300 -0.0935 -0.7057
17449SOL    HW153788   7.113   4.714   2.388  0.2595 -0.6851  1.1576
17449SOL    HW253789   7.258   4.678   2.365  0.2095 -0.5546  0.6355
17450SOL     OW53790   6.348   3.453   9.318  0.4161  0.0117 -0.2284
17450SOL    HW153791   6.273   3.394   9.312 -0.3284  0.7691  1.1231
17450SOL    HW253792   6.330   3.522   9.254 -0.1877  0.3317  0.2769
17451SOL     OW53793   3.908   1.787   7.762  0.2021 -0.1102 -0.0235
17451SOL    HW153794   3.906   1.797   7.858 -1.2448 -0.0251 -0.0465
17451SOL    HW253795   3.993   1.745   7.745  0.5596  0.0130  1.2741
17452SOL     OW53796   1.287   6.794   5.599  0.0708 -0.5155 -0.1056
17452SOL    HW153797   1.352   6.849   5.555  0.8288 -0.1380  1.4095
17452SOL    HW253798   1.337   6.718   5.629 -0.3714 -0.6456  0.3108
17453SOL     OW53799   4.912   2.015   3.950 -0.1937 -0.3654  0.0447
17453SOL    HW153800   4.835   1.959   3.950  0.2177 -0.9702  1.2774
17453SOL    HW253801   4.962   1.988   3.872 -1.6178  0.6528 -1.2745
17454SOL     OW53802   4.603   1.398   3.149  0.7371 -0.2742 -0.2748
17454SOL    HW153803   4.689   1.406   3.192  1.0740 -0.8688 -0.8192
17454SOL    HW253804   4.605   1.464   3.080  0.0742  0.8955  0.7872
17455SOL     OW53805   6.590   3.074  11.162 -0.1715 -0.1241 -0.3494
17455SOL    HW153806   6.510   3.119  11.189  0.3685 -0.1692  1.4216
17455SOL    HW253807   6.627   3.039  11.243  1.4942 -0.3588 -1.1634
17456SOL     OW53808   5.788   7.443   4.760 -0.2299  0.5822  0.2726
17456SOL    HW153809   5.730   7.438   4.836 -0.7880 -0.8005 -0.2091
17456SOL    HW253810   5.739   7.398   4.690 -0.3603  2.9805 -1.3241
17457SOL     OW53811   7.126   7.690   4.900  0.3263 -0.1986 -0.8014
17457SOL    HW153812   7.120   7.777   4.858 -1.8966 -0.1404 -0.4811
17457SOL    HW253813   7.218   7.683   4.926  0.4781  2.2683 -0.4121
17458SOL     OW53814   0.602   3.526   3.992  0.8456 -0.2919 -0.1715
17458SOL    HW153815   0.618   3.578   4.071 -0.0379 -1.7358  1.0095
17458SOL    HW253816   0.544   3.580   3.938  2.1797  1.0919 -0.2851
17459SOL     OW53817   5.376   1.030   9.946 -0.1214  0.4524  0.0578
17459SOL    HW153818   5.306   0.991   9.999  0.0280  0.6631  0.4149
17459SOL    HW253819   5.446   1.048  10.008  1.4403 -2.4028 -0.7450
17460SOL     OW53820   6.704   2.858   3.242 -0.3156  0.5803 -0.0629
17460SOL    HW153821   6.724   2.914   3.317 -0.2167  0.1503  0.2296
17460SOL    HW253822   6.611   2.837   3.252 -0.0890 -0.1988  0.4182
17461SOL     OW53823   1.193   7.974  10.675  0.0586  0.0202  0.7458
17461SOL    HW153824   1.138   7.969  10.753 -0.4395 -0.9024  0.3538
17461SOL    HW253825   1.242   8.055  10.685 -1.6720  1.1105  0.9177
17462SOL     OW53826   2.855   1.328   7.850 -0.2461  0.3178 -0.7628
17462SOL    HW153827   2.913   1.381   7.795  1.6039 -0.6910  0.1440
17462SOL    HW253828   2.902   1.246   7.863 -0.8347  0.3324  1.9029
17463SOL     OW53829   2.192   6.402   8.345  0.4192  0.8655  0.3418
17463SOL    HW153830   2.199   6.340   8.417  2.1593  1.6252  0.8911
17463SOL    HW253831   2.249   6.366   8.277  1.7558  1.9941  0.8124
17464SOL     OW53832   5.401   6.823  11.941  0.6744 -0.1740 -0.1511
17464SOL    HW153833   5.369   6.800  12.028 -0.9562 -0.8131 -0.8779
17464SOL    HW253834   5.460   6.897  11.956 -1.5523  1.4454  1.2616
17465SOL     OW53835   7.026   6.546   6.016 -0.3897  0.0331 -0.0150
17465SOL    HW153836   7.037   6.617   6.080 -1.2797 -1.3499  1.7596
17465SOL    HW253837   7.112   6.536   5.975 -0.1228  1.7897  0.0464
17466SOL     OW53838   0.138   3.921   8.977  0.1291 -0.3972  0.7075
17466SOL    HW153839   0.196   3.947   9.048 -1.1472  1.2408  1.2163
17466SOL    HW253840   0.085   3.999   8.960 -1.2232 -1.5155 -0.4181
17467SOL     OW53841   4.881   4.100   3.585 -0.5533 -0.4866 -0.1140
17467SOL    HW153842   4.897   4.015   3.543 -0.1096 -0.9080  0.8875
17467SOL    HW253843   4.843   4.154   3.515 -2.5551 -2.0415 -0.3364
17468SOL     OW53844   4.900   0.237   5.400  0.3901  0.1541 -0.3383
17468SOL    HW153845   4.904   0.320   5.447  1.2070  0.2693 -0.5883
17468SOL    HW253846   4.887   0.171   5.468  0.9378  0.3800 -0.0055
17469SOL     OW53847   7.824   6.406   6.792  0.6162 -0.6359  0.3669
17469SOL    HW153848   7.836   6.498   6.818 -1.0270 -0.1298 -0.5166
17469SOL    HW253849   7.879   6.397   6.713 -1.5681  0.5677 -1.4226
17470SOL     OW53850   2.029   1.335   2.925  0.3892 -0.0855  0.1192
17470SOL    HW153851   1.959   1.397   2.907  0.6874 -0.3609 -2.4248
17470SOL    HW253852   2.077   1.330   2.843  3.1589 -0.2344  1.6247
17471SOL     OW53853   0.163   7.559   3.456 -0.3181  0.0688 -0.1323
17471SOL    HW153854   0.111   7.639   3.441 -1.3631 -0.3763  0.9525
17471SOL    HW253855   0.126   7.495   3.395 -0.3610  0.0427 -0.0790
17472SOL     OW53856   3.233   7.815   5.056 -0.1457 -0.3124 -0.7451
17472SOL    HW153857   3.328   7.822   5.047  0.0084 -2.6846 -1.8212
17472SOL    HW253858   3.219   7.794   5.148  0.2382  1.2451 -0.3064
17473SOL     OW53859   1.903   6.663  12.084 -0.3096 -0.5147  0.1572
17473SOL    HW153860   1.880   6.752  12.058 -3.2133 -1.3850 -0.6408
17473SOL    HW253861   1.928   6.619  12.003  0.0553 -0.7021  0.3696
17474SOL     OW53862   1.550   5.162   7.565  0.2770 -0.2454 -0.2456
17474SOL    HW153863   1.457   5.142   7.554 -0.3211  1.5309  1.2158
17474SOL    HW253864   1.569   5.228   7.499  0.1752  0.3212  0.2883
17475SOL     OW53865   1.903   4.059   4.357  0.9421 -0.0784  0.0741
17475SOL    HW153866   1.909   3.997   4.284 -3.0813 -0.2798 -0.3282
17475SOL    HW253867   1.906   4.004   4.436 -0.1448 -0.5513 -0.1947
17476SOL     OW53868   1.310   1.743   7.067  0.4454  0.1983 -0.1169
17476SOL    HW153869   1.385   1.784   7.024  0.4401 -1.3867 -1.7741
17476SOL    HW253870   1.349   1.672   7.118  0.1303 -0.3813 -0.6670
17477SOL     OW53871   1.014   5.578   4.827 -0.6715 -0.2873  0.5207
17477SOL    HW153872   0.959   5.542   4.896 -2.2131 -0.2132 -0.6339
17477SOL    HW253873   1.085   5.513   4.817 -0.4301 -0.3022  2.1177
17478SOL     OW53874   6.713   5.632   6.538  0.6009 -0.2122  0.2358
17478SOL    HW153875   6.776   5.689   6.583  0.6027  1.7062 -2.0188
17478SOL    HW253876   6.652   5.605   6.606  1.7798  0.8536  1.7775
17479SOL     OW53877   6.606   5.220   5.232  0.4959  0.0941  0.2457
17479SOL    HW153878   6.637   5.129   5.229 -1.2300 -0.6650  2.5496
17479SOL    HW253879   6.538   5.224   5.166  0.2464 -0.4640  0.4568
17480SOL     OW53880   0.471   6.492   5.675 -0.4119  0.3686  0.1330
17480SOL    HW153881   0.394   6.525   5.722  1.5058  1.5404  2.6175
17480SOL    HW253882   0.499   6.566   5.620 -0.0350  0.5558  0.5757
17481SOL     OW53883   6.976   1.384   2.770 -0.4897 -0.2218 -0.0930
17481SOL    HW153884   6.917   1.320   2.730 -0.7325 -0.4911  0.6830
17481SOL    HW253885   7.050   1.388   2.709 -1.5952  0.6420 -1.4467
17482SOL     OW53886   3.605   2.628   9.898  0.2824 -0.0680 -0.2007
17482SOL    HW153887   3.648   2.711   9.919  0.8991 -0.2961 -0.5162
17482SOL    HW253888   3.592   2.632   9.803 -1.0584  0.2975 -0.0200
17483SOL     OW53889   0.409   6.117   5.331 -0.1830 -0.3783  0.1370
17483SOL    HW153890   0.488   6.131   5.278 -1.9351 -1.8430 -3.1690
17483SOL    HW253891   0.400   6.021   5.334 -2.6773 -0.2629 -1.1480
17484SOL     OW53892   4.191   7.650   8.103 -0.2296  0.2252  0.1698
17484SOL    HW153893   4.150   7.658   8.189 -1.3918  0.2146 -0.3712
17484SOL    HW253894   4.125   7.609   8.048  0.6820 -0.2337 -0.6204
17485SOL     OW53895   7.968   1.531   4.443 -0.2975 -0.3461  0.1782
17485SOL    HW153896   7.995   1.613   4.485 -0.2933 -0.9266  1.3375
17485SOL    HW253897   7.887   1.507   4.488 -1.8537  0.4351 -2.0334
17486SOL     OW53898   3.044   6.127   3.514 -0.1723 -0.3000 -0.1364
17486SOL    HW153899   2.955   6.111   3.544 -0.2654 -2.5088 -1.4037
17486SOL    HW253900   3.033   6.169   3.428 -0.0285 -1.6237 -0.8154
17487SOL     OW53901   6.009   6.517  11.921  0.3706  0.1820 -0.0661
17487SOL    HW153902   6.096   6.478  11.915  0.2256 -0.0143 -0.9853
17487SOL    HW253903   5.990   6.550  11.833 -1.2026 -1.3441 -0.3534
17488SOL     OW53904   2.573   4.862   0.219 -0.6455 -0.1211  0.3239
17488SOL    HW153905   2.649   4.896   0.268 -0.5018  0.4738 -0.2835
17488SOL    HW253906   2.568   4.770   0.244 -0.1775  0.0097  0.9488
17489SOL     OW53907   1.909   7.528   8.280 -0.3729 -0.0667  0.1879
17489SOL    HW153908   1.875   7.512   8.368  0.4706 -0.9943  0.3774
17489SOL    HW253909   2.003   7.544   8.294 -0.4405  0.9310 -0.4417
17490SOL     OW53910   4.122   1.086   5.129  0.4498  0.1888 -0.0000
17490SOL    HW153911   4.139   0.993   5.116 -1.8897 -0.3828  0.5185
17490SOL    HW253912   4.104   1.119   5.040  0.4235 -0.0597 -0.0878
17491SOL     OW53913   0.206   0.507   3.420  0.1776  0.8535 -0.0338
17491SOL    HW153914   0.179   0.595   3.446 -0.6160  0.5761  0.1031
17491SOL    HW253915   0.143   0.449   3.462  0.1728  0.2640 -0.8243
17492SOL     OW53916   0.226   4.584   5.252 -0.2007 -0.1193 -0.1777
17492SOL    HW153917   0.247   4.657   5.310  0.9379 -0.5497 -0.0297
17492SOL    HW253918   0.130   4.584   5.247 -0.2979  0.2463  1.2689
17493SOL     OW53919   6.339   6.180   7.065 -0.5150  0.2583  0.4517
17493SOL    HW153920   6.380   6.178   6.979  1.0468 -1.1681  1.1813
17493SOL    HW253921   6.350   6.270   7.095  0.9990  0.2162  0.0889
17494SOL     OW53922   2.998   5.159   2.322  0.2789 -0.3854 -0.5776
17494SOL    HW153923   2.978   5.236   2.375  1.2184  0.0132 -0.7700
17494SOL    HW253924   2.955   5.176   2.238  0.3536 -0.1449 -0.5673
17495SOL     OW53925   7.663   1.852   4.666  0.0818  0.2215 -0.0382
17495SOL    HW153926   7.577   1.822   4.697  1.0266 -1.9589  0.6298
17495SOL    HW253927   7.660   1.839   4.571  0.0714 -1.0571  0.1157
17496SOL     OW53928   3.776   2.598   5.608  0.6838  0.5854  0.1469
17496SOL    HW153929   3.765   2.575   5.516 -0.0094  1.0731  0.0994
17496SOL    HW253930   3.800   2.691   5.607  0.7038  0.5845  0.4545
17497SOL     OW53931   6.653   3.477   4.228 -0.1035  0.1288  0.5681
17497SOL    HW153932   6.726   3.480   4.290  1.0016 -1.5732 -0.5678
17497SOL    HW253933   6.605   3.398   4.251 -0.4665  0.2093  0.0972
17498SOL     OW53934   7.852   6.378   1.882  0.5478  0.2492  0.4801
17498SOL    HW153935   7.937   6.382   1.840  0.6289 -1.3821  0.4209
17498SOL    HW253936   7.862   6.429   1.963  0.9695  1.7190 -0.4751
17499SOL     OW53937   6.849   1.473   9.270  0.0676  0.3151  0.2919
17499SOL    HW153938   6.863   1.567   9.284  1.2367 -0.0098  1.5057
17499SOL    HW253939   6.759   1.467   9.238 -0.7670  1.7013  2.1632
17500SOL     OW53940   2.965   3.979   1.125 -1.0107  0.1364 -0.0956
17500SOL    HW153941   2.881   4.024   1.127  0.1977  2.5643 -0.6315
17500SOL    HW253942   3.021   4.035   1.072  1.0119 -1.3380  0.3652
17501SOL     OW53943   0.781   3.678   7.865  0.4977 -0.0085  0.2640
17501SOL    HW153944   0.839   3.722   7.927  0.3623 -0.7936  0.9748
17501SOL    HW253945   0.837   3.656   7.791  0.6103  1.1502 -0.0096
17502SOL     OW53946   5.823   7.577   3.091  0.0876 -0.3978  0.4366
17502SOL    HW153947   5.856   7.666   3.104 -0.4616 -0.3161  1.4156
17502SOL    HW253948   5.728   7.587   3.092  0.0008 -0.7656 -1.3131
17503SOL     OW53949   5.380   3.377  11.644 -0.7556  0.4983  0.1504
17503SOL    HW153950   5.428   3.319  11.703 -0.8856  1.9206  1.7623
17503SOL    HW253951   5.447   3.416  11.588 -0.6677 -1.1258 -0.9248
17504SOL     OW53952   0.579   3.811   9.750  0.2074  0.5897 -0.0716
17504SOL    HW153953   0.667   3.816   9.713  0.1509  2.2966 -0.0754
17504SOL    HW253954   0.587   3.752   9.825  1.3811  0.7702 -0.0428
17505SOL     OW53955   0.364   3.968   9.649  0.0234 -0.2481 -0.4412
17505SOL    HW153956   0.338   3.904   9.583 -0.5247 -1.3280  0.7785
17505SOL    HW253957   0.453   3.942   9.674 -0.3369 -0.7856  0.3205
17506SOL     OW53958   1.050   3.166   7.709 -0.2112 -0.6367 -0.6639
17506SOL    HW153959   1.122   3.170   7.772 -0.5388  0.9823 -0.3302
17506SOL    HW253960   0.974   3.140   7.761 -0.2270 -0.5543 -0.6455
17507SOL     OW53961   3.196   5.260   6.706 -0.4023  0.3209  0.5244
17507SOL    HW153962   3.103   5.272   6.725 -0.1394  0.9655  1.4982
17507SOL    HW253963   3.215   5.170   6.731 -0.7678  0.1740  0.2819
17508SOL     OW53964   6.357   2.729   7.005  0.3222 -0.5977  0.4873
17508SOL    HW153965   6.387   2.724   7.096  0.0545  4.9954  1.2406
17508SOL    HW253966   6.262   2.729   7.011  0.2933  1.3094  0.4764
17509SOL     OW53967   0.727   4.167   5.827  0.3074 -0.5789 -0.0243
17509SOL    HW153968   0.694   4.103   5.764 -0.2818 -0.8694  0.5641
17509SOL    HW253969   0.660   4.170   5.896  0.7095  0.0819  0.3519
17510SOL     OW53970   2.926   2.808   1.116 -0.1488 -0.3072  0.1018
17510SOL    HW153971   2.885   2.835   1.034  0.9180  0.0953 -0.3095
17510SOL    HW253972   2.992   2.875   1.134  0.0702 -0.7321  0.9498
17511SOL     OW53973   5.567   7.166  11.191  0.2821  0.2508 -0.1117
17511SOL    HW153974   5.532   7.191  11.105  0.4275 -0.4452 -0.3809
17511SOL    HW253975   5.625   7.091  11.173 -1.8794 -1.7995  0.8989
17512SOL     OW53976   5.301   3.701   1.915 -0.1633 -0.5489  0.2890
17512SOL    HW153977   5.316   3.782   1.866 -2.4263  0.4155  1.0403
17512SOL    HW253978   5.254   3.645   1.855  1.1563 -1.2448 -0.1347
17513SOL     OW53979   5.373   6.335   4.940  0.0493  0.1049  0.0777
17513SOL    HW153980   5.367   6.278   4.863  1.4567 -0.4628  0.3560
17513SOL    HW253981   5.460   6.375   4.932  1.0091 -1.3522  2.2895
17514SOL     OW53982   7.672   6.999  11.959 -0.6439 -0.5044 -0.0097
17514SOL    HW153983   7.759   7.031  11.986 -1.6347  2.3574  0.1718
17514SOL    HW253984   7.666   7.021  11.866 -1.0666 -1.0099 -0.1062
17515SOL     OW53985   2.196   6.757  11.839  0.1376  0.6435 -0.3726
17515SOL    HW153986   2.144   6.834  11.816  0.3069  1.5258  1.8837
17515SOL    HW253987   2.183   6.748  11.934 -0.5199 -2.6052 -0.6687
17516SOL     OW53988   0.453   6.328   4.465 -0.2190  0.0047  0.1614
17516SOL    HW153989   0.465   6.242   4.424 -0.2833 -0.3298  0.8240
17516SOL    HW253990   0.361   6.349   4.451 -0.6308 -0.8042  1.4072
17517SOL     OW53991   7.119   2.684   8.353  0.2310  0.2968 -0.2402
17517SOL    HW153992   7.030   2.658   8.328  0.7837 -1.1837 -0.7739
17517SOL    HW253993   7.171   2.605   8.340  1.5502  1.0231  0.4953
17518SOL     OW53994   0.493   1.584   8.019 -0.6279  0.2783  0.4296
17518SOL    HW153995   0.585   1.557   8.011 -0.6128  0.4285  0.0699
17518SOL    HW253996   0.459   1.531   8.091 -0.5610 -0.6182 -0.1791
17519SOL     OW53997   0.175   2.319   6.424  0.4629 -0.4855  0.4857
17519SOL    HW153998   0.127   2.282   6.498 -0.5690  1.3643  0.8006
17519SOL    HW253999   0.261   2.341   6.460  0.4816 -0.9491  0.7343
17520SOL     OW54000   0.077   4.748   4.884  0.4394 -0.0650 -0.4849
17520SOL    HW154001   0.158   4.767   4.931  1.1022  0.3972 -1.7528
17520SOL    HW254002   0.019   4.821   4.906  1.3585  1.0989 -1.6962
17521SOL     OW54003   7.098   2.090  11.894 -0.0924 -0.0169  0.1178
17521SOL    HW154004   7.193   2.106  11.899 -0.1573  0.4043  0.0482
17521SOL    HW254005   7.088   1.999  11.921  0.3463 -0.0978  0.0221
17522SOL     OW54006   0.117   0.122   8.818  0.3226 -0.5498 -0.6688
17522SOL    HW154007   0.066   0.193   8.858 -0.2929 -1.4328  0.1835
17522SOL    HW254008   0.206   0.156   8.814 -0.1339  0.6434 -1.2198
17523SOL     OW54009   0.035   3.046  10.445  0.0607 -0.3539 -0.2068
17523SOL    HW154010   0.029   3.062  10.351 -0.5607  1.9412  0.1531
17523SOL    HW254011  -0.047   3.080  10.480  0.9915  0.4562  1.3191
17524SOL     OW54012   6.025   5.474   2.874 -0.0249 -0.0212  0.0990
17524SOL    HW154013   6.021   5.564   2.906 -2.8286 -0.8168  2.4170
17524SOL    HW254014   5.991   5.478   2.785  1.2271  1.3200 -0.3625
17525SOL     OW54015   4.934   2.288   3.367 -0.1926 -0.1224  0.1338
17525SOL    HW154016   4.847   2.326   3.382 -1.9469 -3.2955 -1.1930
17525SOL    HW254017   4.940   2.276   3.273  1.0137 -1.4405  0.3425
17526SOL     OW54018   5.109   1.480   3.152 -0.2673  0.3715 -0.0764
17526SOL    HW154019   5.128   1.574   3.155 -2.1413  0.8115 -0.7074
17526SOL    HW254020   5.081   1.464   3.062 -0.4101 -0.6981  0.1488
17527SOL     OW54021   5.484   1.348  10.423 -0.1243  0.0006  0.3165
17527SOL    HW154022   5.467   1.311  10.336  0.8277 -1.4724  0.7193
17527SOL    HW254023   5.400   1.384  10.450  0.2076  3.4562 -2.5040
17528SOL     OW54024   5.361   4.479   5.564  0.4307 -0.0508 -0.0844
17528SOL    HW154025   5.312   4.474   5.647 -0.7373 -0.8956 -0.7841
17528SOL    HW254026   5.445   4.518   5.588 -0.2034  0.5180  1.3481
17529SOL     OW54027   7.488   4.288  11.486  0.1779 -0.0681  0.2104
17529SOL    HW154028   7.570   4.337  11.494  0.2593 -0.3078  0.8269
17529SOL    HW254029   7.426   4.336  11.541  0.2364 -0.6052  0.7556
17530SOL     OW54030   0.670   2.668   4.019 -0.4017 -0.3216 -0.5115
17530SOL    HW154031   0.729   2.627   3.957 -1.3370 -0.1633 -1.5406
17530SOL    HW254032   0.624   2.595   4.061  1.0295 -0.4841  0.8585
17531SOL     OW54033   5.916   6.150   3.692  0.0950  0.6040  0.2914
17531SOL    HW154034   5.950   6.178   3.778  0.8010 -0.4000  0.3672
17531SOL    HW254035   5.867   6.070   3.711 -0.0860  0.6018 -0.1810
17532SOL     OW54036   0.818   5.159   8.247  0.6239  0.0875 -0.5081
17532SOL    HW154037   0.879   5.107   8.196  1.5805  0.6302  0.0571
17532SOL    HW254038   0.861   5.244   8.258 -0.6183  0.8071 -0.8670
17533SOL     OW54039   3.778   4.967   1.848 -0.4253 -0.0503 -0.1344
17533SOL    HW154040   3.726   5.042   1.876  0.5202  0.7157 -0.3699
17533SOL    HW254041   3.810   4.991   1.760  1.3130  0.0542  0.4812
17534SOL     OW54042   6.515   0.292   8.559  0.0415 -0.5071  0.2878
17534SOL    HW154043   6.559   0.360   8.609 -2.2906  0.1711  1.5625
17534SOL    HW254044   6.578   0.219   8.556  1.3005  0.4616  1.8026
17535SOL     OW54045   7.598   5.877   0.881 -0.0536 -0.3860 -0.5362
17535SOL    HW154046   7.567   5.799   0.835 -1.6868 -0.7671  1.1103
17535SOL    HW254047   7.518   5.925   0.904  0.7890  0.5433  0.5739
17536SOL     OW54048   4.207   7.626  10.612  0.0002  0.3294  0.0885
17536SOL    HW154049   4.159   7.692  10.562  0.5306  1.2206  0.7067
17536SOL    HW254050   4.281   7.674  10.650 -0.5284 -0.2207  1.9523
17537SOL     OW54051   0.484   7.570   5.539 -0.4161 -0.1763 -0.1919
17537SOL    HW154052   0.524   7.618   5.466 -1.4855 -0.4319 -0.9603
17537SOL    HW254053   0.391   7.569   5.519 -0.7550 -0.0722  1.2985
17538SOL     OW54054   3.297   7.447   8.012  0.1310  0.2085  0.5856
17538SOL    HW154055   3.334   7.396   7.940 -0.3071 -2.3154  2.0130
17538SOL    HW254056   3.259   7.524   7.970  2.3034  0.2316 -1.5062
17539SOL     OW54057   7.870   5.091   0.237  0.1254  0.5284 -0.3433
17539SOL    HW154058   7.941   5.103   0.300 -0.8933  2.5283  0.5267
17539SOL    HW254059   7.795   5.134   0.277 -1.9002 -2.2856 -0.8030
17540SOL     OW54060   3.268   6.433   7.378  0.4306 -0.3603  0.0316
17540SOL    HW154061   3.269   6.516   7.424  1.6971 -0.7799  0.8166
17540SOL    HW254062   3.289   6.456   7.287 -0.3500  0.2836  0.0097
17541SOL     OW54063   2.863   3.211   7.981  0.0466  0.0583  0.3918
17541SOL    HW154064   2.859   3.304   7.960 -1.2939  0.0725  0.6122
17541SOL    HW254065   2.862   3.208   8.077  1.0542 -0.1630  0.4038
17542SOL     OW54066   5.787   3.455   5.198 -0.4072  0.0332 -0.1408
17542SOL    HW154067   5.812   3.370   5.234  1.3824  1.1943  1.5276
17542SOL    HW254068   5.692   3.459   5.212 -0.5770 -1.7515 -0.4793
17543SOL     OW54069   2.617   2.877  11.528  0.1408 -0.0325  0.2063
17543SOL    HW154070   2.523   2.889  11.545  0.2891  0.9047  0.3898
17543SOL    HW254071   2.628   2.782  11.523 -1.1752 -0.1519 -1.8054
17544SOL     OW54072   1.317   5.075   7.925  0.1946 -0.0195 -0.1807
17544SOL    HW154073   1.271   5.094   8.007  0.3396  1.1304 -0.3595
17544SOL    HW254074   1.301   4.981   7.911  0.4803 -0.3248  1.3438
17545SOL     OW54075   5.502   4.385   9.779  0.0750  0.0600 -0.2401
17545SOL    HW154076   5.500   4.354   9.689 -0.4178  0.2593 -0.3019
17545SOL    HW254077   5.409   4.395   9.803  0.1925  2.2006 -0.4785
17546SOL     OW54078   6.418   1.166   8.031  0.0646 -0.0279 -0.5873
17546SOL    HW154079   6.322   1.173   8.026 -0.0655 -0.8184  0.5296
17546SOL    HW254080   6.440   1.099   7.966 -0.1991 -0.1899 -0.5134
17547SOL     OW54081   4.536   7.951   9.807 -0.4060 -0.1119  0.5671
17547SOL    HW154082   4.514   7.911   9.891 -1.7260  0.0419  0.3109
17547SOL    HW254083   4.605   8.014   9.828 -0.6720 -0.1227  1.5311
17548SOL     OW54084   4.148   6.793  10.472 -0.1351 -0.0891  0.3627
17548SOL    HW154085   4.144   6.761  10.382 -1.2920 -0.8734  0.6727
17548SOL    HW254086   4.141   6.888  10.464 -0.3248 -0.1600 -0.3698
17549SOL     OW54087   5.731   0.475  10.674 -0.6727 -0.0804 -0.0185
17549SOL    HW154088   5.739   0.421  10.753 -0.6654  0.2894  0.2381
17549SOL    HW254089   5.705   0.414  10.606  0.9455 -0.7200 -0.1099
17550SOL     OW54090   5.538   2.217  10.715 -0.5379  0.8883  0.0073
17550SOL    HW154091   5.588   2.165  10.778 -1.5636 -0.8655 -0.5500
17550SOL    HW254092   5.484   2.274  10.769  1.6476  2.5232  0.6225
17551SOL     OW54093   3.851   1.471   3.045  0.4549  0.0366  0.1376
17551SOL    HW154094   3.817   1.499   3.130  0.3202  1.5101 -0.3751
17551SOL    HW254095   3.780   1.420   3.006 -0.5467  1.6518 -0.2082
17552SOL     OW54096   0.376   0.130   8.297 -0.2280 -0.5101  0.0477
17552SOL    HW154097   0.318   0.056   8.316  0.3065 -1.4058 -1.6026
17552SOL    HW254098   0.449   0.119   8.359 -1.5425  0.3826  1.8417
17553SOL     OW54099   7.025   5.573  11.480  0.0333  0.2096 -0.8266
17553SOL    HW154100   7.054   5.512  11.548 -1.0017 -1.9182 -2.1781
17553SOL    HW254101   7.105   5.614  11.448  0.6990  0.0109  0.5052
17554SOL     OW54102   3.822   3.243   3.960 -0.0142 -0.3349 -0.1175
17554SOL    HW154103   3.878   3.176   3.922  0.8217  0.6485 -0.7002
17554SOL    HW254104   3.883   3.308   3.996 -0.7756  0.6101 -0.4707
17555SOL     OW54105   2.268   0.489   9.233  0.2599  0.5321 -0.0953
17555SOL    HW154106   2.296   0.572   9.195 -0.3829  0.6320 -0.3586
17555SOL    HW254107   2.201   0.512   9.296  0.7932  0.2952  0.5661
17556SOL     OW54108   3.424   4.918  12.016  0.3438 -0.1151  0.7126
17556SOL    HW154109   3.456   4.835  11.982  0.2844 -0.9810  2.6317
17556SOL    HW254110   3.344   4.935  11.966 -0.2904 -1.8452  1.0816
17557SOL     OW54111   3.365   2.026   5.859  0.1179 -0.0202 -0.0375
17557SOL    HW154112   3.290   2.086   5.853 -0.6345 -0.6840  2.0442
17557SOL    HW254113   3.397   2.036   5.949  1.3530 -1.1567 -0.3232
17558SOL     OW54114   0.618   4.461   5.764 -0.0578  0.5964 -0.4177
17558SOL    HW154115   0.609   4.461   5.669  0.6137  2.0918 -0.5036
17558SOL    HW254116   0.648   4.372   5.785  0.3609  0.4267 -1.6531
17559SOL     OW54117   7.169   7.468  10.057 -0.0391  0.9821  0.0402
17559SOL    HW154118   7.257   7.500  10.038 -0.1787  2.0383  1.0528
17559SOL    HW254119   7.137   7.435   9.973  2.2349 -1.8370  0.0941
17560SOL     OW54120   5.805   6.303   0.022  0.2124  0.4999  0.0409
17560SOL    HW154121   5.871   6.239  -0.004 -0.4225  0.6951 -2.2833
17560SOL    HW254122   5.751   6.257   0.088  0.5339 -0.8995 -0.6356
17561SOL     OW54123   1.893   1.441   9.891 -0.1903 -0.2634 -0.0154
17561SOL    HW154124   1.930   1.365   9.937  0.6329  0.1117 -0.0522
17561SOL    HW254125   1.844   1.403   9.819  0.4114 -0.7592 -0.1729
17562SOL     OW54126   4.565   0.181   9.070 -0.0101  0.7853 -0.1250
17562SOL    HW154127   4.581   0.187   9.165 -0.2466  0.9685 -0.0966
17562SOL    HW254128   4.495   0.115   9.062  0.8463 -0.1331 -0.2609
17563SOL     OW54129   0.884   2.095   4.484  0.1184 -0.2907  0.2412
17563SOL    HW154130   0.889   2.171   4.541 -1.2258  0.0745 -0.0792
17563SOL    HW254131   0.811   2.114   4.425  0.0720 -1.6155 -0.1705
17564SOL     OW54132   0.277   5.304   2.416 -0.4480  0.0004 -0.8378
17564SOL    HW154133   0.229   5.329   2.494  1.8341  1.4346  0.2179
17564SOL    HW254134   0.317   5.220   2.438  1.0010  0.8667 -0.0091
17565SOL     OW54135   0.284   0.609  11.761  0.5370  0.3472 -0.1348
17565SOL    HW154136   0.364   0.646  11.799  0.2083  1.6473 -0.6511
17565SOL    HW254137   0.221   0.609  11.833  1.4018 -2.1974  0.7348
17566SOL     OW54138   7.186   5.426   2.740 -0.2000  0.1906 -0.0588
17566SOL    HW154139   7.256   5.478   2.701 -0.4490 -1.5089 -3.0936
17566SOL    HW254140   7.231   5.355   2.786  0.2008 -1.3500 -2.6618
17567SOL     OW54141   3.932   3.284   4.958  0.0043  0.4367  0.0327
17567SOL    HW154142   3.880   3.273   4.878 -0.0441  0.8880 -0.0021
17567SOL    HW254143   3.994   3.354   4.937  0.7246 -0.1943  0.0305
17568SOL     OW54144   7.607   1.434   0.248 -0.6023 -0.2573 -0.1996
17568SOL    HW154145   7.594   1.340   0.232 -2.3916  0.2454 -2.1787
17568SOL    HW254146   7.526   1.475   0.217 -0.1255  1.9179  1.1997
17569SOL     OW54147   0.388   6.196   5.640 -0.0605  0.2015  0.5073
17569SOL    HW154148   0.403   6.166   5.550 -2.3200  0.6447 -0.0922
17569SOL    HW254149   0.413   6.289   5.639 -0.9909  0.4642  0.0303
17570SOL     OW54150   3.449   2.854   6.098  0.2331  1.1251 -0.3193
17570SOL    HW154151   3.515   2.818   6.158 -0.4679  2.0040  1.0281
17570SOL    HW254152   3.490   2.932   6.062  0.2622  1.1900 -0.1480
17571SOL     OW54153   2.031   0.779   4.402  0.3165 -0.1460 -0.3742
17571SOL    HW154154   2.064   0.835   4.472 -1.0801 -0.1638  0.3471
17571SOL    HW254155   2.040   0.690   4.437 -0.3351 -0.1584 -0.2255
17572SOL     OW54156   0.692   2.901  12.347 -0.7670 -0.2739  0.4947
17572SOL    HW154157   0.713   2.992  12.371 -0.0272 -0.2609 -0.1643
17572SOL    HW254158   0.777   2.861  12.329 -1.1188 -0.9953  0.4197
17573SOL     OW54159   1.672   7.754   1.187 -0.0669  0.1790 -0.4509
17573SOL    HW154160   1.691   7.693   1.258 -1.1733 -1.4289 -1.4734
17573SOL    HW254161   1.745   7.816   1.188 -0.1398  0.3219  2.1759
17574SOL     OW54162   1.076   0.105   7.286 -0.0590 -0.0040  0.1373
17574SOL    HW154163   1.089   0.179   7.226  1.5256 -0.7673 -0.5180
17574SOL    HW254164   0.981   0.093   7.288 -0.1962  0.3364 -1.8963
17575SOL     OW54165   0.541   4.331   7.431  0.0315  0.2381  0.0872
17575SOL    HW154166   0.524   4.417   7.392  0.5456  1.9729  3.3750
17575SOL    HW254167   0.637   4.325   7.434  0.0439 -1.2494 -1.5473
17576SOL     OW54168   3.241   7.434   6.863 -0.6334 -0.0989  0.7036
17576SOL    HW154169   3.187   7.362   6.896  0.0602  0.0749  2.3460
17576SOL    HW254170   3.330   7.398   6.861 -0.4858  0.2849  0.1831
17577SOL     OW54171   5.859   0.723   3.468 -0.1851  0.1769 -0.1920
17577SOL    HW154172   5.894   0.676   3.393  0.1635 -1.0843  0.7206
17577SOL    HW254173   5.784   0.772   3.434 -0.2302 -0.6248 -1.2868
17578SOL     OW54174   5.216   5.868  11.438  0.6468  0.1720 -0.2715
17578SOL    HW154175   5.199   5.782  11.474 -0.0829  0.4028 -0.0358
17578SOL    HW254176   5.130   5.911  11.437  1.0700  1.0548  0.0383
17579SOL     OW54177   1.514   2.840  11.554  0.3910  0.5572 -0.2150
17579SOL    HW154178   1.459   2.823  11.478 -0.8241  0.2525  0.6935
17579SOL    HW254179   1.600   2.862  11.518  0.0297 -0.2724 -1.6357
17580SOL     OW54180   3.858   3.933   8.816 -0.2018  0.4886 -0.0142
17580SOL    HW154181   3.808   4.007   8.852 -1.8391 -0.3299 -0.5210
17580SOL    HW254182   3.870   3.875   8.891 -0.2459  0.5635  0.0522
17581SOL     OW54183   6.251   7.709   4.121  0.2776  0.2496  0.1368
17581SOL    HW154184   6.241   7.737   4.212 -0.1882  1.0688 -0.1509
17581SOL    HW254185   6.314   7.637   4.125  0.1975  0.2125  1.1139
17582SOL     OW54186   6.623   3.715   6.654 -0.4392  0.0870  0.6751
17582SOL    HW154187   6.706   3.696   6.698  0.3204  2.8776  0.6734
17582SOL    HW254188   6.646   3.725   6.562 -0.9973 -0.2944  0.4893
17583SOL     OW54189   6.466   2.698   7.279 -0.1636 -0.5288  0.1818
17583SOL    HW154190   6.469   2.734   7.367 -0.2832 -2.4570  1.0372
17583SOL    HW254191   6.482   2.604   7.291  1.2880 -0.6387 -2.0056
17584SOL     OW54192   1.804   0.025   1.089 -0.0208 -0.2698 -0.2259
17584SOL    HW154193   1.822   0.093   1.155 -0.1654 -1.2973  0.9061
17584SOL    HW254194   1.802   0.072   1.006 -1.4280  1.3357  0.6607
17585SOL     OW54195   5.484   2.588  11.609  0.0916 -0.7825 -0.1773
17585SOL    HW154196   5.399   2.547  11.620 -0.0409  0.0815  2.9022
17585SOL    HW254197   5.466   2.665  11.554 -1.5105  0.2679  1.6813
17586SOL     OW54198   2.452   1.499   4.825 -0.4062 -0.3429 -0.3908
17586SOL    HW154199   2.397   1.560   4.874  1.0984  1.8543 -1.2553
17586SOL    HW254200   2.527   1.482   4.882  0.6661  1.1182 -1.2931
17587SOL     OW54201   4.819   3.676   8.562 -0.0521 -0.1123  0.3766
17587SOL    HW154202   4.867   3.725   8.628 -0.4248  0.6817  0.0717
17587SOL    HW254203   4.885   3.620   8.521  0.7659  1.3797 -0.4237
17588SOL     OW54204   5.060   4.283   5.265  0.1991  0.5961  0.6887
17588SOL    HW154205   5.021   4.368   5.247 -0.7513 -0.0552 -0.5035
17588SOL    HW254206   5.092   4.252   5.180 -0.3958 -0.6670  0.8910
17589SOL     OW54207   5.610   6.662  11.067  0.2610  0.1178  0.1351
17589SOL    HW154208   5.527   6.673  11.020  0.7540 -1.4766 -1.2134
17589SOL    HW254209   5.585   6.639  11.156 -0.7390  0.5606 -0.0251
17590SOL     OW54210   6.113   1.673   7.399  0.2930 -0.0045  0.0657
17590SOL    HW154211   6.183   1.711   7.345 -0.1971 -0.4737 -0.9248
17590SOL    HW254212   6.058   1.748   7.422  1.8436  0.6171  2.0529
17591SOL     OW54213   2.365   5.635   1.745  0.0643  0.0600  0.1785
17591SOL    HW154214   2.372   5.632   1.650 -0.3576  0.9269  0.1178
17591SOL    HW254215   2.447   5.677   1.774  1.6979 -2.9960  0.4411
17592SOL     OW54216   5.256   0.276   3.537  0.0086 -0.5975 -0.3830
17592SOL    HW154217   5.193   0.272   3.610  0.4507 -1.7635 -0.0502
17592SOL    HW254218   5.339   0.251   3.576  0.5398  0.1323 -1.0062
17593SOL     OW54219   0.096   7.390   3.247  0.1328 -0.0095 -0.0569
17593SOL    HW154220   0.015   7.353   3.283 -0.0432  0.0568 -0.3810
17593SOL    HW254221   0.131   7.321   3.191 -0.2071  0.3157 -0.6786
17594SOL     OW54222   6.411   6.923   7.122 -0.0377 -0.1674 -0.6094
17594SOL    HW154223   6.374   6.845   7.162 -1.7893  1.6317  1.5520
17594SOL    HW254224   6.411   6.988   7.192  4.0418  1.0434 -1.4704
17595SOL     OW54225   4.181   4.165   6.012 -0.1447 -0.3231  0.3238
17595SOL    HW154226   4.139   4.080   6.027  0.2497 -0.5115  0.3518
17595SOL    HW254227   4.271   4.144   5.991  0.0041  0.1019  0.5315
17596SOL     OW54228   2.928   1.362   5.856 -1.0110  0.6513 -0.1855
17596SOL    HW154229   2.937   1.455   5.877 -0.3634  0.3274  1.0914
17596SOL    HW254230   2.838   1.340   5.880 -0.7157  0.6217  0.9308
17597SOL     OW54231   7.880   4.834   6.743 -0.3405  0.5049 -0.4385
17597SOL    HW154232   7.915   4.767   6.802  0.2417  0.5123 -0.7708
17597SOL    HW254233   7.790   4.847   6.773 -0.3438 -0.1581 -0.1376
17598SOL     OW54234   4.043   5.241   6.421  0.0508 -0.6986 -0.1568
17598SOL    HW154235   3.960   5.193   6.423 -0.6987  0.3332 -2.6057
17598SOL    HW254236   4.018   5.332   6.404  1.6407 -0.1652  0.1702
17599SOL     OW54237   2.600   7.199  11.221  0.1372 -0.3280 -0.1376
17599SOL    HW154238   2.664   7.232  11.285 -1.9743 -0.4660  2.1916
17599SOL    HW254239   2.644   7.123  11.181  1.9775  0.4661  0.2422
17600SOL     OW54240   0.324   1.531   1.990  0.9358  0.0700 -0.0885
17600SOL    HW154241   0.334   1.436   1.991  1.3678  0.1073 -0.3906
17600SOL    HW254242   0.397   1.562   1.936  1.8774  0.7094  1.4940
17601SOL     OW54243   7.160   2.294   0.591 -0.0020  0.3423 -0.1555
17601SOL    HW154244   7.132   2.203   0.580  1.1627 -0.0485 -0.0404
17601SOL    HW254245   7.183   2.323   0.502  2.7286 -0.5636  0.1554
17602SOL     OW54246   5.937   7.459  11.952  0.6111 -0.1265 -0.1597
17602SOL    HW154247   5.996   7.430  12.022  0.9723  0.6008 -0.1533
17602SOL    HW254248   5.913   7.379  11.906  0.2327 -0.6349  0.9050
17603SOL     OW54249   4.534   1.140   9.402  0.8510 -0.1196  0.9474
17603SOL    HW154250   4.549   1.200   9.475 -0.9358  1.5590  0.0377
17603SOL    HW254251   4.549   1.194   9.324 -1.3695 -0.6468  0.1031
17604SOL     OW54252   3.802   3.586   5.838 -0.4016 -0.2942 -0.5532
17604SOL    HW154253   3.738   3.621   5.776 -1.3146 -1.3546 -0.2581
17604SOL    HW254254   3.766   3.607   5.924  1.0302  1.4762 -0.3261
17605SOL     OW54255   5.976   7.898   3.718 -0.2844 -0.2814 -0.6460
17605SOL    HW154256   5.994   7.835   3.788 -0.5845 -1.5762 -1.7029
17605SOL    HW254257   6.061   7.909   3.674 -0.3168 -0.2285 -0.6946
17606SOL     OW54258   6.973   3.176   3.216  0.2590 -0.1384  0.6496
17606SOL    HW154259   7.041   3.222   3.166  0.1854  0.8144  1.3825
17606SOL    HW254260   6.917   3.246   3.250 -1.0041 -0.9091  0.1879
17607SOL     OW54261   1.380   6.172  11.770  0.5841 -0.4104  0.0393
17607SOL    HW154262   1.463   6.208  11.738  0.3805  0.3024  0.3116
17607SOL    HW254263   1.381   6.081  11.739  0.2206  0.3256 -2.3186
17608SOL     OW54264   7.139   4.530   2.710 -0.0700 -0.2583  0.6476
17608SOL    HW154265   7.198   4.467   2.668 -1.6000 -1.7905  0.6756
17608SOL    HW254266   7.164   4.614   2.674  3.6447 -0.4679  2.3597
17609SOL     OW54267   5.832   3.230  10.389 -0.2440 -0.8109  0.3830
17609SOL    HW154268   5.851   3.148  10.434 -1.3499 -2.1594 -1.4452
17609SOL    HW254269   5.894   3.233  10.316 -1.6351 -1.2188 -0.8807
17610SOL     OW54270   2.732   3.613   2.520 -1.3265 -0.0511 -0.6385
17610SOL    HW154271   2.749   3.650   2.433  1.5257  1.5881  0.4725
17610SOL    HW254272   2.656   3.662   2.552  0.6440  3.1296 -0.3337
17611SOL     OW54273   3.250   5.672   6.615 -0.8340  0.5910 -0.1337
17611SOL    HW154274   3.326   5.730   6.626 -1.5134  1.5121 -0.1499
17611SOL    HW254275   3.253   5.613   6.690 -0.2224  0.7633 -0.0199
17612SOL     OW54276   5.248   3.038   2.885  0.1174  0.4569  0.4898
17612SOL    HW154277   5.310   2.992   2.943  0.0616  0.2341  0.3741
17612SOL    HW254278   5.214   3.110   2.939 -0.0124  0.1889  0.7723
17613SOL     OW54279   5.384   6.280   2.337  0.4280  0.6295 -0.2924
17613SOL    HW154280   5.414   6.346   2.274  1.5585 -0.4813 -0.9537
17613SOL    HW254281   5.462   6.262   2.391  0.1184 -0.1300 -0.0938
17614SOL     OW54282   6.341   2.197  12.378  0.1629 -0.2541  0.0426
17614SOL    HW154283   6.321   2.116  12.425  1.0765  0.2598  1.3572
17614SOL    HW254284   6.434   2.190  12.356  0.4279  0.7167  0.7818
17615SOL     OW54285   4.764   0.456   8.023 -0.6151  0.2058 -0.1905
17615SOL    HW154286   4.752   0.444   8.117  2.6509  2.1222  0.6225
17615SOL    HW254287   4.738   0.546   8.007  1.4027  0.7831 -0.5030
17616SOL     OW54288   2.151   4.694   4.148 -0.0837  0.3131 -0.0060
17616SOL    HW154289   2.121   4.784   4.161 -0.0741  0.2268  0.6062
17616SOL    HW254290   2.071   4.641   4.149 -0.0321  0.2406  0.2721
17617SOL     OW54291   4.282   4.751   9.225  0.0278 -0.4350 -0.1499
17617SOL    HW154292   4.210   4.690   9.207  0.6277 -1.1789 -0.0836
17617SOL    HW254293   4.246   4.837   9.204 -1.4057 -0.6163  1.4020
17618SOL     OW54294   0.720   4.922   9.815  0.5175 -0.3027  0.0155
17618SOL    HW154295   0.667   4.862   9.866  0.5362 -0.2195  0.1330
17618SOL    HW254296   0.770   4.972   9.880 -0.4319  0.7255 -0.0145
17619SOL     OW54297   3.862   0.778   8.079  0.2907 -0.8637  0.8195
17619SOL    HW154298   3.934   0.742   8.029  0.8685 -0.8364  1.6087
17619SOL    HW254299   3.879   0.872   8.083 -1.1977 -0.4472 -1.2115
17620SOL     OW54300   4.278   0.049   3.190 -0.0045  0.5574 -0.0270
17620SOL    HW154301   4.364   0.009   3.178 -0.0926  0.6488 -1.0034
17620SOL    HW254302   4.296   0.140   3.214  0.1820  0.2379  1.0725
17621SOL     OW54303   4.969   5.744   3.690  0.3344 -0.4087  0.2976
17621SOL    HW154304   4.964   5.652   3.665 -1.2377 -0.0470 -0.8987
17621SOL    HW254305   5.024   5.784   3.623  0.8387 -0.4251  0.6954
17622SOL     OW54306   4.815   4.731   4.477  0.3378  0.6275 -0.2105
17622SOL    HW154307   4.794   4.780   4.397 -0.4044 -0.7750 -0.9053
17622SOL    HW254308   4.733   4.691   4.503  0.8426  0.0762  0.5681
17623SOL     OW54309   4.105   4.219   3.966  0.2408 -0.0245  0.2236
17623SOL    HW154310   4.060   4.300   3.989  0.4127 -0.1827  1.1873
17623SOL    HW254311   4.082   4.158   4.037  0.3999 -0.7097 -0.2993
17624SOL     OW54312   2.938   5.772   7.786 -0.0887 -0.2882 -0.4483
17624SOL    HW154313   2.915   5.766   7.878 -0.6510  1.0569 -0.4793
17624SOL    HW254314   3.021   5.819   7.785 -0.2481 -0.0094 -0.6488
17625SOL     OW54315   1.835   5.880  10.878 -0.3392 -0.2261  0.0731
17625SOL    HW154316   1.780   5.949  10.916 -2.3274  0.5802 -3.7596
17625SOL    HW254317   1.921   5.920  10.871 -0.7721  0.8254  0.4492
17626SOL     OW54318   0.993   2.494   7.277 -0.4356 -0.1467  0.3380
17626SOL    HW154319   0.939   2.528   7.205 -0.5512  1.4589  1.1248
17626SOL    HW254320   0.932   2.484   7.350  0.1931  1.2440  1.1007
17627SOL     OW54321   6.783   5.479   1.644  0.2770 -0.3321 -0.0434
17627SOL    HW154322   6.766   5.459   1.552 -1.8177  1.1741 -0.0714
17627SOL    HW254323   6.772   5.396   1.690 -1.4471 -0.5861 -0.8571
17628SOL     OW54324   1.959   2.864   7.376  0.0680  0.2246  0.1510
17628SOL    HW154325   2.028   2.916   7.336 -0.1997  0.1392 -0.4378
17628SOL    HW254326   1.967   2.777   7.336 -1.1183  0.5348 -0.8376
17629SOL     OW54327   4.777   3.218  10.493 -0.0661 -0.1180 -0.4217
17629SOL    HW154328   4.689   3.190  10.519 -0.6179  1.3735 -0.5341
17629SOL    HW254329   4.763   3.267  10.411  0.5488  1.9013  0.6150
17630SOL     OW54330   7.933   5.251  10.143  0.0274  0.5066  0.0882
17630SOL    HW154331   7.840   5.264  10.159 -0.2586  0.5583 -1.4760
17630SOL    HW254332   7.949   5.159  10.164 -0.1155  0.7645  1.4200
17631SOL     OW54333   4.078   5.091   9.559 -0.3208 -0.1231  0.5322
17631SOL    HW154334   4.108   5.169   9.605 -1.1619  0.3736  0.2622
17631SOL    HW254335   4.074   5.118   9.467 -1.3305 -0.2425  0.5276
17632SOL     OW54336   5.526   7.015   2.935  0.5033  0.3543 -1.1831
17632SOL    HW154337   5.583   6.968   2.874 -0.3088 -2.0272 -0.2258
17632SOL    HW254338   5.441   6.972   2.926 -1.0167  3.2805 -1.9857
17633SOL     OW54339   6.953   5.984   5.363  0.3476  0.3580  0.6403
17633SOL    HW154340   6.911   5.990   5.448 -2.9439 -0.2236 -0.7799
17633SOL    HW254341   6.905   6.046   5.308  1.0840 -0.6299 -1.2257
17634SOL     OW54342   0.573   0.495   7.065  0.0501  0.1416 -0.2216
17634SOL    HW154343   0.631   0.461   7.133 -0.5686 -3.3381 -1.2377
17634SOL    HW254344   0.631   0.540   7.004  1.3142 -0.8128  0.2295
17635SOL     OW54345   2.468   7.197   2.818  0.8774  0.3718  0.0420
17635SOL    HW154346   2.474   7.106   2.849 -1.7789  0.3710  0.7924
17635SOL    HW254347   2.482   7.191   2.724 -1.6603 -1.2413 -0.3165
17636SOL     OW54348   5.764   3.545   1.242 -0.5163 -0.4371  0.6451
17636SOL    HW154349   5.704   3.618   1.222 -1.7011 -1.5704 -0.1259
17636SOL    HW254350   5.715   3.467   1.216  1.0083 -1.4687  0.7793
17637SOL     OW54351   2.387   1.396   5.180  0.0747 -0.3956  0.2565
17637SOL    HW154352   2.436   1.460   5.230 -1.6445  0.2504  1.2049
17637SOL    HW254353   2.310   1.443   5.149 -0.0979 -1.4184 -0.9717
17638SOL     OW54354   4.579   7.798   2.776  0.9987  0.1811 -0.0532
17638SOL    HW154355   4.562   7.745   2.698  1.4341 -0.2307  0.1262
17638SOL    HW254356   4.529   7.756   2.846  1.8721 -0.4048  0.2382
17639SOL     OW54357   0.890   1.444   8.437  0.2100 -0.2293  0.2054
17639SOL    HW154358   0.918   1.414   8.351 -1.1443  1.4116 -0.8925
17639SOL    HW254359   0.912   1.538   8.437 -1.2472  0.1327  0.9882
17640SOL     OW54360   4.242   7.038   0.715  0.3403 -0.5276  0.0741
17640SOL    HW154361   4.283   7.018   0.800 -0.6537 -0.1992  0.6578
17640SOL    HW254362   4.167   7.093   0.738  1.1475  1.1560 -1.2201
17641SOL     OW54363   3.488   0.566   3.481  0.6268  0.4761  0.0220
17641SOL    HW154364   3.449   0.507   3.544 -1.3037  0.6027 -0.9819
17641SOL    HW254365   3.514   0.643   3.532  0.6372 -0.1041  0.8972
17642SOL     OW54366   0.453   2.399   6.263 -0.5761 -0.2085 -0.5692
17642SOL    HW154367   0.427   2.375   6.352 -0.4969 -1.6219 -0.9021
17642SOL    HW254368   0.503   2.480   6.274 -0.7231 -0.2607  0.6469
17643SOL     OW54369   0.253   1.270   9.620 -0.4119  0.0413 -0.3335
17643SOL    HW154370   0.162   1.284   9.647 -0.8160 -0.6796 -1.2787
17643SOL    HW254371   0.284   1.357   9.594 -0.5364  0.4503  0.8238
17644SOL     OW54372   3.871   2.517   1.995 -0.0990  0.0385  0.3825
17644SOL    HW154373   3.912   2.585   1.941  0.3243  0.9425  1.7657
17644SOL    HW254374   3.900   2.435   1.957  1.3686  0.6550  0.0911
17645SOL     OW54375   3.537   3.672   6.279 -0.2950 -0.8768 -0.1715
17645SOL    HW154376   3.526   3.712   6.364  0.2260 -0.4322 -0.3092
17645SOL    HW254377   3.457   3.693   6.231  0.1395  0.3532 -0.3810
17646SOL     OW54378   1.786   2.178   9.033  0.3691  0.4363 -0.9063
17646SOL    HW154379   1.846   2.161   9.106  0.5942  0.5703 -1.0574
17646SOL    HW254380   1.787   2.273   9.023 -1.2347  0.6080  0.2304
17647SOL     OW54381   4.320   6.923   8.593 -0.3963 -0.4419 -0.3100
17647SOL    HW154382   4.281   7.000   8.551 -1.6266  0.2825  2.0118
17647SOL    HW254383   4.413   6.943   8.596 -0.6591  0.8731  0.0398
17648SOL     OW54384   4.728   4.922   3.999  0.1287 -0.0592 -0.0609
17648SOL    HW154385   4.643   4.937   4.041 -0.7370 -1.3906 -1.2404
17648SOL    HW254386   4.713   4.847   3.942  2.6821 -1.7000  1.2876
17649SOL     OW54387   2.915   5.242  11.569  0.4229 -0.4422  0.1279
17649SOL    HW154388   2.936   5.225  11.477 -0.1375 -2.1397  0.2823
17649SOL    HW254389   2.986   5.201  11.619  1.0293  0.9634  0.4692
17650SOL     OW54390   0.216   2.171   1.922 -0.6899  0.3775 -0.5729
17650SOL    HW154391   0.238   2.247   1.867 -0.5796  0.5907 -0.2401
17650SOL    HW254392   0.182   2.210   2.003 -0.1767  0.0829 -0.2066
17651SOL     OW54393   0.311   5.959   1.180  0.5922 -0.0784  0.1879
17651SOL    HW154394   0.334   5.867   1.195  0.1332 -0.6085 -1.9726
17651SOL    HW254395   0.238   5.955   1.118 -0.1865  1.7430  0.9142
17652SOL     OW54396   2.263   2.233   8.549  0.1297  0.1371 -0.1616
17652SOL    HW154397   2.244   2.237   8.455  2.6794  0.0195 -0.7487
17652SOL    HW254398   2.236   2.145   8.576 -0.4491  0.1126 -0.7956
17653SOL     OW54399   6.286   5.802   9.253  0.2599 -0.0912 -0.1933
17653SOL    HW154400   6.247   5.717   9.232  1.2985 -0.9322  1.1516
17653SOL    HW254401   6.371   5.781   9.291  0.5191  1.5616  0.2220
17654SOL     OW54402   0.010   6.424   9.187 -0.5872  0.3494 -0.8540
17654SOL    HW154403  -0.022   6.514   9.174  1.0892  1.4240  1.6349
17654SOL    HW254404   0.060   6.405   9.108 -0.9512  1.6037 -1.4117
17655SOL     OW54405   3.984   5.909   2.112  0.0316  0.1568  0.4562
17655SOL    HW154406   4.054   5.956   2.158  0.2777  0.1685  0.0735
17655SOL    HW254407   3.988   5.820   2.149  0.1442  0.1996  0.5480
17656SOL     OW54408   4.121   1.063  10.303 -0.0388 -0.0378 -0.1955
17656SOL    HW154409   4.031   1.080  10.277  0.2463  0.8756 -0.6113
17656SOL    HW254410   4.116   1.042  10.396 -0.6652  0.0850 -0.2033
17657SOL     OW54411   2.641   3.550   1.101 -0.3240 -0.5647 -0.1509
17657SOL    HW154412   2.612   3.475   1.153  0.0788 -0.8786 -0.3642
17657SOL    HW254413   2.642   3.623   1.162 -1.0535 -0.6587 -0.0211
17658SOL     OW54414   2.231   4.631   0.478 -0.1574 -0.3248 -0.0262
17658SOL    HW154415   2.283   4.564   0.433 -2.0357 -1.6064 -0.4452
17658SOL    HW254416   2.281   4.712   0.468  1.3402 -1.3252 -1.0689
17659SOL     OW54417   1.415   6.376   6.205  0.0654  0.4803  0.2781
17659SOL    HW154418   1.444   6.458   6.245 -1.9005  1.1644  0.4165
17659SOL    HW254419   1.364   6.403   6.128  1.0346 -0.7080 -0.8274
17660SOL     OW54420   7.488   1.538  10.466  0.2091  0.3285 -0.6341
17660SOL    HW154421   7.577   1.541  10.431  0.3924  1.1803 -0.1207
17660SOL    HW254422   7.487   1.605  10.535 -0.8999  0.4967 -0.8022
17661SOL     OW54423   7.159   5.640  12.273 -0.1150 -0.1804 -0.8246
17661SOL    HW154424   7.240   5.593  12.252  0.2839  0.8968 -1.7901
17661SOL    HW254425   7.171   5.669  12.363 -0.7968 -2.7595  0.1646
17662SOL     OW54426   1.243   6.108   6.900  0.1206 -0.3493  0.0964
17662SOL    HW154427   1.289   6.176   6.949 -2.4383 -0.6457  3.2849
17662SOL    HW254428   1.192   6.156   6.835  2.8564  0.1379 -1.8903
17663SOL     OW54429   0.566   5.333   8.088 -0.1176  0.2978 -0.1470
17663SOL    HW154430   0.614   5.415   8.073 -1.4854  0.9371 -1.3077
17663SOL    HW254431   0.602   5.273   8.023  0.2210  0.2592  0.0696
17664SOL     OW54432   7.094   4.915  10.165 -0.6937 -0.0745  0.1638
17664SOL    HW154433   7.189   4.898  10.164 -0.7253 -0.3153  0.6957
17664SOL    HW254434   7.055   4.829  10.183 -0.9440  0.2480  1.2673
17665SOL     OW54435   1.442   5.427   3.171 -0.1381  0.1582  0.1975
17665SOL    HW154436   1.461   5.470   3.088  1.3939 -0.4366  0.2043
17665SOL    HW254437   1.528   5.417   3.213 -0.7215 -0.8388  1.2062
17666SOL     OW54438   3.613   7.181   8.661  0.3641  0.0411  0.0855
17666SOL    HW154439   3.540   7.242   8.650  0.0562 -0.3293  0.0909
17666SOL    HW254440   3.661   7.187   8.578  1.7714  2.1563  0.9539
17667SOL     OW54441   5.627   1.579   6.814 -0.1322  0.1858  0.1734
17667SOL    HW154442   5.623   1.566   6.909  1.4230 -0.1928  0.2225
17667SOL    HW254443   5.703   1.528   6.787 -0.8066 -0.0466 -1.3563
17668SOL     OW54444   6.350   5.342   8.948 -0.3193  0.3314 -0.0887
17668SOL    HW154445   6.357   5.387   8.864  0.2759  2.5640  1.0746
17668SOL    HW254446   6.417   5.274   8.944 -0.1486  0.5424 -1.3115
17669SOL     OW54447   7.222   2.225  12.414 -0.0931 -0.1818  0.4083
17669SOL    HW154448   7.171   2.306  12.418 -0.8188 -0.5542 -0.8620
17669SOL    HW254449   7.160   2.156  12.435  0.0556 -0.5707 -0.3824
17670SOL     OW54450   4.230   3.107   9.438 -0.2164 -0.3228  0.2620
17670SOL    HW154451   4.197   3.064   9.359 -0.1200 -0.1158  0.1058
17670SOL    HW254452   4.319   3.073   9.449 -0.1121 -0.1129  0.0950
17671SOL     OW54453   6.693   1.667   0.984  0.2119 -0.1300 -0.6883
17671SOL    HW154454   6.669   1.757   1.008 -0.8334 -0.7936  0.9070
17671SOL    HW254455   6.780   1.676   0.945  0.3056  1.5310 -0.2069
17672SOL     OW54456   2.419   1.966   4.645 -0.0944  0.6901 -0.0978
17672SOL    HW154457   2.373   1.974   4.729 -0.5728 -0.7131 -0.1878
17672SOL    HW254458   2.508   1.995   4.663  0.4536 -1.7054  1.5368
17673SOL     OW54459   1.307   7.074   9.962  0.4482 -0.0302 -0.3929
17673SOL    HW154460   1.287   7.155   9.916  1.3658 -0.5567 -1.7890
17673SOL    HW254461   1.375   7.032   9.909 -0.1995 -1.8479  0.1121
17674SOL     OW54462   0.080   3.823   8.441  0.0062 -0.0079  0.0369
17674SOL    HW154463   0.159   3.774   8.466 -0.0225 -0.9748 -1.6237
17674SOL    HW254464   0.062   3.794   8.352 -2.4528 -0.0917  0.5109
17675SOL     OW54465   3.961   0.539   5.953  0.0971 -0.3593 -0.2088
17675SOL    HW154466   3.891   0.578   5.901 -0.2985 -1.6735 -0.7240
17675SOL    HW254467   3.992   0.610   6.009 -1.3192  0.3862 -0.3105
17676SOL     OW54468   3.676   5.065  12.121 -0.3574 -0.5931 -0.0609
17676SOL    HW154469   3.637   5.055  12.209 -1.8824 -1.1819 -0.7603
17676SOL    HW254470   3.621   5.010  12.065  1.4031 -1.2844 -1.1738
17677SOL     OW54471   7.420   5.787   6.702 -0.0626  0.4323  0.1887
17677SOL    HW154472   7.381   5.707   6.666 -0.2140 -0.3202  1.9122
17677SOL    HW254473   7.364   5.857   6.668 -1.3628 -0.4080  0.5014
17678SOL     OW54474   2.949   5.588  10.299  0.1583 -0.3461  0.0941
17678SOL    HW154475   2.858   5.614  10.282  0.2391 -0.3420 -0.3492
17678SOL    HW254476   2.991   5.591  10.213  0.2991 -1.4489  0.1085
17679SOL     OW54477   0.730   2.912   9.100  0.1410  0.1997 -0.4304
17679SOL    HW154478   0.749   2.962   9.179  1.1070 -1.2544  0.3097
17679SOL    HW254479   0.787   2.949   9.033 -1.8836  2.5839 -1.0032
17680SOL     OW54480   7.056   7.241   7.322 -0.5726  0.0584 -0.7433
17680SOL    HW154481   6.997   7.236   7.397  1.7079  1.3087  1.3111
17680SOL    HW254482   7.127   7.180   7.344  0.5072  1.0090 -1.4939
17681SOL     OW54483   3.400   7.109   0.724  0.2155  0.0669 -0.0603
17681SOL    HW154484   3.419   7.032   0.670  0.9162  0.9065 -1.0216
17681SOL    HW254485   3.310   7.132   0.701  0.4385  0.2956 -0.7234
17682SOL     OW54486   1.922   0.857   6.228  0.4284 -0.3740  0.0877
17682SOL    HW154487   1.984   0.789   6.253  1.3466  0.6718  0.7190
17682SOL    HW254488   1.859   0.812   6.172  1.4856 -1.5566 -0.1933
17683SOL     OW54489   2.322   5.823   5.801 -0.6019 -0.4683  0.3613
17683SOL    HW154490   2.246   5.810   5.745  0.6782 -1.2207 -1.2701
17683SOL    HW254491   2.296   5.895   5.859 -3.6049 -2.5101  1.8398
17684SOL     OW54492   6.113   5.463  10.368 -0.1114  0.3567 -0.7225
17684SOL    HW154493   6.115   5.556  10.389 -0.7470  0.0846  0.7009
17684SOL    HW254494   6.160   5.455  10.285  0.0754  1.9157 -0.7853
17685SOL     OW54495   1.040   1.216   4.237 -0.2194  0.5464 -0.3735
17685SOL    HW154496   0.986   1.246   4.164  0.1895 -1.6518 -1.6699
17685SOL    HW254497   1.001   1.256   4.314 -2.3273  0.7957 -1.4965
17686SOL     OW54498   3.149   2.418   8.189  0.4055  0.2889 -0.4295
17686SOL    HW154499   3.192   2.365   8.123 -0.4547  0.1862 -0.9329
17686SOL    HW254500   3.214   2.483   8.215  1.8071 -1.5308  0.8809
17687SOL     OW54501   0.413   5.883   0.573 -0.0856 -0.3148 -0.2491
17687SOL    HW154502   0.322   5.853   0.573  0.1462 -1.0383  0.2094
17687SOL    HW254503   0.452   5.841   0.649  0.8030 -0.5397 -0.8161
17688SOL     OW54504   2.335   1.185   9.510  0.0397 -0.8066  0.4573
17688SOL    HW154505   2.246   1.202   9.542 -0.8930 -1.5243 -1.5502
17688SOL    HW254506   2.374   1.129   9.577 -1.3166 -1.1460  1.0008
17689SOL     OW54507   7.896   4.761   3.948 -0.6531 -0.2738  0.7449
17689SOL    HW154508   7.949   4.687   3.919 -1.7031 -0.8877  0.3241
17689SOL    HW254509   7.957   4.817   3.997  0.4914 -0.6593 -0.1960
17690SOL     OW54510   7.786   6.818  10.909  0.5057  0.0738 -0.0007
17690SOL    HW154511   7.810   6.843  10.998 -2.0352  1.0303  0.5008
17690SOL    HW254512   7.758   6.899  10.867 -1.6911 -0.8308 -0.4664
17691SOL     OW54513   4.411   3.784   1.996 -0.1600  0.6057 -0.3112
17691SOL    HW154514   4.399   3.701   2.042 -0.7514  1.2528  0.7205
17691SOL    HW254515   4.418   3.850   2.065  0.9398  1.3485 -1.0956
17692SOL     OW54516   1.934   6.214   2.311 -0.0967 -0.3591  0.5161
17692SOL    HW154517   1.967   6.236   2.398 -0.1580 -0.3423  0.5356
17692SOL    HW254518   1.933   6.119   2.308  2.2590 -0.4127 -0.3649
17693SOL     OW54519   1.235   6.375   8.177  0.1744 -0.5541  0.0836
17693SOL    HW154520   1.308   6.327   8.138  0.8248  0.1744  0.3631
17693SOL    HW254521   1.197   6.314   8.240  3.0473  0.2639  2.8932
17694SOL     OW54522   3.295   1.859   9.257  0.4804  0.4420 -0.1823
17694SOL    HW154523   3.233   1.893   9.192  0.2173 -0.9570 -0.6958
17694SOL    HW254524   3.315   1.770   9.227 -1.1404 -1.0222  2.6161
17695SOL     OW54525   4.047   2.496   2.927  0.2166  0.2413  0.4330
17695SOL    HW154526   4.086   2.470   3.010 -0.4030  1.4018  1.1071
17695SOL    HW254527   4.113   2.473   2.862  1.3664  0.7006  1.3947
17696SOL     OW54528   0.476   6.969  10.754  0.1685  0.0460  0.1179
17696SOL    HW154529   0.419   7.001  10.685  1.4347 -0.3272 -1.1482
17696SOL    HW254530   0.444   7.013  10.833 -0.5277  1.4822 -0.9048
17697SOL     OW54531   1.753   0.387   9.115  0.2124 -0.0927  0.7241
17697SOL    HW154532   1.757   0.403   9.209  0.4885 -1.5527  0.9875
17697SOL    HW254533   1.666   0.418   9.089  0.0754  0.1856  1.4775
17698SOL     OW54534   1.842   7.474   5.764 -0.3446 -0.0932 -0.8843
17698SOL    HW154535   1.770   7.473   5.828 -1.3117 -0.4288 -1.9445
17698SOL    HW254536   1.921   7.457   5.816 -1.1852 -1.0633  0.1153
17699SOL     OW54537   6.265   4.819   0.738  0.6320  0.2610 -0.5833
17699SOL    HW154538   6.173   4.845   0.735  0.2389 -0.8898  0.4411
17699SOL    HW254539   6.276   4.765   0.659  0.3120  0.0941 -0.5204
17700SOL     OW54540   3.727   6.792  10.807 -0.5335 -0.3836  0.3956
17700SOL    HW154541   3.805   6.783  10.753  0.4203 -1.6589  1.9119
17700SOL    HW254542   3.748   6.862  10.868 -0.5565 -0.7442  0.8212
17701SOL     OW54543   5.288   7.883   1.231 -0.0902 -0.4464 -0.2485
17701SOL    HW154544   5.309   7.888   1.138  0.5086 -2.0564 -0.2258
17701SOL    HW254545   5.209   7.828   1.234  0.9723 -1.9886  0.2984
17702SOL     OW54546   7.569   7.536  12.377  0.0143 -0.2578 -0.5187
17702SOL    HW154547   7.512   7.460  12.391  1.1047 -1.2499 -1.2221
17702SOL    HW254548   7.624   7.539  12.455 -0.8647  0.6129  0.0933
17703SOL     OW54549   0.671   6.561   4.491  0.1545  0.1671 -0.4165
17703SOL    HW154550   0.672   6.501   4.417  0.7574 -0.3134 -0.0216
17703SOL    HW254551   0.680   6.648   4.452 -1.2071  0.0642 -1.0280
17704SOL     OW54552   2.519   3.243  10.954 -0.1880  0.0233 -0.0420
17704SOL    HW154553   2.542   3.309  11.019  1.4368 -2.7675  2.4743
17704SOL    HW254554   2.595   3.239  10.896 -0.3762  0.4794 -0.3250
17705SOL     OW54555   0.594   0.408   0.693 -0.0205  0.1759  0.1105
17705SOL    HW154556   0.572   0.501   0.701 -0.1972  0.1215  0.2758
17705SOL    HW254557   0.598   0.376   0.783  0.3139  0.0864  0.0630
17706SOL     OW54558   3.173   0.285   2.876 -0.2438 -0.0939  0.5574
17706SOL    HW154559   3.165   0.343   2.952  2.1895  1.0400  0.0636
17706SOL    HW254560   3.155   0.342   2.801 -1.9725 -1.0461  0.1869
17707SOL     OW54561   7.831   3.710   2.926  0.1274  0.4072  0.2339
17707SOL    HW154562   7.793   3.755   2.850 -0.4615 -0.4663 -0.0044
17707SOL    HW254563   7.782   3.628   2.932 -0.0865  0.6099  1.7826
17708SOL     OW54564   0.129   3.938   2.918 -0.6038  0.2615  0.3121
17708SOL    HW154565   0.054   3.988   2.949 -0.6417 -0.2788  1.1210
17708SOL    HW254566   0.092   3.873   2.858 -1.1311 -1.5142  2.4426
17709SOL     OW54567   0.019   3.741   2.666  0.0090  1.0075 -0.1678
17709SOL    HW154568  -0.043   3.682   2.624  1.3635  0.4287 -1.4760
17709SOL    HW254569   0.033   3.811   2.602  1.3462  0.6522 -0.3097
17710SOL     OW54570   1.915   7.779   1.598  0.3046 -0.2937 -0.7131
17710SOL    HW154571   1.938   7.722   1.671 -0.4072 -0.2025 -0.4074
17710SOL    HW254572   1.939   7.729   1.520 -0.0929 -0.9073 -0.4483
17711SOL     OW54573   7.743   5.349   4.966  0.2012  0.3739  0.0430
17711SOL    HW154574   7.758   5.302   5.048  0.7817  0.8988  0.2471
17711SOL    HW254575   7.659   5.316   4.934 -0.1619  0.3617  0.9881
17712SOL     OW54576   0.170   0.721   1.504  0.2121 -0.0062 -0.4677
17712SOL    HW154577   0.088   0.767   1.488 -0.0773  0.2960  1.5484
17712SOL    HW254578   0.237   0.775   1.463 -0.4184  0.6686 -0.6249
17713SOL     OW54579   1.333   0.599   4.687  0.4048  0.3967  0.4207
17713SOL    HW154580   1.370   0.546   4.616  1.0094  1.0866  0.2128
17713SOL    HW254581   1.246   0.561   4.702  1.7052 -2.2784  1.9692
17714SOL     OW54582   0.477   7.110   4.932 -0.6640  0.5162 -0.1443
17714SOL    HW154583   0.529   7.108   4.852 -1.5694 -0.0248 -0.7331
17714SOL    HW254584   0.502   7.192   4.975 -0.8073  1.2424 -1.4113
17715SOL     OW54585   4.739   6.600  11.592  0.0589  0.3503  0.2890
17715SOL    HW154586   4.755   6.632  11.681  0.0269 -0.0826  0.4541
17715SOL    HW254587   4.820   6.620  11.544  0.3130  0.0376  0.5782
17716SOL     OW54588   5.718   0.884   4.456 -0.2386  0.3680  0.3836
17716SOL    HW154589   5.756   0.846   4.535  0.2085 -1.0135 -0.4584
17716SOL    HW254590   5.766   0.965   4.443 -0.8578  1.0233  1.9502
17717SOL     OW54591   2.946   3.132   2.938 -0.6621 -0.4644  0.3712
17717SOL    HW154592   2.939   3.171   2.851  0.0137 -0.8951  0.1173
17717SOL    HW254593   2.957   3.207   2.997  1.5584 -0.2709 -0.2045
17718SOL     OW54594   0.419   4.425   9.464  0.7044 -0.0370 -0.8955
17718SOL    HW154595   0.460   4.498   9.511 -0.8822  0.0149  0.5223
17718SOL    HW254596   0.353   4.467   9.409  0.0856 -0.3499 -0.4071
17719SOL     OW54597   2.105   2.436   8.826 -0.0966  0.3736 -0.4259
17719SOL    HW154598   2.028   2.492   8.826 -0.3553  0.0286 -0.9870
17719SOL    HW254599   2.069   2.347   8.818  0.3461  0.1951 -0.4304
17720SOL     OW54600   6.012   1.390   5.018  0.4257 -0.1944 -0.1854
17720SOL    HW154601   6.070   1.366   5.090  0.5998 -0.7952 -0.5147
17720SOL    HW254602   5.945   1.444   5.058 -0.4689 -1.9151  0.7862
17721SOL     OW54603   6.506   2.238   5.564  0.5769 -0.4876 -0.6527
17721SOL    HW154604   6.544   2.158   5.600  0.9626 -0.5187 -1.1172
17721SOL    HW254605   6.438   2.208   5.504 -0.5030 -0.4220  0.5058
17722SOL     OW54606   5.782   3.466   9.888 -0.7102  0.2349  0.1214
17722SOL    HW154607   5.824   3.457   9.974  0.6582  0.9030 -0.4444
17722SOL    HW254608   5.757   3.376   9.864 -0.3848 -0.0623  0.8551
17723SOL     OW54609   4.762   6.204   8.133  0.2529 -0.2735  0.2804
17723SOL    HW154610   4.724   6.292   8.124  0.1067 -0.2847  0.7333
17723SOL    HW254611   4.690   6.145   8.111  0.1388 -0.2883  0.6840
17724SOL     OW54612   3.408   5.655   5.635 -0.4069  0.4528 -0.3879
17724SOL    HW154613   3.412   5.562   5.659 -0.1547  0.6335  0.2922
17724SOL    HW254614   3.476   5.696   5.688 -1.7962  1.3380  0.8040
17725SOL     OW54615   2.251   0.267   0.307  0.5242  0.4005 -0.0495
17725SOL    HW154616   2.218   0.244   0.220  0.8375 -0.3854  0.0388
17725SOL    HW254617   2.183   0.237   0.367  0.0158  1.4961 -0.0415
17726SOL     OW54618   1.289   5.876   4.302  0.2546 -0.0779 -0.1684
17726SOL    HW154619   1.217   5.933   4.274  0.5160  0.7072  0.7054
17726SOL    HW254620   1.340   5.861   4.222 -0.1901  0.3780 -0.5464
17727SOL     OW54621   0.598   2.323   1.498  0.2547 -0.5146 -0.2690
17727SOL    HW154622   0.635   2.411   1.487 -0.6665 -0.2806 -1.9729
17727SOL    HW254623   0.558   2.324   1.585  0.6482  0.6119 -0.0886
17728SOL     OW54624   5.372   2.387  10.832 -0.7597  0.3138  0.1001
17728SOL    HW154625   5.384   2.469  10.785 -0.3725  0.3633  0.2792
17728SOL    HW254626   5.279   2.383  10.851 -0.6924  1.0092  0.6263
17729SOL     OW54627   4.025   3.273  12.305 -0.7616  0.4091  0.7556
17729SOL    HW154628   3.941   3.240  12.273 -0.5283  0.2396  0.3150
17729SOL    HW254629   4.076   3.291  12.226  1.3196 -3.7262  0.8607
17730SOL     OW54630   3.686   3.296   5.118 -0.0111  0.2417  0.1261
17730SOL    HW154631   3.658   3.225   5.060 -0.2966  0.4066  0.0612
17730SOL    HW254632   3.772   3.323   5.083 -0.4072  0.6779 -0.5326
17731SOL     OW54633   0.772   5.580   2.542  0.2214  0.2324 -0.3331
17731SOL    HW154634   0.765   5.499   2.493  0.1313 -0.2144  0.4034
17731SOL    HW254635   0.685   5.594   2.578  0.4801  0.1301  0.3461
17732SOL     OW54636   4.491   1.029  10.234  0.0244  0.6961  0.5615
17732SOL    HW154637   4.517   0.987  10.316 -0.5731  1.9007  1.4066
17732SOL    HW254638   4.437   0.964  10.190  2.7283 -1.1024 -0.3236
17733SOL     OW54639   6.903   1.136   1.625 -0.3404 -0.2258  0.0748
17733SOL    HW154640   6.974   1.081   1.591  0.5204  1.1093 -0.4008
17733SOL    HW254641   6.842   1.075   1.666  0.5603 -1.5167 -0.4457
17734SOL     OW54642   2.209   5.337   2.675  0.4070  0.0688 -0.6217
17734SOL    HW154643   2.253   5.303   2.598  0.2569 -1.0329 -0.2390
17734SOL    HW254644   2.129   5.285   2.682  0.7609 -0.3379  0.6750
17735SOL     OW54645   7.734   7.125   7.796  0.5501  0.3127 -0.4986
17735SOL    HW154646   7.785   7.054   7.757  1.1199  0.8293 -0.7266
17735SOL    HW254647   7.652   7.084   7.823  0.1435 -0.0953 -2.1848
17736SOL     OW54648   6.771   2.097   0.726  0.5862 -0.9330  0.1360
17736SOL    HW154649   6.745   2.049   0.647  1.1533 -0.3462 -0.4132
17736SOL    HW254650   6.770   2.189   0.700  2.9824 -0.8347  0.1149
17737SOL     OW54651   5.712   4.106   4.581 -0.2326  0.2798  0.0934
17737SOL    HW154652   5.700   4.173   4.514 -1.7202  0.4226  0.4680
17737SOL    HW254653   5.771   4.147   4.645 -2.4264  1.9762  1.1831
17738SOL     OW54654   3.922   7.795   2.958 -0.0921 -0.3945 -0.0220
17738SOL    HW154655   3.930   7.789   3.053 -2.7078  1.8436  0.4793
17738SOL    HW254656   4.003   7.839   2.929  0.7963 -1.2315  1.1196
17739SOL     OW54657   3.699   3.005  12.219 -0.1873 -0.6317  0.4700
17739SOL    HW154658   3.772   3.030  12.162 -0.1585  0.3871  0.9276
17739SOL    HW254659   3.724   2.919  12.253 -0.2898 -1.3556 -1.1724
17740SOL     OW54660   1.868   1.535   8.654  0.3940  0.2697 -0.1233
17740SOL    HW154661   1.958   1.559   8.678 -0.3102  0.3529  2.8058
17740SOL    HW254662   1.852   1.581   8.572  2.2486  2.1463  0.4811
17741SOL     OW54663   7.532   2.412   8.776  0.1155  0.2930  0.1301
17741SOL    HW154664   7.474   2.483   8.804  0.4237  0.1710  1.1016
17741SOL    HW254665   7.476   2.356   8.723  0.0511  1.6594 -1.3317
17742SOL     OW54666   3.491   6.628   3.834 -0.0517 -0.0856 -0.4143
17742SOL    HW154667   3.409   6.671   3.860 -0.2762 -0.1786 -0.9458
17742SOL    HW254668   3.467   6.574   3.759  0.6911  0.6571 -1.2127
17743SOL     OW54669   0.884   4.566   4.457  0.1176 -0.3057  0.0883
17743SOL    HW154670   0.839   4.642   4.493  0.3961 -0.5545  0.9821
17743SOL    HW254671   0.976   4.591   4.454  0.4258 -1.0811  1.7451
17744SOL     OW54672   2.520   3.727   2.619  0.4324 -0.5925 -0.5415
17744SOL    HW154673   2.445   3.778   2.589 -0.5139 -0.5222  1.7263
17744SOL    HW254674   2.546   3.769   2.701  2.8958 -0.7032 -1.1951
17745SOL     OW54675   4.629   0.966  11.587  0.1368  0.2070 -0.3563
17745SOL    HW154676   4.723   0.977  11.572  0.1300 -0.1449 -0.6860
17745SOL    HW254677   4.597   0.924  11.508 -0.5852  1.7207 -0.8895
17746SOL     OW54678   5.758   6.498   9.139  0.1080  0.0065 -0.3729
17746SOL    HW154679   5.847   6.511   9.171 -0.3351 -1.2603  1.5417
17746SOL    HW254680   5.706   6.484   9.218 -2.0161  1.7193 -1.3519
17747SOL     OW54681   5.290   1.000   1.426 -0.1863  0.0988  0.5053
17747SOL    HW154682   5.326   0.967   1.509 -1.1758 -0.5454  0.6965
17747SOL    HW254683   5.285   0.923   1.370  2.0115  0.7958 -0.7874
17748SOL     OW54684   6.602   4.723   5.110  0.1840 -0.5360 -0.0473
17748SOL    HW154685   6.557   4.740   5.193  0.1545 -0.4596 -0.0779
17748SOL    HW254686   6.554   4.650   5.071 -0.1038 -0.2576 -0.2202
17749SOL     OW54687   5.049   7.310   6.685  0.1839  0.6786  0.3289
17749SOL    HW154688   5.098   7.374   6.634 -0.3121 -0.2229 -1.3810
17749SOL    HW254689   5.095   7.304   6.769  3.3320 -0.4426 -1.3262
17750SOL     OW54690   3.787   7.305   3.171  0.0895 -0.2558  0.4413
17750SOL    HW154691   3.765   7.293   3.078 -0.7146 -1.1998  0.7233
17750SOL    HW254692   3.835   7.225   3.194  1.7367  0.7037  0.4522
17751SOL     OW54693   2.386   4.075  11.631 -0.0785 -0.0813 -0.4600
17751SOL    HW154694   2.407   4.158  11.588  1.2850 -0.0111  0.2804
17751SOL    HW254695   2.471   4.042  11.661 -0.9313 -0.2171  1.9999
17752SOL     OW54696   7.477   6.310  12.278 -0.0540  0.0105  0.7277
17752SOL    HW154697   7.520   6.369  12.340 -0.1612  0.0475  0.7671
17752SOL    HW254698   7.531   6.232  12.277 -1.5389 -1.1534  2.9930
17753SOL     OW54699   4.800   5.812   5.365 -0.0576  0.0707 -0.1313
17753SOL    HW154700   4.767   5.761   5.439 -0.2657  0.8608  0.3363
17753SOL    HW254701   4.894   5.794   5.363  0.9469  3.4107  3.2217
17754SOL     OW54702   3.936   0.796   1.479  0.5368  0.0472 -0.0277
17754SOL    HW154703   3.868   0.833   1.536 -0.2974 -1.1685 -0.1981
17754SOL    HW254704   3.999   0.757   1.540 -0.2234 -1.0274  0.0862
17755SOL     OW54705   6.357   0.151   4.336 -0.1689  0.1359 -0.1299
17755SOL    HW154706   6.303   0.082   4.298  0.5428 -0.5652  0.1067
17755SOL    HW254707   6.304   0.230   4.328 -0.2020 -0.0392 -2.2382
17756SOL     OW54708   4.282   7.023  10.514 -0.6888 -0.1599 -0.0834
17756SOL    HW154709   4.325   6.989  10.592 -1.2696  0.5026  0.5436
17756SOL    HW254710   4.349   7.021  10.446  0.0145 -0.1314  0.5980
17757SOL     OW54711   6.190   7.941   3.489 -0.1497 -0.3058 -0.0224
17757SOL    HW154712   6.188   7.971   3.398  0.8335  0.1054  0.0744
17757SOL    HW254713   6.174   7.847   3.483 -0.2592 -0.2563 -0.6050
17758SOL     OW54714   2.804   7.182   4.127 -0.0750  0.0649  0.3455
17758SOL    HW154715   2.834   7.133   4.204  1.5932  2.1391  1.1077
17758SOL    HW254716   2.868   7.253   4.118 -1.0645  0.7156 -2.1139
17759SOL     OW54717   5.298   6.184   6.568 -0.0922  0.6188 -0.0143
17759SOL    HW154718   5.261   6.258   6.521 -1.0828  0.6513  0.7715
17759SOL    HW254719   5.379   6.163   6.521 -0.7776  0.9646 -1.4101
17760SOL     OW54720   3.538   7.082   1.465  0.0569  0.3773  0.0877
17760SOL    HW154721   3.586   7.079   1.382  0.2267 -1.7820  0.2092
17760SOL    HW254722   3.602   7.112   1.529 -0.3452  3.1116 -0.6641
17761SOL     OW54723   2.112   7.844   0.385 -0.8386 -0.2203  0.0785
17761SOL    HW154724   2.092   7.861   0.294 -0.0424  0.4799  0.0186
17761SOL    HW254725   2.092   7.926   0.430  3.0701  1.1302 -0.2139
17762SOL     OW54726   3.770   0.807   6.075  0.0319  0.4014  0.3263
17762SOL    HW154727   3.861   0.797   6.048  0.3457  2.7040  0.3801
17762SOL    HW254728   3.721   0.749   6.016  1.4123 -0.1629 -0.3157
17763SOL     OW54729   3.575   6.574   7.401  0.1746  0.1096  0.0897
17763SOL    HW154730   3.613   6.487   7.411 -2.2835 -1.4641 -2.6780
17763SOL    HW254731   3.512   6.581   7.473 -0.8905 -1.2175 -0.6741
17764SOL     OW54732   6.069   3.436  11.527 -0.5999  0.1995 -0.1455
17764SOL    HW154733   6.095   3.348  11.554 -0.6653  0.5564  1.1479
17764SOL    HW254734   6.150   3.479  11.501 -0.5015 -0.0750 -0.2971
17765SOL     OW54735   3.454   0.824   1.891 -0.0636  0.1951 -0.1708
17765SOL    HW154736   3.468   0.761   1.962  1.3463  0.1917 -0.4213
17765SOL    HW254737   3.386   0.784   1.837  0.3293 -0.7946  0.0456
17766SOL     OW54738   3.054   1.710   8.157 -0.6370 -0.2311  0.3447
17766SOL    HW154739   2.973   1.753   8.184 -1.3708 -1.3000 -0.1056
17766SOL    HW254740   3.047   1.703   8.062 -0.3657 -0.9787  0.3704
17767SOL     OW54741   5.205   2.460   8.577  0.1220  1.1968 -0.2076
17767SOL    HW154742   5.292   2.467   8.616  0.7155 -2.3075 -0.5542
17767SOL    HW254743   5.179   2.369   8.592 -2.6279  1.5845 -1.8940
17768SOL     OW54744   0.026   2.658   6.669 -0.0087  0.3938  0.5332
17768SOL    HW154745   0.055   2.734   6.619 -0.5379  0.9751  1.0854
17768SOL    HW254746  -0.044   2.692   6.725  0.4341 -0.2840  1.5155
17769SOL     OW54747   1.564   1.206   3.512 -0.0394 -0.1429 -0.0437
17769SOL    HW154748   1.470   1.190   3.505  0.1347 -1.3530  0.1583
17769SOL    HW254749   1.574   1.299   3.491 -0.9948 -0.5650 -2.8838
17770SOL     OW54750   5.301   7.218  11.457  0.2379  0.2156 -0.3593
17770SOL    HW154751   5.326   7.310  11.447  1.2468 -0.0622 -0.4875
17770SOL    HW254752   5.309   7.200  11.550  0.6540  0.1006 -0.4124
17771SOL     OW54753   7.005   5.452  11.912  0.1220  0.2180  0.4295
17771SOL    HW154754   6.914   5.453  11.940  0.1077 -0.0508  0.3875
17771SOL    HW254755   7.046   5.383  11.964 -0.1424 -1.0206 -0.9506
17772SOL     OW54756   6.344   4.890   7.354 -0.2269  0.4600 -0.3634
17772SOL    HW154757   6.405   4.822   7.324  0.9958  1.2669  0.1989
17772SOL    HW254758   6.262   4.844   7.370  1.0781 -1.2726  1.8342
17773SOL     OW54759   3.377   0.270   3.910  0.1613  0.0111  0.3844
17773SOL    HW154760   3.427   0.278   3.991 -0.7603  1.9532  0.8099
17773SOL    HW254761   3.300   0.325   3.924  0.3079  0.9343 -2.0458
17774SOL     OW54762   0.274   5.889  11.946  0.1712  0.0836 -0.3117
17774SOL    HW154763   0.274   5.836  11.867  1.2725 -1.3453  0.5956
17774SOL    HW254764   0.322   5.968  11.922 -1.3556  0.6607 -1.6355
17775SOL     OW54765   3.386   5.248   7.933  0.4919 -0.3696  0.4719
17775SOL    HW154766   3.445   5.180   7.901  0.6330  0.9092 -2.2618
17775SOL    HW254767   3.299   5.219   7.905  0.2651 -0.4308  1.2082
17776SOL     OW54768   3.624   1.953   7.038  0.7388 -0.0805 -0.4254
17776SOL    HW154769   3.580   2.027   7.081  1.5652  1.0243 -1.4290
17776SOL    HW254770   3.594   1.957   6.947  1.1146 -0.7364 -0.5820
17777SOL     OW54771   7.964   5.109  11.614 -0.6035  0.1414 -0.4381
17777SOL    HW154772   7.975   5.203  11.624  0.5511 -0.0739  0.6616
17777SOL    HW254773   7.963   5.075  11.704  2.1661 -1.1693 -0.7997
17778SOL     OW54774   3.448   1.779   9.775  0.4381 -0.3508 -0.3341
17778SOL    HW154775   3.385   1.751   9.708  0.3035  0.4617 -0.5564
17778SOL    HW254776   3.533   1.755   9.739  0.2842 -1.2041 -0.1546
17779SOL     OW54777   1.299   2.159   6.021  0.2247  0.3650 -0.3412
17779SOL    HW154778   1.322   2.224   6.088 -0.1900 -0.4144  0.5906
17779SOL    HW254779   1.215   2.124   6.051 -0.0143  0.0726 -1.3403
17780SOL     OW54780   5.215   1.635   0.070 -0.4964  0.3072 -0.5263
17780SOL    HW154781   5.299   1.604   0.105 -1.3018  0.0663  1.2997
17780SOL    HW254782   5.228   1.728   0.055  0.1603  0.2281 -0.4853
17781SOL     OW54783   4.514   4.005  11.633  0.1979 -0.0057 -0.1526
17781SOL    HW154784   4.492   3.915  11.607  1.8657 -0.3781 -0.3663
17781SOL    HW254785   4.565   4.039  11.560  1.3860  0.3743  0.8238
17782SOL     OW54786   1.718   2.754   6.919  0.5340  0.8265 -0.1625
17782SOL    HW154787   1.800   2.803   6.918  0.7092  0.5449  0.0018
17782SOL    HW254788   1.695   2.749   7.012  0.2919  0.9638 -0.2128
17783SOL     OW54789   0.817   5.157   1.284  0.5557 -0.7256 -0.2685
17783SOL    HW154790   0.832   5.068   1.253  2.4424 -0.2346 -0.9215
17783SOL    HW254791   0.860   5.160   1.370  0.4609 -0.4625 -0.2295
17784SOL     OW54792   5.846   0.903  11.190 -0.1467  0.3048 -0.3304
17784SOL    HW154793   5.785   0.841  11.149 -0.0123 -1.0257  1.3497
17784SOL    HW254794   5.793   0.980  11.210 -0.5532  0.3713 -1.5997
17785SOL     OW54795   4.612   6.661   9.016 -0.1098  0.1352 -0.5722
17785SOL    HW154796   4.571   6.702   9.092 -1.1043 -0.1548 -0.9305
17785SOL    HW254797   4.632   6.734   8.957 -0.3798  0.2559 -0.5147
17786SOL     OW54798   2.929   6.672   5.647  0.1585  0.2387 -0.2569
17786SOL    HW154799   2.993   6.735   5.615  1.1494 -0.8323 -0.4851
17786SOL    HW254800   2.874   6.722   5.707  0.9155  1.3082 -0.4203
17787SOL     OW54801   1.807   6.967   8.552 -0.4385  0.1208  0.4286
17787SOL    HW154802   1.730   6.913   8.535  1.0015 -2.4188  1.3356
17787SOL    HW254803   1.853   6.921   8.623  1.6457  1.7974  0.2704
17788SOL     OW54804   1.612   3.862   0.919  0.0196 -0.4152 -0.2689
17788SOL    HW154805   1.624   3.792   0.983  1.1704 -0.0353 -0.0649
17788SOL    HW254806   1.612   3.943   0.970  3.5177  0.1294 -0.9054
17789SOL     OW54807   1.342   3.264   7.147  0.2882 -0.3358 -0.1704
17789SOL    HW154808   1.262   3.213   7.152 -0.4914  0.8692  0.2506
17789SOL    HW254809   1.366   3.264   7.055 -1.3938  1.0202 -0.6619
17790SOL     OW54810   6.544   7.243   4.746 -0.3840 -0.0081  0.2117
17790SOL    HW154811   6.622   7.201   4.783  0.0768 -1.4562 -2.1627
17790SOL    HW254812   6.574   7.330   4.718 -0.3754  0.5220  1.8086
17791SOL     OW54813   6.492   1.708  11.124 -0.1220  0.3717 -0.7070
17791SOL    HW154814   6.425   1.653  11.083 -0.9584  1.4584 -0.8419
17791SOL    HW254815   6.549   1.733  11.052  0.1850 -0.1866 -0.6681
17792SOL     OW54816   1.974   6.986  10.471 -0.0088  0.2446  0.0637
17792SOL    HW154817   1.885   7.019  10.479  0.6165  1.9490  0.4933
17792SOL    HW254818   1.998   6.960  10.560 -0.0959 -0.2807 -0.0639
17793SOL     OW54819   6.676   7.639   2.525 -0.5998 -0.3250 -0.6234
17793SOL    HW154820   6.637   7.688   2.451  1.5096  2.4640 -0.0553
17793SOL    HW254821   6.754   7.599   2.488  0.1989  0.6754 -0.0625
17794SOL     OW54822   5.765   1.649   3.200  0.0526 -0.3395  0.5774
17794SOL    HW154823   5.686   1.699   3.220 -0.7064 -1.0271 -0.6024
17794SOL    HW254824   5.742   1.558   3.220  0.3805 -0.6016 -0.1960
17795SOL     OW54825   5.865   2.012   4.690 -0.0584 -0.3341 -0.3683
17795SOL    HW154826   5.917   2.013   4.610 -0.0878  0.8360 -0.3966
17795SOL    HW254827   5.801   1.942   4.677 -0.3912  0.1847 -1.5937
17796SOL     OW54828   0.317   3.210   6.347 -0.1397 -0.0680 -0.1236
17796SOL    HW154829   0.360   3.204   6.262  0.5257  0.8359  0.1352
17796SOL    HW254830   0.317   3.303   6.368 -2.1341 -0.0345 -0.0521
17797SOL     OW54831   5.249   0.132   9.081 -0.2036 -0.5596 -0.1120
17797SOL    HW154832   5.306   0.148   9.006  0.4098 -0.2413  0.4166
17797SOL    HW254833   5.169   0.180   9.061  0.3592  0.4068 -0.0724
17798SOL     OW54834   0.028   2.291  10.637 -0.0650  0.0344  0.0143
17798SOL    HW154835  -0.046   2.327  10.687 -0.9925 -2.5148  0.5940
17798SOL    HW254836   0.095   2.274  10.703  0.2942  0.4837 -0.2287
17799SOL     OW54837   4.595   4.032   1.891 -0.3997  0.1187  0.5384
17799SOL    HW154838   4.618   4.020   1.799 -0.8514  0.4318  0.3771
17799SOL    HW254839   4.499   4.025   1.893 -0.3661 -0.3169  1.0515
17800SOL     OW54840   5.116   6.400   9.619  0.1484  0.2574  0.1154
17800SOL    HW154841   5.046   6.409   9.553  0.5800  1.5301 -0.2003
17800SOL    HW254842   5.103   6.474   9.677  1.7976  1.0673 -0.4981
17801SOL     OW54843   3.192   6.041   0.352 -0.5511  0.5481 -0.1494
17801SOL    HW154844   3.203   6.126   0.396  0.6176  0.3893 -0.0970
17801SOL    HW254845   3.103   6.043   0.317 -0.8193  1.4659  0.5556
17802SOL     OW54846   7.637   7.360   1.387  0.7083 -0.1664 -0.6633
17802SOL    HW154847   7.668   7.412   1.461  0.5813 -0.9319 -0.0485
17802SOL    HW254848   7.583   7.420   1.336 -0.8054 -0.0879  0.9216
17803SOL     OW54849   7.781   1.634   3.596  0.1319  0.2649 -0.2556
17803SOL    HW154850   7.768   1.729   3.592 -1.4328  0.2068  1.8828
17803SOL    HW254851   7.743   1.602   3.514  1.1382  1.4748 -1.2542
17804SOL     OW54852   0.650   7.117   7.058  0.3315 -0.0756  0.3747
17804SOL    HW154853   0.685   7.185   7.117  0.2665  0.3557 -0.0793
17804SOL    HW254854   0.580   7.076   7.108 -0.0032  0.5691  0.4505
17805SOL     OW54855   5.651   2.155  12.075  0.3004 -0.2673  0.2867
17805SOL    HW154856   5.728   2.153  12.018  0.1394  0.7282  0.0287
17805SOL    HW254857   5.577   2.137  12.018  0.3556 -1.6979  0.6141
17806SOL     OW54858   6.896   3.630   4.253  0.2641  0.5948  0.3854
17806SOL    HW154859   6.965   3.647   4.190  0.3321  0.1238  0.3326
17806SOL    HW254860   6.819   3.673   4.216  0.2958  0.2961 -0.0328
17807SOL     OW54861   0.105   2.540   1.948  0.2092  0.0467  0.4287
17807SOL    HW154862   0.059   2.548   1.864  0.6822 -0.0020  0.1593
17807SOL    HW254863   0.079   2.617   1.997  0.4152  0.3966 -0.0054
17808SOL     OW54864   1.872   1.964  11.998  0.2922 -0.2512  0.0919
17808SOL    HW154865   1.865   2.059  11.986  0.9401 -0.3748 -1.5468
17808SOL    HW254866   1.956   1.941  11.958  0.3710 -1.4671  0.8995
17809SOL     OW54867   6.692   5.518  10.064  0.3924 -0.0678 -0.2689
17809SOL    HW154868   6.722   5.464   9.991 -1.9336 -1.0846 -0.5531
17809SOL    HW254869   6.728   5.605  10.045  1.5458 -0.7680 -1.5092
17810SOL     OW54870   5.288   1.582   5.967  0.0115  0.1703 -0.0646
17810SOL    HW154871   5.304   1.630   6.048 -1.2444  0.8528 -0.1966
17810SOL    HW254872   5.206   1.534   5.984 -0.4462  0.5906 -1.0341
17811SOL     OW54873   6.537   5.332   2.411 -0.0429 -0.6458 -0.8040
17811SOL    HW154874   6.539   5.239   2.433  1.9861 -0.2889  0.8218
17811SOL    HW254875   6.585   5.375   2.482 -0.0199  1.5323 -2.0422
17812SOL     OW54876   5.098   0.750   4.656  0.6576 -0.9256  0.3751
17812SOL    HW154877   5.093   0.799   4.738  1.7236 -0.9146  0.4477
17812SOL    HW254878   5.012   0.761   4.616  1.5146  3.0251 -0.8042
17813SOL     OW54879   3.575   7.231  10.891 -0.1802  0.3219 -0.2467
17813SOL    HW154880   3.531   7.288  10.953  1.5741  1.2383  0.2314
17813SOL    HW254881   3.656   7.205  10.935 -0.5342 -1.9179 -0.7826
17814SOL     OW54882   5.341   1.443   2.315 -0.1853 -0.0245  0.0048
17814SOL    HW154883   5.260   1.455   2.266 -0.4808  1.2948  0.7824
17814SOL    HW254884   5.324   1.481   2.401  1.1808  0.0871  0.2583
17815SOL     OW54885   4.854   3.530   3.261  0.0116 -0.2763 -0.5112
17815SOL    HW154886   4.873   3.571   3.345 -0.8675 -0.4740 -0.2021
17815SOL    HW254887   4.834   3.439   3.283 -1.0295 -0.1358 -0.8306
17816SOL     OW54888   6.876   4.070   1.448 -0.2683  0.0736  0.2956
17816SOL    HW154889   6.870   4.036   1.537 -1.8528  0.1513  0.2527
17816SOL    HW254890   6.786   4.094   1.426  0.0243 -0.3106 -1.4683
17817SOL     OW54891   7.616   5.457   3.581  0.1133 -0.2860  0.4236
17817SOL    HW154892   7.637   5.381   3.526 -1.7271 -0.2348 -0.4322
17817SOL    HW254893   7.625   5.532   3.522  0.4371  0.0025  0.8418
17818SOL     OW54894   0.097   4.827   0.588  0.1762  0.2606  0.1936
17818SOL    HW154895   0.139   4.867   0.664 -1.0223 -0.7651  1.4543
17818SOL    HW254896   0.050   4.751   0.624  0.7250 -1.0882 -1.7849
17819SOL     OW54897   4.364   2.161  12.150  0.3649  0.1650  0.3027
17819SOL    HW154898   4.367   2.254  12.176 -0.0498 -0.1336  1.4615
17819SOL    HW254899   4.279   2.130  12.181  0.4131 -0.5548 -0.2705
17820SOL     OW54900   7.045   7.148   8.603  0.0003 -0.2483 -0.1721
17820SOL    HW154901   7.055   7.224   8.659  0.4159  0.6650 -1.4408
17820SOL    HW254902   6.951   7.133   8.598 -0.3979  2.2959 -2.5589
17821SOL     OW54903   1.658   4.937   2.520 -0.0218 -0.1114 -0.1214
17821SOL    HW154904   1.580   4.991   2.535 -1.1684 -1.6782 -0.1615
17821SOL    HW254905   1.646   4.902   2.432  1.2127  0.3596 -0.4912
17822SOL     OW54906   6.132   1.001   2.741 -0.0176 -0.4333  0.4599
17822SOL    HW154907   6.064   1.034   2.682  0.8996 -1.0746 -1.0147
17822SOL    HW254908   6.196   1.073   2.746  1.1180 -1.2314 -1.3642
17823SOL     OW54909   7.093   2.995  11.906 -0.0036  0.7871 -0.7837
17823SOL    HW154910   7.011   2.963  11.869  0.5650 -1.5286 -0.2230
17823SOL    HW254911   7.159   2.972  11.840  0.6310 -0.7668  0.3269
17824SOL     OW54912   3.103   6.496   4.465  0.1859 -0.1760 -0.0269
17824SOL    HW154913   3.098   6.524   4.557 -0.8394 -0.2021 -0.0574
17824SOL    HW254914   3.195   6.505   4.442  0.5266 -0.5353  1.1221
17825SOL     OW54915   6.686   4.528   9.470 -0.2333  0.0676 -0.3171
17825SOL    HW154916   6.694   4.623   9.463 -0.6702  0.0728 -0.8222
17825SOL    HW254917   6.597   4.509   9.438  0.8139 -0.7730 -2.9848
17826SOL     OW54918   0.414   6.534   8.805  0.2347  0.2615  0.3620
17826SOL    HW154919   0.494   6.486   8.826  1.7800  2.5414  0.0553
17826SOL    HW254920   0.410   6.532   8.710  0.3283  0.7562  0.3476
17827SOL     OW54921   6.148   5.763  10.392 -0.0555  0.2887 -0.0600
17827SOL    HW154922   6.160   5.827  10.462  2.7200  0.9102 -0.9641
17827SOL    HW254923   6.106   5.812  10.321  1.1744  0.8903 -0.3955
17828SOL     OW54924   7.093   6.634   4.380  0.3327  0.0831 -0.0251
17828SOL    HW154925   7.087   6.685   4.460  0.1448  3.1054 -1.8224
17828SOL    HW254926   7.003   6.607   4.362  0.0796  0.9368 -0.1037
17829SOL     OW54927   0.136   3.623   9.780 -0.3316  0.7975 -0.0723
17829SOL    HW154928   0.101   3.656   9.863  2.8213  0.2652  1.6682
17829SOL    HW254929   0.090   3.541   9.765 -0.5166  0.5541  1.5843
17830SOL     OW54930   6.147   0.592  10.578 -0.1276 -0.0265  0.1344
17830SOL    HW154931   6.157   0.626  10.489  0.7215 -2.1798 -0.6500
17830SOL    HW254932   6.120   0.668  10.629 -0.2360  1.3693 -1.8659
17831SOL     OW54933   4.963   5.097  11.390  0.0393 -0.3292  0.1392
17831SOL    HW154934   4.945   5.187  11.364 -2.7529 -1.3289 -2.0279
17831SOL    HW254935   4.877   5.062  11.414  0.6930 -2.8953 -0.9041
17832SOL     OW54936   0.189   2.290  10.850  0.0801  0.0330 -0.0902
17832SOL    HW154937   0.169   2.247  10.933  0.9982  1.0319  0.6764
17832SOL    HW254938   0.284   2.300  10.850  0.1699 -0.5330 -1.5737
17833SOL     OW54939   7.280   0.217   1.388 -0.0454  0.0905 -0.2828
17833SOL    HW154940   7.344   0.231   1.317 -1.0645  1.6748 -0.9309
17833SOL    HW254941   7.210   0.166   1.346  0.4660 -1.1062  0.2671
17834SOL     OW54942   1.450   5.497   8.787 -0.0798  0.1807  0.0192
17834SOL    HW154943   1.484   5.426   8.734  2.1982  1.2881 -0.1099
17834SOL    HW254944   1.355   5.487   8.783  0.1491 -2.2172 -0.8034
17835SOL     OW54945   1.424   5.289   9.805 -0.4564 -0.0380 -0.0461
17835SOL    HW154946   1.339   5.311   9.842  0.0818  0.8026  0.7229
17835SOL    HW254947   1.473   5.251   9.878  0.2301  0.5751 -0.1808
17836SOL     OW54948   5.519   0.211  11.358 -0.1855  0.1320 -0.2843
17836SOL    HW154949   5.522   0.287  11.417 -1.0911  0.5462 -0.7560
17836SOL    HW254950   5.563   0.141  11.408 -0.3512  0.6478  0.6171
17837SOL     OW54951   2.780   2.900   8.309 -0.1692 -0.1766  0.0289
17837SOL    HW154952   2.826   2.964   8.364 -0.7720  0.9439 -0.7313
17837SOL    HW254953   2.775   2.942   8.223 -2.9222 -0.0424  0.1585
17838SOL     OW54954   2.919   2.042   8.409 -0.7452  0.2220 -0.2257
17838SOL    HW154955   2.870   2.070   8.486 -0.2370 -2.7610  1.3119
17838SOL    HW254956   3.008   2.026   8.442 -1.1130 -3.5945 -0.7070
17839SOL     OW54957   3.177   6.332   2.694  0.1587  0.2010 -0.2459
17839SOL    HW154958   3.256   6.349   2.744  0.2931  0.7879 -0.6527
17839SOL    HW254959   3.200   6.353   2.603 -0.6503  1.0473 -0.2740
17840SOL     OW54960   3.948   1.679   6.351 -0.0677  0.5651 -0.3615
17840SOL    HW154961   3.890   1.741   6.395 -1.2940 -1.0373  0.3373
17840SOL    HW254962   3.907   1.663   6.266 -0.7072 -0.5939  0.1457
17841SOL     OW54963   5.397   0.356   7.076 -0.3428  0.5195  0.2353
17841SOL    HW154964   5.333   0.425   7.094 -0.8779  0.2663 -0.6369
17841SOL    HW254965   5.393   0.344   6.981 -1.0118 -1.4143  0.4674
17842SOL     OW54966   5.671   1.389   4.178  0.3375 -0.1827  0.2239
17842SOL    HW154967   5.692   1.470   4.226  0.2108  0.5712 -0.9516
17842SOL    HW254968   5.639   1.420   4.093 -2.2286 -1.3918  0.6707
17843SOL     OW54969   0.413   6.924   7.754 -0.8814  0.2909  0.1271
17843SOL    HW154970   0.453   7.002   7.794  1.3414  0.7226 -2.6208
17843SOL    HW254971   0.432   6.853   7.816  0.7072  1.2317  0.7732
17844SOL     OW54972   2.610   6.525   5.440  0.2958 -0.4906 -0.0437
17844SOL    HW154973   2.606   6.618   5.463 -0.3773 -0.5806  0.2186
17844SOL    HW254974   2.703   6.503   5.446  0.3963  0.0298  0.4336
17845SOL     OW54975   7.210   1.293   2.145  0.4897 -0.2664  0.2401
17845SOL    HW154976   7.187   1.363   2.084 -0.0670 -0.4985  0.1793
17845SOL    HW254977   7.132   1.238   2.149  0.3886 -0.0629  1.4316
17846SOL     OW54978   4.408   4.986   1.891  0.3128  0.0548 -0.0479
17846SOL    HW154979   4.334   5.037   1.858  1.3098  1.3498 -0.3916
17846SOL    HW254980   4.417   4.913   1.830  0.0501  0.5581 -0.6962
17847SOL     OW54981   5.477   0.401  12.258 -0.1461  0.1675 -0.4454
17847SOL    HW154982   5.505   0.492  12.247  0.4226  0.1570  0.8049
17847SOL    HW254983   5.512   0.375  12.343 -1.6733 -0.7051 -0.0497
17848SOL     OW54984   2.529   6.103  11.389 -0.2695  1.0314 -0.0148
17848SOL    HW154985   2.583   6.133  11.463 -0.8450  1.5287  0.2103
17848SOL    HW254986   2.589   6.105  11.314  0.6320 -0.5096  0.6084
17849SOL     OW54987   3.048   5.298   3.333 -0.1039 -0.1062  0.6326
17849SOL    HW154988   3.070   5.367   3.270  1.9988  0.4729  1.8867
17849SOL    HW254989   2.972   5.332   3.379  1.0583  1.6083  1.4190
17850SOL     OW54990   3.958   5.779   0.572  0.0247 -0.0162 -0.2407
17850SOL    HW154991   3.990   5.868   0.587  1.8516 -0.8233  0.9879
17850SOL    HW254992   4.006   5.749   0.495 -0.0530 -0.1801 -0.2260
17851SOL     OW54993   6.605   4.646   0.398  0.4480 -0.3015 -0.6835
17851SOL    HW154994   6.607   4.616   0.489  0.2889 -0.0023 -0.5819
17851SOL    HW254995   6.556   4.728   0.400 -0.3551 -0.7622 -1.1807
17852SOL     OW54996   2.085   7.943  10.895 -0.3897  0.4507 -0.3134
17852SOL    HW154997   2.003   7.975  10.858 -0.9910 -0.6357  0.0354
17852SOL    HW254998   2.098   7.997  10.974 -0.8906  0.4768 -0.2446
17853SOL     OW54999   7.483   2.204   5.885 -0.0489  1.1309 -0.1379
17853SOL    HW155000   7.498   2.123   5.835 -1.2359  0.4290  0.5922
17853SOL    HW255001   7.502   2.180   5.976 -1.5606  1.3069  0.2549
17854SOL     OW55002   2.254   5.870   1.088 -0.3633  0.2729  0.3502
17854SOL    HW155003   2.271   5.800   1.152  0.0747  1.2311  1.3059
17854SOL    HW255004   2.165   5.851   1.057  0.1211 -1.2997 -0.2016
17855SOL     OW55005   0.756   0.891  10.055  0.9886  0.3432 -0.6641
17855SOL    HW155006   0.691   0.944  10.009  0.7003  0.2547 -0.3626
17855SOL    HW255007   0.801   0.842   9.986  2.2070  1.9932 -1.0904
17856SOL     OW55008   3.778   2.067   3.817 -0.3071 -0.4000  0.8452
17856SOL    HW155009   3.770   2.055   3.723  0.7346 -0.5131  0.7579
17856SOL    HW255010   3.864   2.031   3.838 -0.5413 -0.3998  1.8455
17857SOL     OW55011   4.533   4.304   0.069  0.6219 -0.4560 -0.2733
17857SOL    HW155012   4.495   4.325   0.155 -0.2170 -1.0295 -0.4932
17857SOL    HW255013   4.628   4.309   0.083  0.4913 -0.2180  0.6025
17858SOL     OW55014   5.704   7.400   5.633 -0.6876 -0.8419  0.4819
17858SOL    HW155015   5.690   7.342   5.559 -0.9580 -0.1043 -0.0562
17858SOL    HW255016   5.679   7.348   5.710  0.3350 -1.8778  0.1405
17859SOL     OW55017   2.293   2.180   1.349 -0.5606 -0.1380 -0.4567
17859SOL    HW155018   2.383   2.213   1.342  0.2315 -1.7805  1.3528
17859SOL    HW255019   2.290   2.107   1.287 -0.6682 -0.0812 -0.5190
17860SOL     OW55020   6.892   0.547   4.640  0.6962 -0.1839  0.0199
17860SOL    HW155021   6.800   0.557   4.615  0.5028 -3.0720 -0.6971
17860SOL    HW255022   6.929   0.635   4.629 -1.5351  0.6585 -1.4637
17861SOL     OW55023   4.583   6.412  10.206 -0.2482 -0.3366  0.1115
17861SOL    HW155024   4.596   6.367  10.123  0.3781  0.7600 -0.4169
17861SOL    HW255025   4.669   6.450  10.226 -0.5824  0.0403  0.8696
17862SOL     OW55026   3.562   7.083  10.193  0.2997 -0.3646  0.2184
17862SOL    HW155027   3.566   7.009  10.132  1.3180  0.0198 -0.2006
17862SOL    HW255028   3.650   7.120  10.191 -0.2241  0.9345  0.3354
17863SOL     OW55029   2.060   2.057   2.561  0.2570 -0.7106  0.0522
17863SOL    HW155030   2.126   1.988   2.550 -0.6943 -1.7255  0.5684
17863SOL    HW255031   1.976   2.011   2.562 -0.4623  0.5485 -0.4183
17864SOL     OW55032   6.880   5.946   3.966 -0.1778  0.6529  0.4899
17864SOL    HW155033   6.943   5.933   3.895 -1.6365 -0.6520 -0.6333
17864SOL    HW255034   6.871   6.041   3.972  0.2352  0.8066 -0.8462
17865SOL     OW55035   4.185   3.601   8.793  0.2486  0.0827 -0.0324
17865SOL    HW155036   4.239   3.571   8.720  0.0905  1.4157 -0.7257
17865SOL    HW255037   4.121   3.531   8.805  1.1242 -0.7717 -0.2669
17866SOL     OW55038   2.856   5.584   2.314 -0.2057  0.3235 -0.1607
17866SOL    HW155039   2.908   5.655   2.275  1.0688 -1.3663 -1.6626
17866SOL    HW255040   2.917   5.536   2.369 -1.3029  0.9046  1.6685
17867SOL     OW55041   5.224   6.769   5.285 -0.0451  0.1858 -0.1545
17867SOL    HW155042   5.172   6.838   5.327 -1.7641 -0.8005 -0.5537
17867SOL    HW255043   5.315   6.797   5.298 -0.6595  2.5365 -0.3597
17868SOL     OW55044   4.111   2.176   0.437  0.0523  0.0907 -0.8932
17868SOL    HW155045   4.100   2.150   0.345 -0.3080  0.2431 -0.8940
17868SOL    HW255046   4.199   2.145   0.460 -0.6985 -1.9731 -0.6157
17869SOL     OW55047   0.299   3.725   9.528 -0.0736 -0.3126 -0.0091
17869SOL    HW155048   0.254   3.651   9.567 -1.4222  0.1578 -0.6007
17869SOL    HW255049   0.235   3.796   9.529  0.2597  0.0792 -1.8676
17870SOL     OW55050   1.078   6.986   7.620 -0.1017  0.0470  0.8020
17870SOL    HW155051   1.046   6.969   7.532 -0.1858  0.1343  0.8150
17870SOL    HW255052   1.163   7.028   7.607 -0.2240  0.2807  0.7589
17871SOL     OW55053   0.068   2.943   3.739 -0.5144 -0.0166 -0.1571
17871SOL    HW155054  -0.016   2.903   3.762 -0.7242  0.1194 -0.6834
17871SOL    HW255055   0.096   2.896   3.661 -1.0495  1.2533 -1.1418
17872SOL     OW55056   6.014   6.120   1.430 -0.1673  0.6702 -0.1824
17872SOL    HW155057   6.059   6.204   1.430  1.2280 -0.0360  0.6693
17872SOL    HW255058   5.998   6.102   1.523  2.0775 -1.2453 -0.0759
17873SOL     OW55059   4.393   4.618   8.130 -0.2616 -0.0071 -0.1575
17873SOL    HW155060   4.422   4.689   8.073  0.1825  0.3877  0.5416
17873SOL    HW255061   4.470   4.596   8.182 -0.8802  0.2414  0.8911
17874SOL     OW55062   0.465   4.550   8.570 -0.0566 -0.1150  0.1954
17874SOL    HW155063   0.477   4.469   8.620 -0.1440  1.6421  3.2898
17874SOL    HW255064   0.553   4.572   8.539  0.5128  0.1045  1.8899
17875SOL     OW55065   7.183   0.707   5.572  0.4230  0.7855 -0.5693
17875SOL    HW155066   7.122   0.780   5.562  0.9511  1.6528  1.7815
17875SOL    HW255067   7.269   0.749   5.582  0.8505 -0.1930  0.0019
17876SOL     OW55068   2.878   0.081  11.209  0.0967  0.4343 -0.3861
17876SOL    HW155069   2.836  -0.005  11.214  0.7040  0.2217  1.6640
17876SOL    HW255070   2.808   0.143  11.230 -0.1478  0.3938 -1.0623
17877SOL     OW55071   3.143   0.600  10.736  0.3167  0.1034  0.1666
17877SOL    HW155072   3.228   0.586  10.694  0.2189  0.8420 -0.2926
17877SOL    HW255073   3.082   0.614  10.663  0.2439  1.9856  0.5315
17878SOL     OW55074   2.979   5.439   7.015  0.0022 -0.6128  0.3424
17878SOL    HW155075   2.904   5.423   6.956 -0.2978  0.7668  0.3152
17878SOL    HW255076   2.940   5.480   7.092  0.8120  0.8024  0.0134
17879SOL     OW55077   0.347   7.009  11.249  0.1404  0.2788  0.3010
17879SOL    HW155078   0.273   6.970  11.295 -0.6234  0.0118 -1.0951
17879SOL    HW255079   0.386   6.936  11.201  1.2629  0.4391  0.9472
17880SOL     OW55080   3.788   4.502  11.746 -0.3921 -0.3218  0.2506
17880SOL    HW155081   3.776   4.429  11.807  0.0854 -1.4524 -0.9421
17880SOL    HW255082   3.699   4.535  11.731 -0.7786 -1.4152 -0.0329
17881SOL     OW55083   4.573   1.864   6.860  0.6414 -0.0905 -0.4542
17881SOL    HW155084   4.533   1.786   6.821  0.1232 -1.1002  1.9061
17881SOL    HW255085   4.558   1.854   6.954  0.6548  2.8316 -0.0367
17882SOL     OW55086   3.694   0.661  11.400 -0.2840  0.0684 -0.0804
17882SOL    HW155087   3.625   0.726  11.392  0.4099  0.6512 -1.7197
17882SOL    HW255088   3.691   0.634  11.492 -0.7521  2.2431  0.5902
17883SOL     OW55089   1.787   0.461  10.394 -0.1072  0.1185 -0.0191
17883SOL    HW155090   1.747   0.394  10.340 -2.0801 -0.3322  1.8572
17883SOL    HW255091   1.791   0.538  10.337  0.4270 -1.0081 -1.5943
17884SOL     OW55092   4.682   3.573   7.634  0.4253  0.1776  0.0398
17884SOL    HW155093   4.610   3.635   7.627 -0.4067 -0.5473  1.6641
17884SOL    HW255094   4.719   3.569   7.546  0.4259  2.8392 -0.1752
17885SOL     OW55095   0.732   1.651  10.269  0.1671  0.6478 -0.2466
17885SOL    HW155096   0.819   1.690  10.270  0.5631 -0.1566  2.3859
17885SOL    HW255097   0.745   1.560  10.296 -1.4940  0.5794  0.4734
17886SOL     OW55098   1.119   3.861   7.127  0.3261 -0.0352 -0.1495
17886SOL    HW155099   1.051   3.879   7.192  1.8809  2.0953  1.0138
17886SOL    HW255100   1.181   3.804   7.172  0.9108  0.6471 -0.0690
17887SOL     OW55101   4.376   7.775   3.362  0.4548  0.9477 -0.0597
17887SOL    HW155102   4.318   7.844   3.396 -0.8566  0.2865 -0.8686
17887SOL    HW255103   4.456   7.784   3.414 -0.5012  1.6533  1.3743
17888SOL     OW55104   0.212   2.822   6.058 -0.2708 -0.7399  0.2073
17888SOL    HW155105   0.177   2.832   5.969 -0.8459  0.6158  0.5659
17888SOL    HW255106   0.305   2.802   6.044 -0.0222  0.8531 -0.7188
17889SOL     OW55107   0.666   1.086   4.214 -0.1751  0.0994  0.2711
17889SOL    HW155108   0.675   1.181   4.224 -0.8872  0.1492  0.4821
17889SOL    HW255109   0.738   1.050   4.267  0.3180  0.5259 -0.1047
17890SOL     OW55110   2.758   3.398   2.186  0.6878 -0.0440 -0.0240
17890SOL    HW155111   2.685   3.459   2.191  0.2998 -0.6228  2.0243
17890SOL    HW255112   2.769   3.382   2.092 -0.3043  1.8048 -0.5111
17891SOL     OW55113   7.539   7.341   8.824  0.8540  0.5432 -0.2387
17891SOL    HW155114   7.584   7.294   8.894 -1.7939 -2.0313 -0.0783
17891SOL    HW255115   7.556   7.290   8.745  1.4273  1.7886 -0.9590
17892SOL     OW55116   1.506   6.487  11.439  0.7854 -0.0168 -0.0834
17892SOL    HW155117   1.544   6.513  11.522 -0.7915 -0.5309  0.8426
17892SOL    HW255118   1.422   6.533  11.435  0.5295 -0.5287 -1.0718
17893SOL     OW55119   5.575   7.115   9.942  0.7288  0.2957 -0.1085
17893SOL    HW155120   5.493   7.152   9.912 -0.6990 -2.5875 -0.1031
17893SOL    HW255121   5.551   7.059  10.015  2.7173 -0.5451 -0.0379
17894SOL     OW55122   2.416   1.365  12.125  0.2212  0.0162 -0.1620
17894SOL    HW155123   2.510   1.368  12.143 -0.4445  0.3218  4.6261
17894SOL    HW255124   2.401   1.439  12.066  3.0242 -0.7048 -1.9625
17895SOL     OW55125   1.919   5.147   2.124  0.4303  0.2555 -0.0301
17895SOL    HW155126   1.921   5.208   2.050  0.4208 -0.0077 -0.2484
17895SOL    HW255127   1.872   5.194   2.193  1.8232  1.1106  0.3611
17896SOL     OW55128   1.353   5.941  10.381  0.0420  0.0997 -0.2258
17896SOL    HW155129   1.358   5.845  10.384  1.7234  0.1248 -1.0837
17896SOL    HW255130   1.282   5.958  10.319  1.7504 -0.6886 -2.5790
17897SOL     OW55131   3.954   2.199  11.522  0.2307  0.0115  0.1777
17897SOL    HW155132   4.000   2.139  11.581 -0.7263 -0.8106  0.1137
17897SOL    HW255133   4.024   2.244  11.475  0.9805 -1.2415  0.0453
17898SOL     OW55134   1.824   6.836   4.861  0.0754  0.1496  0.0444
17898SOL    HW155135   1.829   6.748   4.826  0.5784  0.1461  0.1209
17898SOL    HW255136   1.777   6.886   4.794 -1.7860 -0.5487  0.7570
17899SOL     OW55137   5.554   6.074   3.232  0.1417  0.1107 -0.2620
17899SOL    HW155138   5.570   6.039   3.320 -2.2635  1.0150  0.6292
17899SOL    HW255139   5.629   6.132   3.216  1.1151 -0.8018  0.7526
17900SOL     OW55140   5.361   2.678   5.196 -0.0582 -0.2585  0.3599
17900SOL    HW155141   5.270   2.683   5.226 -0.2137 -1.1392  0.0619
17900SOL    HW255142   5.357   2.630   5.113  0.6853 -0.3507  0.3675
17901SOL     OW55143   0.063   4.937   1.535  0.6428 -0.3895  0.6446
17901SOL    HW155144  -0.023   4.937   1.577  1.5305  0.7920  2.6346
17901SOL    HW255145   0.120   4.895   1.599  2.0461  1.3828  0.6411
17902SOL     OW55146   3.477   3.410  12.211  0.3081 -0.2046  0.4621
17902SOL    HW155147   3.440   3.354  12.279 -0.0851 -0.7130 -0.1658
17902SOL    HW255148   3.418   3.401  12.137  0.2417  1.0353  0.3347
17903SOL     OW55149   0.647   3.575   5.566  0.0896 -0.5728 -0.0282
17903SOL    HW155150   0.612   3.576   5.477 -1.2305 -0.0180  0.4721
17903SOL    HW255151   0.735   3.539   5.557  0.0067 -0.4486 -1.5664
17904SOL     OW55152   2.859   3.916  10.254 -0.7921 -0.4357 -0.2156
17904SOL    HW155153   2.797   3.966  10.201 -1.0317  0.1893  0.6355
17904SOL    HW255154   2.836   3.824  10.237 -2.6675 -0.2283  0.8577
17905SOL     OW55155   5.025   2.615  10.489  0.2019  0.2706 -0.3218
17905SOL    HW155156   5.039   2.573  10.574  0.0623 -2.3412 -1.4752
17905SOL    HW255157   4.941   2.579  10.459 -0.2698  1.9559 -1.1566
17906SOL     OW55158   0.259   3.377   4.962  0.6437 -0.1642  0.3673
17906SOL    HW155159   0.172   3.415   4.977  0.9095  0.3191  0.7239
17906SOL    HW255160   0.308   3.447   4.919  0.0475 -1.3489 -2.4814
17907SOL     OW55161   1.641   3.465   5.223  0.0327 -0.0371 -0.1779
17907SOL    HW155162   1.649   3.514   5.141 -0.5301  0.3405 -0.0164
17907SOL    HW255163   1.705   3.505   5.281 -1.6512  1.8005  0.5509
17908SOL     OW55164   2.015   3.425   1.256 -0.0067  0.2104  0.0221
17908SOL    HW155165   2.047   3.348   1.208  0.1303  0.5415 -0.4299
17908SOL    HW255166   1.990   3.392   1.342  1.5792 -0.0740  0.4042
17909SOL     OW55167   5.345   0.940   7.791 -0.1487 -0.0557 -0.2445
17909SOL    HW155168   5.368   1.012   7.850  1.1388 -0.1981 -0.5479
17909SOL    HW255169   5.423   0.927   7.738 -0.9297 -0.6356 -1.2727
17910SOL     OW55170   1.234   0.814   6.473  0.0053  0.0541 -0.2867
17910SOL    HW155171   1.316   0.843   6.512  0.7551  0.0141 -1.7515
17910SOL    HW255172   1.166   0.839   6.537  0.8999  2.2743 -0.0978
17911SOL     OW55173   1.294   5.271   2.299 -0.3247  0.0986  0.4657
17911SOL    HW155174   1.333   5.283   2.213  1.3581 -1.5845  0.9319
17911SOL    HW255175   1.347   5.325   2.357 -1.0119  0.6626  0.5915
17912SOL     OW55176   4.902   4.575   4.191  0.0124 -0.1347  0.1919
17912SOL    HW155177   4.967   4.576   4.262 -1.0299  0.1960  1.1583
17912SOL    HW255178   4.948   4.533   4.118  0.8993 -1.0843  1.2572
17913SOL     OW55179   3.547   6.652  10.074 -0.5809  0.0553 -0.2131
17913SOL    HW155180   3.572   6.628  10.163 -0.2716  3.3708  0.7143
17913SOL    HW255181   3.629   6.647  10.024 -0.7306 -1.6721 -0.3611
17914SOL     OW55182   5.663   0.409   5.752  0.3420 -0.0128  0.5422
17914SOL    HW155183   5.595   0.381   5.812 -1.2958 -2.2356 -2.1049
17914SOL    HW255184   5.698   0.328   5.715  1.0554  1.1824 -1.6345
17915SOL     OW55185   5.901   4.897  11.059  0.6671 -0.6194 -0.1385
17915SOL    HW155186   5.888   4.812  11.016 -1.2498 -0.6641  0.4340
17915SOL    HW255187   5.866   4.961  10.997 -1.0368 -0.5850  0.7897
17916SOL     OW55188   6.215   1.991   0.085 -0.5839  0.3841 -0.4037
17916SOL    HW155189   6.190   2.074   0.127  0.9177  1.9982 -2.5431
17916SOL    HW255190   6.239   1.934   0.159  2.5076  3.2581  1.0655
17917SOL     OW55191   0.241   3.911  12.061  0.2648  0.5007  0.4553
17917SOL    HW155192   0.258   3.862  12.141 -0.3848  2.8066  2.1040
17917SOL    HW255193   0.148   3.897  12.044 -0.3371  2.3527  1.8846
17918SOL     OW55194   4.754   4.096   3.819  0.0834 -0.1512 -0.1681
17918SOL    HW155195   4.790   4.100   3.731  1.1931  0.8194  0.3030
17918SOL    HW255196   4.767   4.006   3.847 -1.0341 -0.6842 -1.2788
17919SOL     OW55197   0.629   1.890  11.795 -0.0397  0.1710 -0.1284
17919SOL    HW155198   0.615   1.856  11.706 -0.0885 -1.0530  0.3262
17919SOL    HW255199   0.604   1.982  11.789 -4.3407 -0.7830 -0.4195
17920SOL     OW55200   0.324   1.312   9.105 -1.0650 -0.2757  0.4879
17920SOL    HW155201   0.400   1.360   9.074 -1.8001  0.4129 -0.2892
17920SOL    HW255202   0.344   1.291   9.197 -0.3240  0.6674  0.5506
17921SOL     OW55203   6.740   0.882   4.594  0.0974  0.4434 -0.4165
17921SOL    HW155204   6.824   0.839   4.579 -0.5872 -0.8780 -0.5860
17921SOL    HW255205   6.680   0.843   4.530 -0.9521  0.4375  0.5265
17922SOL     OW55206   6.063   4.198   8.225  0.5151  0.7096  0.1341
17922SOL    HW155207   5.998   4.133   8.199  0.0411  1.6584 -1.2133
17922SOL    HW255208   6.127   4.198   8.153  1.2223  0.8125  0.7491
17923SOL     OW55209   1.299   7.196   1.638  0.1262  0.0326  0.5362
17923SOL    HW155210   1.392   7.216   1.650  0.4118 -1.0646  0.2757
17923SOL    HW255211   1.285   7.201   1.544  0.4285 -1.7666  0.3517
17924SOL     OW55212   1.185   2.051   2.611  0.6716  0.0089  0.2904
17924SOL    HW155213   1.200   1.967   2.567 -1.3762 -1.0744  1.5332
17924SOL    HW255214   1.260   2.061   2.669  1.3424 -0.5424 -0.4486
17925SOL     OW55215   6.674   0.645   2.800 -0.4307 -0.3205 -0.0799
17925SOL    HW155216   6.717   0.698   2.868  2.2032 -0.1847 -1.7034
17925SOL    HW255217   6.652   0.563   2.844  1.8827 -0.5317  0.8443
17926SOL     OW55218   1.836   1.662   0.992 -0.3103 -0.3187  0.2329
17926SOL    HW155219   1.811   1.673   1.084  1.0405 -0.0335  0.5779
17926SOL    HW255220   1.787   1.730   0.946 -1.2225 -0.6469  0.6832
17927SOL     OW55221   1.837   2.557   4.527 -0.0524 -0.2197 -0.3354
17927SOL    HW155222   1.932   2.565   4.532  0.0053 -1.4863  1.4934
17927SOL    HW255223   1.819   2.467   4.553 -1.9051  0.6999  1.9234
17928SOL     OW55224   7.172   0.899   3.270  0.0949  0.0645 -0.6597
17928SOL    HW155225   7.134   0.817   3.303  0.8327 -0.7694 -1.7904
17928SOL    HW255226   7.161   0.893   3.175 -1.9879  2.3867 -0.6716
17929SOL     OW55227   2.434   3.157   2.705 -0.8003  0.1804 -0.3478
17929SOL    HW155228   2.467   3.095   2.639 -1.0080  0.5550 -0.8033
17929SOL    HW255229   2.502   3.157   2.773 -1.4737 -1.6732  0.3906
17930SOL     OW55230   1.840   7.792   2.301 -0.0145 -0.2110 -0.2306
17930SOL    HW155231   1.776   7.722   2.310 -1.3806  1.2558  2.5225
17930SOL    HW255232   1.915   7.764   2.354  0.5099 -0.6669 -1.1825
17931SOL     OW55233   2.702   6.876   3.357 -0.0801  0.1691 -0.4268
17931SOL    HW155234   2.758   6.808   3.395 -0.8164  0.0325  0.4484
17931SOL    HW255235   2.625   6.828   3.325 -1.3981  0.7207  1.7179
17932SOL     OW55236   2.006   1.191   5.212 -0.3238 -0.0288  0.7522
17932SOL    HW155237   2.044   1.156   5.293 -0.6526 -0.7826  0.5893
17932SOL    HW255238   1.995   1.285   5.229  0.0399 -0.1011  1.4097
17933SOL     OW55239   3.061   3.984  10.419  0.1747  0.5392  0.5080
17933SOL    HW155240   3.105   3.902  10.444 -0.1231  0.2516  0.1010
17933SOL    HW255241   2.986   3.955  10.367 -0.2937  1.0444  0.8952
17934SOL     OW55242   7.042   6.769   9.259 -0.0662 -0.2539 -0.1628
17934SOL    HW155243   7.095   6.710   9.313 -1.3186 -1.7763 -0.5283
17934SOL    HW255244   7.016   6.839   9.319  1.2300 -0.1689  0.3447
17935SOL     OW55245   7.950   4.156   0.403 -0.2007  0.3878 -0.0789
17935SOL    HW155246   7.874   4.166   0.461 -1.0682 -0.4454 -1.0483
17935SOL    HW255247   7.916   4.176   0.316  1.4562  3.2279 -0.1760
17936SOL     OW55248   6.876   7.714   4.208  0.4709 -0.3177  0.0497
17936SOL    HW155249   6.791   7.674   4.225  0.6196 -0.9330 -0.5998
17936SOL    HW255250   6.940   7.646   4.228  0.7605 -0.2142 -0.4839
17937SOL     OW55251   0.409   1.455   4.162 -0.0318 -0.1347  0.1960
17937SOL    HW155252   0.488   1.415   4.200  0.6168  2.3584  1.7246
17937SOL    HW255253   0.443   1.510   4.090 -0.4544  0.3889  0.3941
17938SOL     OW55254   6.640   3.901   3.667 -0.8165  0.0114 -0.5333
17938SOL    HW155255   6.672   3.988   3.644 -2.7503  0.9897  0.2599
17938SOL    HW255256   6.703   3.869   3.732  0.4824  0.3565 -1.5809
17939SOL     OW55257   1.642   3.791   2.668  0.5407 -0.0192 -0.4264
17939SOL    HW155258   1.712   3.787   2.603 -0.7566 -1.3843 -1.8054
17939SOL    HW255259   1.650   3.709   2.717  0.2256  0.0497 -0.2583
17940SOL     OW55260   7.337   7.971   7.889  0.3508  0.4631  0.0539
17940SOL    HW155261   7.305   8.033   7.954 -1.7933  1.3990 -1.7543
17940SOL    HW255262   7.261   7.919   7.865  1.1986 -0.2449 -1.2751
17941SOL     OW55263   5.553   7.739   2.756 -0.0933 -0.0206 -0.3678
17941SOL    HW155264   5.483   7.775   2.811  0.1788  0.0717 -0.0816
17941SOL    HW255265   5.507   7.689   2.689 -0.4711  0.7853 -0.7166
17942SOL     OW55266   7.390   1.956   0.588 -0.7149  0.6177  0.0165
17942SOL    HW155267   7.397   2.025   0.522 -1.6754  2.0834  1.3796
17942SOL    HW255268   7.410   1.875   0.540 -3.3536  1.3242 -2.5776
17943SOL     OW55269   2.207   2.986   0.848 -0.2095  0.2998 -0.3241
17943SOL    HW155270   2.207   3.070   0.802  1.1709  0.0884 -0.7645
17943SOL    HW255271   2.268   2.932   0.798  1.7792  0.2284  2.0126
17944SOL     OW55272   2.119   6.112   6.880 -0.0657  0.7751 -0.4912
17944SOL    HW155273   2.074   6.152   6.954 -0.1940  1.2256 -0.8079
17944SOL    HW255274   2.049   6.083   6.822  0.0424  1.2106 -0.8452
17945SOL     OW55275   0.023   5.085   0.483 -0.4570  0.2941  0.3107
17945SOL    HW155276   0.102   5.130   0.510 -0.2464 -0.1928  0.5274
17945SOL    HW255277   0.035   4.995   0.513 -0.5838 -0.0686 -0.6818
17946SOL     OW55278   5.273   5.711  11.792  0.4977  0.0194  0.3358
17946SOL    HW155279   5.302   5.624  11.820 -2.0071 -0.4871  1.7158
17946SOL    HW255280   5.252   5.700  11.699  0.1907 -0.8635  0.4995
17947SOL     OW55281   5.254   5.516   4.176  0.8389 -0.1715 -0.1953
17947SOL    HW155282   5.264   5.463   4.256 -0.3027 -0.3206 -0.1396
17947SOL    HW255283   5.344   5.535   4.150  1.2448  0.3730  1.4432
17948SOL     OW55284   1.477   1.974   3.933 -0.0010 -0.3514 -0.5406
17948SOL    HW155285   1.499   1.953   4.023 -1.4625 -0.4251 -0.1703
17948SOL    HW255286   1.514   2.061   3.918  1.1277 -0.7668 -0.2179
17949SOL     OW55287   6.500   5.574   1.667  0.3370  0.0006  0.1575
17949SOL    HW155288   6.498   5.501   1.729  0.9171 -0.0968  0.0671
17949SOL    HW255289   6.439   5.548   1.598  1.3302 -0.8873 -0.4033
17950SOL     OW55290   0.079   0.909   0.388  0.3297 -0.1541 -0.1912
17950SOL    HW155291   0.054   0.943   0.302 -0.3688  1.4632  0.6084
17950SOL    HW255292   0.173   0.928   0.395  0.4331 -0.4722 -0.6611
17951SOL     OW55293   7.765   2.740   6.405  0.1936 -0.4388 -0.5567
17951SOL    HW155294   7.765   2.760   6.498  0.1970 -1.4549 -0.3302
17951SOL    HW255295   7.857   2.732   6.381  0.1905 -0.2555 -0.6343
17952SOL     OW55296   6.429   3.981  10.588 -0.5110  0.0445  0.0167
17952SOL    HW155297   6.498   3.927  10.550 -0.1119  0.1932  0.5062
17952SOL    HW255298   6.398   4.035  10.515  1.3568  1.4827  0.1862
17953SOL     OW55299   5.582   7.374   2.405  0.2085  0.0511 -0.2401
17953SOL    HW155300   5.526   7.447   2.377  0.1924  0.4357  0.7808
17953SOL    HW255301   5.624   7.345   2.324 -1.8143 -0.5688 -1.1351
17954SOL     OW55302   2.532   0.496  11.453 -0.1601  0.0630  0.7353
17954SOL    HW155303   2.443   0.471  11.475  0.0031  0.7162  2.2897
17954SOL    HW255304   2.524   0.550  11.374 -1.1443  0.1278  0.8757
17955SOL     OW55305   2.068   4.983   0.120 -0.5132 -0.7796  0.5208
17955SOL    HW155306   2.144   4.962   0.066 -1.2749 -0.4277 -0.7265
17955SOL    HW255307   2.009   5.031   0.061 -1.9162 -1.4636  1.3200
17956SOL     OW55308   7.472   3.171   5.992  0.4840  0.0746 -0.0692
17956SOL    HW155309   7.490   3.105   5.925 -0.8186 -0.5547  0.1597
17956SOL    HW255310   7.526   3.146   6.066 -2.0243 -2.5421  1.0879
17957SOL     OW55311   7.612   5.450   6.487  0.7542 -0.5286 -0.2301
17957SOL    HW155312   7.525   5.416   6.466 -0.0221  1.1247  0.1216
17957SOL    HW255313   7.634   5.409   6.571 -0.4832  0.3301  0.5576
17958SOL     OW55314   5.199   3.866   7.422 -0.7633 -0.2948  0.1222
17958SOL    HW155315   5.161   3.780   7.443 -0.7630 -0.0148  1.3313
17958SOL    HW255316   5.262   3.882   7.492 -1.1960  0.9685  0.2444
17959SOL     OW55317   7.488   1.394   4.178 -0.7367 -0.3679  0.8480
17959SOL    HW155318   7.522   1.479   4.152 -1.7659  0.5768  2.4694
17959SOL    HW255319   7.403   1.388   4.134 -0.1586 -1.1135 -0.2204
17960SOL     OW55320   5.397   7.719   8.465  0.2791  0.0764 -0.3056
17960SOL    HW155321   5.326   7.765   8.420 -1.9888 -2.7452  0.1328
17960SOL    HW255322   5.439   7.665   8.398 -0.4544 -1.0533  0.1159
17961SOL     OW55323   1.460   2.857   7.557  0.1143  0.1331 -0.1291
17961SOL    HW155324   1.457   2.946   7.521  0.0719 -0.0911 -0.7046
17961SOL    HW255325   1.524   2.812   7.502  3.1430  0.8267  2.5814
17962SOL     OW55326   7.012   3.812   0.509 -0.1748  0.3332  0.3044
17962SOL    HW155327   6.992   3.785   0.420 -2.1829  0.4455  0.6797
17962SOL    HW255328   6.992   3.905   0.512  0.0434  0.3702  0.8322
17963SOL     OW55329   6.956   6.364   4.029  0.1505  0.5339 -0.0483
17963SOL    HW155330   6.921   6.424   3.963  0.2866  0.5479 -0.1069
17963SOL    HW255331   6.882   6.307   4.050 -0.0405  0.8509  0.1583
17964SOL     OW55332   2.260   5.250  11.937 -0.3405  0.2736 -0.0129
17964SOL    HW155333   2.188   5.186  11.935 -0.3002  0.2072  0.4678
17964SOL    HW255334   2.217   5.335  11.936 -0.3830  0.2555 -1.1369
17965SOL     OW55335   0.448   0.685   1.715 -0.3081 -0.5589  0.2182
17965SOL    HW155336   0.449   0.665   1.808 -1.0197  2.0036  0.8502
17965SOL    HW255337   0.392   0.617   1.676 -1.3306 -0.7208  1.8943
17966SOL     OW55338   6.195   4.526   9.906 -0.2870 -0.2936  0.4110
17966SOL    HW155339   6.133   4.598   9.894 -0.0967 -0.2612 -0.4636
17966SOL    HW255340   6.256   4.534   9.832  0.2933 -0.7930  0.8224
17967SOL     OW55341   6.644   2.102   9.250 -0.1184  0.3952 -0.5888
17967SOL    HW155342   6.685   2.184   9.280 -0.7011  0.6878 -0.5692
17967SOL    HW255343   6.717   2.048   9.221  0.3817  0.4789  0.4685
17968SOL     OW55344   7.054   2.739   2.948  0.1304  0.0265  0.5636
17968SOL    HW155345   7.096   2.671   3.001  1.5875 -0.9132 -1.6439
17968SOL    HW255346   7.096   2.821   2.976 -0.9696 -0.0407  2.5865
17969SOL     OW55347   6.633   3.445   8.399 -0.5466  0.1647  0.4868
17969SOL    HW155348   6.687   3.452   8.478 -0.2441  0.0104  0.2938
17969SOL    HW255349   6.568   3.515   8.409  0.7600  1.5302 -0.1023
17970SOL     OW55350   3.071   2.421   4.913 -0.2938  0.3808 -0.5092
17970SOL    HW155351   3.163   2.444   4.898 -0.2923 -0.2301 -1.5851
17970SOL    HW255352   3.028   2.438   4.829 -1.7810  3.2812  0.7174
17971SOL     OW55353   5.584   7.593  10.290  0.5466  0.2880 -0.4285
17971SOL    HW155354   5.604   7.525  10.355  0.6597 -0.2234 -0.9915
17971SOL    HW255355   5.544   7.546  10.217 -2.2240  1.1713  0.3688
17972SOL     OW55356   4.255   4.696   1.965 -0.4402  0.1328  0.2381
17972SOL    HW155357   4.191   4.721   1.898  0.2468 -1.7068 -1.1964
17972SOL    HW255358   4.339   4.722   1.928 -0.1952  1.3029  1.5172
17973SOL     OW55359   7.241   4.703   7.331 -0.0324 -0.0513  0.2242
17973SOL    HW155360   7.215   4.697   7.239  1.1396 -1.2050 -0.0589
17973SOL    HW255361   7.165   4.672   7.380  0.4381 -2.7012 -0.5560
17974SOL     OW55362   5.462   3.754  10.661 -0.0282 -0.3997  0.3070
17974SOL    HW155363   5.448   3.659  10.653  1.5165 -0.6885  0.7072
17974SOL    HW255364   5.535   3.762  10.723 -0.2113  1.0656  0.3580
17975SOL     OW55365   2.662   3.087   9.651 -0.1284  0.0403 -0.2900
17975SOL    HW155366   2.659   3.182   9.657  0.3600  0.2493 -2.5141
17975SOL    HW255367   2.683   3.058   9.740  0.3170  2.0241  0.3041
17976SOL     OW55368   7.246   1.636   3.457  0.0677  0.7619  0.4014
17976SOL    HW155369   7.300   1.614   3.533 -0.4499 -1.0235  0.2965
17976SOL    HW255370   7.287   1.714   3.421  0.2607  1.7326  2.5703
17977SOL     OW55371   5.181   5.008  12.032 -0.1393  0.1426  0.4101
17977SOL    HW155372   5.091   5.028  12.055  0.0775  0.3536  1.0884
17977SOL    HW255373   5.216   5.090  11.997 -0.6112 -0.3011 -1.1805
17978SOL     OW55374   5.726   1.500   9.714 -0.3454 -0.1369  0.2473
17978SOL    HW155375   5.731   1.531   9.624  1.3676 -0.4853  0.1917
17978SOL    HW255376   5.690   1.574   9.763 -1.1070  0.1195 -0.6672
17979SOL     OW55377   4.405   3.419  11.344  0.2664  0.0071 -0.2664
17979SOL    HW155378   4.352   3.463  11.410 -1.0347 -1.8153 -0.0027
17979SOL    HW255379   4.342   3.393  11.276  1.2378 -0.0539 -1.1783
17980SOL     OW55380   6.554   0.835   1.956 -0.0941  0.1101  0.6999
17980SOL    HW155381   6.588   0.811   1.870  3.8196  0.8684  1.8761
17980SOL    HW255382   6.545   0.752   2.003 -1.9233 -0.2725 -0.2419
17981SOL     OW55383   1.188   2.032   4.719  0.3713  0.2697 -0.3122
17981SOL    HW155384   1.180   1.974   4.643  0.6709 -0.8859  0.5090
17981SOL    HW255385   1.241   1.982   4.782 -1.7452  0.1993  1.5756
17982SOL     OW55386   2.355   5.260   6.923 -0.3540 -0.1333 -0.0848
17982SOL    HW155387   2.411   5.301   6.988 -0.2548 -0.3830 -0.0119
17982SOL    HW255388   2.392   5.287   6.839 -1.2541  1.2718 -0.0725
17983SOL     OW55389   7.494   7.371  11.327 -0.0797 -0.5185  0.8184
17983SOL    HW155390   7.445   7.440  11.282 -1.1426 -1.0680  1.0983
17983SOL    HW255391   7.584   7.384  11.299 -0.6299 -0.6006 -1.2156
17984SOL     OW55392   0.511   3.625   7.489 -0.1085 -0.3288 -0.1984
17984SOL    HW155393   0.500   3.707   7.538 -1.9274  0.1936 -1.3629
17984SOL    HW255394   0.537   3.654   7.401  4.2113 -1.2852  0.5465
17985SOL     OW55395   7.594   0.619   0.918  0.1126  0.2070 -0.5138
17985SOL    HW155396   7.588   0.600   1.011  1.5554 -2.1870 -0.8292
17985SOL    HW255397   7.617   0.712   0.914  0.2770  0.2934  1.5037
17986SOL     OW55398   2.314   4.575   5.541 -0.0911 -0.5492  0.0814
17986SOL    HW155399   2.367   4.527   5.604 -1.1689  1.9448  3.1687
17986SOL    HW255400   2.224   4.549   5.561 -0.5275  1.0346  0.3258
17987SOL     OW55401   5.568   2.347  11.061 -0.2823 -0.5607 -0.0368
17987SOL    HW155402   5.520   2.389  10.990 -0.0758 -0.2420  0.0112
17987SOL    HW255403   5.532   2.386  11.141  0.0955 -0.2698 -0.0020
17988SOL     OW55404   0.570   2.931   2.363  0.3817 -0.1313  0.0546
17988SOL    HW155405   0.635   2.965   2.302 -0.1246 -0.3467 -0.6049
17988SOL    HW255406   0.597   2.966   2.448  0.5631  0.9295 -0.4264
17989SOL     OW55407   3.700   7.302   2.916 -0.0093 -0.0545 -0.0815
17989SOL    HW155408   3.634   7.236   2.938 -1.5198  1.2375 -0.5661
17989SOL    HW255409   3.734   7.275   2.831  1.6246 -1.8559  1.0749
17990SOL     OW55410   2.041   0.187   0.472 -0.3976  0.2201  0.2511
17990SOL    HW155411   2.048   0.206   0.566  1.8420 -0.4375  0.2841
17990SOL    HW255412   1.958   0.226   0.446 -1.3802 -0.0893  2.6184
17991SOL     OW55413   6.176   0.884   6.424 -0.3699  0.0928  0.3225
17991SOL    HW155414   6.102   0.916   6.372 -0.2788  1.4425  0.9726
17991SOL    HW255415   6.246   0.870   6.360 -0.1528  2.0498  0.0568
17992SOL     OW55416   4.288   3.187   6.874  0.4484 -0.1789  0.3375
17992SOL    HW155417   4.345   3.262   6.857 -0.4469  0.2342 -1.0199
17992SOL    HW255418   4.203   3.212   6.836  0.1348 -1.8755 -0.1704
17993SOL     OW55419   3.023   4.770   8.649 -0.9775  0.2225 -0.3582
17993SOL    HW155420   3.006   4.809   8.735  0.0999  2.5067 -1.0933
17993SOL    HW255421   3.014   4.843   8.588 -0.0018 -0.9642 -1.9915
17994SOL     OW55422   2.338   2.434  10.731  0.2474  0.1690  0.3722
17994SOL    HW155423   2.414   2.493  10.731  0.7449 -0.4096 -1.2600
17994SOL    HW255424   2.370   2.352  10.766  0.1734  0.1568  0.4123
17995SOL     OW55425   5.612   7.710  10.899  0.6208 -0.5064  0.2041
17995SOL    HW155426   5.520   7.735  10.898  1.0510  1.1597 -0.3719
17995SOL    HW255427   5.658   7.788  10.930  2.0950 -0.2870 -2.2755
17996SOL     OW55428   4.954   4.021  10.906  0.1074 -0.4562  0.2496
17996SOL    HW155429   4.886   3.961  10.937  1.3996 -1.4958  1.1824
17996SOL    HW255430   4.988   3.979  10.827  1.4343 -1.3445  1.2388
17997SOL     OW55431   5.508   5.696   4.482 -0.1172 -0.3865 -0.1607
17997SOL    HW155432   5.510   5.604   4.455  0.9531 -0.1865 -0.8185
17997SOL    HW255433   5.443   5.736   4.425  0.6739 -0.3936 -1.1098
17998SOL     OW55434   6.792   3.159   5.763 -0.3843 -0.4820  0.4979
17998SOL    HW155435   6.846   3.227   5.722 -0.8050  1.3830  2.8114
17998SOL    HW255436   6.815   3.163   5.856 -1.8823 -2.1556  0.9856
17999SOL     OW55437   2.118   7.836   2.829 -0.1563 -0.8050 -0.5436
17999SOL    HW155438   2.153   7.841   2.741 -0.6225 -2.1643 -0.8268
17999SOL    HW255439   2.195   7.834   2.886  0.1446 -0.2956 -0.9261
18000SOL     OW55440   4.840   4.009   7.295 -0.7556 -0.2354 -0.2654
18000SOL    HW155441   4.822   4.028   7.202 -1.2486 -0.1221 -0.1521
18000SOL    HW255442   4.756   3.979   7.329 -0.9706  1.1783  0.5083
18001SOL     OW55443   3.892   6.184   7.984  0.3659 -0.0149  0.4372
18001SOL    HW155444   3.901   6.258   7.923  1.6534 -0.8382 -0.4188
18001SOL    HW255445   3.862   6.112   7.929 -0.4917 -0.2404  1.1905
18002SOL     OW55446   2.008   1.285   9.207 -0.4608 -0.1861 -0.5707
18002SOL    HW155447   1.972   1.205   9.169  0.2858 -1.4081  1.1589
18002SOL    HW255448   1.960   1.297   9.288  0.5991  0.1441  0.0322
18003SOL     OW55449   7.654   7.406   6.380 -0.1204  0.0670  0.2106
18003SOL    HW155450   7.645   7.440   6.292  0.6188 -2.1102 -0.7706
18003SOL    HW255451   7.731   7.451   6.415  0.1370  0.2780 -0.6047
18004SOL     OW55452   2.278   7.597   2.620  0.3249  0.7080 -0.4830
18004SOL    HW155453   2.266   7.688   2.592  1.0271  1.2300  0.8233
18004SOL    HW255454   2.370   7.579   2.604  0.4667  0.6394  0.3729
18005SOL     OW55455   4.619   5.189   7.354  0.1031  0.2839  0.1110
18005SOL    HW155456   4.659   5.123   7.297  0.2859 -0.5791  1.1975
18005SOL    HW255457   4.693   5.241   7.387  0.0127  0.6878 -0.3209
18006SOL     OW55458   7.397   3.239   6.697 -0.2687  0.3430 -0.0439
18006SOL    HW155459   7.375   3.213   6.607 -1.4162 -2.1080  0.8627
18006SOL    HW255460   7.339   3.313   6.715 -0.1626  0.7416 -1.2151
18007SOL     OW55461   2.363   4.690   8.291 -0.4736 -0.3009  0.4881
18007SOL    HW155462   2.307   4.768   8.292 -0.1193 -0.0392  0.2421
18007SOL    HW255463   2.394   4.681   8.382  1.6560  1.4484  0.0161
18008SOL     OW55464   6.924   7.882   3.768 -0.5714  0.6603  0.6466
18008SOL    HW155465   6.860   7.936   3.721  0.3445  0.5211 -0.8393
18008SOL    HW255466   6.952   7.818   3.703  1.1357  0.7671  1.2386
18009SOL     OW55467   3.032   3.865  11.427  0.1655  0.4276  0.2512
18009SOL    HW155468   3.094   3.810  11.474 -0.1351  0.0259  0.1786
18009SOL    HW255469   2.983   3.805  11.371  0.0861  0.8167 -0.1030
18010SOL     OW55470   3.590   7.578   2.846  0.1113 -0.0898 -0.5522
18010SOL    HW155471   3.650   7.618   2.783 -0.2399 -0.6651 -1.2597
18010SOL    HW255472   3.635   7.500   2.877 -0.3775 -0.6791 -1.2991
18011SOL     OW55473   1.705   7.203   4.802 -0.3783  0.0004  0.1601
18011SOL    HW155474   1.626   7.250   4.828  0.1235  1.3221 -0.6381
18011SOL    HW255475   1.705   7.206   4.707  1.1918  0.9902  0.1618
18012SOL     OW55476   3.819   5.836   4.857 -0.1656 -0.1047 -0.0303
18012SOL    HW155477   3.849   5.819   4.768 -0.2538  0.6594 -0.2108
18012SOL    HW255478   3.857   5.920   4.880 -1.6148  0.5777 -0.0226
18013SOL     OW55479   0.303   3.610   5.466 -0.5141  0.1708  0.3965
18013SOL    HW155480   0.260   3.562   5.537 -0.0384  0.4375  0.8656
18013SOL    HW255481   0.377   3.654   5.507 -0.2112  0.3036 -0.2724
18014SOL     OW55482   1.789   7.859  10.252 -0.4052 -0.7741 -0.1908
18014SOL    HW155483   1.863   7.910  10.285  0.7244 -0.3873 -3.0822
18014SOL    HW255484   1.804   7.770  10.284  1.7959 -0.8792 -1.3636
18015SOL     OW55485   7.208   1.921   7.221  0.5849  0.3170  0.0917
18015SOL    HW155486   7.239   1.918   7.312 -1.3511 -1.3382  0.7654
18015SOL    HW255487   7.172   2.009   7.212 -0.6725 -0.0079  1.4981
18016SOL     OW55488   0.753   6.834   6.246 -0.7507 -0.0115  0.0561
18016SOL    HW155489   0.675   6.889   6.239  0.3510  1.7379  0.9104
18016SOL    HW255490   0.744   6.791   6.331 -0.1747  1.2257  0.7647
18017SOL     OW55491   7.554   7.486   5.752 -0.1991  0.3713 -0.3851
18017SOL    HW155492   7.478   7.511   5.805 -1.0811 -0.9995 -0.9288
18017SOL    HW255493   7.528   7.507   5.662  0.5634  1.0075 -0.4634
18018SOL     OW55494   1.692   6.090   2.592 -0.3422 -0.3360  0.1495
18018SOL    HW155495   1.634   6.100   2.667 -1.8242 -0.7352 -0.8927
18018SOL    HW255496   1.757   6.159   2.602 -1.0778  0.2157  1.2876
18019SOL     OW55497   3.850   1.288   7.336  0.4325  0.3784 -0.0792
18019SOL    HW155498   3.787   1.277   7.264 -1.0386  1.7978  0.9137
18019SOL    HW255499   3.828   1.219   7.398  1.3036 -0.4631 -0.6711
18020SOL     OW55500   7.634   6.037   1.633 -0.0703 -0.1468  0.1676
18020SOL    HW155501   7.636   6.124   1.594 -0.3479 -0.1115  0.2297
18020SOL    HW255502   7.697   6.040   1.704  0.2311 -0.1245 -0.0966
18021SOL     OW55503   2.867   2.776  10.263  0.1014 -0.3603  0.4811
18021SOL    HW155504   2.893   2.695  10.219  1.0581  0.2844 -0.1852
18021SOL    HW255505   2.891   2.762  10.355 -0.7552 -1.2391  0.5804
18022SOL     OW55506   5.958   0.107   1.881  0.5603  0.5480 -0.4108
18022SOL    HW155507   5.998   0.062   1.956 -3.0888  1.6390  2.5311
18022SOL    HW255508   6.018   0.178   1.861  2.4737 -0.7749  0.3397
18023SOL     OW55509   4.004   0.491   9.164  0.3797  0.3162  0.4700
18023SOL    HW155510   3.998   0.548   9.240  0.5419  2.0344 -0.7453
18023SOL    HW255511   4.065   0.422   9.190 -0.3918  0.2380  2.2286
18024SOL     OW55512   5.428   6.592   8.441 -0.1808  0.1481 -0.5401
18024SOL    HW155513   5.440   6.544   8.523 -2.0515  0.0261 -0.2942
18024SOL    HW255514   5.443   6.683   8.464  0.1000  0.0311 -0.2488
18025SOL     OW55515   7.050   6.863   4.967  0.2634  0.4990  0.2138
18025SOL    HW155516   7.026   6.771   4.974 -0.7696  0.8086  1.0462
18025SOL    HW255517   7.141   6.862   4.939  1.0659 -0.8217  2.5644
18026SOL     OW55518   0.839   0.954   5.323 -0.3262  0.3078 -0.4061
18026SOL    HW155519   0.900   0.911   5.263 -0.9216 -1.4001  0.1453
18026SOL    HW255520   0.868   1.045   5.326  3.9353 -0.9010  1.9646
18027SOL     OW55521   5.744   2.734   2.609  0.1457  0.0230  0.5568
18027SOL    HW155522   5.663   2.779   2.584  0.6919  1.0556  0.5883
18027SOL    HW255523   5.715   2.659   2.661 -0.8767 -0.6865 -0.9594
18028SOL     OW55524   3.992   1.287   6.679 -0.9269 -0.3293  0.1603
18028SOL    HW155525   3.920   1.224   6.686 -1.5980  0.6229  3.2746
18028SOL    HW255526   3.961   1.353   6.618 -1.6248 -1.2058 -0.4603
18029SOL     OW55527   3.265   2.440   5.248  0.6591  0.3839  0.4158
18029SOL    HW155528   3.333   2.431   5.315  3.2373 -0.3145 -2.1283
18029SOL    HW255529   3.227   2.352   5.241 -0.2125  0.6506  1.4606
18030SOL     OW55530   0.244   4.959  10.699 -0.5763 -0.4262  0.2027
18030SOL    HW155531   0.158   4.936  10.664 -1.2118  1.4317  0.4353
18030SOL    HW255532   0.226   5.024  10.766  1.1040  1.3767 -0.9932
18031SOL     OW55533   7.670   2.017  10.729  0.0620  0.4565 -0.7134
18031SOL    HW155534   7.606   2.036  10.798 -0.5180  0.0061 -1.1216
18031SOL    HW255535   7.755   2.025  10.773 -0.2781  0.8616 -0.1180
18032SOL     OW55536   5.040   0.104   2.378 -0.1440 -0.1984 -0.2115
18032SOL    HW155537   5.024   0.154   2.298  0.1411 -0.6224 -0.5369
18032SOL    HW255538   5.069   0.018   2.348  1.0028 -0.0302  0.3439
18033SOL     OW55539   2.402   4.700   4.284 -0.1218  0.0620  0.0105
18033SOL    HW155540   2.314   4.663   4.275  0.6931 -2.3548  1.1832
18033SOL    HW255541   2.411   4.719   4.377  0.2259  1.4024 -0.2730
18034SOL     OW55542   3.698   4.266   0.449  0.1572  0.2127 -0.1816
18034SOL    HW155543   3.630   4.199   0.444  0.4619 -0.1861  0.8281
18034SOL    HW255544   3.722   4.269   0.541 -0.9660  2.8097  0.1213
18035SOL     OW55545   3.249   5.536   4.686 -0.0663 -0.1977 -0.8127
18035SOL    HW155546   3.157   5.548   4.660 -0.4281  0.8066  0.8058
18035SOL    HW255547   3.245   5.518   4.780  1.4012 -0.1346 -0.7237
18036SOL     OW55548   1.045   7.688   0.808 -0.1998  0.4326 -0.0632
18036SOL    HW155549   0.954   7.679   0.779 -0.0806  0.6716 -0.5270
18036SOL    HW255550   1.097   7.660   0.733  0.1453  2.7186 -0.7562
18037SOL     OW55551   6.961   7.362   9.553 -0.1988  0.2290 -0.0670
18037SOL    HW155552   6.886   7.407   9.515 -0.3859 -1.2293 -1.5724
18037SOL    HW255553   6.924   7.283   9.594  0.4493 -0.2725 -0.4170
18038SOL     OW55554   5.460   6.605  12.280  0.6593  0.2047 -0.2695
18038SOL    HW155555   5.472   6.556  12.199  0.0949 -0.6863  0.1706
18038SOL    HW255556   5.541   6.654  12.292  1.0858 -0.3431 -0.9143
18039SOL     OW55557   5.227   4.723   1.986 -0.0573  0.4201  0.3661
18039SOL    HW155558   5.321   4.719   1.968 -0.1733 -1.8973 -0.0247
18039SOL    HW255559   5.220   4.724   2.082  0.3505 -0.7994  0.4127
18040SOL     OW55560   0.527   0.079   4.464 -0.7898  0.1934 -0.0396
18040SOL    HW155561   0.505   0.046   4.551  0.0195  0.9326  0.4676
18040SOL    HW255562   0.478   0.023   4.404 -0.9604 -0.6604  0.8652
18041SOL     OW55563   5.223   3.420   9.428  0.7220  0.2945 -0.3257
18041SOL    HW155564   5.196   3.350   9.487  1.8317  0.0463 -0.0924
18041SOL    HW255565   5.154   3.423   9.362  0.4460 -0.7412 -0.1087
18042SOL     OW55566   5.673   6.352   8.388  0.7844 -0.4407 -0.2268
18042SOL    HW155567   5.656   6.445   8.406  1.2563 -0.5399  0.7892
18042SOL    HW255568   5.601   6.306   8.431 -0.0605 -0.5214 -1.6349
18043SOL     OW55569   6.148   5.523   6.007 -0.0773  0.2445 -0.5662
18043SOL    HW155570   6.217   5.589   6.001  0.2479 -0.0543 -0.1789
18043SOL    HW255571   6.099   5.547   6.086  1.2935 -1.1378  0.7709
18044SOL     OW55572   3.052   3.382   7.191 -0.6182  0.0344  0.3464
18044SOL    HW155573   3.027   3.295   7.222 -1.0895 -0.7247 -1.9921
18044SOL    HW255574   2.978   3.411   7.138 -0.0507  1.4493  0.2956
18045SOL     OW55575   4.907   1.925  10.384  0.8413  0.0085  0.0213
18045SOL    HW155576   4.891   1.911  10.291  0.1895  0.9952 -0.0386
18045SOL    HW255577   4.820   1.941  10.421  1.1496  0.1813  0.6917
18046SOL     OW55578   0.414   0.636   2.033 -0.1914  0.1998  0.3922
18046SOL    HW155579   0.328   0.648   2.074 -0.1700 -1.4836  1.0054
18046SOL    HW255580   0.464   0.586   2.097  0.1548 -1.6630 -1.2389
18047SOL     OW55581   1.323   7.816   9.023 -0.2717  0.0262  0.3172
18047SOL    HW155582   1.267   7.740   9.040  0.8218 -0.8508  0.1713
18047SOL    HW255583   1.383   7.785   8.955 -0.7315  1.5107 -0.8116
18048SOL     OW55584   7.556   3.372   0.037 -0.2300 -0.2473  0.4082
18048SOL    HW155585   7.548   3.396   0.129  1.1922  0.8755  0.2750
18048SOL    HW255586   7.560   3.455  -0.010 -0.8018 -0.8035 -0.6773
18049SOL     OW55587   1.617   6.520   7.377 -0.3802  0.5548 -0.2427
18049SOL    HW155588   1.531   6.555   7.354  0.5321  1.8609 -1.9176
18049SOL    HW255589   1.667   6.597   7.404  0.3943 -0.1282  0.2976
18050SOL     OW55590   5.957   3.615  12.361 -0.1062 -0.1294  0.2315
18050SOL    HW155591   5.929   3.525  12.346 -0.0243 -0.2133  0.5706
18050SOL    HW255592   5.877   3.666  12.361 -0.0655  0.0063 -1.3094
18051SOL     OW55593   3.938   0.121   5.781 -0.1128 -0.6572  0.4914
18051SOL    HW155594   4.028   0.145   5.804 -0.3273 -0.7433  1.4863
18051SOL    HW255595   3.885   0.189   5.823 -0.5868 -1.4290  1.1560
18052SOL     OW55596   5.084   5.830   6.211 -0.8341 -0.5559  0.3885
18052SOL    HW155597   5.042   5.844   6.296 -1.1761 -2.7559  0.6563
18052SOL    HW255598   5.014   5.843   6.147 -0.7077  0.5746  0.4686
18053SOL     OW55599   4.880   5.754   9.820 -0.3118 -1.0544 -0.3362
18053SOL    HW155600   4.938   5.680   9.800  0.4068 -0.2125 -1.5590
18053SOL    HW255601   4.793   5.725   9.792 -0.0737 -1.5229 -0.5927
18054SOL     OW55602   4.781   4.226   6.389  0.2820 -0.1623  0.0334
18054SOL    HW155603   4.799   4.316   6.416  0.3554 -0.2058  0.1295
18054SOL    HW255604   4.688   4.226   6.365 -1.0562 -1.1064  4.4209
18055SOL     OW55605   6.992   6.371   1.497 -0.5274 -0.1760  0.4318
18055SOL    HW155606   7.023   6.375   1.587  0.1729 -0.3779  0.2093
18055SOL    HW255607   7.042   6.439   1.451 -0.6790 -0.2555  0.1424
18056SOL     OW55608   5.818   4.174   8.660  0.2529  0.2215 -0.0609
18056SOL    HW155609   5.908   4.160   8.690 -0.2037 -3.1080  0.1225
18056SOL    HW255610   5.823   4.167   8.565  0.2692  0.5740 -0.0858
18057SOL     OW55611   6.474   7.647   3.515 -0.4661  0.0089 -0.1665
18057SOL    HW155612   6.560   7.611   3.535  0.4031 -0.1579 -3.5639
18057SOL    HW255613   6.493   7.732   3.473 -2.2223  1.9489  2.6278
18058SOL     OW55614   6.700   2.180   7.355  0.7676  0.1939  0.2558
18058SOL    HW155615   6.725   2.218   7.440  2.1710 -0.2957  0.0965
18058SOL    HW255616   6.701   2.085   7.371  1.5794  0.0733 -0.4177
18059SOL     OW55617   1.993   2.626   7.241  0.3475 -0.3156 -0.0082
18059SOL    HW155618   2.079   2.622   7.201  0.1301  0.1733 -0.5357
18059SOL    HW255619   1.941   2.561   7.194  0.3337 -0.3604  0.0692
18060SOL     OW55620   1.895   4.212   3.531  0.2431  0.2808  0.0190
18060SOL    HW155621   1.888   4.120   3.556  2.8354 -0.4496 -1.5533
18060SOL    HW255622   1.927   4.256   3.609  1.5269 -0.6721  0.0560
18061SOL     OW55623   2.024   0.292   2.298 -0.5144 -0.1280  0.3642
18061SOL    HW155624   1.956   0.258   2.240  0.9988 -1.2998 -0.8014
18061SOL    HW255625   2.075   0.352   2.243  0.7347 -0.9931  0.5295
18062SOL     OW55626   2.198   6.253   9.255  0.0893  0.0534 -0.1936
18062SOL    HW155627   2.222   6.235   9.164 -0.1007 -1.0711 -0.0389
18062SOL    HW255628   2.269   6.213   9.306  1.1927  2.3062  0.1372
18063SOL     OW55629   5.502   0.883   8.119  0.2127  0.1478 -0.0515
18063SOL    HW155630   5.551   0.811   8.159 -0.3087 -0.2696 -0.1481
18063SOL    HW255631   5.420   0.843   8.091  0.5059  0.4444 -1.4278
18064SOL     OW55632   1.739   2.642  11.674  0.7199 -0.2585 -0.0654
18064SOL    HW155633   1.781   2.647  11.588  2.7851  1.1456  0.9429
18064SOL    HW255634   1.786   2.572  11.719 -1.0242 -1.6891 -0.3402
18065SOL     OW55635   0.933   4.198  10.966  0.3945 -0.0263 -0.0879
18065SOL    HW155636   0.962   4.267  10.906  0.6351 -0.5315 -0.5556
18065SOL    HW255637   1.004   4.134  10.964  0.3306 -0.1273  0.6123
18066SOL     OW55638   2.024   5.629   5.894  0.2477  0.1420  0.2162
18066SOL    HW155639   1.953   5.684   5.859  0.9729  0.9349 -0.0492
18066SOL    HW255640   2.057   5.581   5.818 -0.5152 -0.8380  0.4835
18067SOL     OW55641   1.493   3.125   2.084  0.3665  0.3632 -0.2437
18067SOL    HW155642   1.569   3.168   2.047  3.0793 -2.2902  1.7672
18067SOL    HW255643   1.499   3.034   2.054 -0.2803 -0.5892  2.2280
18068SOL     OW55644   0.829   0.194   8.649  0.0062 -0.0713  0.1316
18068SOL    HW155645   0.859   0.108   8.678  1.7300  0.8294  1.1826
18068SOL    HW255646   0.873   0.255   8.708 -0.3701  1.5806 -1.2491
18069SOL     OW55647   3.982   7.243   8.036 -0.1385  0.1456 -0.1987
18069SOL    HW155648   3.985   7.271   7.945  0.5382  1.3750  0.1923
18069SOL    HW255649   4.067   7.266   8.072 -0.6005  0.1968  0.9041
18070SOL     OW55650   0.193   0.052  12.175  0.3638  0.1719 -0.1386
18070SOL    HW155651   0.216   0.137  12.213 -0.7764  0.8728 -0.9581
18070SOL    HW255652   0.143   0.008  12.244  0.3190  0.4663  0.0201
18071SOL     OW55653   1.172   1.898   6.167  0.3617 -0.1117 -0.3223
18071SOL    HW155654   1.094   1.890   6.222 -0.2856  0.8372 -1.0616
18071SOL    HW255655   1.141   1.877   6.079  1.2678 -1.1191 -0.4177
18072SOL     OW55656   6.866   1.318   6.230 -0.0662 -0.1024 -0.3455
18072SOL    HW155657   6.849   1.392   6.172  0.4589  1.6902  1.6393
18072SOL    HW255658   6.952   1.286   6.203  0.9628  1.8178  0.4535
18073SOL     OW55659   0.792   7.690   7.610  0.0292 -0.2666 -0.7081
18073SOL    HW155660   0.854   7.643   7.665  0.7225  3.0269  1.6404
18073SOL    HW255661   0.709   7.642   7.621  0.9046 -1.5621  0.5931
18074SOL     OW55662   4.774   5.716   4.198  0.7082  0.4409  0.2888
18074SOL    HW155663   4.842   5.717   4.265  0.0065 -0.5310  1.0443
18074SOL    HW255664   4.794   5.639   4.145  0.1815  0.1315  0.5371
18075SOL     OW55665   5.853   6.145   9.172 -0.0310  0.4500 -0.6216
18075SOL    HW155666   5.882   6.057   9.148 -1.1694  0.0616 -0.6286
18075SOL    HW255667   5.759   6.137   9.184  0.3895  0.4588  4.5424
18076SOL     OW55668   2.768   7.643   9.912 -0.4173  0.5413 -0.8403
18076SOL    HW155669   2.731   7.555   9.921  1.5407 -0.5930 -2.7196
18076SOL    HW255670   2.715   7.685   9.844 -0.7183  0.4134 -0.6843
18077SOL     OW55671   1.360   1.741   0.544  0.1781 -0.7677 -0.1388
18077SOL    HW155672   1.397   1.688   0.615 -2.3242  0.9590  2.7540
18077SOL    HW255673   1.419   1.816   0.537  0.0336 -0.5508  0.7707
18078SOL     OW55674   7.256   1.443  11.702 -0.4215 -0.4317  0.5211
18078SOL    HW155675   7.291   1.498  11.773  2.8962 -2.2919  0.5161
18078SOL    HW255676   7.325   1.443  11.636 -2.1740 -1.1968 -1.3930
18079SOL     OW55677   3.519   5.558   0.079 -0.0252  0.1672 -0.5852
18079SOL    HW155678   3.523   5.466   0.107  1.9769  0.2015 -0.6376
18079SOL    HW255679   3.592   5.567   0.018  0.3617  2.0157  0.0990
18080SOL     OW55680   2.841   1.352   3.707  0.1821  0.1408  0.6361
18080SOL    HW155681   2.812   1.262   3.688  1.3968 -0.0526 -0.4822
18080SOL    HW255682   2.911   1.341   3.771  0.9680  0.1957 -0.1972
18081SOL     OW55683   0.054   2.416   7.853  0.1890  0.1980 -0.0768
18081SOL    HW155684   0.000   2.442   7.928 -0.5476 -0.7207 -0.2686
18081SOL    HW255685   0.125   2.364   7.891  1.0667  1.5327  0.1927
18082SOL     OW55686   2.715   3.052  10.657  0.4029  0.5644 -0.7071
18082SOL    HW155687   2.694   3.137  10.697 -0.9816  1.3713 -2.9280
18082SOL    HW255688   2.751   3.000  10.729 -0.5075  2.3820  1.1910
18083SOL     OW55689   5.485   0.823   2.296  0.0056 -0.1462 -0.2712
18083SOL    HW155690   5.417   0.870   2.247 -0.1600 -0.3369 -0.2247
18083SOL    HW255691   5.550   0.890   2.317 -0.3398  0.1107 -0.0109
18084SOL     OW55692   5.492   4.288  12.115  0.4414  0.8584  0.1240
18084SOL    HW155693   5.558   4.226  12.083 -1.1132 -0.2831 -1.0578
18084SOL    HW255694   5.434   4.301  12.040 -1.1457  1.1809  1.3644
18085SOL     OW55695   2.646   1.621  10.267 -0.3657 -0.2252  0.4047
18085SOL    HW155696   2.565   1.651  10.226  0.2314  0.4779 -0.2737
18085SOL    HW255697   2.704   1.697  10.267  0.7688 -1.0442 -0.3142
18086SOL     OW55698   7.431   1.881   2.411 -0.0162  0.1561 -0.5767
18086SOL    HW155699   7.514   1.928   2.413 -0.4640  0.9628  0.9918
18086SOL    HW255700   7.392   1.904   2.327 -0.9997  4.0781  0.7529
18087SOL     OW55701   1.452   1.928   0.039  0.4496  0.4185  0.1079
18087SOL    HW155702   1.413   1.860  -0.016 -2.1412  1.6464  0.2625
18087SOL    HW255703   1.440   2.009  -0.010  0.7168  1.1512  1.2082
18088SOL     OW55704   6.298   6.856   8.393 -0.0135 -0.0988 -0.6839
18088SOL    HW155705   6.252   6.863   8.309 -0.7080 -0.5825 -0.3609
18088SOL    HW255706   6.228   6.839   8.456  0.3775  1.3159  0.1628
18089SOL     OW55707   6.921   1.532   3.644 -0.3113 -0.2545  0.6001
18089SOL    HW155708   7.004   1.530   3.691 -0.3645  1.1149  0.7767
18089SOL    HW255709   6.856   1.507   3.710 -0.0431 -1.5767  0.3992
18090SOL     OW55710   5.670   4.736   5.842  0.1124 -0.6357 -0.1605
18090SOL    HW155711   5.632   4.692   5.766 -1.3340 -0.5902  0.5131
18090SOL    HW255712   5.674   4.667   5.909  0.9872 -0.5696 -0.1348
18091SOL     OW55713   5.162   4.123  12.143  0.2807 -0.4679 -0.1049
18091SOL    HW155714   5.109   4.188  12.095 -0.9027 -0.8000  0.7090
18091SOL    HW255715   5.200   4.069  12.074  0.2878  0.3283 -0.7500
18092SOL     OW55716   4.725   0.111   9.963  0.1958  0.2430 -0.0431
18092SOL    HW155717   4.755   0.158   9.885 -0.1871 -1.2175 -1.1312
18092SOL    HW255718   4.805   0.091  10.012  1.1299 -2.9470 -2.5111
18093SOL     OW55719   3.985   1.890   3.836  0.1355 -0.4757 -0.4856
18093SOL    HW155720   4.023   1.832   3.770  0.3664 -2.7423  1.5096
18093SOL    HW255721   3.967   1.833   3.910 -1.2435  1.7422  0.9945
18094SOL     OW55722   4.973   2.353   2.829 -0.0041  0.0824 -0.0028
18094SOL    HW155723   4.992   2.329   2.738  0.1471 -0.2388  0.1140
18094SOL    HW255724   4.985   2.448   2.831  2.0400 -0.1398  0.1685
18095SOL     OW55725   2.326   1.578  11.112  0.6720 -0.1838  0.1717
18095SOL    HW155726   2.248   1.571  11.056  0.6670 -2.0354  0.3509
18095SOL    HW255727   2.389   1.627  11.059  0.5980 -1.7028 -1.4188
18096SOL     OW55728   4.031   0.853   0.349  0.4375 -0.4087  0.0243
18096SOL    HW155729   3.961   0.883   0.291  0.1939  0.1323  0.5884
18096SOL    HW255730   4.108   0.847   0.293 -0.1606 -1.5106 -0.7235
18097SOL     OW55731   6.337   7.004   5.246 -0.0351  0.7606 -0.1994
18097SOL    HW155732   6.342   7.065   5.319 -1.9410 -0.7587  1.3160
18097SOL    HW255733   6.397   6.933   5.270  0.7787  1.1410 -1.0612
18098SOL     OW55734   1.618   2.799   6.484  0.3221  0.3723 -0.3851
18098SOL    HW155735   1.568   2.804   6.566 -0.0517  0.6588 -0.6317
18098SOL    HW255736   1.710   2.801   6.512  0.2079 -0.6622  0.1052
18099SOL     OW55737   4.386   4.209   2.872  0.0771  0.3834  0.1143
18099SOL    HW155738   4.461   4.150   2.864  0.0935  0.3036  0.7980
18099SOL    HW255739   4.362   4.204   2.965 -0.3011  0.9865  0.0489
18100SOL     OW55740   7.930   0.203  10.261  0.3077 -0.1097  0.3051
18100SOL    HW155741   7.964   0.180  10.347  1.6562 -0.7857 -0.3722
18100SOL    HW255742   7.895   0.291  10.271 -0.8484 -0.6918  1.8723
18101SOL     OW55743   3.362   2.174  12.388  0.0234 -0.5376  0.2383
18101SOL    HW155744   3.399   2.257  12.356 -0.2723 -0.3845  0.2896
18101SOL    HW255745   3.426   2.142  12.451 -0.0835 -0.1169  0.5601
18102SOL     OW55746   2.853   4.388   5.327  1.1322 -0.9189 -0.5003
18102SOL    HW155747   2.794   4.340   5.384  0.9227  0.2852  0.3534
18102SOL    HW255748   2.936   4.391   5.375  0.0660  3.0889  1.6087
18103SOL     OW55749   3.536   1.467   6.721  0.0877  0.1272 -0.3493
18103SOL    HW155750   3.468   1.401   6.713  1.8625 -1.7052 -1.2059
18103SOL    HW255751   3.523   1.505   6.808 -2.7432  0.7628 -0.9632
18104SOL     OW55752   2.292   2.307   6.943 -0.2866  0.1864 -0.0178
18104SOL    HW155753   2.216   2.249   6.948 -0.1376 -0.0076 -0.0365
18104SOL    HW255754   2.330   2.291   6.857  0.7326 -0.9085  0.6140
18105SOL     OW55755   1.188   0.738   7.131  0.1303  0.7274 -0.5661
18105SOL    HW155756   1.160   0.693   7.211  0.2020 -0.0346 -0.9508
18105SOL    HW255757   1.267   0.786   7.156  0.1471  0.5019 -0.1751
18106SOL     OW55758   3.725   7.176   1.138 -0.1530  0.2503  0.1925
18106SOL    HW155759   3.702   7.088   1.168 -0.4881 -0.0495 -0.9170
18106SOL    HW255760   3.698   7.178   1.046 -2.2058  2.2283  0.7467
18107SOL     OW55761   0.337   4.590   4.269  0.2888  0.1169  0.3218
18107SOL    HW155762   0.285   4.656   4.316  0.3855 -0.1257  0.7741
18107SOL    HW255763   0.271   4.530   4.232  0.2567 -0.8106  1.8070
18108SOL     OW55764   7.570   1.308   6.571 -0.0832 -0.0336  0.3859
18108SOL    HW155765   7.508   1.239   6.547  1.0436 -1.2237  0.7781
18108SOL    HW255766   7.522   1.365   6.631 -1.1658 -0.2317 -0.2745
18109SOL     OW55767   3.315   0.107   8.236  0.2720  0.0996 -0.4631
18109SOL    HW155768   3.289   0.129   8.326  0.0365  1.6933 -0.8914
18109SOL    HW255769   3.252   0.040   8.209 -0.9017  0.9988 -0.0896
18110SOL     OW55770   1.502   1.889   4.194 -0.3420  0.8177  0.3323
18110SOL    HW155771   1.498   1.795   4.209  1.2000  0.7271  0.3230
18110SOL    HW255772   1.589   1.915   4.224 -1.3981  2.5801  2.1353
18111SOL     OW55773   7.592   2.999   4.023  0.2836  0.3435  0.7338
18111SOL    HW155774   7.535   2.965   4.093 -0.0750  1.1605  0.8579
18111SOL    HW255775   7.609   3.090   4.049  1.0656  0.3207  0.3251
18112SOL     OW55776   2.100   3.249  11.638 -0.2922 -0.1209 -0.0594
18112SOL    HW155777   2.180   3.279  11.594  0.9470 -1.9994  0.7605
18112SOL    HW255778   2.121   3.255  11.732 -1.0602 -0.7505  0.1629
18113SOL     OW55779   2.482   5.529   7.036  0.1692 -0.3057  0.1626
18113SOL    HW155780   2.423   5.540   6.961  1.8005  0.7846 -1.0256
18113SOL    HW255781   2.442   5.582   7.105  0.3350  1.4407 -1.0032
18114SOL     OW55782   7.765   0.244   0.121  0.2247 -0.3780 -0.5335
18114SOL    HW155783   7.847   0.229   0.075 -0.0660 -0.0824 -1.1462
18114SOL    HW255784   7.703   0.183   0.081  0.2554 -0.9453  0.2513
18115SOL     OW55785   1.073   6.461   0.023  0.3053 -0.2000  0.9876
18115SOL    HW155786   1.149   6.463  -0.035  0.5948 -0.2113  1.3655
18115SOL    HW255787   1.007   6.412  -0.027 -0.0650  1.3066 -0.0560
18116SOL     OW55788   7.607   1.370   9.850  0.1910  0.3787  0.0258
18116SOL    HW155789   7.544   1.372   9.923  1.4209 -0.9908  1.1834
18116SOL    HW255790   7.651   1.455   9.854 -0.7693  0.8964 -0.0823
18117SOL     OW55791   1.771   0.065   2.442  0.3427  0.3865 -0.4188
18117SOL    HW155792   1.715   0.137   2.412 -0.7399 -0.2378  0.0438
18117SOL    HW255793   1.763  -0.002   2.374 -0.3842 -0.1554  0.1874
18118SOL     OW55794   1.498   2.108  10.018 -0.3326 -0.3770 -0.2103
18118SOL    HW155795   1.477   2.194  10.055  0.6051 -0.4221  0.4612
18118SOL    HW255796   1.450   2.105   9.935 -1.1643  0.3886  0.2306
18119SOL     OW55797   4.719   1.757   7.259 -0.5191 -0.4948 -0.0188
18119SOL    HW155798   4.747   1.848   7.257  1.1830 -1.0060 -1.2224
18119SOL    HW255799   4.637   1.756   7.208 -1.0051  0.4744  0.7165
18120SOL     OW55800   3.184   6.822   5.556 -0.3129  0.7474 -0.4017
18120SOL    HW155801   3.204   6.885   5.487 -2.6138  2.2543  0.1824
18120SOL    HW255802   3.232   6.853   5.632  1.2096 -0.1885 -0.9335
18121SOL     OW55803   6.355   6.520   2.202 -0.2435  0.1362 -0.1194
18121SOL    HW155804   6.267   6.556   2.192  0.1737  1.1344 -0.3319
18121SOL    HW255805   6.408   6.569   2.140  0.5795 -0.0375  0.4271
18122SOL     OW55806   5.761   2.575   1.511  0.0992 -0.6626 -0.6644
18122SOL    HW155807   5.816   2.497   1.507  2.4807  0.8782 -0.0156
18122SOL    HW255808   5.817   2.646   1.480 -0.9061  1.3134  1.6929
18123SOL     OW55809   6.057   5.821   1.342 -0.6064 -0.1683 -0.0522
18123SOL    HW155810   6.046   5.916   1.331 -1.1905 -0.3734 -1.3445
18123SOL    HW255811   6.148   5.811   1.370 -1.0827  0.8998  2.0918
18124SOL     OW55812   7.767   6.643   7.011 -0.7309 -0.1438  0.4823
18124SOL    HW155813   7.858   6.667   7.029  0.2458 -0.8346 -2.7358
18124SOL    HW255814   7.716   6.691   7.075  1.5928  4.0143 -0.4107
18125SOL     OW55815   4.078   1.078   9.393 -0.5450  0.1289 -0.0710
18125SOL    HW155816   4.139   1.097   9.321  0.6542 -1.7047  0.3801
18125SOL    HW255817   4.121   1.113   9.471 -2.0315  2.4801 -0.2147
18126SOL     OW55818   6.884   4.793   9.240  0.6505  0.1054 -0.2274
18126SOL    HW155819   6.844   4.779   9.326  0.8085 -1.8752 -0.4118
18126SOL    HW255820   6.976   4.812   9.259  0.6105  0.0115  0.0585
18127SOL     OW55821   1.524   5.877   8.610 -0.3374  0.3507  0.2556
18127SOL    HW155822   1.614   5.894   8.583  0.3066 -0.3951  1.7894
18127SOL    HW255823   1.493   5.962   8.642 -0.6432  0.9088 -1.4664
18128SOL     OW55824   7.044   6.275   6.106  0.0870 -0.2196  0.2606
18128SOL    HW155825   7.025   6.366   6.085 -0.2081 -0.0947  1.0525
18128SOL    HW255826   7.016   6.264   6.197 -1.8659 -1.6703 -0.4602
18129SOL     OW55827   0.127   4.379   4.689  0.1820 -0.0545 -0.8337
18129SOL    HW155828   0.042   4.344   4.717  0.0607  0.5641 -0.3929
18129SOL    HW255829   0.191   4.329   4.740 -0.0418  1.0895  0.6213
18130SOL     OW55830   4.916   5.464   5.237 -0.2026 -0.1259  0.4410
18130SOL    HW155831   4.820   5.466   5.236 -0.2027 -0.1222  0.4754
18130SOL    HW255832   4.941   5.528   5.304 -0.2211 -1.9599  2.2819
18131SOL     OW55833   2.392   3.576   1.468 -0.7995 -0.7407 -0.0531
18131SOL    HW155834   2.473   3.623   1.490 -0.0814 -2.6320  1.6527
18131SOL    HW255835   2.414   3.525   1.391 -0.8256 -0.1613 -0.4489
18132SOL     OW55836   5.699   5.624   8.298  0.0749  0.8342  0.0562
18132SOL    HW155837   5.659   5.648   8.381 -0.7676  0.8871 -0.3462
18132SOL    HW255838   5.674   5.694   8.238 -0.2507  0.2623 -0.4979
18133SOL     OW55839   2.511   6.145   9.057  0.3199  0.2746 -0.7097
18133SOL    HW155840   2.492   6.175   8.968 -1.0197  2.7502  0.3084
18133SOL    HW255841   2.440   6.084   9.077  0.0917  0.4407 -1.0014
18134SOL     OW55842   3.039   4.741   0.897 -0.2191  0.2187  0.2500
18134SOL    HW155843   2.990   4.707   0.822 -0.0625  1.5992 -0.5092
18134SOL    HW255844   3.011   4.832   0.905 -0.5144 -0.0009  2.1277
18135SOL     OW55845   0.687   4.493  10.316 -0.5314 -0.5259 -0.0909
18135SOL    HW155846   0.649   4.574  10.349  0.4091  0.6139 -1.6905
18135SOL    HW255847   0.727   4.452  10.394 -1.9094 -0.0016  0.9240
18136SOL     OW55848   2.728   4.857   6.442  0.3553 -0.3698 -0.7899
18136SOL    HW155849   2.638   4.839   6.417  0.2652 -2.2154  0.6289
18136SOL    HW255850   2.770   4.771   6.446  1.7256  0.2873  0.1684
18137SOL     OW55851   7.724   4.815   0.623 -0.1973 -0.1313 -0.2231
18137SOL    HW155852   7.683   4.749   0.678 -1.9484 -0.4919 -1.8538
18137SOL    HW255853   7.761   4.878   0.684 -2.3270 -0.3290  1.3836
18138SOL     OW55854   5.283   2.961   3.464  0.1314  0.0042 -0.6336
18138SOL    HW155855   5.211   2.915   3.420 -1.1904  0.2940  1.1232
18138SOL    HW255856   5.302   3.036   3.407 -1.2817  0.1768 -0.9060
18139SOL     OW55857   7.067   0.237   2.869 -0.2321  0.0647  0.0753
18139SOL    HW155858   6.987   0.216   2.919  0.5404 -0.5072  1.1193
18139SOL    HW255859   7.051   0.325   2.835 -0.2883  1.0713  2.4672
18140SOL     OW55860   7.603   7.469   6.121  0.0216  0.4904 -0.0193
18140SOL    HW155861   7.666   7.533   6.087 -0.4958  1.0720  0.0991
18140SOL    HW255862   7.526   7.481   6.066 -0.2014  0.2061  0.2310
18141SOL     OW55863   1.180   5.501  11.705  0.8540  0.1055  0.1272
18141SOL    HW155864   1.273   5.480  11.696  1.3194  1.8082  0.8079
18141SOL    HW255865   1.172   5.591  11.674 -0.6059 -0.0688 -0.0732
18142SOL     OW55866   3.344   2.464   1.248 -0.4580 -0.2581 -0.0404
18142SOL    HW155867   3.347   2.376   1.285  0.0870  0.2004  1.0446
18142SOL    HW255868   3.404   2.461   1.174 -0.8592 -0.9402 -0.3495
18143SOL     OW55869   5.118   4.420   1.129  0.2443  0.1345  0.2187
18143SOL    HW155870   5.146   4.400   1.040  0.6846 -0.6577  0.5203
18143SOL    HW255871   5.096   4.513   1.127  0.1784  0.1093 -0.7306
18144SOL     OW55872   5.742   3.937  10.416 -0.8775 -0.1891 -0.5384
18144SOL    HW155873   5.683   3.963  10.487  0.7548  0.1795  0.7574
18144SOL    HW255874   5.747   4.014  10.360  1.0262  1.1434  1.2728
18145SOL     OW55875   7.006   0.505   2.838  0.1862 -0.0759 -0.4101
18145SOL    HW155876   7.026   0.584   2.787 -0.5371 -0.0203 -0.6276
18145SOL    HW255877   6.981   0.539   2.925  2.0081 -0.2043  0.2019
18146SOL     OW55878   4.892   5.352  11.370  0.1571  0.2234  0.4300
18146SOL    HW155879   4.866   5.385  11.456 -0.2784  1.9530 -0.3407
18146SOL    HW255880   4.810   5.340  11.323  0.3157 -1.7112  0.5407
18147SOL     OW55881   3.563   3.455  10.957  0.0009 -0.1779  0.2599
18147SOL    HW155882   3.481   3.423  10.921 -0.1236  1.4431 -1.0114
18147SOL    HW255883   3.559   3.550  10.945  1.7502  0.0071  0.8381
18148SOL     OW55884   6.273   3.797   4.017 -0.3681 -0.6144 -0.2656
18148SOL    HW155885   6.301   3.777   3.928  0.3616  0.1707 -0.2270
18148SOL    HW255886   6.321   3.736   4.072  1.4775  0.8213 -0.1869
18149SOL     OW55887   1.781   0.856   4.278 -0.3101  0.3747 -0.9465
18149SOL    HW155888   1.860   0.849   4.331  0.6106  0.8102 -2.2228
18149SOL    HW255889   1.710   0.857   4.342  0.5963 -1.3667  0.1940
18150SOL     OW55890   5.549   5.487   8.002  0.3699 -0.0057 -0.0491
18150SOL    HW155891   5.554   5.576   8.036 -0.7368 -0.1163  0.4536
18150SOL    HW255892   5.626   5.478   7.946  0.7930  1.0741  0.3369
18151SOL     OW55893   4.026   3.440   6.033 -0.4800 -0.6907 -0.1639
18151SOL    HW155894   4.025   3.420   6.127  0.6584 -3.6747 -0.6705
18151SOL    HW255895   3.957   3.506   6.022 -0.6919 -0.2786  2.7297
18152SOL     OW55896   0.341   4.376   5.091 -0.1325  0.1720 -0.5450
18152SOL    HW155897   0.310   4.432   5.161 -1.8823 -2.8311  1.2924
18152SOL    HW255898   0.399   4.432   5.039 -0.2071  3.0523  2.1938
18153SOL     OW55899   2.599   0.798   5.578 -0.3798 -0.0630  0.2677
18153SOL    HW155900   2.606   0.831   5.489  0.1226  2.4105  1.1502
18153SOL    HW255901   2.677   0.742   5.589 -0.7789 -0.9099 -1.0019
18154SOL     OW55902   1.936   2.364   5.211 -0.0911  0.1185  0.2169
18154SOL    HW155903   1.849   2.336   5.181  0.1903 -1.5521  0.8590
18154SOL    HW255904   1.923   2.455   5.239 -2.1501 -0.6848  2.1880
18155SOL     OW55905   6.442   1.100   6.402 -0.0435 -0.5624  0.5959
18155SOL    HW155906   6.424   1.006   6.393  0.8331 -0.6560 -0.3457
18155SOL    HW255907   6.453   1.113   6.497  0.7701 -1.5943  0.6637
18156SOL     OW55908   7.730   2.793   7.825 -0.5785 -0.4443  0.0083
18156SOL    HW155909   7.717   2.814   7.917 -1.8434  0.5810 -0.3651
18156SOL    HW255910   7.689   2.866   7.778 -0.7058 -1.3625 -1.3678
18157SOL     OW55911   6.190   4.876   4.756  0.4567  0.2474  0.2213
18157SOL    HW155912   6.243   4.810   4.801 -0.2370  0.7849  1.9124
18157SOL    HW255913   6.173   4.839   4.670  0.6808 -1.4644  0.8835
18158SOL     OW55914   7.588   5.983   4.975 -0.2386  0.3668  0.0203
18158SOL    HW155915   7.660   5.938   5.018  0.7752 -0.5099 -2.4188
18158SOL    HW255916   7.620   6.072   4.961  0.0732  0.1951 -0.3693
18159SOL     OW55917   4.105   2.419   9.718 -0.2278 -0.0858 -0.2578
18159SOL    HW155918   4.127   2.504   9.756 -1.6716 -0.3810  1.3414
18159SOL    HW255919   4.189   2.380   9.696  0.4736  1.6038 -0.7071
18160SOL     OW55920   5.341   5.828  10.736 -0.4416 -0.8946 -0.2382
18160SOL    HW155921   5.436   5.835  10.735 -0.2805 -2.3311  0.8442
18160SOL    HW255922   5.311   5.905  10.785  0.1255 -0.2287 -0.9248
18161SOL     OW55923   2.025   1.636  11.513 -0.6002 -0.0566  0.1505
18161SOL    HW155924   1.952   1.664  11.457 -1.2069 -0.0659  0.9255
18161SOL    HW255925   2.000   1.665  11.601  1.0156  1.2510  0.2154
18162SOL     OW55926   0.103   4.070   7.050  0.4438  0.9049 -0.5379
18162SOL    HW155927   0.114   3.976   7.034  1.1857  0.8149  0.3687
18162SOL    HW255928   0.023   4.094   7.003  0.8794  0.0714 -1.7463
18163SOL     OW55929   3.432   7.099   5.634  0.0853  0.6123  0.2292
18163SOL    HW155930   3.351   7.074   5.590 -0.5512  1.3699  0.9488
18163SOL    HW255931   3.483   7.143   5.566 -0.0519  0.0607 -0.2480
18164SOL     OW55932   0.619   1.274   5.399 -0.2842 -0.3173  0.3891
18164SOL    HW155933   0.563   1.351   5.403 -0.0977 -0.1255 -0.4147
18164SOL    HW255934   0.700   1.306   5.359 -0.1362 -0.8823  0.2274
18165SOL     OW55935   2.315   3.019   5.483  0.1066 -0.7495  0.1965
18165SOL    HW155936   2.296   2.939   5.531 -0.0903  0.0245  1.4333
18165SOL    HW255937   2.407   3.011   5.459 -0.0445 -1.5713 -0.1704
18166SOL     OW55938   5.103   7.914   5.438  0.5314 -0.1607 -0.2092
18166SOL    HW155939   5.168   7.969   5.482  1.2015  0.7384 -2.1634
18166SOL    HW255940   5.135   7.909   5.347 -1.9089 -0.0466 -1.1436
18167SOL     OW55941   7.765   3.887   7.752  0.2678  0.1794  0.4525
18167SOL    HW155942   7.818   3.931   7.686 -0.1121  1.1002  0.7430
18167SOL    HW255943   7.811   3.903   7.835 -0.7131  1.4490  0.7823
18168SOL     OW55944   0.595   1.155   2.829 -0.5586 -0.6662 -0.4264
18168SOL    HW155945   0.571   1.247   2.827 -0.4497 -0.6098  0.3955
18168SOL    HW255946   0.633   1.138   2.743  0.6326  0.3924 -0.1471
18169SOL     OW55947   2.062   4.431  10.431 -0.3784 -0.3809  0.4197
18169SOL    HW155948   2.120   4.391  10.496  0.1708  0.1368  0.2592
18169SOL    HW255949   1.977   4.391  10.447 -0.5476  0.6029  2.2542
18170SOL     OW55950   2.065   0.529   9.856 -0.1081 -0.0715  0.3688
18170SOL    HW155951   2.074   0.623   9.873  0.1345 -0.2025  1.0223
18170SOL    HW255952   2.014   0.524   9.775 -0.6593  0.6181  0.6548
18171SOL     OW55953   3.921   5.690   7.084 -0.1312 -0.4639  0.2704
18171SOL    HW155954   3.848   5.748   7.060 -0.6926 -1.1495  0.2724
18171SOL    HW255955   3.968   5.675   7.002 -0.3497 -0.5016  0.1510
18172SOL     OW55956   1.248   1.513   5.606  0.0811  0.7296  0.0616
18172SOL    HW155957   1.259   1.513   5.511 -0.0905  1.2845  0.0386
18172SOL    HW255958   1.247   1.606   5.631 -2.4813  0.7229  0.2986
18173SOL     OW55959   0.332   3.994   1.700 -0.1812  0.2926 -0.5380
18173SOL    HW155960   0.396   4.064   1.695 -0.0818  0.3757  1.4296
18173SOL    HW255961   0.252   4.032   1.663 -0.0143  1.3170  0.1228
18174SOL     OW55962   2.317   0.013   4.340 -0.0048  0.4957 -0.0938
18174SOL    HW155963   2.378   0.060   4.283  0.9127  1.0078  1.2471
18174SOL    HW255964   2.365   0.003   4.423 -0.8873 -1.1685  0.2538
18175SOL     OW55965   6.827   6.402   5.892 -0.1196  0.1739  0.4311
18175SOL    HW155966   6.808   6.331   5.952  0.0147  0.6058  0.9932
18175SOL    HW255967   6.885   6.460   5.941 -0.6421  0.9347  0.1720
18176SOL     OW55968   6.796   7.133   2.935  0.2702 -0.1901  0.5875
18176SOL    HW155969   6.731   7.069   2.963 -1.0834  0.9672  0.2115
18176SOL    HW255970   6.791   7.203   3.001  1.1628 -0.0871  0.5645
18177SOL     OW55971   0.754   6.385   4.712  0.3007  0.5060  0.0502
18177SOL    HW155972   0.686   6.317   4.716  0.6657  0.1411  0.0856
18177SOL    HW255973   0.743   6.423   4.625  0.6981 -0.2384 -0.3406
18178SOL     OW55974   1.305   5.915  11.322  0.1814 -0.4450 -0.2611
18178SOL    HW155975   1.243   5.900  11.250 -0.9139  2.1461  0.0473
18178SOL    HW255976   1.286   6.003  11.353  1.9966 -0.7154  1.9167
18179SOL     OW55977   6.842   7.891   9.701 -0.3257  0.1393  0.7572
18179SOL    HW155978   6.784   7.894   9.625 -0.0835 -0.1590  0.5576
18179SOL    HW255979   6.894   7.972   9.695  0.3245 -0.3146  0.0959
18180SOL     OW55980   3.501   1.285   8.377 -0.4748  0.2035  0.3105
18180SOL    HW155981   3.592   1.276   8.346 -0.3764  0.7653  0.4309
18180SOL    HW255982   3.489   1.211   8.437 -0.3237 -0.2762 -0.2408
18181SOL     OW55983   2.343   3.842   2.020  0.2600  0.3619 -0.0914
18181SOL    HW155984   2.322   3.766   2.075  1.7830  0.8490  1.2524
18181SOL    HW255985   2.391   3.805   1.946 -1.6106 -0.2779 -1.0537
18182SOL     OW55986   0.548   0.372   7.489 -0.4505 -0.1733 -0.0207
18182SOL    HW155987   0.459   0.346   7.514 -0.7069  1.6371  1.0909
18182SOL    HW255988   0.600   0.292   7.502 -1.2767 -0.3728  2.7764
18183SOL     OW55989   1.894   0.132   4.871 -0.5027  0.5935 -0.3476
18183SOL    HW155990   1.918   0.197   4.805  0.5628  0.9493  0.3497
18183SOL    HW255991   1.957   0.061   4.858 -1.0020  0.1635 -0.4326
18184SOL     OW55992   3.003   0.560   6.760  0.1107  0.2182 -0.7702
18184SOL    HW155993   3.039   0.506   6.689 -0.5741  0.2407 -1.1443
18184SOL    HW255994   2.925   0.600   6.722  0.3606  1.1176 -0.3532
18185SOL     OW55995   6.379   6.081   5.171  0.0859 -0.2206  0.0586
18185SOL    HW155996   6.421   6.015   5.225  1.4206  1.2653  0.9347
18185SOL    HW255997   6.443   6.152   5.165 -0.5944  0.3133 -2.2747
18186SOL     OW55998   0.101   6.147  10.325 -0.2699  0.6250 -0.4654
18186SOL    HW155999   0.077   6.231  10.364 -1.1179 -0.3902  1.3298
18186SOL    HW256000   0.019   6.097  10.324  0.4638 -0.6087 -0.3822
18187SOL     OW56001   7.391   0.835   3.392  0.2748  0.9222 -0.4854
18187SOL    HW156002   7.388   0.739   3.398  0.2048  0.9782  0.5591
18187SOL    HW256003   7.306   0.859   3.355  0.3484  0.5835 -0.8956
18188SOL     OW56004   4.864   7.572   1.344  0.6358  0.4930 -0.2750
18188SOL    HW156005   4.873   7.531   1.258 -0.1924  1.4676 -0.8563
18188SOL    HW256006   4.775   7.607   1.344  0.0451 -0.8894  1.6246
18189SOL     OW56007   7.265   3.758   0.836  0.4994 -0.0133 -0.3043
18189SOL    HW156008   7.232   3.776   0.924 -0.5463  0.6715 -0.8098
18189SOL    HW256009   7.340   3.817   0.825 -0.3838  1.1116 -0.4539
18190SOL     OW56010   4.962   7.973   9.364  0.0844 -0.3228  0.0908
18190SOL    HW156011   4.930   8.063   9.355  0.3914 -0.3815 -2.0020
18190SOL    HW256012   5.029   7.978   9.432 -0.4367  0.8705  0.5405
18191SOL     OW56013   3.555   2.144   7.257 -0.1651  0.3912  0.3724
18191SOL    HW156014   3.636   2.137   7.306  0.3846  0.6448 -0.4767
18191SOL    HW256015   3.533   2.237   7.259 -0.7439  0.2492  1.0693
18192SOL     OW56016   0.829   0.557   3.829  0.8183 -0.2365 -0.3484
18192SOL    HW156017   0.893   0.626   3.807 -0.4581  0.8378 -0.8062
18192SOL    HW256018   0.847   0.487   3.767  0.5461  0.7107 -1.5333
18193SOL     OW56019   1.042   7.391   5.759  0.3203  0.2947 -0.2265
18193SOL    HW156020   1.094   7.421   5.833 -0.6949 -0.4223  0.8043
18193SOL    HW256021   1.096   7.324   5.717  1.1907  1.1934 -0.5675
18194SOL     OW56022   0.053   2.105   9.005 -0.1119 -0.1913 -0.6306
18194SOL    HW156023   0.126   2.046   8.993 -0.2594 -0.3385 -0.8042
18194SOL    HW256024   0.062   2.137   9.095 -1.8266 -2.9323  0.6365
18195SOL     OW56025   3.733   3.630   6.111  0.3659 -1.1799  0.5651
18195SOL    HW156026   3.665   3.646   6.176 -1.1244  1.2257 -1.4180
18195SOL    HW256027   3.805   3.688   6.137 -0.5413  0.3863 -0.3078
18196SOL     OW56028   2.692   4.401   0.149 -0.6009  0.1193 -0.4199
18196SOL    HW156029   2.606   4.442   0.155 -0.0601  1.2133  0.2407
18196SOL    HW256030   2.748   4.467   0.108 -0.1582 -0.7386 -1.2447
18197SOL     OW56031   4.423   7.602  12.425 -0.4156 -0.0990 -0.2137
18197SOL    HW156032   4.455   7.691  12.410 -1.6677  0.5428  0.7664
18197SOL    HW256033   4.463   7.576  12.508  0.3643 -0.6799 -0.7512
18198SOL     OW56034   2.280   4.901   6.764  0.3044  0.2254  0.1698
18198SOL    HW156035   2.329   4.846   6.825 -1.5672 -1.6695  0.0794
18198SOL    HW256036   2.216   4.946   6.819 -1.6485 -1.7792 -0.3056
18199SOL     OW56037   2.251   5.519  11.777  0.2313 -0.4606 -0.3401
18199SOL    HW156038   2.160   5.539  11.797  1.2594  1.9144  2.8325
18199SOL    HW256039   2.253   5.508  11.682 -2.8876  2.3410 -0.9069
18200SOL     OW56040   6.195   6.111  12.294  0.2259 -0.4057  0.1801
18200SOL    HW156041   6.278   6.082  12.256  1.3940  1.8016  0.9005
18200SOL    HW256042   6.128   6.066  12.241  1.8120 -0.3586 -2.0200
18201SOL     OW56043   2.115   6.417  11.957 -0.0528  0.2335 -0.1716
18201SOL    HW156044   2.081   6.496  11.915 -0.7058  0.9154  1.5551
18201SOL    HW256045   2.039   6.358  11.962  0.1003  0.0311 -0.2302
18202SOL     OW56046   0.317   0.465  11.229 -0.0604  0.4462  0.4154
18202SOL    HW156047   0.257   0.394  11.206  1.7069 -0.5098 -1.5757
18202SOL    HW256048   0.264   0.545  11.220 -1.0232 -0.3448 -1.5003
18203SOL     OW56049   1.026   2.556   5.688  0.3060  0.1420  0.0838
18203SOL    HW156050   0.975   2.488   5.644 -1.1711  0.3924  1.3254
18203SOL    HW256051   0.968   2.589   5.756  1.9964  0.7263  1.3158
18204SOL     OW56052   2.470   0.257   8.089  0.7716  0.0019 -0.0359
18204SOL    HW156053   2.431   0.334   8.047  1.7451  0.8889  0.6103
18204SOL    HW256054   2.565   0.271   8.080  0.9787 -1.7697 -1.0379
18205SOL     OW56055   7.196   5.235   9.082 -0.2562  0.5240  0.2586
18205SOL    HW156056   7.217   5.288   9.005  0.6075 -0.3245 -0.1024
18205SOL    HW256057   7.235   5.150   9.064 -2.3790 -0.5602  0.4134
18206SOL     OW56058   3.289   2.348   6.749 -0.1504  0.1689 -0.2800
18206SOL    HW156059   3.251   2.273   6.702 -0.7827  0.1571  0.2376
18206SOL    HW256060   3.341   2.308   6.818 -0.8652  0.2003  0.2888
18207SOL     OW56061   4.798   6.904   3.290  0.1514 -0.5318  0.1494
18207SOL    HW156062   4.877   6.850   3.299  0.2710 -0.7913 -1.9299
18207SOL    HW256063   4.783   6.939   3.378  2.5883 -0.4576  0.6296
18208SOL     OW56064   7.854   5.983  12.204  0.2139  0.0163  0.1866
18208SOL    HW156065   7.942   5.962  12.236  0.4933  0.6236 -0.1586
18208SOL    HW256066   7.870   6.029  12.122 -0.4583 -0.5596 -0.2773
18209SOL     OW56067   1.435   0.160   5.791 -0.1949  0.2499  0.3872
18209SOL    HW156068   1.367   0.178   5.727  2.3900  1.1766 -2.2986
18209SOL    HW256069   1.452   0.244   5.833 -0.4755  0.0789  0.8565
18210SOL     OW56070   1.415   6.493   5.329  0.2534 -0.1571 -0.5276
18210SOL    HW156071   1.399   6.586   5.311 -0.5380 -0.3642 -0.9657
18210SOL    HW256072   1.385   6.448   5.250 -0.2008 -0.8476  0.0260
18211SOL     OW56073   5.983   2.608   5.269 -0.5230 -0.0697 -0.1359
18211SOL    HW156074   6.070   2.606   5.309 -0.2912  0.2345 -0.6248
18211SOL    HW256075   5.973   2.522   5.229 -0.4697 -0.1203 -0.0419
18212SOL     OW56076   5.427   0.150  12.151  0.1001 -0.2749 -0.5556
18212SOL    HW156077   5.443   0.236  12.190  0.8403 -0.7492  0.2331
18212SOL    HW256078   5.364   0.167  12.081  0.2485  0.9100 -0.4324
18213SOL     OW56079   5.523   5.636   9.805  0.0944  0.3680  0.5787
18213SOL    HW156080   5.584   5.572   9.841 -1.9914 -1.5614  0.8605
18213SOL    HW256081   5.437   5.596   9.815 -1.2313  2.8488 -0.0806
18214SOL     OW56082   6.220   2.235   0.269  0.9882  0.3736  0.1188
18214SOL    HW156083   6.173   2.311   0.235  0.5018 -0.2564 -0.6574
18214SOL    HW256084   6.211   2.241   0.364 -0.3382  0.4663  0.0006
18215SOL     OW56085   4.043   7.397   9.961  0.3747 -0.0407 -0.5582
18215SOL    HW156086   4.085   7.363   9.882  1.3910 -0.6794  0.2225
18215SOL    HW256087   4.112   7.394  10.027  0.0229  2.0201 -0.0303
18216SOL     OW56088   0.365   5.793   6.411  0.2759 -0.0714 -0.4410
18216SOL    HW156089   0.310   5.766   6.337  1.1488 -1.3475 -0.6526
18216SOL    HW256090   0.440   5.837   6.370  0.5248 -0.3575 -0.2976
18217SOL     OW56091   7.526   4.307  10.921  0.4806  0.3205  0.0287
18217SOL    HW156092   7.474   4.272  10.993  2.0391 -0.2748  0.9104
18217SOL    HW256093   7.467   4.367  10.876 -1.2158 -0.9078  0.4901
18218SOL     OW56094   4.606   6.421  10.525 -0.4704  0.7768 -0.4974
18218SOL    HW156095   4.577   6.411  10.434  0.7875  1.5497 -1.0015
18218SOL    HW256096   4.699   6.441  10.519  0.2003 -1.4266  1.0522
18219SOL     OW56097   0.500   0.353   1.687  0.0390 -0.0408  0.2376
18219SOL    HW156098   0.438   0.413   1.646 -0.6800 -0.1566  1.1315
18219SOL    HW256099   0.446   0.281   1.719  0.8793 -1.1363 -0.7372
18220SOL     OW56100   2.838   0.807  11.015 -0.0132 -0.2935  0.0889
18220SOL    HW156101   2.747   0.794  10.988  0.1141 -0.6918 -0.1590
18220SOL    HW256102   2.883   0.728  10.986  1.0902  1.2369 -2.7049
18221SOL     OW56103   5.950   3.082   5.640  0.6767 -0.9564  0.0236
18221SOL    HW156104   6.036   3.123   5.639  0.7844 -1.1628 -1.2612
18221SOL    HW256105   5.954   3.016   5.571 -0.3187 -1.3782  0.3488
18222SOL     OW56106   5.367   1.121   2.159 -0.1787  0.2143  0.0422
18222SOL    HW156107   5.377   1.110   2.064 -0.9435  1.5019 -0.2075
18222SOL    HW256108   5.442   1.176   2.184 -1.2715  1.8968 -0.2454
18223SOL     OW56109   0.355   2.880   8.652 -0.0588 -0.6224  0.2486
18223SOL    HW156110   0.386   2.970   8.646  1.2436 -1.0100  0.7791
18223SOL    HW256111   0.265   2.883   8.619 -0.4542  1.0763  1.3420
18224SOL     OW56112   2.792   1.630   4.206  0.2404  0.4069  0.2336
18224SOL    HW156113   2.799   1.646   4.112  1.0181  1.3736  0.4429
18224SOL    HW256114   2.872   1.582   4.228 -0.4330 -0.7621  0.2384
18225SOL     OW56115   1.669   5.561  10.461  0.2433  0.0535 -0.5520
18225SOL    HW156116   1.700   5.480  10.503 -0.2927 -0.0606 -0.3673
18225SOL    HW256117   1.703   5.631  10.516  2.1775  0.0603 -1.6453
18226SOL     OW56118   6.073   4.983  10.313  0.3170 -0.2283  0.1142
18226SOL    HW156119   6.138   5.054  10.311  1.4572 -1.2602 -1.3881
18226SOL    HW256120   6.109   4.919  10.373  0.0309 -0.2191  0.2981
18227SOL     OW56121   7.363   5.428   3.471  0.0197  0.1930  0.1054
18227SOL    HW156122   7.298   5.367   3.506 -0.5328  1.4355  1.3147
18227SOL    HW256123   7.445   5.402   3.513 -0.0428 -0.1936  0.0006
18228SOL     OW56124   6.711   2.262  11.800 -0.8847  0.0702 -0.1352
18228SOL    HW156125   6.689   2.245  11.892 -0.0853  0.2852  0.1050
18228SOL    HW256126   6.725   2.175  11.762 -0.2255  0.0180  0.2100
18229SOL     OW56127   0.784   5.397   4.254  0.6676  0.0945 -0.1105
18229SOL    HW156128   0.809   5.454   4.181  2.5833 -1.4255 -0.7479
18229SOL    HW256129   0.807   5.309   4.224  1.0195 -0.6392  2.1172
18230SOL     OW56130   6.728   5.118   5.691  0.2991 -0.5928  0.1592
18230SOL    HW156131   6.634   5.130   5.682  0.2521  0.4216  1.6375
18230SOL    HW256132   6.765   5.153   5.610 -0.4435  1.7976  0.7674
18231SOL     OW56133   3.431   4.492   2.482  0.8173 -0.0230 -0.3298
18231SOL    HW156134   3.424   4.587   2.472 -0.7881 -0.2845 -2.2897
18231SOL    HW256135   3.393   4.474   2.568 -0.5284  0.9733 -0.6846
18232SOL     OW56136   0.643   1.388   6.677 -0.1564  0.0785  0.0162
18232SOL    HW156137   0.620   1.317   6.738 -1.4011 -0.3300 -0.8884
18232SOL    HW256138   0.573   1.452   6.687  0.9363  1.1981  0.7897
18233SOL     OW56139   5.184   3.570   4.977  0.2498 -0.1727 -0.4284
18233SOL    HW156140   5.106   3.582   4.922  0.5515 -1.4979 -1.2024
18233SOL    HW256141   5.150   3.545   5.062 -0.1774 -0.2582 -0.6225
18234SOL     OW56142   4.509   1.113   2.372  0.4044 -0.1785  0.4644
18234SOL    HW156143   4.439   1.061   2.334 -0.4548  0.9018  0.5209
18234SOL    HW256144   4.581   1.105   2.310  0.1292 -1.0507  0.2469
18235SOL     OW56145   2.166   7.181   0.106  0.5231  0.0353 -0.1018
18235SOL    HW156146   2.191   7.249   0.168 -1.1270  0.9969 -0.4333
18235SOL    HW256147   2.082   7.211   0.070 -0.3432 -2.2413 -0.1423
18236SOL     OW56148   1.062   1.232  12.329 -0.3035 -0.1461 -0.2625
18236SOL    HW156149   1.062   1.136  12.332  1.7253 -0.3219 -2.5220
18236SOL    HW256150   1.121   1.254  12.257 -0.0364  2.8499  0.7157
18237SOL     OW56151   3.891   0.502  11.044 -0.5628 -0.1638  0.0300
18237SOL    HW156152   3.938   0.580  11.073  0.5731 -0.0892 -1.8163
18237SOL    HW256153   3.857   0.462  11.124 -0.4269  1.7497  1.0778
18238SOL     OW56154   1.995   7.320   9.465  0.3222  0.3203 -0.1834
18238SOL    HW156155   1.969   7.412   9.455  0.8634  0.6201  0.9460
18238SOL    HW256156   2.068   7.323   9.527 -1.0772 -1.0458  1.6263
18239SOL     OW56157   1.179   6.350   6.750  0.0031  0.7844 -0.1873
18239SOL    HW156158   1.112   6.374   6.686  0.9852  2.3164 -0.7117
18239SOL    HW256159   1.261   6.383   6.712  0.6698  1.3773  1.6634
18240SOL     OW56160   7.575   6.185   5.917  0.1076  0.1961 -0.5266
18240SOL    HW156161   7.497   6.240   5.926 -0.5326 -0.7852  0.0847
18240SOL    HW256162   7.646   6.237   5.957 -0.3453  0.8260 -0.5225
18241SOL     OW56163   7.206   6.475   3.346 -0.2413  0.2456 -0.3407
18241SOL    HW156164   7.232   6.557   3.387  0.3141 -0.3607  0.5709
18241SOL    HW256165   7.195   6.496   3.254  0.4981  1.2105 -0.2234
18242SOL     OW56166   7.854   1.040   3.590  0.5139  0.3084  0.0905
18242SOL    HW156167   7.841   1.018   3.498 -2.0054  2.1029 -0.0843
18242SOL    HW256168   7.849   0.956   3.637  1.1479 -0.5384 -1.2963
18243SOL     OW56169   2.647   7.689   8.520 -0.2401  0.1675  0.0263
18243SOL    HW156170   2.570   7.637   8.496 -0.1563  0.1803 -0.2747
18243SOL    HW256171   2.631   7.775   8.482  0.4987 -0.1862 -1.1603
18244SOL     OW56172   2.030   3.649  10.871 -1.0912  0.5912  0.3635
18244SOL    HW156173   2.062   3.559  10.860  1.4081  1.0115  3.0149
18244SOL    HW256174   1.935   3.640  10.871 -0.9205 -2.1488  0.9449
18245SOL     OW56175   7.690   7.930   3.428  0.2371 -0.3672  0.0261
18245SOL    HW156176   7.729   7.940   3.515  1.9411  0.8505 -0.8392
18245SOL    HW256177   7.632   7.854   3.437  1.2484 -0.9860  1.9086
18246SOL     OW56178   5.898   7.868   3.010 -0.1634  0.3938  0.3601
18246SOL    HW156179   5.918   7.826   2.926 -2.3199  0.0283 -0.0385
18246SOL    HW256180   5.825   7.927   2.990  0.3019  1.4731  1.6947
18247SOL     OW56181   2.078   4.333  10.711  0.0912  1.0257  0.5967
18247SOL    HW156182   2.064   4.416  10.757 -0.0563 -0.0112  2.5330
18247SOL    HW256183   1.996   4.285  10.723 -0.0475  0.8098 -1.0270
18248SOL     OW56184   5.086   4.749   9.743 -0.1201  0.0996 -0.6572
18248SOL    HW156185   5.086   4.839   9.710 -0.4425  0.2324 -0.3088
18248SOL    HW256186   5.133   4.699   9.677 -0.2538  0.4608 -1.0298
18249SOL     OW56187   1.258   3.678  11.074 -0.5713 -0.0171 -0.2439
18249SOL    HW156188   1.258   3.583  11.066  1.6426 -0.1638  0.8274
18249SOL    HW256189   1.225   3.709  10.990 -0.4536 -1.7088 -0.9577
18250SOL     OW56190   3.149   6.348  11.949  0.0030 -0.1284  0.5347
18250SOL    HW156191   3.149   6.282  11.880 -0.5504  0.7829 -0.3569
18250SOL    HW256192   3.058   6.350  11.980  0.0294  0.1774  0.5949
18251SOL     OW56193   2.298   6.940   1.165  0.2016  0.1616 -0.1385
18251SOL    HW156194   2.348   6.859   1.153  1.1127  0.5600  0.8515
18251SOL    HW256195   2.329   6.998   1.095 -0.5285 -0.3598 -0.9152
18252SOL     OW56196   4.500   3.568   2.191 -0.5449 -0.1609  0.2556
18252SOL    HW156197   4.419   3.529   2.223 -1.3010  1.0869 -0.0854
18252SOL    HW256198   4.565   3.498   2.201 -0.9685 -0.2874  3.3318
18253SOL     OW56199   4.570   4.108   7.230  0.1427  0.4145  0.0157
18253SOL    HW156200   4.574   4.013   7.215  1.1039  0.3971  0.3028
18253SOL    HW256201   4.483   4.133   7.201 -0.0797 -0.5409 -0.1845
18254SOL     OW56202   3.641   0.706   7.251  0.1080 -0.4163 -0.1537
18254SOL    HW156203   3.725   0.749   7.261 -0.8788  1.7019 -0.5018
18254SOL    HW256204   3.618   0.718   7.159 -0.4238 -1.3078 -0.1545
18255SOL     OW56205   2.810   2.465   5.386  0.0989 -0.2202  0.5677
18255SOL    HW156206   2.851   2.493   5.467 -0.3297 -0.9088  1.0336
18255SOL    HW256207   2.872   2.490   5.317  0.7929 -0.2853  1.1658
18256SOL     OW56208   1.734   3.910   0.279  0.2454  0.2172  0.4781
18256SOL    HW156209   1.702   3.980   0.223  1.4437  1.3621  1.1645
18256SOL    HW256210   1.800   3.865   0.227  2.7537  2.4624  1.4798
18257SOL     OW56211   6.255   4.230  12.340  0.4420 -0.5473  0.4017
18257SOL    HW156212   6.331   4.176  12.363 -1.1221 -3.4392 -0.7514
18257SOL    HW256213   6.183   4.196  12.393 -0.3438  1.4921  0.7558
18258SOL     OW56214   6.243   4.806  12.080  0.6282  0.3836 -0.2090
18258SOL    HW156215   6.200   4.723  12.061  0.8636  0.4313 -0.9957
18258SOL    HW256216   6.172   4.867  12.096  0.4452  0.1193  0.0098
18259SOL     OW56217   5.705   2.678  10.093  0.2745  0.2198  0.0615
18259SOL    HW156218   5.788   2.630  10.100  0.9220  1.4051  0.7638
18259SOL    HW256219   5.713   2.750  10.155 -0.8119  1.0605 -0.7280
18260SOL     OW56220   3.976   0.457   3.552 -0.1327 -0.0239  0.0715
18260SOL    HW156221   4.015   0.544   3.543  1.1867 -0.3097  2.1913
18260SOL    HW256222   4.050   0.397   3.539 -0.3160 -0.6776  1.7899
18261SOL     OW56223   4.414   6.773   3.978 -0.0374 -0.0570  0.0673
18261SOL    HW156224   4.394   6.863   3.953  0.7381  0.2273  0.4558
18261SOL    HW256225   4.329   6.735   4.001 -0.6507 -0.0000 -1.8846
18262SOL     OW56226   0.771   3.177  11.371  0.0031 -0.2293  0.0376
18262SOL    HW156227   0.692   3.140  11.410  0.1411 -0.0668  0.4715
18262SOL    HW256228   0.773   3.141  11.282  1.0948 -2.7446  1.0027
18263SOL     OW56229   3.129   4.763   5.935 -0.0341  0.0351 -0.1398
18263SOL    HW156230   3.132   4.810   5.852 -2.0552 -0.5150 -0.5691
18263SOL    HW256231   3.178   4.819   5.995  0.6964  0.8863 -1.4678
18264SOL     OW56232   3.215   6.573   1.623 -0.2671 -0.0768 -0.5544
18264SOL    HW156233   3.210   6.483   1.656 -1.2050  0.8161  1.9208
18264SOL    HW256234   3.184   6.566   1.532 -1.9677 -2.0052  0.0803
18265SOL     OW56235   5.790   5.301   3.841  0.0968 -0.1095  0.4001
18265SOL    HW156236   5.849   5.367   3.878  1.8038 -0.5561 -1.3358
18265SOL    HW256237   5.811   5.220   3.888 -0.2010  0.0342  0.7879
18266SOL     OW56238   5.777   1.169  10.010  0.1544  0.5249  0.0826
18266SOL    HW156239   5.755   1.109   9.939  0.1343 -0.2242  0.7112
18266SOL    HW256240   5.711   1.238  10.004 -0.1182  0.2327 -0.3418
18267SOL     OW56241   3.426   0.125   3.528  1.2271 -0.1630 -0.2419
18267SOL    HW156242   3.481   0.148   3.454  1.1156  0.2561 -0.1980
18267SOL    HW256243   3.414   0.207   3.576 -0.5577  0.0788 -1.0012
18268SOL     OW56244   3.496   6.608   2.411  0.0971  0.5551  0.0713
18268SOL    HW156245   3.440   6.683   2.395 -1.2046 -0.7464 -1.7908
18268SOL    HW256246   3.583   6.636   2.382 -0.4911  1.1700 -1.1479
18269SOL     OW56247   0.211   7.157   8.525 -0.2735 -0.1884 -0.0041
18269SOL    HW156248   0.248   7.245   8.529 -0.2391 -0.1818 -0.4461
18269SOL    HW256249   0.212   7.127   8.616 -0.4356  0.3260  0.1696
18270SOL     OW56250   2.987   6.176   7.204 -0.2645 -0.4882 -0.5289
18270SOL    HW156251   2.983   6.239   7.276 -0.3767  1.5482 -2.2293
18270SOL    HW256252   3.063   6.122   7.223 -1.4645 -1.4114  2.1564
18271SOL     OW56253   0.799   3.368   7.362 -0.4923 -0.1536  0.4844
18271SOL    HW156254   0.834   3.441   7.311 -1.5107  0.8137  1.1409
18271SOL    HW256255   0.877   3.320   7.390  0.1219 -0.3190 -1.3549
18272SOL     OW56256   0.948   3.206   8.227 -0.8580 -0.2392  0.2881
18272SOL    HW156257   0.895   3.141   8.271 -0.5341 -1.4525 -1.0405
18272SOL    HW256258   1.011   3.156   8.175 -0.5065  1.1144 -0.6726
18273SOL     OW56259   4.779   7.495  10.097 -0.1376 -0.1852 -0.0712
18273SOL    HW156260   4.810   7.489  10.007  0.3286  0.6105  0.0276
18273SOL    HW256261   4.848   7.542  10.143 -0.5744 -0.1903  0.6058
18274SOL     OW56262   5.186   5.875   3.999  0.4207  0.4809 -0.2704
18274SOL    HW156263   5.212   5.958   3.959  1.0921  0.8531  0.9101
18274SOL    HW256264   5.224   5.809   3.942 -0.3001  0.9608 -1.3486
18275SOL     OW56265   3.120   0.061   9.113 -0.1247 -0.1221 -0.0062
18275SOL    HW156266   3.173   0.036   9.189 -1.0848  1.3649  1.2219
18275SOL    HW256267   3.083  -0.021   9.082 -0.7230 -0.6491  1.9478
18276SOL     OW56268   0.743   0.499   1.705  0.1181  0.0004  0.6305
18276SOL    HW156269   0.743   0.517   1.611 -0.2133  1.8984  0.9577
18276SOL    HW256270   0.659   0.455   1.721  0.4667 -0.9438 -0.0413
18277SOL     OW56271   4.989   3.972   6.523  0.3204 -0.4180  0.0407
18277SOL    HW156272   4.915   3.971   6.584  0.6302 -0.5054  0.4175
18277SOL    HW256273   4.951   4.000   6.440 -0.1417 -0.4826  0.2266
18278SOL     OW56274   4.034   3.928   6.012 -0.6287 -0.2761 -0.0473
18278SOL    HW156275   3.958   3.953   5.961 -0.5389 -0.0206 -0.0552
18278SOL    HW256276   4.001   3.863   6.074 -0.4896 -1.5374 -1.2545
18279SOL     OW56277   5.834   6.801   6.202 -0.1794 -0.3112  0.4600
18279SOL    HW156278   5.809   6.780   6.112 -1.0905  3.0044 -0.1748
18279SOL    HW256279   5.927   6.825   6.196 -0.1190 -0.5190  0.5234
18280SOL     OW56280   7.445   2.273   6.554 -0.1971  0.3008  0.4082
18280SOL    HW156281   7.474   2.364   6.550 -1.9201  1.0061  2.2993
18280SOL    HW256282   7.433   2.248   6.462  2.3444  1.2136 -0.2668
18281SOL     OW56283   7.668   6.684   0.730  0.1376 -1.0328 -0.1615
18281SOL    HW156284   7.714   6.623   0.788  0.7293 -0.5888 -0.1499
18281SOL    HW256285   7.686   6.652   0.642  0.7106 -0.7011 -0.1689
18282SOL     OW56286   2.518   2.945   3.029 -0.0306 -0.3226 -0.2063
18282SOL    HW156287   2.458   2.974   3.097 -1.7509 -1.2823 -1.2473
18282SOL    HW256288   2.463   2.898   2.966  1.2541  1.5428 -2.9230
18283SOL     OW56289   2.098   0.710   7.534 -0.1275  0.4863  0.5602
18283SOL    HW156290   2.101   0.796   7.577  1.7672  0.8685 -0.2438
18283SOL    HW256291   2.149   0.653   7.591  0.4686  0.4465  0.0014
18284SOL     OW56292   5.738   5.335   5.600 -0.0854  1.1936 -0.4685
18284SOL    HW156293   5.725   5.420   5.559  0.3661  0.9300 -1.1799
18284SOL    HW256294   5.774   5.355   5.687  1.0807  1.7070 -1.0488
18285SOL     OW56295   2.228   4.838   4.845  0.1474 -0.0184 -0.2314
18285SOL    HW156296   2.216   4.926   4.881  0.7564 -0.3872  0.9412
18285SOL    HW256297   2.159   4.786   4.886 -0.3775 -0.0472 -1.1236
18286SOL     OW56298   7.637   6.299   4.292  0.7576  0.1108 -0.3818
18286SOL    HW156299   7.726   6.320   4.319  0.6035  1.9192 -1.1304
18286SOL    HW256300   7.599   6.251   4.366  2.4020 -0.8989 -0.1555
18287SOL     OW56301   6.315   6.443   5.042 -0.0260  0.4416 -0.1498
18287SOL    HW156302   6.255   6.368   5.047  0.4357 -0.0272 -1.3049
18287SOL    HW256303   6.286   6.501   5.112  0.4803 -1.4455  1.7701
18288SOL     OW56304   6.941   7.590   4.574 -0.0727 -0.1514 -0.3435
18288SOL    HW156305   6.871   7.655   4.572 -1.3664 -1.5245 -1.0204
18288SOL    HW256306   7.020   7.641   4.594 -0.6577  1.9742 -2.8763
18289SOL     OW56307   5.598   0.367   5.345  0.7311  0.0428 -0.3456
18289SOL    HW156308   5.568   0.303   5.280 -0.4446  0.1740  0.0478
18289SOL    HW256309   5.623   0.314   5.421  1.1300 -0.0422 -0.5347
18290SOL     OW56310   5.951   7.580   7.414  0.0732 -0.5034 -0.0365
18290SOL    HW156311   6.003   7.658   7.395 -1.1156  0.5568  0.9100
18290SOL    HW256312   5.973   7.519   7.344  1.1830  0.6028 -0.6823
18291SOL     OW56313   3.495   7.432   5.872  0.4684  0.4180  0.2614
18291SOL    HW156314   3.437   7.363   5.908 -1.7210  0.4315 -2.8317
18291SOL    HW256315   3.571   7.384   5.839  0.1659 -0.1933  0.4222
18292SOL     OW56316   0.843   0.078   4.772  0.0760 -0.3872 -0.9898
18292SOL    HW156317   0.775   0.031   4.821  1.7709 -1.4772  0.4624
18292SOL    HW256318   0.801   0.102   4.689 -2.6594  0.7546  0.5846
18293SOL     OW56319   7.923   1.725   8.851 -0.2090  0.2390 -0.2914
18293SOL    HW156320   7.993   1.677   8.895 -1.1093 -0.1939  0.6991
18293SOL    HW256321   7.924   1.691   8.761 -0.0859 -0.8152  0.0908
18294SOL     OW56322   0.093   2.317   2.119  0.0655 -0.8546 -0.2987
18294SOL    HW156323   0.029   2.353   2.180  1.4984 -0.7826  1.2417
18294SOL    HW256324   0.100   2.384   2.050 -0.5725 -0.2702  0.1881
18295SOL     OW56325   1.251   3.151   8.293  0.2449  0.1747  0.1862
18295SOL    HW156326   1.317   3.147   8.223 -0.8427  1.3030 -0.9729
18295SOL    HW256327   1.245   3.244   8.314 -1.1687  0.1309  0.0462
18296SOL     OW56328   3.894   4.540   1.085  0.1530 -0.4102  0.5717
18296SOL    HW156329   3.901   4.491   1.167 -0.3802 -1.0984  0.2167
18296SOL    HW256330   3.845   4.619   1.108 -1.3111 -1.3137  0.6283
18297SOL     OW56331   5.065   1.734   3.860  0.0274 -0.1837 -0.2645
18297SOL    HW156332   5.128   1.802   3.837  1.8799 -0.9865  2.1021
18297SOL    HW256333   5.068   1.728   3.955 -1.1031 -2.6004 -0.2891
18298SOL     OW56334   7.248   5.814   1.778  0.5516  0.1134  0.1608
18298SOL    HW156335   7.302   5.747   1.818  0.3454 -0.2073 -0.0905
18298SOL    HW256336   7.163   5.806   1.821  0.1195 -0.6983 -0.8127
18299SOL     OW56337   7.684   1.778   4.391 -0.1105 -0.2430 -0.3057
18299SOL    HW156338   7.675   1.703   4.331 -1.4024  0.0081 -0.4527
18299SOL    HW256339   7.604   1.829   4.378  1.1414  1.6454 -0.8342
18300SOL     OW56340   2.479   1.772   9.036 -0.0508  0.2193  0.1783
18300SOL    HW156341   2.453   1.859   9.068  1.7254  0.2207  1.7961
18300SOL    HW256342   2.463   1.714   9.110  0.1911 -0.5796 -0.3912
18301SOL     OW56343   5.784   3.580   0.636 -0.3227  0.3584 -0.1009
18301SOL    HW156344   5.724   3.507   0.647 -1.0381  0.9452 -0.0662
18301SOL    HW256345   5.739   3.640   0.577  0.5443  0.4650 -0.6749
18302SOL     OW56346   4.613   0.031  10.445 -0.1225  0.0810 -0.5979
18302SOL    HW156347   4.545   0.076  10.496 -0.0213  0.8590 -1.1445
18302SOL    HW256348   4.568  -0.045  10.408 -0.2900 -0.2917  0.3424
18303SOL     OW56349   0.572   2.645   0.889 -0.0769 -0.1845  0.5589
18303SOL    HW156350   0.625   2.674   0.963  2.9292 -0.1397 -1.4505
18303SOL    HW256351   0.560   2.725   0.837 -1.4247 -0.3889  0.5273
18304SOL     OW56352   6.788   1.100   4.391 -0.1884 -0.4687 -0.1133
18304SOL    HW156353   6.710   1.143   4.426  1.2479  1.7555  0.5271
18304SOL    HW256354   6.847   1.092   4.466  0.8206 -0.6498 -0.9014
18305SOL     OW56355   4.481   3.575   8.887 -0.4880 -0.0886  0.2715
18305SOL    HW156356   4.572   3.565   8.860 -1.3416  0.3419 -3.2964
18305SOL    HW256357   4.438   3.495   8.858 -1.6210  0.5952 -0.0102
18306SOL     OW56358   6.222   5.875   2.467 -0.1926 -0.6422  0.5534
18306SOL    HW156359   6.199   5.955   2.421  1.1257  1.2736  3.0268
18306SOL    HW256360   6.141   5.850   2.513 -0.2853 -0.0456  0.7154
18307SOL     OW56361   4.602   0.211   3.259  0.1744 -0.2515  0.0711
18307SOL    HW156362   4.595   0.281   3.194 -0.0455 -0.3436 -0.0043
18307SOL    HW256363   4.528   0.226   3.318 -1.3137 -1.8213 -1.3000
18308SOL     OW56364   3.653   0.592   1.288  0.1900  0.6519 -0.1121
18308SOL    HW156365   3.723   0.657   1.286  0.3972  0.4089 -1.6372
18308SOL    HW256366   3.598   0.613   1.213 -1.0700  0.4909  0.7416
18309SOL     OW56367   7.019   3.300   2.948 -0.3518 -0.5444 -0.2705
18309SOL    HW156368   6.982   3.218   2.915 -0.0098 -0.6751 -0.3329
18309SOL    HW256369   7.058   3.341   2.871  1.9359 -1.6352  0.2139
18310SOL     OW56370   6.841   4.016   5.855 -0.1110 -0.7072  0.0307
18310SOL    HW156371   6.763   4.046   5.808  0.0192  0.0853  0.3115
18310SOL    HW256372   6.806   3.969   5.932 -0.3101 -1.0102 -0.2404
18311SOL     OW56373   3.850   1.488   0.062 -0.0062 -0.0585 -0.3515
18311SOL    HW156374   3.927   1.449   0.104  0.9057  1.4089 -0.5765
18311SOL    HW256375   3.821   1.423  -0.002  1.3662 -0.4495 -0.6060
18312SOL     OW56376   3.276   3.471  10.748  0.4254  0.0332 -0.1197
18312SOL    HW156377   3.234   3.406  10.805  1.5980 -1.3705 -0.7801
18312SOL    HW256378   3.242   3.555  10.779  1.7519 -0.5388  3.3815
18313SOL     OW56379   3.314   7.124   7.075  0.2293  0.3211  0.0773
18313SOL    HW156380   3.370   7.202   7.083  0.1196  0.3174  1.0805
18313SOL    HW256381   3.236   7.146   7.127 -0.8061  0.4035 -1.4515
18314SOL     OW56382   7.039   0.656   8.053  0.5598 -0.4832  0.2477
18314SOL    HW156383   7.066   0.693   8.137  2.4188 -0.3944 -0.3456
18314SOL    HW256384   7.119   0.652   8.002 -0.3107 -1.6899 -1.1017
18315SOL     OW56385   5.132   1.220   9.761  0.5550 -0.2373 -0.2559
18315SOL    HW156386   5.097   1.136   9.732  1.8724 -0.9204  0.0961
18315SOL    HW256387   5.226   1.209   9.763  0.8016  1.4170 -0.6722
18316SOL     OW56388   7.655   5.929  11.788  0.7867  0.1973 -0.0173
18316SOL    HW156389   7.682   5.845  11.826  0.8751  0.9300  1.6479
18316SOL    HW256390   7.603   5.971  11.857 -0.7890  0.7737 -1.4754
18317SOL     OW56391   4.490   4.694   9.813  0.6607 -0.1313 -0.8903
18317SOL    HW156392   4.578   4.727   9.831  0.9787 -1.0028 -0.8084
18317SOL    HW256393   4.488   4.607   9.855 -0.1953 -0.1665 -0.9934
18318SOL     OW56394   7.513   5.920   6.366 -0.2451 -0.2483 -0.4206
18318SOL    HW156395   7.601   5.930   6.402 -0.1217 -0.2624 -0.7153
18318SOL    HW256396   7.467   6.000   6.390 -0.0687 -0.1249 -0.5004
18319SOL     OW56397   2.047   3.448   8.650  0.6286  0.2846 -0.1918
18319SOL    HW156398   2.002   3.492   8.723  0.3172  1.9313 -1.3078
18319SOL    HW256399   2.140   3.450   8.674  0.4667  0.1995  0.4587
18320SOL     OW56400   6.894   0.233   5.695 -0.7633 -0.5326 -0.1778
18320SOL    HW156401   6.811   0.244   5.648 -2.2666 -1.0138  2.1916
18320SOL    HW256402   6.905   0.315   5.742  1.5301  0.5639 -2.3920
18321SOL     OW56403   2.686   1.439  10.466 -0.4109 -0.1823 -0.2570
18321SOL    HW156404   2.689   1.493  10.387 -2.2223 -0.5747 -0.6398
18321SOL    HW256405   2.605   1.465  10.509  1.3760  1.3324  2.4934
18322SOL     OW56406   0.763   4.082   9.971 -0.0616  0.3632  0.5638
18322SOL    HW156407   0.810   4.123   9.899  1.2297  0.0762  1.2124
18322SOL    HW256408   0.733   4.155  10.025 -0.2800  0.5461  0.1976
18323SOL     OW56409   3.692   4.387   4.812  0.2163 -0.0158  0.1294
18323SOL    HW156410   3.612   4.334   4.814  0.6430 -0.6708 -0.0308
18323SOL    HW256411   3.662   4.476   4.832 -0.6053 -0.1891 -0.3012
18324SOL     OW56412   0.379   5.417   3.696 -0.1872  0.1655 -0.0158
18324SOL    HW156413   0.307   5.366   3.660 -0.5099  1.1505 -0.7959
18324SOL    HW256414   0.357   5.430   3.788 -1.3150  0.9542 -0.3784
18325SOL     OW56415   2.986   5.848   0.694  0.1520 -0.0149 -0.1299
18325SOL    HW156416   2.951   5.762   0.676  4.0923 -1.8560 -0.0881
18325SOL    HW256417   3.040   5.836   0.772 -1.4292  3.2693  1.6973
18326SOL     OW56418   5.693   5.059   1.531 -0.1522  0.3324  0.1842
18326SOL    HW156419   5.616   5.025   1.577 -1.2640  1.3278 -0.8657
18326SOL    HW256420   5.700   5.150   1.560  1.7311 -0.2156  1.6237
18327SOL     OW56421   5.933   2.087   1.926 -0.1930 -0.4805 -0.0656
18327SOL    HW156422   5.995   2.087   1.852 -1.0492  2.0479 -0.8935
18327SOL    HW256423   5.847   2.096   1.884 -0.7569  0.2497  1.2086
18328SOL     OW56424   6.344   0.062   7.901 -0.5135  0.3354  0.6861
18328SOL    HW156425   6.266   0.100   7.860 -0.7662 -1.1335 -0.2920
18328SOL    HW256426   6.310  -0.010   7.955  0.0198  0.8931  1.8007
18329SOL     OW56427   4.248   5.979   9.208  0.3223 -0.3668 -0.4767
18329SOL    HW156428   4.177   6.018   9.156 -0.9085 -0.7378  0.8587
18329SOL    HW256429   4.307   6.052   9.226 -0.6587  0.3604 -0.1119
18330SOL     OW56430   0.615   1.885   4.941  0.5209 -0.4192  0.3625
18330SOL    HW156431   0.539   1.858   4.889  0.7586 -0.0336 -0.1980
18330SOL    HW256432   0.631   1.813   5.001 -0.6698 -0.2495  0.9080
18331SOL     OW56433   0.932   6.893   5.365 -0.0934 -0.2278  0.3628
18331SOL    HW156434   0.878   6.828   5.410 -1.3277 -0.1136 -0.8851
18331SOL    HW256435   0.925   6.972   5.420 -1.4092 -0.1440  0.1036
18332SOL     OW56436   2.078   3.434   7.715 -0.2472 -0.2885 -0.3304
18332SOL    HW156437   2.017   3.388   7.658 -0.5751  0.8312 -0.9247
18332SOL    HW256438   2.164   3.411   7.682 -0.4395  1.6635 -2.4460
18333SOL     OW56439   1.280   6.761   4.331 -0.0263 -0.5590  0.2130
18333SOL    HW156440   1.209   6.822   4.353 -0.7055 -0.5664 -1.7723
18333SOL    HW256441   1.324   6.802   4.257  1.7542 -0.8304  1.0597
18334SOL     OW56442   1.050   1.363   1.670 -0.3131 -0.4542  0.0323
18334SOL    HW156443   0.999   1.364   1.589 -0.5142 -1.3082  0.1326
18334SOL    HW256444   1.140   1.380   1.641 -0.1065 -2.3425 -0.6248
18335SOL     OW56445   6.601   1.926   4.980  0.6420 -1.2271 -0.6558
18335SOL    HW156446   6.521   1.877   4.994 -0.0292 -0.5470 -2.0074
18335SOL    HW256447   6.671   1.860   4.983  0.0193 -1.8730  0.1093
18336SOL     OW56448   0.640   5.408   0.447  0.2142 -0.3322 -0.7622
18336SOL    HW156449   0.693   5.448   0.378  3.2549 -2.1223  0.3470
18336SOL    HW256450   0.660   5.460   0.525 -0.3987 -0.5213 -0.4718
18337SOL     OW56451   4.966   0.376   0.750  0.0652  0.0723  0.3422
18337SOL    HW156452   5.012   0.414   0.825  2.0327 -0.4709 -0.5292
18337SOL    HW256453   5.033   0.329   0.701 -1.3728 -0.5113 -1.1889
18338SOL     OW56454   3.469   4.509   0.479 -0.1414 -0.0653 -0.2198
18338SOL    HW156455   3.561   4.524   0.498 -0.3793  0.2211  0.7744
18338SOL    HW256456   3.455   4.417   0.502 -0.4286  0.2806  1.0566
18339SOL     OW56457   3.317   4.467  12.464 -0.6857  0.1379  0.3374
18339SOL    HW156458   3.310   4.417  12.546  0.8910 -1.5700 -0.5059
18339SOL    HW256459   3.407   4.452  12.434 -1.2549  0.6246 -1.7731
18340SOL     OW56460   6.554   3.463   3.232  0.4250 -0.0295  0.5424
18340SOL    HW156461   6.555   3.367   3.236  0.2253 -0.1708 -1.6418
18340SOL    HW256462   6.474   3.488   3.279 -1.5560 -1.2069 -1.9765
18341SOL     OW56463   2.028   1.430   0.084  0.5136 -0.1696 -0.6636
18341SOL    HW156464   2.089   1.488   0.039  0.2429  1.0337  0.4564
18341SOL    HW256465   1.964   1.489   0.125  1.5257 -1.0132  2.4826
18342SOL     OW56466   6.929   5.051   5.069  0.0562  0.4578  0.4464
18342SOL    HW156467   6.896   5.026   4.982  2.1371 -0.9533 -0.0080
18342SOL    HW256468   6.891   4.987   5.128  0.1076  0.2916  0.2987
18343SOL     OW56469   3.055   1.875   9.472 -0.1073  0.4777  0.0565
18343SOL    HW156470   3.137   1.924   9.470 -0.8599  1.8744  1.1474
18343SOL    HW256471   2.992   1.936   9.512 -1.2408 -1.1809  0.9211
18344SOL     OW56472   2.041   7.760   4.618  0.2285 -0.0170 -0.0114
18344SOL    HW156473   2.012   7.717   4.538  1.6778 -0.2460 -0.4522
18344SOL    HW256474   1.962   7.768   4.671 -0.4976 -1.1785 -0.8541
18345SOL     OW56475   2.110   0.527   4.644 -0.2544 -0.0450 -0.2042
18345SOL    HW156476   2.204   0.543   4.634 -0.3125  0.3883 -0.0679
18345SOL    HW256477   2.086   0.573   4.724 -0.8708  1.0875 -1.0147
18346SOL     OW56478   7.481   4.289   8.533  0.4150  0.2336 -0.1910
18346SOL    HW156479   7.555   4.340   8.565  0.7709  0.7581 -1.7695
18346SOL    HW256480   7.489   4.292   8.438 -1.1367 -0.4545 -0.3736
18347SOL     OW56481   7.587   6.520   7.764  0.1789 -0.0992 -0.1965
18347SOL    HW156482   7.608   6.612   7.780 -0.4139  0.2662 -1.3256
18347SOL    HW256483   7.664   6.484   7.721  0.9174 -0.4996  1.4022
18348SOL     OW56484   4.409   1.482   7.168  0.5318 -0.0607  0.2804
18348SOL    HW156485   4.403   1.517   7.257  2.7988  0.4412  0.3039
18348SOL    HW256486   4.387   1.555   7.112  2.2659  0.5981  0.4012
18349SOL     OW56487   0.587   7.465   5.763 -0.2829  0.2247  0.5114
18349SOL    HW156488   0.528   7.502   5.697  1.0585  1.0872 -0.2367
18349SOL    HW256489   0.673   7.502   5.743  0.7261 -1.6984  1.0146
18350SOL     OW56490   5.350   5.478   7.572 -0.1099 -0.0809 -0.0144
18350SOL    HW156491   5.336   5.387   7.549  0.7351  0.1084 -1.3469
18350SOL    HW256492   5.444   5.490   7.566 -0.0508  0.5359  1.5668
18351SOL     OW56493   1.353   1.272   9.212  0.5418  0.0326  0.1714
18351SOL    HW156494   1.373   1.366   9.207 -0.1317  0.1492 -0.6983
18351SOL    HW256495   1.415   1.231   9.151 -1.1887  0.3049 -1.9065
18352SOL     OW56496   3.499   5.738  11.688  0.5689 -0.0720  0.3752
18352SOL    HW156497   3.491   5.829  11.659  1.5320  0.4930  1.7965
18352SOL    HW256498   3.483   5.687  11.609 -1.5498  1.2678 -0.1526
18353SOL     OW56499   3.386   0.439   2.474 -0.1388 -0.2832  0.0215
18353SOL    HW156500   3.467   0.388   2.467  0.0554  0.1812 -1.3049
18353SOL    HW256501   3.373   0.450   2.568  1.4853 -0.1370  0.2605
18354SOL     OW56502   3.737   3.739   7.947 -0.2283  0.1077  0.3579
18354SOL    HW156503   3.644   3.747   7.971 -0.7473 -0.8036 -1.1613
18354SOL    HW256504   3.751   3.811   7.885  0.2359  0.5407  0.9514
18355SOL     OW56505   0.937   6.021   4.641 -0.7958  0.4712 -0.0400
18355SOL    HW156506   0.974   6.053   4.723 -0.1881  2.3138 -0.9705
18355SOL    HW256507   0.947   5.926   4.646 -0.1690  0.5871  1.7169
18356SOL     OW56508   0.380   7.448   0.959  0.1107  0.4603 -0.3285
18356SOL    HW156509   0.317   7.450   1.031 -0.2169 -1.0211 -0.5434
18356SOL    HW256510   0.434   7.526   0.972 -2.0051  2.0493 -0.3574
18357SOL     OW56511   5.799   0.107  10.204 -0.0338 -0.5115 -0.0535
18357SOL    HW156512   5.713   0.149  10.195  0.7489  0.9691 -0.8493
18357SOL    HW256513   5.810   0.058  10.123  0.6701  0.8537 -0.8098
18358SOL     OW56514   3.796   1.529   0.653  0.4370 -0.1448 -0.4030
18358SOL    HW156515   3.854   1.458   0.678 -0.5011 -1.5733 -2.0303
18358SOL    HW256516   3.754   1.556   0.734  0.6796 -1.5909  0.2361
18359SOL     OW56517   0.139   5.392   5.960 -0.0072 -0.2058  0.2451
18359SOL    HW156518   0.187   5.365   5.881  1.5660  0.4242  0.9571
18359SOL    HW256519   0.116   5.309   6.002 -0.4089 -0.5374 -0.5887
18360SOL     OW56520   6.628   6.012   0.441  0.5922 -0.4935  0.2557
18360SOL    HW156521   6.596   5.926   0.468  2.3575 -1.3082 -0.1011
18360SOL    HW256522   6.575   6.035   0.365 -0.4250 -0.8823  0.8286
18361SOL     OW56523   6.625   6.058   4.692  0.2752  0.1579  0.0060
18361SOL    HW156524   6.621   6.089   4.783 -2.6776  3.8744 -1.1399
18361SOL    HW256525   6.577   5.975   4.693  0.0418  0.2745  1.7842
18362SOL     OW56526   5.339   0.149  10.346  0.0469 -0.3078  0.3107
18362SOL    HW156527   5.310   0.119  10.260 -0.0352  0.3801  0.0924
18362SOL    HW256528   5.324   0.074  10.404  0.1349 -0.7892 -0.2745
18363SOL     OW56529   6.317   4.342   3.805 -0.8096  0.3179  0.1126
18363SOL    HW156530   6.406   4.374   3.814 -0.4468 -0.6177 -0.0188
18363SOL    HW256531   6.322   4.249   3.829 -1.0703 -0.6522 -3.1454
18364SOL     OW56532   4.140   5.381   0.613 -0.1198 -0.2914 -0.8449
18364SOL    HW156533   4.184   5.449   0.562  0.1364  1.0564  1.0671
18364SOL    HW256534   4.182   5.300   0.587  2.2463  0.7322 -0.4446
18365SOL     OW56535   3.858   5.052   1.230 -0.2557  0.0918  0.1011
18365SOL    HW156536   3.937   5.087   1.187 -0.5329 -0.1517 -0.6206
18365SOL    HW256537   3.786   5.088   1.179 -0.6388  0.7522  1.0911
18366SOL     OW56538   3.196   3.029   0.588  0.0090 -0.0778  0.0953
18366SOL    HW156539   3.289   3.052   0.591  0.4172 -1.4424 -0.9477
18366SOL    HW256540   3.164   3.044   0.677  1.3053  0.1174  0.5485
18367SOL     OW56541   3.346   1.827   5.383  0.3596 -0.3720 -0.2939
18367SOL    HW156542   3.412   1.884   5.423  0.1103 -0.7342  0.6719
18367SOL    HW256543   3.384   1.802   5.299  0.9687  0.3034 -0.2307
18368SOL     OW56544   6.660   6.517   7.486 -0.0715 -0.2534 -0.4068
18368SOL    HW156545   6.718   6.441   7.485 -1.1373 -1.0859 -0.9581
18368SOL    HW256546   6.577   6.484   7.451 -1.0156  0.7925  0.7634
18369SOL     OW56547   4.354   6.931   1.218  0.0555  0.2186 -0.0430
18369SOL    HW156548   4.382   7.022   1.235  1.0011 -0.0377 -0.1684
18369SOL    HW256549   4.334   6.896   1.305  0.4833  0.2971  0.0881
18370SOL     OW56550   3.640   6.248   9.958  0.3175 -0.4315  0.6520
18370SOL    HW156551   3.635   6.281  10.048 -1.0986  1.2815  0.0052
18370SOL    HW256552   3.728   6.271   9.930  0.3357  0.2349  1.1910
18371SOL     OW56553   5.030   6.689   7.746 -0.0007  0.3260  0.5792
18371SOL    HW156554   4.979   6.613   7.717 -0.3405  0.3005  1.2234
18371SOL    HW256555   4.969   6.739   7.800 -0.0493  1.5083 -0.5372
18372SOL     OW56556   5.241   7.623   5.682 -0.0503 -0.0995  0.4569
18372SOL    HW156557   5.305   7.660   5.743 -2.0811 -1.7075  3.8606
18372SOL    HW256558   5.189   7.699   5.653  0.5589  0.6356  1.2536
18373SOL     OW56559   4.700   6.641   2.189 -1.3334 -0.0301 -0.2495
18373SOL    HW156560   4.778   6.599   2.227 -0.5788  1.3772 -0.1507
18373SOL    HW256561   4.687   6.597   2.106 -1.3745 -1.3370  0.4265
18374SOL     OW56562   6.486   1.169  11.294 -0.2775 -0.2455  0.3778
18374SOL    HW156563   6.554   1.128  11.348  0.0470  1.3015  1.1900
18374SOL    HW256564   6.405   1.131  11.327 -0.1140  0.8425  2.2004
18375SOL     OW56565   2.383   3.011   0.145 -0.0961 -0.2711  0.0065
18375SOL    HW156566   2.385   3.051   0.058  0.2622 -2.4009 -1.0438
18375SOL    HW256567   2.473   3.018   0.177  0.6794 -2.5694 -1.3989
18376SOL     OW56568   2.463   0.916   7.076  0.0387  0.4628 -0.0166
18376SOL    HW156569   2.533   0.938   7.138  0.4352 -0.3169 -0.1787
18376SOL    HW256570   2.503   0.927   6.990 -0.6291  1.9259 -0.1634
18377SOL     OW56571   2.735   3.696   1.949 -0.5405 -0.2525  0.5083
18377SOL    HW156572   2.657   3.662   1.993 -0.2812 -0.8681  0.5038
18377SOL    HW256573   2.763   3.624   1.893  0.1274 -0.0951  0.6389
18378SOL     OW56574   2.661   6.405  11.077  0.2090 -0.1253 -0.0624
18378SOL    HW156575   2.700   6.492  11.068 -0.0777 -0.1130 -1.3146
18378SOL    HW256576   2.678   6.362  10.993 -1.1215 -0.6816 -0.0707
18379SOL     OW56577   4.340   6.276   7.220  0.7502  0.5065 -0.4425
18379SOL    HW156578   4.411   6.220   7.253  0.8617 -0.5847 -2.3384
18379SOL    HW256579   4.367   6.298   7.131 -1.0987  0.4342 -1.0595
18380SOL     OW56580   5.457   5.691   1.387  0.5165  0.3059  0.7305
18380SOL    HW156581   5.389   5.751   1.417  0.2112  0.0830  0.4820
18380SOL    HW256582   5.463   5.625   1.457 -0.0870 -0.1260  0.3863
18381SOL     OW56583   2.272   2.508   3.605  0.0755  0.7038  0.6166
18381SOL    HW156584   2.262   2.601   3.627 -0.3217  0.4547  1.5232
18381SOL    HW256585   2.273   2.506   3.509  2.9519  1.9509  0.5057
18382SOL     OW56586   3.902   6.197   4.457  0.3538  0.7780 -0.0202
18382SOL    HW156587   3.937   6.225   4.372  1.9790 -0.6923  0.1297
18382SOL    HW256588   3.873   6.279   4.498 -0.4695  1.5294 -1.9522
18383SOL     OW56589   5.911   5.403   1.896  0.2623 -0.5278  0.2385
18383SOL    HW156590   5.981   5.457   1.932 -0.0529  0.8980 -1.1291
18383SOL    HW256591   5.916   5.419   1.801 -0.6760 -1.9325 -0.0740
18384SOL     OW56592   5.628   3.673   8.720  0.3463 -0.3861  0.2671
18384SOL    HW156593   5.631   3.595   8.664  1.3935 -0.4997  0.4678
18384SOL    HW256594   5.597   3.743   8.663  2.2095 -0.3042 -0.6981
18385SOL     OW56595   2.922   1.194   2.935 -0.1015 -0.1068  0.5961
18385SOL    HW156596   2.959   1.113   2.899  0.2221  0.3146 -0.0592
18385SOL    HW256597   2.997   1.255   2.938 -0.1422 -0.0978  1.9212
18386SOL     OW56598   4.107   0.486   1.862  0.7793 -0.5393  0.4766
18386SOL    HW156599   4.065   0.412   1.818  0.4650  0.3740 -0.8425
18386SOL    HW256600   4.075   0.482   1.952 -1.3756 -0.4589 -0.2217
18387SOL     OW56601   2.736   2.101   0.650  0.1898  0.1509 -0.3839
18387SOL    HW156602   2.695   2.039   0.710  0.2292 -0.4034 -0.9172
18387SOL    HW256603   2.830   2.087   0.661  0.2096 -1.4352 -2.0312
18388SOL     OW56604   1.947   5.016   3.207  0.4734  0.3625 -0.2524
18388SOL    HW156605   1.949   4.969   3.290  0.5853 -0.0542 -0.4898
18388SOL    HW256606   1.923   4.950   3.142 -2.6714  1.2564 -0.1640
18389SOL     OW56607   6.587   1.792   5.859  0.3149  0.5825 -0.2336
18389SOL    HW156608   6.664   1.747   5.824 -0.3450 -1.2287  0.5138
18389SOL    HW256609   6.563   1.856   5.792  0.4507 -1.1858 -2.0351
18390SOL     OW56610   4.087   4.978  12.388 -0.2712 -0.3177  0.0607
18390SOL    HW156611   4.135   4.970  12.306 -2.4802  0.6452 -1.4193
18390SOL    HW256612   4.029   4.902  12.390  0.4504 -0.8862  1.2987
18391SOL     OW56613   6.800   0.888   1.088 -0.1579 -0.3093 -0.3415
18391SOL    HW156614   6.882   0.839   1.083 -0.8268 -1.4787 -0.2473
18391SOL    HW256615   6.801   0.944   1.011 -0.4442 -2.2348 -1.8134
18392SOL     OW56616   5.216   4.092   2.815  0.1348  0.2696  0.9884
18392SOL    HW156617   5.296   4.129   2.777 -1.0391  1.2514 -0.6432
18392SOL    HW256618   5.191   4.023   2.753  0.2822 -0.7707  2.0641
18393SOL     OW56619   2.994   6.255   8.983  0.2497 -0.6667 -0.1887
18393SOL    HW156620   2.951   6.227   9.063  0.5063 -2.3001 -0.5818
18393SOL    HW256621   2.988   6.351   8.984 -1.6718 -0.7585  0.6865
18394SOL     OW56622   1.370   6.298   0.572 -0.2165 -0.0099  0.2112
18394SOL    HW156623   1.463   6.279   0.581 -0.3500 -0.7392  0.1678
18394SOL    HW256624   1.348   6.266   0.484 -0.4875  0.2347  0.1893
18395SOL     OW56625   6.456   5.851  12.376  0.1511 -0.1756 -0.3016
18395SOL    HW156626   6.383   5.830  12.433  2.1197  0.3242  2.6061
18395SOL    HW256627   6.416   5.895  12.300 -2.6548 -1.5719  0.2322
18396SOL     OW56628   5.345   0.328   4.445 -0.0350 -0.2850 -0.1567
18396SOL    HW156629   5.336   0.311   4.351 -5.0154 -0.8316  0.1552
18396SOL    HW256630   5.323   0.245   4.486  2.4050 -0.1497  1.6242
18397SOL     OW56631   3.641   7.432   0.719  0.4013 -0.9334  0.3732
18397SOL    HW156632   3.578   7.484   0.670 -1.5369 -3.8932 -0.5444
18397SOL    HW256633   3.668   7.489   0.792 -1.4941  1.3052 -0.5578
18398SOL     OW56634   2.540   6.180   0.220 -0.4171  0.6837 -0.2990
18398SOL    HW156635   2.464   6.230   0.250 -1.9226  0.3851 -3.2490
18398SOL    HW256636   2.508   6.090   0.210  0.4515  0.4425 -1.1061
18399SOL     OW56637   1.567   6.970   2.887  0.2736  0.2306 -0.3607
18399SOL    HW156638   1.522   6.906   2.832 -0.7077  0.8551 -0.2984
18399SOL    HW256639   1.604   6.917   2.959 -0.3514 -0.2975 -0.4177
18400SOL     OW56640   4.982   4.795   0.436  0.2879 -0.2541 -0.6125
18400SOL    HW156641   5.023   4.860   0.380  0.6101  1.5539  1.5901
18400SOL    HW256642   4.901   4.835   0.466  0.0840 -1.1859  0.1518
18401SOL     OW56643   4.651   7.006   5.934  0.1249 -0.5473 -0.0887
18401SOL    HW156644   4.615   7.068   5.997 -0.5167 -0.0306 -0.9367
18401SOL    HW256645   4.629   7.043   5.848 -0.6104 -2.1309 -0.6289
18402SOL     OW56646   4.663   3.533   7.112  0.1231 -0.2209 -0.7136
18402SOL    HW156647   4.574   3.568   7.102  0.7149  1.4305 -0.5144
18402SOL    HW256648   4.689   3.558   7.201  1.0347 -0.0743 -1.0079
18403SOL     OW56649   1.196   2.641   7.509  0.2272  0.3452 -0.0237
18403SOL    HW156650   1.273   2.683   7.547 -0.2071  0.3676  0.8588
18403SOL    HW256651   1.201   2.661   7.416  1.6600 -0.2442 -0.0956
18404SOL     OW56652   0.742   4.009   0.660  0.3128 -0.2865 -0.3535
18404SOL    HW156653   0.652   3.979   0.671  0.3106 -1.1272 -2.1628
18404SOL    HW256654   0.743   4.097   0.697 -1.2041 -0.3377 -0.1155
18405SOL     OW56655   6.818   4.466   8.453 -0.1972 -0.5889  0.2256
18405SOL    HW156656   6.820   4.562   8.445  2.0031 -0.7654 -2.6080
18405SOL    HW256657   6.727   4.443   8.434 -0.4093  0.8543 -0.6835
18406SOL     OW56658   5.059   7.011   9.942  0.3542  0.2570 -0.6362
18406SOL    HW156659   4.992   6.951   9.910 -0.4065  1.4123 -1.2665
18406SOL    HW256660   5.078   7.068   9.868  0.0064  1.7111  0.3358
18407SOL     OW56661   5.420   1.511   5.297  0.1200  0.0927  0.1694
18407SOL    HW156662   5.475   1.462   5.359 -0.0240  0.1649  0.3560
18407SOL    HW256663   5.352   1.449   5.272 -0.1658  0.2512  0.5433
18408SOL     OW56664   4.972   4.320  10.768  0.1952 -0.1953  0.0597
18408SOL    HW156665   4.996   4.241  10.719 -0.6490 -0.1522 -0.4565
18408SOL    HW256666   4.884   4.301  10.801  0.8401 -0.3212  1.8165
18409SOL     OW56667   6.431   2.263   9.987  0.0249 -0.2506 -0.2082
18409SOL    HW156668   6.503   2.214   9.947 -0.3506  0.0195 -1.2567
18409SOL    HW256669   6.448   2.354   9.962 -0.0946 -0.0377  0.4608
18410SOL     OW56670   2.067   4.655  10.043 -0.1221 -1.0469  0.2242
18410SOL    HW156671   2.111   4.702   9.973  1.1606  0.5145  1.9659
18410SOL    HW256672   2.124   4.580  10.061  1.2248  0.2240  1.5601
18411SOL     OW56673   4.763   0.304   2.985 -0.4653  0.3859  0.0301
18411SOL    HW156674   4.852   0.287   2.956 -0.5592 -0.1205  0.0203
18411SOL    HW256675   4.769   0.382   3.040  0.2860 -0.7061  1.5578
18412SOL     OW56676   7.109   1.285  10.677  0.3952  0.2217  0.3634
18412SOL    HW156677   7.020   1.253  10.690  0.3351 -0.1110 -0.7944
18412SOL    HW256678   7.161   1.206  10.659  1.0186  0.3654  1.4223
18413SOL     OW56679   5.040   0.190   3.127  0.6519  0.1699 -0.0636
18413SOL    HW156680   5.114   0.243   3.100  0.7901 -0.3312 -0.6740
18413SOL    HW256681   5.035   0.120   3.062 -0.2041  0.0608  0.1073
18414SOL     OW56682   4.558   5.254   8.977 -0.2596  0.1652 -0.3304
18414SOL    HW156683   4.535   5.224   8.889 -1.6133  1.2786 -0.4104
18414SOL    HW256684   4.476   5.291   9.011  0.3313  0.0707  1.2631
18415SOL     OW56685   2.868   1.120  12.397 -0.1950  0.7865  0.3505
18415SOL    HW156686   2.926   1.164  12.459 -0.9408  1.1465  0.8048
18415SOL    HW256687   2.915   1.125  12.314  0.8595  0.2172  0.8934
18416SOL     OW56688   6.200   1.180  11.995 -0.0712 -0.5047  0.3065
18416SOL    HW156689   6.150   1.111  11.951 -1.4887  0.1247  0.8758
18416SOL    HW256690   6.158   1.262  11.967 -0.0784 -0.0160  1.6724
18417SOL     OW56691   6.218   2.771   5.395  0.5069  0.0269 -0.0767
18417SOL    HW156692   6.245   2.787   5.305  0.9425  2.3816  0.4164
18417SOL    HW256693   6.299   2.744   5.439  0.1522 -1.8655 -0.4894
18418SOL     OW56694   5.033   3.474   2.640 -0.5558 -0.0445 -0.2094
18418SOL    HW156695   5.078   3.544   2.593  1.6010 -0.6338  0.8044
18418SOL    HW256696   4.984   3.426   2.573  1.5490 -0.2335 -1.7271
18419SOL     OW56697   3.412   7.936  10.413 -0.1939  0.4031 -0.6243
18419SOL    HW156698   3.430   7.967  10.324  0.7909  0.0388 -0.5666
18419SOL    HW256699   3.423   7.841  10.408  2.9424  0.5691  0.4938
18420SOL     OW56700   1.156   3.772  10.406 -0.2992 -0.5254  0.2484
18420SOL    HW156701   1.089   3.833  10.375  0.8996  1.1728  0.8192
18420SOL    HW256702   1.179   3.805  10.493  0.6219 -1.6045  0.4358
18421SOL     OW56703   7.648   4.953   7.465 -0.3515 -0.4493  0.1799
18421SOL    HW156704   7.628   4.875   7.516 -0.3086 -0.5225  0.0831
18421SOL    HW256705   7.738   4.941   7.436 -0.5917 -0.7168 -0.4734
18422SOL     OW56706   7.105   0.316   2.236 -0.2094  0.0682  0.4805
18422SOL    HW156707   7.200   0.326   2.233 -0.3862  2.0800  0.2136
18422SOL    HW256708   7.073   0.404   2.258 -1.9354 -0.9093  2.0845
18423SOL     OW56709   3.672   4.019   3.999 -0.2475 -0.1329  0.8001
18423SOL    HW156710   3.615   4.035   4.074  0.4884  1.3440  1.0912
18423SOL    HW256711   3.689   4.106   3.962  2.2879 -0.4076  1.1202
18424SOL     OW56712   4.282   7.363   5.828  0.2026 -0.2009  0.2417
18424SOL    HW156713   4.361   7.371   5.775  0.3281 -2.3326  0.0193
18424SOL    HW256714   4.220   7.316   5.772  0.1447 -2.0027  1.7076
18425SOL     OW56715   5.826   1.023   8.860 -1.1573  0.1904  0.7974
18425SOL    HW156716   5.795   0.934   8.872 -0.2588 -0.2761 -0.1788
18425SOL    HW256717   5.912   1.025   8.902 -0.2578 -0.0170 -0.9395
18426SOL     OW56718   4.196   6.261   8.465 -0.1357 -0.4325  0.1160
18426SOL    HW156719   4.172   6.172   8.489 -0.2453 -0.5361 -0.3604
18426SOL    HW256720   4.291   6.264   8.479 -0.2640 -0.3434  0.9891
18427SOL     OW56721   2.859   5.034  11.120  0.3650 -0.2325 -0.4949
18427SOL    HW156722   2.916   4.965  11.151  1.0142 -0.4858 -2.1219
18427SOL    HW256723   2.771   5.008  11.149  0.9242 -0.3041  1.2466
18428SOL     OW56724   4.480   2.265   6.655 -0.2362  0.0308 -0.3509
18428SOL    HW156725   4.479   2.360   6.670 -1.2339 -0.0345  0.0387
18428SOL    HW256726   4.560   2.235   6.698 -0.7512  0.4718  0.9571
18429SOL     OW56727   6.004   3.206  10.720 -0.2602 -0.0095 -0.5350
18429SOL    HW156728   6.095   3.235  10.709  0.1515 -0.8932  0.4047
18429SOL    HW256729   5.968   3.264  10.787 -0.0068 -0.4442 -0.0161
18430SOL     OW56730   1.086   5.095   6.258 -0.3259  0.3628 -0.2393
18430SOL    HW156731   1.122   5.025   6.312 -2.7290 -1.5056 -0.8917
18430SOL    HW256732   1.005   5.058   6.222 -1.8392  3.5641 -0.4446
18431SOL     OW56733   5.390   4.335  10.327  0.1813  0.0550 -0.3046
18431SOL    HW156734   5.386   4.261  10.266  2.7981 -1.4873  1.2019
18431SOL    HW256735   5.341   4.306  10.404 -1.2206  1.1183 -0.7399
18432SOL     OW56736   6.045   3.312   9.008  0.4792  0.6125 -0.6693
18432SOL    HW156737   6.004   3.343   8.927  0.3720 -0.1192 -0.9032
18432SOL    HW256738   6.072   3.222   8.988  0.7016  0.5223  0.0198
18433SOL     OW56739   5.931   3.761   8.799  0.0080  0.1001  0.2239
18433SOL    HW156740   5.962   3.795   8.883  1.1259 -1.7069  0.6060
18433SOL    HW256741   5.836   3.753   8.809  0.2577 -1.4238  1.8802
18434SOL     OW56742   5.948   2.662   0.968 -0.5488  0.6620  0.1183
18434SOL    HW156743   5.873   2.643   0.912 -0.5853  3.1443 -0.8192
18434SOL    HW256744   5.974   2.578   1.004 -1.4162 -0.8568 -2.5437
18435SOL     OW56745   2.748   7.893   7.407  0.5775  0.0538 -0.0769
18435SOL    HW156746   2.844   7.891   7.406  0.5883  0.0184  0.5353
18435SOL    HW256747   2.726   7.938   7.489  0.0738  0.2935 -0.3442
18436SOL     OW56748   6.562   7.515   5.464  0.0217  0.7450 -0.1998
18436SOL    HW156749   6.537   7.473   5.546 -4.3172  2.1061 -0.5758
18436SOL    HW256750   6.645   7.558   5.484 -0.0344 -0.3481  2.9737
18437SOL     OW56751   2.057   0.261   4.685 -0.8454  0.1682 -0.1390
18437SOL    HW156752   2.115   0.244   4.611 -1.9469 -0.2273 -0.9407
18437SOL    HW256753   2.078   0.350   4.712  1.8570 -0.7749  1.2119
18438SOL     OW56754   2.508   2.439   7.331  0.0048 -0.2010  0.0776
18438SOL    HW156755   2.542   2.528   7.343 -0.2952  0.2063 -1.7425
18438SOL    HW256756   2.457   2.444   7.250 -0.1510 -2.0028  0.0253
18439SOL     OW56757   0.750   1.087   6.793  0.3046 -0.0237  0.3324
18439SOL    HW156758   0.745   1.177   6.761  1.4820 -0.3718 -0.9181
18439SOL    HW256759   0.817   1.090   6.861 -1.3632  0.4770  2.0577
18440SOL     OW56760   5.885   4.765   3.839 -0.0129  0.1097 -0.3264
18440SOL    HW156761   5.834   4.766   3.758 -0.8015  1.5974  0.1508
18440SOL    HW256762   5.861   4.846   3.883  0.9731 -0.3184  1.0555
18441SOL     OW56763   7.110   4.893   8.966 -0.3316  0.3773 -0.2086
18441SOL    HW156764   7.137   4.825   9.029  1.7852 -1.6287 -3.0402
18441SOL    HW256765   7.023   4.866   8.938  1.5539 -3.3588 -3.5759
18442SOL     OW56766   6.648   4.836   8.847  0.4813 -0.3498  0.3924
18442SOL    HW156767   6.582   4.801   8.908 -1.2556  0.8065 -0.7151
18442SOL    HW256768   6.636   4.785   8.767  0.5413  0.2441 -0.0010
18443SOL     OW56769   3.924   1.061   0.845 -0.2115 -0.3002 -0.1976
18443SOL    HW156770   3.919   0.966   0.853 -1.7286 -0.2670 -0.5474
18443SOL    HW256771   3.839   1.087   0.810 -1.1029  1.4944  2.8658
18444SOL     OW56772   6.029   2.171   8.590 -0.6216 -0.3925  0.3900
18444SOL    HW156773   6.095   2.113   8.552  0.5189 -0.4905  2.3904
18444SOL    HW256774   5.946   2.139   8.557  0.2202 -1.1463 -1.0840
18445SOL     OW56775   7.160   6.154   7.465  0.4507  0.3332 -0.1164
18445SOL    HW156776   7.164   6.199   7.381  1.2158 -0.1323 -0.3438
18445SOL    HW256777   7.251   6.144   7.491  0.4318 -2.1544 -0.6834
18446SOL     OW56778   6.227   2.742  10.200 -0.2118  0.1195 -0.4751
18446SOL    HW156779   6.217   2.647  10.211  0.7559  0.1744  1.1837
18446SOL    HW256780   6.212   2.757  10.107  1.3892 -1.9187 -1.1435
18447SOL     OW56781   4.444   0.371   4.574 -0.1378  0.5210  0.1421
18447SOL    HW156782   4.472   0.460   4.556  0.5910  0.8050  2.3966
18447SOL    HW256783   4.441   0.365   4.670 -0.0595 -1.8865  0.0677
18448SOL     OW56784   0.339   1.245   3.987 -0.3243 -0.2637 -0.6198
18448SOL    HW156785   0.291   1.301   3.926 -1.2327 -0.8517 -0.4662
18448SOL    HW256786   0.328   1.288   4.072  1.5584  0.9531 -0.9443
18449SOL     OW56787   5.243   5.638   6.137  0.5996  0.1203  0.4586
18449SOL    HW156788   5.288   5.604   6.215  1.5249 -0.5497 -0.3360
18449SOL    HW256789   5.180   5.701   6.171  0.8615 -0.2870  1.7639
18450SOL     OW56790   5.776   4.985   2.176  0.3228  0.1018 -0.0247
18450SOL    HW156791   5.804   5.071   2.209  1.5088  0.0132 -0.7564
18450SOL    HW256792   5.758   4.934   2.255  1.8659  0.2955  0.4839
18451SOL     OW56793   7.696   7.805   2.830 -0.4761  0.4181  0.0252
18451SOL    HW156794   7.605   7.808   2.802 -0.7067 -1.2849  0.4387
18451SOL    HW256795   7.731   7.724   2.791  0.1995 -0.1211  1.6333
18452SOL     OW56796   1.321   6.531   1.528  0.2689  0.5791  0.4855
18452SOL    HW156797   1.402   6.480   1.534  0.8373  1.4667  0.5537
18452SOL    HW256798   1.337   6.593   1.457 -0.2075  1.0179  0.7557
18453SOL     OW56799   5.671   0.665   0.420 -0.0978 -0.3273 -0.7271
18453SOL    HW156800   5.692   0.624   0.337  0.0098 -1.6203 -0.0781
18453SOL    HW256801   5.588   0.711   0.404  0.0953 -0.2803 -1.6307
18454SOL     OW56802   2.447   3.409  10.050  0.0702 -0.1072  0.1772
18454SOL    HW156803   2.522   3.417  10.109 -1.6154  1.0163  2.3232
18454SOL    HW256804   2.372   3.392  10.108 -1.5132 -0.2393 -1.7702
18455SOL     OW56805   3.765   0.088  11.767  0.4472 -0.0921 -0.3460
18455SOL    HW156806   3.718   0.086  11.684  0.2443 -0.3699 -0.2254
18455SOL    HW256807   3.818   0.168  11.763 -0.1252  0.2861 -0.4273
18456SOL     OW56808   1.707   7.547   2.261  0.5935 -0.1880 -0.0236
18456SOL    HW156809   1.791   7.503   2.250 -0.7343 -2.2970 -3.4582
18456SOL    HW256810   1.645   7.477   2.280 -0.6416  1.1235  1.0632
18457SOL     OW56811   4.967   2.649   5.763 -0.6794  0.2756  1.0889
18457SOL    HW156812   5.057   2.644   5.732 -0.9324 -1.3902  0.4938
18457SOL    HW256813   4.943   2.741   5.753  0.6325  0.5603  0.3451
18458SOL     OW56814   1.740   5.018  10.225  0.4206 -0.4066 -0.5735
18458SOL    HW156815   1.812   4.969  10.264 -0.1223 -0.3155  0.5854
18458SOL    HW256816   1.778   5.103  10.202  0.6649 -0.3338  0.0922
18459SOL     OW56817   3.227   2.748   1.266  0.1623  0.2251 -0.3779
18459SOL    HW156818   3.315   2.714   1.253  0.4233  0.0922  1.5035
18459SOL    HW256819   3.196   2.706   1.346 -0.8539  1.7212  0.0677
18460SOL     OW56820   4.463   5.612   1.039 -0.2828 -0.3118 -0.1729
18460SOL    HW156821   4.418   5.527   1.041  0.6386 -0.8218  2.0857
18460SOL    HW256822   4.395   5.676   1.059 -0.6224 -0.7232  0.0067
18461SOL     OW56823   4.812   4.328   0.047 -0.0160 -0.2324 -0.5888
18461SOL    HW156824   4.814   4.249  -0.008 -0.7469 -0.8334  0.2292
18461SOL    HW256825   4.902   4.339   0.075 -0.1033 -1.5294  0.3135
18462SOL     OW56826   6.099   5.229   0.982 -0.3758  0.2095 -0.0489
18462SOL    HW156827   6.140   5.152   1.023 -1.2961 -0.2544  0.0080
18462SOL    HW256828   6.114   5.217   0.888  0.8408  0.7603  0.0542
18463SOL     OW56829   2.821   3.924   3.366 -0.0231  0.1971 -0.0976
18463SOL    HW156830   2.895   3.977   3.393  0.8892 -1.4644  0.7968
18463SOL    HW256831   2.752   3.988   3.346  1.8059  1.8173 -1.6057
18464SOL     OW56832   2.342   6.341   5.936  0.4509  0.2140 -0.3399
18464SOL    HW156833   2.319   6.410   5.874  1.0620  0.5423 -0.2152
18464SOL    HW256834   2.340   6.261   5.885  3.3608  0.7253 -1.4843
18465SOL     OW56835   0.008   4.012   3.749 -0.2779  0.1187 -0.2124
18465SOL    HW156836   0.043   3.983   3.665  1.0166 -2.3258  1.0530
18465SOL    HW256837  -0.087   4.007   3.738 -0.2334  2.0125 -2.1455
18466SOL     OW56838   3.373   1.573   3.258  0.3152  0.6329 -0.3243
18466SOL    HW156839   3.285   1.578   3.221 -0.3111 -1.8012  0.6081
18466SOL    HW256840   3.359   1.574   3.353  1.4551  1.7576 -0.1379
18467SOL     OW56841   3.938   1.101  10.755  0.0431 -0.5081  0.5121
18467SOL    HW156842   3.899   1.137  10.676  1.0239  0.5732  0.4922
18467SOL    HW256843   3.871   1.043  10.791 -1.5245  1.1574  0.4342
18468SOL     OW56844   2.114   2.141  10.813 -0.5829  0.7847  0.3333
18468SOL    HW156845   2.084   2.230  10.791 -0.2073  0.1846 -3.1761
18468SOL    HW256846   2.082   2.087  10.741  2.8920 -1.1341  0.0489
18469SOL     OW56847   5.946   5.170   0.020 -0.7143  0.0285  0.0952
18469SOL    HW156848   5.944   5.157   0.114  0.7176 -1.3789 -0.0113
18469SOL    HW256849   5.970   5.262   0.008 -0.2528  0.0484  1.1063
18470SOL     OW56850   5.912   5.650   8.940 -0.0843  0.3271 -0.2642
18470SOL    HW156851   5.998   5.656   8.898  1.1806 -0.3889  2.0320
18470SOL    HW256852   5.916   5.569   8.990 -1.0225  1.6598  2.1109
18471SOL     OW56853   4.903   6.453   2.307 -0.6274  0.1151 -0.3175
18471SOL    HW156854   4.827   6.396   2.320 -0.8697  0.5565  0.2375
18471SOL    HW256855   4.919   6.450   2.213 -0.9312 -0.4946 -0.3567
18472SOL     OW56856   5.739   1.137   7.758 -0.5457 -0.1384 -0.3241
18472SOL    HW156857   5.674   1.089   7.706 -1.4714  0.1034  0.5719
18472SOL    HW256858   5.805   1.165   7.694 -0.7441 -1.3337 -1.0881
18473SOL     OW56859   4.320   5.694  12.435 -0.1764  0.3959 -0.0134
18473SOL    HW156860   4.298   5.607  12.401  1.3613 -0.2066  0.4415
18473SOL    HW256861   4.235   5.736  12.450 -0.9473 -0.9529 -0.4299
18474SOL     OW56862   5.482   3.702   9.825  0.3997 -0.2930  0.1784
18474SOL    HW156863   5.464   3.783   9.873 -0.4004 -0.5227  0.2822
18474SOL    HW256864   5.487   3.635   9.893  1.1754 -0.3186  0.1027
18475SOL     OW56865   2.633   6.025   9.265  0.6006 -0.4494 -0.3684
18475SOL    HW156866   2.596   6.059   9.184 -0.0984  0.0436  0.1503
18475SOL    HW256867   2.706   5.970   9.237  1.2784  0.8653 -1.2670
18476SOL     OW56868   1.198   2.441   1.808 -0.1503  0.6729  0.3520
18476SOL    HW156869   1.217   2.506   1.741  1.2835  0.0128  0.0699
18476SOL    HW256870   1.120   2.396   1.776  0.3286  0.5785 -0.7424
18477SOL     OW56871   4.302   5.541   2.993  0.2727 -0.6458 -0.3791
18477SOL    HW156872   4.384   5.535   3.042 -0.8782  0.8336  1.9446
18477SOL    HW256873   4.298   5.633   2.964 -0.2504 -0.8796 -1.0710
18478SOL     OW56874   1.404   3.308   4.487 -0.0495  0.2404  0.0977
18478SOL    HW156875   1.313   3.290   4.463  0.6245  0.9234 -3.5345
18478SOL    HW256876   1.409   3.403   4.492  0.6567  0.2644 -0.7983
18479SOL     OW56877   3.176   2.186   5.220 -0.6435  0.1260  0.3363
18479SOL    HW156878   3.257   2.154   5.180  0.1220  1.4868  0.7436
18479SOL    HW256879   3.107   2.135   5.178  0.4625 -1.6810  0.5831
18480SOL     OW56880   6.497   5.408   9.186 -0.1424  0.3157  0.0637
18480SOL    HW156881   6.450   5.448   9.113 -0.7638  0.1839  0.3887
18480SOL    HW256882   6.498   5.315   9.167  0.8449  0.4121 -0.4267
18481SOL     OW56883   7.441   7.896   7.313 -0.5008  0.1215  0.3737
18481SOL    HW156884   7.488   7.823   7.274 -0.6990 -0.3470  1.0003
18481SOL    HW256885   7.415   7.865   7.399  0.5196  1.3506  1.1732
18482SOL     OW56886   7.201   0.613   2.475  0.4682  0.1113  0.2142
18482SOL    HW156887   7.125   0.554   2.470  0.2734  0.0474  2.5147
18482SOL    HW256888   7.196   0.666   2.396 -2.0850  0.2135  0.3593
18483SOL     OW56889   5.520   1.261   8.692  0.8069  0.0417 -0.5275
18483SOL    HW156890   5.589   1.201   8.664 -0.4433 -1.3562 -0.7471
18483SOL    HW256891   5.442   1.206   8.696 -0.3761  1.6687 -0.6938
18484SOL     OW56892   7.079   4.527   3.264 -0.1545 -0.2459 -0.1885
18484SOL    HW156893   7.089   4.483   3.179 -1.5614 -1.5820  0.2881
18484SOL    HW256894   6.992   4.567   3.259 -0.0987 -0.0364  0.4995
18485SOL     OW56895   4.353   7.434   0.396 -0.4357  0.5764  0.3742
18485SOL    HW156896   4.323   7.403   0.481 -3.4527  0.2464 -0.7025
18485SOL    HW256897   4.374   7.526   0.410 -2.2349  0.9022  1.2195
18486SOL     OW56898   6.306   4.199   5.526  0.1545 -0.0202  0.6055
18486SOL    HW156899   6.225   4.190   5.577  0.9621  0.6145  2.0615
18486SOL    HW256900   6.351   4.116   5.540 -1.8590 -2.0517 -3.3596
18487SOL     OW56901   7.617   4.629   7.305 -0.0462  0.2334  0.4929
18487SOL    HW156902   7.692   4.689   7.307  0.2129 -0.0745  0.1604
18487SOL    HW256903   7.640   4.561   7.370  0.4301 -0.4034 -0.3215
18488SOL     OW56904   3.178   3.151   5.308  0.4898 -0.0230 -0.3286
18488SOL    HW156905   3.154   3.211   5.379 -1.1097 -3.1610  2.0316
18488SOL    HW256906   3.272   3.140   5.317  0.4007  0.1122  0.9640
18489SOL     OW56907   2.461   0.433   9.703  0.2081  0.2073  0.0599
18489SOL    HW156908   2.484   0.433   9.796 -1.0074  0.0396  0.3788
18489SOL    HW256909   2.530   0.382   9.662  0.3588 -0.3697  0.9849
18490SOL     OW56910   0.263   1.072   5.434  0.2433  0.1352  0.4707
18490SOL    HW156911   0.351   1.041   5.415 -0.2006  0.1219 -1.9126
18490SOL    HW256912   0.218   0.996   5.471  0.6888 -0.4580 -0.1876
18491SOL     OW56913   6.288   0.649   3.468 -0.2857  0.0208 -0.4312
18491SOL    HW156914   6.381   0.667   3.457 -0.3517  0.5269 -0.1717
18491SOL    HW256915   6.244   0.714   3.412 -0.5300  0.8257  0.6586
18492SOL     OW56916   7.867   3.601   6.910  0.2162 -0.4642  0.1728
18492SOL    HW156917   7.932   3.554   6.859 -0.0214 -0.3246 -0.2626
18492SOL    HW256918   7.882   3.694   6.891 -0.4023 -0.4542 -0.2959
18493SOL     OW56919   5.657   6.398   9.376 -0.1269  0.5883  0.1282
18493SOL    HW156920   5.744   6.386   9.413 -0.0354  1.3627  0.1884
18493SOL    HW256921   5.612   6.315   9.393  0.8396 -0.1110 -0.6129
18494SOL     OW56922   6.318   5.208  11.911  0.2783 -0.1810 -0.2801
18494SOL    HW156923   6.396   5.160  11.939 -1.3728 -2.1215  1.2872
18494SOL    HW256924   6.270   5.147  11.856 -0.0118  1.1301 -1.5613
18495SOL     OW56925   0.293   5.741   6.850  0.3641  0.3228 -0.1191
18495SOL    HW156926   0.333   5.737   6.937  2.8997  0.5960 -1.1859
18495SOL    HW256927   0.290   5.834   6.829 -0.2325  0.2595 -0.3343
18496SOL     OW56928   4.650   6.848   2.623 -0.5595 -0.5359 -0.1043
18496SOL    HW156929   4.577   6.844   2.561 -0.7075 -0.5927  0.0755
18496SOL    HW256930   4.716   6.788   2.586 -1.5019 -2.2815  0.9124
18497SOL     OW56931   3.834   7.432   4.390 -0.6051  0.0942 -0.1477
18497SOL    HW156932   3.873   7.344   4.382  0.7734  0.8001 -1.8110
18497SOL    HW256933   3.845   7.453   4.483  2.0011 -0.2549 -0.2833
18498SOL     OW56934   2.244   6.246   8.571 -0.1626 -0.0796  0.2374
18498SOL    HW156935   2.177   6.240   8.639 -0.2564  3.5733  0.6838
18498SOL    HW256936   2.291   6.162   8.576 -1.8778 -1.0224  2.9198
18499SOL     OW56937   6.434   2.712   4.665 -0.2998 -0.7147 -0.3198
18499SOL    HW156938   6.452   2.794   4.619  0.3216 -0.6482  0.0231
18499SOL    HW256939   6.483   2.720   4.747 -0.9874 -1.0342  0.1401
18500SOL     OW56940   5.925   1.281   9.190  0.2792 -0.0110 -0.2079
18500SOL    HW156941   5.911   1.319   9.104  2.2086  0.0167 -0.5485
18500SOL    HW256942   5.951   1.355   9.245 -1.8274  0.1390  0.6848
18501SOL     OW56943   6.766   4.719  11.265  0.3824  0.4351 -0.3859
18501SOL    HW156944   6.751   4.679  11.351 -1.9225 -0.3138 -1.0506
18501SOL    HW256945   6.721   4.804  11.270  0.7782  0.6619 -0.6483
18502SOL     OW56946   2.486   0.894   5.081  0.1144  0.1514  0.2354
18502SOL    HW156947   2.427   0.896   5.005  0.3405  0.0332  0.0528
18502SOL    HW256948   2.473   0.979   5.124 -0.8218 -0.2172  0.6924
18503SOL     OW56949   6.340   4.139   6.760  0.1775 -0.4338  0.3626
18503SOL    HW156950   6.331   4.202   6.831 -1.3950 -0.6691  0.4080
18503SOL    HW256951   6.384   4.064   6.800 -0.3915 -0.4287  1.0167
18504SOL     OW56952   3.329   5.305   9.160  0.0011 -0.3325 -0.3988
18504SOL    HW156953   3.255   5.331   9.104  0.5670  0.1997 -0.9104
18504SOL    HW256954   3.394   5.270   9.099 -0.1211 -1.5077  0.1268
18505SOL     OW56955   7.117   3.254  12.006 -0.0011 -0.1897 -0.1796
18505SOL    HW156956   7.097   3.166  11.973  1.4695 -0.5770 -0.1291
18505SOL    HW256957   7.213   3.256  12.009  0.0640  1.9893 -1.7683
18506SOL     OW56958   3.189   5.958   7.252  0.2642  0.3059 -0.0006
18506SOL    HW156959   3.104   5.940   7.293  0.2008  0.1646 -0.1937
18506SOL    HW256960   3.183   5.918   7.165  0.0049  1.5371 -0.5647
18507SOL     OW56961   4.191   2.510   2.564  0.7909  0.1960 -0.1081
18507SOL    HW156962   4.150   2.570   2.626 -0.9732 -1.7974  0.8270
18507SOL    HW256963   4.276   2.490   2.603  0.6530  0.7336  0.4906
18508SOL     OW56964   0.476   3.500   8.432  0.4788  0.2782 -0.1032
18508SOL    HW156965   0.563   3.497   8.472  0.5564 -2.6980 -0.2837
18508SOL    HW256966   0.492   3.488   8.339 -0.1416 -1.7381  0.0105
18509SOL     OW56967   6.802   3.331  10.484  0.2043  1.1942 -0.3399
18509SOL    HW156968   6.709   3.336  10.462  0.1924 -0.0220 -0.6093
18509SOL    HW256969   6.813   3.248  10.529  1.2850  0.9679 -0.9643
18510SOL     OW56970   6.472   3.680   8.459 -0.9809 -0.4904 -0.1700
18510SOL    HW156971   6.509   3.726   8.384  0.6605 -3.1563 -1.1300
18510SOL    HW256972   6.522   3.713   8.534 -0.3718 -0.1366 -0.7160
18511SOL     OW56973   2.338   5.055   7.811  0.1109  0.3811  0.4730
18511SOL    HW156974   2.248   5.022   7.809  0.4678 -0.6635 -1.7322
18511SOL    HW256975   2.379   5.011   7.885 -0.5241 -1.1370 -0.0413
18512SOL     OW56976   4.356   4.175   8.560 -0.3320 -0.5943 -0.2368
18512SOL    HW156977   4.274   4.144   8.521  0.5451 -0.7348 -2.1021
18512SOL    HW256978   4.425   4.132   8.508  0.9499 -1.0821  1.7610
18513SOL     OW56979   4.829   7.230   1.618  0.2782 -0.3490 -0.0062
18513SOL    HW156980   4.813   7.136   1.612  2.0109 -0.7851  1.3583
18513SOL    HW256981   4.781   7.258   1.695  0.7275 -0.3616  0.2806
18514SOL     OW56982   7.920   0.525   1.944 -0.4002 -0.0287  0.3741
18514SOL    HW156983   7.840   0.576   1.930 -0.4309  0.0064  0.6712
18514SOL    HW256984   7.920   0.460   1.873  0.2134  1.0809 -0.6871
18515SOL     OW56985   5.934   2.748   8.512 -0.2544  0.4787  0.0851
18515SOL    HW156986   5.910   2.707   8.595  1.4214  1.5765  1.1957
18515SOL    HW256987   5.862   2.807   8.491 -0.6454  0.2674  0.8266
18516SOL     OW56988   1.332   1.612  10.879  0.5192 -0.2995 -0.1787
18516SOL    HW156989   1.238   1.601  10.864  0.3604 -1.0934  1.1718
18516SOL    HW256990   1.374   1.547  10.823  0.1718 -0.8106  0.1456
18517SOL     OW56991   4.813   4.519   7.640 -0.0095 -0.7322  0.2233
18517SOL    HW156992   4.841   4.440   7.686  1.1643  0.0985  0.9760
18517SOL    HW256993   4.734   4.547   7.687 -1.2191 -2.1336 -0.8545
18518SOL     OW56994   0.210   0.037   1.918 -0.0819  0.0669  0.0014
18518SOL    HW156995   0.158   0.117   1.909  0.0188  0.1165 -0.1361
18518SOL    HW256996   0.275   0.042   1.847 -0.7068 -0.6232 -0.6305
18519SOL     OW56997   1.947   0.740   0.676 -0.5527  0.1316  0.1204
18519SOL    HW156998   1.940   0.747   0.581 -2.3110 -0.8070  0.1462
18519SOL    HW256999   1.910   0.822   0.709 -0.9284  0.0098  0.0078
18520SOL     OW57000   7.399   2.305   6.277  0.0071  0.0688  0.0287
18520SOL    HW157001   7.436   2.242   6.214 -0.1677 -0.7445  0.7129
18520SOL    HW257002   7.362   2.374   6.223 -1.3267 -1.2603 -0.8502
18521SOL     OW57003   6.151   3.483  10.095  0.2753  0.1226  0.3602
18521SOL    HW157004   6.212   3.519  10.031  1.0340  0.8939  1.4714
18521SOL    HW257005   6.069   3.529  10.080  0.2297 -0.2371 -0.5238
18522SOL     OW57006   7.344   4.462   8.315  0.1375 -0.2608 -0.2851
18522SOL    HW157007   7.275   4.528   8.324  1.2062  0.8579  0.0715
18522SOL    HW257008   7.415   4.508   8.270  0.9456 -1.1482  0.0437
18523SOL     OW57009   5.642   1.664   6.062 -0.0028 -0.0427 -0.0580
18523SOL    HW157010   5.576   1.634   6.124  1.6145  0.0457  1.8226
18523SOL    HW257011   5.661   1.754   6.088  1.8400 -0.5136  0.4140
18524SOL     OW57012   7.344   3.993   0.427 -0.1795 -0.0549 -0.7058
18524SOL    HW157013   7.308   4.013   0.341 -1.7228  0.6910  0.0559
18524SOL    HW257014   7.355   4.079   0.468  1.0446 -0.3665 -0.3285
18525SOL     OW57015   2.796   5.767   7.157  0.1486  0.3684 -0.5575
18525SOL    HW157016   2.875   5.763   7.212 -0.9949 -0.6826  1.1162
18525SOL    HW257017   2.820   5.824   7.085  3.2354 -1.7708 -1.4317
18526SOL     OW57018   5.982   2.478  12.462 -0.1863  0.2981 -0.3467
18526SOL    HW157019   5.970   2.537  12.387  2.2560  1.7824  0.2928
18526SOL    HW257020   5.963   2.391  12.428 -0.8640  1.1158 -2.1866
18527SOL     OW57021   3.917   6.286   4.193 -0.0855  0.4791 -0.0332
18527SOL    HW157022   3.898   6.205   4.147 -0.2020 -1.0476  2.5032
18527SOL    HW257023   3.989   6.326   4.143 -0.9279 -0.4427 -2.0941
18528SOL     OW57024   7.826   3.974   9.257  0.3796 -0.2591 -0.3965
18528SOL    HW157025   7.890   4.038   9.290 -1.9724  1.4462  1.2738
18528SOL    HW257026   7.834   3.899   9.316 -0.3682  0.7355  1.0381
18529SOL     OW57027   6.285   5.743   0.773 -0.4120 -0.2967 -0.3065
18529SOL    HW157028   6.199   5.776   0.797 -0.1478  0.2534 -0.0835
18529SOL    HW257029   6.277   5.648   0.775 -0.2019 -0.3537  2.8129
18530SOL     OW57030   6.321   2.831   1.926  0.0724  0.1382 -0.5101
18530SOL    HW157031   6.346   2.752   1.879  0.0606  0.0612 -0.3861
18530SOL    HW257032   6.394   2.849   1.984  0.7598  1.0788 -1.6176
18531SOL     OW57033   5.898   1.496   7.475  0.5635  0.0110  0.1055
18531SOL    HW157034   5.974   1.541   7.437 -0.0778  0.0094 -1.2365
18531SOL    HW257035   5.897   1.523   7.566  0.9066  1.7383 -0.3737
18532SOL     OW57036   2.432   3.528   4.330 -0.1403  0.2742 -0.1544
18532SOL    HW157037   2.359   3.509   4.272 -0.0065 -0.0384 -0.2240
18532SOL    HW257038   2.454   3.444   4.370 -0.6731  0.6064  0.8724
18533SOL     OW57039   0.873   0.581   1.919  0.6328  0.3055 -0.1419
18533SOL    HW157040   0.968   0.571   1.908  0.6227  1.0226 -1.0331
18533SOL    HW257041   0.837   0.554   1.835  0.0517  0.1246  0.1644
18534SOL     OW57042   5.580   3.447  11.488 -0.0076  0.3904 -0.2256
18534SOL    HW157043   5.649   3.432  11.553 -0.0846  0.3746 -0.1464
18534SOL    HW257044   5.593   3.538  11.460 -1.0070  0.9624  1.0521
18535SOL     OW57045   3.211   7.748   2.805  0.1532 -0.0985  0.5082
18535SOL    HW157046   3.133   7.803   2.814 -0.8665 -1.5521  0.8357
18535SOL    HW257047   3.278   7.792   2.858 -0.7732  0.5644  1.1589
18536SOL     OW57048   2.131   1.261  12.301 -0.0138 -0.6144  0.4056
18536SOL    HW157049   2.181   1.200  12.249 -0.7621  0.8546 -2.2438
18536SOL    HW257050   2.195   1.326  12.331  0.2803 -0.9786  0.5741
18537SOL     OW57051   5.442   0.861   3.579  0.3618  0.0856 -0.1479
18537SOL    HW157052   5.414   0.800   3.647  0.3158  0.5684  0.2719
18537SOL    HW257053   5.436   0.947   3.620 -0.1961  0.4367 -0.9345
18538SOL     OW57054   4.828   1.730   2.587  0.0401  0.7038  0.2375
18538SOL    HW157055   4.737   1.758   2.597 -0.6475 -1.2074 -0.1857
18538SOL    HW257056   4.824   1.657   2.525  1.5277 -1.0151  2.0398
18539SOL     OW57057   6.573   7.736   1.950 -0.0154  0.2361  0.3286
18539SOL    HW157058   6.572   7.665   2.014  0.4763  0.9762  1.1837
18539SOL    HW257059   6.660   7.730   1.911  0.4774  1.0906  1.2572
18540SOL     OW57060   0.845   2.850   4.787 -0.6238 -0.5625  0.2014
18540SOL    HW157061   0.938   2.828   4.791 -0.5085 -0.2378 -0.4458
18540SOL    HW257062   0.816   2.815   4.703 -0.6400  0.8779 -0.4423
18541SOL     OW57063   2.737   6.396  12.175 -0.6900 -0.1131  0.0925
18541SOL    HW157064   2.709   6.483  12.203 -1.3274 -0.4440  0.4946
18541SOL    HW257065   2.829   6.407  12.153 -0.8658  0.7543 -0.2486
18542SOL     OW57066   0.583   4.546   3.812 -0.0175 -0.0140 -0.8774
18542SOL    HW157067   0.562   4.621   3.868  0.0233  0.4651 -1.4895
18542SOL    HW257068   0.527   4.476   3.844 -0.1042  0.2954 -0.3370
18543SOL     OW57069   0.944   2.187   7.186  0.5062  0.0468  0.2934
18543SOL    HW157070   1.011   2.245   7.222  0.2011 -0.5428  1.8847
18543SOL    HW257071   0.861   2.231   7.204  0.3637 -0.1000  0.0081
18544SOL     OW57072   7.530   5.775   1.696  0.2231 -0.0901 -0.1664
18544SOL    HW157073   7.556   5.739   1.780  0.5044  2.3199  0.8627
18544SOL    HW257074   7.582   5.855   1.687 -3.1555  2.3101 -0.3304
18545SOL     OW57075   2.130   0.107   3.339 -0.1790  0.5878  0.0598
18545SOL    HW157076   2.086   0.167   3.278 -0.8975  0.7080  0.6775
18545SOL    HW257077   2.088   0.125   3.424  0.5461  0.1643  0.5137
18546SOL     OW57078   7.239   1.253   3.589 -0.2445 -0.6335 -0.2105
18546SOL    HW157079   7.321   1.264   3.541  1.4877 -0.0248  2.6362
18546SOL    HW257080   7.191   1.334   3.574  1.5471  0.7957  1.1926
18547SOL     OW57081   3.578   0.139   5.953 -0.3117  0.0278 -0.1592
18547SOL    HW157082   3.653   0.194   5.929 -0.8900  0.6179 -0.6402
18547SOL    HW257083   3.611   0.084   6.024  0.9423 -0.5781 -1.1608
18548SOL     OW57084   1.455   5.568   5.802 -0.0164 -0.1726  0.0596
18548SOL    HW157085   1.412   5.634   5.749  0.9489 -0.4270 -1.0815
18548SOL    HW257086   1.384   5.517   5.840 -0.7761  1.4254  0.8915
18549SOL     OW57087   3.072   2.188  11.507 -0.0718  0.4039 -0.5207
18549SOL    HW157088   3.028   2.124  11.451 -0.6513  0.8306 -0.5696
18549SOL    HW257089   3.087   2.140  11.589 -0.1505  0.0872 -0.6861
18550SOL     OW57090   5.283   0.708   1.299  0.1117 -0.1694  0.5227
18550SOL    HW157091   5.189   0.694   1.312 -0.0987  1.5741  1.1670
18550SOL    HW257092   5.292   0.722   1.205 -0.2695 -0.3290  0.4605
18551SOL     OW57093   2.762   5.635   1.935  0.0132 -0.1531  0.1958
18551SOL    HW157094   2.813   5.555   1.948 -0.8357 -1.1668 -2.1088
18551SOL    HW257095   2.827   5.702   1.915  0.6867 -0.3731  1.4935
18552SOL     OW57096   7.388   7.459   7.650 -0.7630 -0.1236 -0.0238
18552SOL    HW157097   7.401   7.415   7.566 -1.7889  1.3005 -0.9638
18552SOL    HW257098   7.466   7.435   7.701  0.3125 -0.3243 -1.6723
18553SOL     OW57099   5.356   4.282   1.690 -0.5036  0.1948  0.8311
18553SOL    HW157100   5.337   4.215   1.625  1.7504 -0.4921  0.8157
18553SOL    HW257101   5.354   4.364   1.640  0.1692 -0.2187  0.1101
18554SOL     OW57102   4.991   0.366   9.809  0.4366 -0.0037  0.2072
18554SOL    HW157103   5.038   0.401   9.884  0.5669 -1.2198  0.7102
18554SOL    HW257104   4.957   0.444   9.764 -0.2259  0.7208  1.8816
18555SOL     OW57105   4.330   0.940   9.634 -0.3398 -0.0548  0.4085
18555SOL    HW157106   4.318   0.960   9.541  1.4153 -1.4937 -0.1931
18555SOL    HW257107   4.406   0.882   9.636 -1.9884 -2.3844  2.4528
18556SOL     OW57108   0.148   2.061   5.711 -0.1495 -0.7806  0.5383
18556SOL    HW157109   0.174   2.152   5.722 -0.0163 -0.4481 -1.9087
18556SOL    HW257110   0.211   2.011   5.762  0.3458  0.4408  1.1535
18557SOL     OW57111   4.685   6.973   6.963  0.2232  0.0263  0.1548
18557SOL    HW157112   4.630   7.048   6.985 -1.4661 -0.7228 -1.2840
18557SOL    HW257113   4.750   7.009   6.902 -0.6100  0.3394 -0.5772
18558SOL     OW57114   0.517   4.263   8.589  0.5190  0.0792 -0.2617
18558SOL    HW157115   0.506   4.189   8.649  1.2595 -1.5079 -1.9922
18558SOL    HW257116   0.609   4.287   8.597  0.6204 -0.1397 -0.7555
18559SOL     OW57117   0.732   4.510   1.365 -0.0452  0.8267 -0.3788
18559SOL    HW157118   0.729   4.597   1.406  1.3797 -0.1455  1.9740
18559SOL    HW257119   0.734   4.449   1.438 -1.1051 -1.2425 -1.9813
18560SOL     OW57120   6.949   1.693   0.872  0.1718  0.1207 -0.1881
18560SOL    HW157121   7.030   1.643   0.881 -0.2339 -0.4239  0.5878
18560SOL    HW257122   6.945   1.715   0.779 -0.3981 -2.6641 -0.9313
18561SOL     OW57123   4.260   4.619   1.532 -0.0871  0.1075 -0.4023
18561SOL    HW157124   4.183   4.654   1.577 -0.0416 -0.1015 -0.1626
18561SOL    HW257125   4.265   4.670   1.451 -0.7902 -0.2516 -0.6755
18562SOL     OW57126   4.683   5.364   4.968  0.3697 -0.1378  0.1303
18562SOL    HW157127   4.702   5.364   4.874 -0.6990 -1.1138 -0.1055
18562SOL    HW257128   4.747   5.305   5.006  0.8695  0.3363  0.0418
18563SOL     OW57129   4.595   4.007  11.319  0.2823  0.5498  0.1257
18563SOL    HW157130   4.594   3.973  11.229 -0.3459 -0.9726  0.6766
18563SOL    HW257131   4.538   4.083  11.317  2.0506  1.9053 -1.2493
18564SOL     OW57132   7.917   3.580   9.239  0.0704  0.3653  0.0586
18564SOL    HW157133   7.940   3.561   9.148  2.8975 -0.5302  0.8571
18564SOL    HW257134   7.981   3.645   9.267 -0.2664  0.0635  1.6200
18565SOL     OW57135   7.084   2.251   6.739 -0.3595 -0.4473 -0.3596
18565SOL    HW157136   7.124   2.336   6.755 -0.4938 -0.7697  2.0245
18565SOL    HW257137   7.080   2.244   6.643 -0.5210  2.2578 -0.6126
18566SOL     OW57138   1.643   6.470   0.093 -0.1329  1.2515  0.1104
18566SOL    HW157139   1.700   6.537   0.131 -0.6880  0.7136  1.9574
18566SOL    HW257140   1.637   6.402   0.159 -1.5978  0.5282 -0.7113
18567SOL     OW57141   4.019   0.813   7.803 -0.1662 -0.1571 -0.2348
18567SOL    HW157142   3.974   0.729   7.800  1.1943 -0.9287 -0.1087
18567SOL    HW257143   4.059   0.822   7.716  0.5733 -0.1580  0.0993
18568SOL     OW57144   6.156   7.766   4.408  0.4162 -0.0881  0.3899
18568SOL    HW157145   6.153   7.792   4.500 -0.7578 -1.5438  0.8090
18568SOL    HW257146   6.148   7.671   4.409  1.6113 -0.2621 -1.1871
18569SOL     OW57147   2.310   1.802  10.820 -0.5855  0.2391 -0.2482
18569SOL    HW157148   2.374   1.849  10.873  1.8125 -1.8167 -1.1378
18569SOL    HW257149   2.343   1.807  10.731 -1.9333 -0.4813 -0.8241
18570SOL     OW57150   7.886   7.582   6.562  0.6282  0.0471  0.3793
18570SOL    HW157151   7.868   7.642   6.489 -0.7403 -0.5920  0.1746
18570SOL    HW257152   7.951   7.520   6.526 -1.6625 -1.6516 -1.1315
18571SOL     OW57153   1.372   4.408   4.805 -0.0149  0.2678  0.1406
18571SOL    HW157154   1.281   4.406   4.831  0.4003 -2.5552  1.7953
18571SOL    HW257155   1.419   4.442   4.881  0.3710  1.5468 -0.6372
18572SOL     OW57156   3.655   6.248   7.785  0.4050 -0.2971  0.7864
18572SOL    HW157157   3.581   6.236   7.726 -1.6358 -0.7033  3.2437
18572SOL    HW257158   3.727   6.198   7.745 -0.9811 -0.9131 -1.0602
18573SOL     OW57159   1.612   6.771  11.753 -0.2313 -0.5422 -0.5634
18573SOL    HW157160   1.706   6.764  11.739  0.0021 -0.3097  0.7223
18573SOL    HW257161   1.603   6.792  11.846 -1.4032  3.2060 -1.3418
18574SOL     OW57162   0.187   3.214   0.055  1.0040  0.6876 -0.3310
18574SOL    HW157163   0.199   3.129   0.098 -4.4893 -1.1751 -1.6349
18574SOL    HW257164   0.212   3.199  -0.036  1.1158  0.8427 -0.3273
18575SOL     OW57165   5.276   5.734   3.785 -0.0710 -0.0403 -0.1862
18575SOL    HW157166   5.236   5.651   3.760  2.2220 -1.7598  1.4659
18575SOL    HW257167   5.248   5.795   3.717 -2.9376 -1.7714 -0.7344
18576SOL     OW57168   7.360   6.363   6.328 -0.1597  0.3608 -0.3111
18576SOL    HW157169   7.339   6.311   6.251 -4.4915  1.5477 -0.1655
18576SOL    HW257170   7.343   6.454   6.301 -0.2646  0.9531  1.5979
18577SOL     OW57171   7.582   3.635  12.425  0.3853 -0.4866 -0.5496
18577SOL    HW157172   7.598   3.606  12.335 -0.9375 -2.5056 -0.2058
18577SOL    HW257173   7.501   3.685  12.420 -1.1263 -2.7236 -0.2162
18578SOL     OW57174   4.516   2.768   5.291  0.2208 -0.0755 -0.2550
18578SOL    HW157175   4.445   2.761   5.227  1.6111 -0.4341 -1.8436
18578SOL    HW257176   4.480   2.823   5.361 -0.8756  1.6814 -2.0828
18579SOL     OW57177   6.746   3.452   1.144  0.2106  0.3108  0.0140
18579SOL    HW157178   6.681   3.485   1.207 -0.5016 -1.0798  0.0564
18579SOL    HW257179   6.767   3.527   1.089 -1.0031  0.9428  0.3803
18580SOL     OW57180   6.245   1.903  10.875  0.1823  0.7966  0.3445
18580SOL    HW157181   6.246   1.821  10.826 -0.8783  0.3851  0.9573
18580SOL    HW257182   6.215   1.969  10.812 -0.3022  0.4412  0.1937
18581SOL     OW57183   4.548   1.872   5.506 -0.1080 -0.6793  0.2561
18581SOL    HW157184   4.581   1.839   5.589  0.6970 -0.9251 -0.1466
18581SOL    HW257185   4.579   1.962   5.501 -1.7179 -0.0363  1.0382
18582SOL     OW57186   6.091   6.496   7.523  0.4264 -0.1032 -0.3264
18582SOL    HW157187   6.022   6.431   7.537  1.1208 -0.4551  1.9324
18582SOL    HW257188   6.075   6.530   7.435 -1.6924 -1.2615 -0.4521
18583SOL     OW57189   1.317   5.027  12.340 -0.3129 -0.0020 -0.5496
18583SOL    HW157190   1.366   5.044  12.420 -1.0915 -2.0810  0.4371
18583SOL    HW257191   1.342   5.098  12.281  0.9697  1.0840  1.2066
18584SOL     OW57192   6.241   2.376   8.554 -0.2504  0.8139 -0.1904
18584SOL    HW157193   6.197   2.450   8.511 -1.0707  0.5857  0.2362
18584SOL    HW257194   6.169   2.319   8.582  0.3838 -0.2312 -0.6681
18585SOL     OW57195   6.016   1.296   7.828 -0.2175  0.1247  0.2062
18585SOL    HW157196   6.076   1.359   7.788 -1.7656  0.5394 -1.5976
18585SOL    HW257197   5.980   1.247   7.754 -0.1721 -1.9000  1.4538
18586SOL     OW57198   3.359   5.306   9.650 -0.0104  0.0178  0.2429
18586SOL    HW157199   3.328   5.252   9.578  1.2944 -0.2507 -0.1387
18586SOL    HW257200   3.365   5.394   9.613 -1.9670  0.4430  0.8163
18587SOL     OW57201   5.810   1.438   2.746  0.0743 -0.1122  0.0759
18587SOL    HW157202   5.777   1.522   2.780  0.2580  0.1030 -0.2686
18587SOL    HW257203   5.881   1.463   2.686  0.6178 -0.5547  0.5310
18588SOL     OW57204   1.666   4.907   7.998 -0.0465 -0.0077 -0.4573
18588SOL    HW157205   1.713   4.870   8.073 -0.2615  0.4439 -0.0988
18588SOL    HW257206   1.671   5.001   8.011 -1.5827  0.0460 -0.0743
18589SOL     OW57207   3.950   2.453   4.567 -0.0851  0.2744  0.0864
18589SOL    HW157208   3.964   2.359   4.558 -2.8794 -0.1700 -0.5318
18589SOL    HW257209   3.912   2.480   4.484  1.7582  2.2561 -0.1979
18590SOL     OW57210   3.647   5.170   2.039  0.1482  0.5947  0.1863
18590SOL    HW157211   3.655   5.265   2.029 -0.3305  0.8143  1.7178
18590SOL    HW257212   3.697   5.150   2.118  0.4144 -0.4728 -0.2316
18591SOL     OW57213   3.522   2.166   2.284 -0.0005  0.1574  0.2569
18591SOL    HW157214   3.511   2.077   2.252 -1.7285  0.3550  0.2338
18591SOL    HW257215   3.477   2.221   2.220 -3.2599  0.6011  2.6896
18592SOL     OW57216   2.785   4.266  10.022  0.1964 -0.4849 -0.2359
18592SOL    HW157217   2.808   4.246  10.112 -1.1405  0.7861  0.4258
18592SOL    HW257218   2.701   4.222  10.008 -0.6041  0.9692 -0.1720
18593SOL     OW57219   5.780   7.279   8.228 -0.1431 -0.4326  0.8648
18593SOL    HW157220   5.707   7.248   8.174  1.3403 -1.5614 -0.5823
18593SOL    HW257221   5.806   7.202   8.279  1.2819 -0.6495 -0.1189
18594SOL     OW57222   5.856   5.802  10.973  0.3954  0.0687  0.1340
18594SOL    HW157223   5.885   5.892  10.989 -0.9803  0.5932 -0.1894
18594SOL    HW257224   5.908   5.749  11.033  1.4355  1.0447  0.1155
18595SOL     OW57225   5.034   1.607   8.844  0.6310  0.0928 -0.8369
18595SOL    HW157226   5.061   1.519   8.868  0.6720  0.6229  1.2234
18595SOL    HW257227   4.957   1.594   8.788  1.3375 -1.2468 -1.5518
18596SOL     OW57228   0.345   6.987   4.190  0.4910  0.2605 -0.2869
18596SOL    HW157229   0.398   7.012   4.114  0.5911 -0.2566 -0.3879
18596SOL    HW257230   0.296   6.910   4.161  0.9090 -0.2471  0.3333
18597SOL     OW57231   4.197   4.082   5.217 -0.3464  0.3855  0.2961
18597SOL    HW157232   4.289   4.086   5.243 -0.1078  1.9222 -0.6302
18597SOL    HW257233   4.191   4.006   5.159  0.6403  0.9953 -0.6437
18598SOL     OW57234   3.855   7.062  11.671  0.2069 -0.1145  0.0713
18598SOL    HW157235   3.882   6.998  11.606 -0.2491 -0.0157 -0.2197
18598SOL    HW257236   3.932   7.073  11.728  0.4571 -0.5287 -0.1831
18599SOL     OW57237   1.440   4.776   7.902 -0.5993  0.2535  0.2144
18599SOL    HW157238   1.505   4.844   7.920  1.7129 -1.7000 -0.0581
18599SOL    HW257239   1.480   4.724   7.831 -2.3793 -1.1773  0.1993
18600SOL     OW57240   5.034   7.301   4.673  0.3508 -0.3833  0.1788
18600SOL    HW157241   5.077   7.252   4.744  0.6918 -0.2246  0.0795
18600SOL    HW257242   5.082   7.276   4.594 -0.4065 -1.0249 -0.0944
18601SOL     OW57243   5.053   0.515  11.193 -0.1965  0.2225 -0.1354
18601SOL    HW157244   5.087   0.427  11.207 -0.3978  0.0233 -0.8395
18601SOL    HW257245   5.130   0.572  11.204  1.0273 -0.3894 -3.9438
18602SOL     OW57246   6.341   3.975  11.375 -0.1103  0.0801  0.2688
18602SOL    HW157247   6.345   3.895  11.322 -0.2295  0.0263  0.3388
18602SOL    HW257248   6.260   3.966  11.426 -1.9069  1.7448 -2.1010
18603SOL     OW57249   3.919   5.332   7.794  0.1334  0.3581 -0.2287
18603SOL    HW157250   3.934   5.257   7.852  1.1655 -0.9369 -2.0532
18603SOL    HW257251   3.996   5.387   7.806  0.5563 -0.1270 -0.6599
18604SOL     OW57252   5.553   7.462   9.433 -0.8253  0.6381 -0.1812
18604SOL    HW157253   5.610   7.443   9.508 -0.0876  3.2876  0.0344
18604SOL    HW257254   5.474   7.499   9.471 -0.5106  1.8571 -0.6557
18605SOL     OW57255   6.484   7.712   6.161 -0.4242 -0.1178  0.0227
18605SOL    HW157256   6.489   7.792   6.214  1.2724  0.5025 -1.0205
18605SOL    HW257257   6.395   7.680   6.176 -0.9247  1.5927  0.9993
18606SOL     OW57258   5.364   1.863  11.042  0.3459 -0.3037 -0.5488
18606SOL    HW157259   5.377   1.957  11.055  0.3719 -0.3382 -0.3202
18606SOL    HW257260   5.444   1.823  11.078 -0.1404 -0.4846  0.3741
18607SOL     OW57261   6.517   4.223   0.304  0.2501  0.2024  0.0759
18607SOL    HW157262   6.479   4.145   0.346 -0.0482 -0.3629 -1.1847
18607SOL    HW257263   6.442   4.281   0.289 -0.5040 -1.4153 -3.5066
18608SOL     OW57264   2.918   3.327  11.953  0.1856 -0.4075  0.2610
18608SOL    HW157265   2.977   3.255  11.977 -0.4522 -0.5693  1.4302
18608SOL    HW257266   2.958   3.404  11.992  0.0297 -0.3908  0.3878
18609SOL     OW57267   7.429   6.337   6.759  0.0327 -0.0641 -0.4584
18609SOL    HW157268   7.425   6.404   6.827  0.4186 -1.1004  0.6250
18609SOL    HW257269   7.518   6.301   6.765  0.6943  0.9845 -2.7053
18610SOL     OW57270   6.407   3.557   8.919 -0.0989  0.2740  0.1466
18610SOL    HW157271   6.425   3.644   8.955  1.8620 -0.4456  1.0165
18610SOL    HW257272   6.321   3.566   8.879 -0.3086  2.3939  0.9242
18611SOL     OW57273   2.444   7.887   9.271 -0.1794  0.2911 -0.0465
18611SOL    HW157274   2.397   7.942   9.209  0.5925  0.6459 -0.3342
18611SOL    HW257275   2.450   7.802   9.229 -0.3275  0.3239 -0.1302
18612SOL     OW57276   7.588   1.171   5.501 -0.1276 -0.5073  0.0855
18612SOL    HW157277   7.592   1.261   5.533  0.9342 -0.7092  0.5522
18612SOL    HW257278   7.650   1.169   5.427  0.4844 -1.0425  0.5938
18613SOL     OW57279   1.222   6.863   9.606 -0.7044  0.1460 -0.4033
18613SOL    HW157280   1.268   6.896   9.682  2.0531 -0.0707 -1.8538
18613SOL    HW257281   1.177   6.784   9.637  0.4610 -0.0119  0.9615
18614SOL     OW57282   4.238   6.315   2.589 -0.2856  0.0384  0.0147
18614SOL    HW157283   4.144   6.299   2.595 -0.2341 -1.0381 -1.4006
18614SOL    HW257284   4.251   6.351   2.501  0.4248  2.0053  0.8805
18615SOL     OW57285   1.388   3.611   4.536 -0.1095  0.1046 -0.8859
18615SOL    HW157286   1.474   3.584   4.505 -0.8146 -1.3692 -1.6311
18615SOL    HW257287   1.377   3.700   4.503  1.6280  0.7983  0.2955
18616SOL     OW57288   3.544   3.128   0.146 -0.3093  0.0543  0.0691
18616SOL    HW157289   3.480   3.113   0.216 -0.7376  2.4117  0.2696
18616SOL    HW257290   3.501   3.191   0.088  2.0164  2.3125  0.5956
18617SOL     OW57291   1.678   5.335  12.444 -0.6979  0.3337  0.6241
18617SOL    HW157292   1.615   5.271  12.477 -0.7372 -0.6342 -1.2178
18617SOL    HW257293   1.685   5.400  12.514 -0.9589 -1.4525  2.4061
18618SOL     OW57294   6.669   5.898   6.684  0.5398  0.3527  0.3329
18618SOL    HW157295   6.732   5.855   6.743  0.9397 -1.2625 -1.1817
18618SOL    HW257296   6.710   5.893   6.598 -1.6671 -0.8277 -0.7247
18619SOL     OW57297   0.034   0.180   8.503  0.5049  0.2338 -0.0875
18619SOL    HW157298   0.095   0.210   8.571  0.9910 -3.5981  1.3740
18619SOL    HW257299   0.007   0.093   8.531 -3.8177  0.7099 -1.9591
18620SOL     OW57300   6.508   0.594   2.162 -0.6771 -0.5421 -0.4533
18620SOL    HW157301   6.529   0.526   2.226 -1.3669 -2.1813 -1.8673
18620SOL    HW257302   6.509   0.548   2.078 -0.2778  1.4246 -1.5864
18621SOL     OW57303   1.624   6.172   8.652  0.4218 -0.0716 -0.2527
18621SOL    HW157304   1.635   6.267   8.654 -0.2752  0.0387 -1.2733
18621SOL    HW257305   1.539   6.157   8.692 -0.1378 -0.1356 -1.4297
18622SOL     OW57306   0.156   4.187   5.018  0.3510  0.3522  0.2584
18622SOL    HW157307   0.215   4.251   5.059  2.9317 -0.9570 -1.1668
18622SOL    HW257308   0.192   4.176   4.930 -1.5961 -1.1477 -0.3968
18623SOL     OW57309   1.388   2.764   5.195 -0.1936 -0.3802 -0.0075
18623SOL    HW157310   1.292   2.773   5.194 -0.3844 -2.0717 -1.2819
18623SOL    HW257311   1.407   2.711   5.272 -0.3707 -0.6748 -0.1632
18624SOL     OW57312   1.202   6.532   0.514 -0.1302 -0.3265  0.1466
18624SOL    HW157313   1.284   6.482   0.512 -1.0842 -1.9636 -0.3836
18624SOL    HW257314   1.213   6.594   0.586  1.2247 -1.1422  0.6808
18625SOL     OW57315   7.056   4.296   1.407  0.4534 -0.1236 -0.1563
18625SOL    HW157316   6.976   4.244   1.406  0.2006  0.2605 -1.3906
18625SOL    HW257317   7.103   4.266   1.485  1.2861 -3.7131 -1.8035
18626SOL     OW57318   7.834   2.838   1.881  0.1552  0.8824  0.2669
18626SOL    HW157319   7.758   2.880   1.841 -0.8705 -0.6885  0.4811
18626SOL    HW257320   7.798   2.789   1.956  1.2127 -0.6080 -0.1443
18627SOL     OW57321   5.993   3.869   2.924 -0.4634 -0.1859  0.3956
18627SOL    HW157322   5.945   3.827   2.854  1.6241  0.7415 -1.7358
18627SOL    HW257323   6.068   3.812   2.940  1.7845  1.9278 -1.7473
18628SOL     OW57324   6.476   4.925   6.606  0.5773  0.0695  0.0818
18628SOL    HW157325   6.549   4.882   6.651  1.8521  0.3355 -1.6469
18628SOL    HW257326   6.491   5.018   6.619  0.5310  0.1246 -0.2624
18629SOL     OW57327   7.452   0.026   9.542 -0.1221  0.1368 -0.4635
18629SOL    HW157328   7.393   0.061   9.609 -1.4312 -0.4653 -1.2575
18629SOL    HW257329   7.539   0.051   9.572 -0.6370 -0.3129  1.6014
18630SOL     OW57330   2.238   3.318   9.425  0.5409  0.2750  0.3832
18630SOL    HW157331   2.151   3.356   9.417  0.4281  0.0628  0.6022
18630SOL    HW257332   2.259   3.324   9.518  0.6284  0.0402  0.3785
18631SOL     OW57333   4.159   4.930   0.578  0.0156 -0.5250  0.2345
18631SOL    HW157334   4.122   4.966   0.498 -0.1252 -0.4637  0.3263
18631SOL    HW257335   4.143   4.836   0.571  2.1753 -0.8727 -0.9537
18632SOL     OW57336   1.563   4.757   4.189  0.0498 -0.4873 -0.1304
18632SOL    HW157337   1.650   4.793   4.208 -0.1749  0.5241 -0.9011
18632SOL    HW257338   1.564   4.742   4.095 -0.6465 -0.3607 -0.1623
18633SOL     OW57339   2.287   6.501   7.086 -0.0362 -0.1051 -0.2205
18633SOL    HW157340   2.220   6.537   7.145  0.3667 -0.6319  0.5745
18633SOL    HW257341   2.239   6.480   7.006 -1.1553 -1.9028  0.8565
18634SOL     OW57342   4.693   1.875   3.910 -0.6784 -0.1653  0.6199
18634SOL    HW157343   4.599   1.875   3.894 -0.4430  1.1228 -1.0656
18634SOL    HW257344   4.707   1.804   3.972 -2.7144 -0.5621  0.6938
18635SOL     OW57345   2.995   6.341   3.330  0.2324  0.8402  0.2326
18635SOL    HW157346   3.019   6.387   3.250  0.3726 -1.0376 -0.8476
18635SOL    HW257347   2.900   6.355   3.338  0.1451  0.6931 -0.4967
18636SOL     OW57348   4.621   4.461  11.094  0.0685 -0.0793 -0.7124
18636SOL    HW157349   4.564   4.387  11.075  1.0179 -1.2105  0.6003
18636SOL    HW257350   4.683   4.427  11.158  0.3746  1.9369  0.1344
18637SOL     OW57351   1.417   5.134   6.549 -0.1974  0.0742  0.1880
18637SOL    HW157352   1.362   5.164   6.478  1.2920 -0.0224 -1.0498
18637SOL    HW257353   1.498   5.184   6.541  0.1121 -0.1266  1.6592
18638SOL     OW57354   6.596   4.808  10.092  0.1552 -0.2443 -0.3846
18638SOL    HW157355   6.507   4.795  10.060 -0.1981  1.3219 -0.1327
18638SOL    HW257356   6.605   4.903  10.099  2.4526 -0.2671 -2.0524
18639SOL     OW57357   3.998   4.611   6.661 -0.6092  0.2278 -0.9273
18639SOL    HW157358   3.976   4.625   6.753 -0.4994  0.8190 -0.9911
18639SOL    HW257359   4.049   4.529   6.661 -0.8910  0.0505 -0.5091
18640SOL     OW57360   5.918   4.423  10.093 -0.0897  0.0858  0.0679
18640SOL    HW157361   5.834   4.384  10.068  0.7840 -2.9912  1.4265
18640SOL    HW257362   5.955   4.455  10.010 -1.1243 -1.6150 -1.1234
18641SOL     OW57363   6.454   5.317   1.044  0.4222 -0.5493 -0.3894
18641SOL    HW157364   6.427   5.247   1.104  0.7663 -1.6814 -1.5062
18641SOL    HW257365   6.467   5.273   0.961 -0.2624  1.0296 -1.3741
18642SOL     OW57366   3.625   7.472   9.836 -0.1661 -0.5024  0.1570
18642SOL    HW157367   3.711   7.487   9.875  0.6498 -1.5882 -1.1418
18642SOL    HW257368   3.639   7.484   9.742 -1.5600 -0.1618 -0.0241
18643SOL     OW57369   3.718   2.253   1.102  0.6590  0.4380 -0.4158
18643SOL    HW157370   3.626   2.225   1.096 -0.0789  2.4333  0.6708
18643SOL    HW257371   3.759   2.218   1.023 -0.9606 -0.7507 -0.7790
18644SOL     OW57372   4.654   0.588   9.043 -0.0208 -0.1188 -0.6870
18644SOL    HW157373   4.733   0.565   8.994 -1.3012 -0.8990 -2.4705
18644SOL    HW257374   4.662   0.683   9.058  2.4175 -0.5512  1.4253
18645SOL     OW57375   0.969   7.195   6.921 -0.7952  0.2563 -0.9388
18645SOL    HW157376   1.029   7.164   6.853 -0.6328 -0.3551 -0.5259
18645SOL    HW257377   1.023   7.253   6.975 -0.9574  0.8417 -1.3969
18646SOL     OW57378   3.331   1.609   7.596 -0.0644  0.7523 -0.0991
18646SOL    HW157379   3.245   1.643   7.570 -0.7815 -0.4662  0.5885
18646SOL    HW257380   3.390   1.638   7.526 -1.3200  0.2950 -1.4119
18647SOL     OW57381   0.624   2.708   7.336  0.1726 -0.5085 -0.2621
18647SOL    HW157382   0.580   2.767   7.275 -1.8154 -2.2007 -0.5703
18647SOL    HW257383   0.578   2.721   7.419 -0.1525 -1.4515 -0.2840
18648SOL     OW57384   2.599   7.030   2.225  0.0533 -0.0321 -0.4512
18648SOL    HW157385   2.576   6.939   2.208 -0.9251  0.3567 -1.2674
18648SOL    HW257386   2.540   7.081   2.171  0.1321  1.1264  0.5022
18649SOL     OW57387   4.302   0.357   6.605 -0.0797  0.2145  0.1146
18649SOL    HW157388   4.340   0.269   6.608 -1.6719 -0.4628  2.1425
18649SOL    HW257389   4.355   0.408   6.665 -0.0912  0.2608  0.0852
18650SOL     OW57390   5.797   4.662   4.950  0.3169 -0.0781 -0.3937
18650SOL    HW157391   5.844   4.735   4.990  0.8343  0.1888 -1.4398
18650SOL    HW257392   5.860   4.590   4.951  0.1353 -0.2318 -0.1985
18651SOL     OW57393   2.319   5.840  12.309  0.3523 -0.1983  0.5231
18651SOL    HW157394   2.284   5.926  12.289 -0.3930 -0.6335 -0.0701
18651SOL    HW257395   2.321   5.794  12.226  1.2075 -0.6026  0.7486
18652SOL     OW57396   7.032   0.464   9.055  0.6437  0.3976  0.6154
18652SOL    HW157397   7.078   0.386   9.088 -1.0017 -1.1257 -0.4646
18652SOL    HW257398   7.088   0.497   8.985  1.7113  0.6531  1.5575
18653SOL     OW57399   6.297   3.112   3.822 -0.2410 -0.3280 -0.0754
18653SOL    HW157400   6.327   3.166   3.896  0.9391 -1.8658  0.6155
18653SOL    HW257401   6.333   3.155   3.745  0.9365 -0.2571  0.4864
18654SOL     OW57402   5.501   4.907   2.937 -0.0039 -0.1069  0.6316
18654SOL    HW157403   5.546   4.992   2.933 -0.5130  0.1511  0.3059
18654SOL    HW257404   5.442   4.915   3.012 -1.2427  0.4353 -0.3588
18655SOL     OW57405   2.379   0.327   3.467 -0.2735  0.3702  0.1493
18655SOL    HW157406   2.388   0.421   3.486 -0.7399  0.6245 -0.8531
18655SOL    HW257407   2.335   0.291   3.544 -1.2271  1.2000  0.0019
18656SOL     OW57408   4.567   4.358   3.991 -0.4720 -0.1390  0.0693
18656SOL    HW157409   4.594   4.349   3.899 -0.6805 -0.8067  0.0646
18656SOL    HW257410   4.576   4.451   4.010  0.4622 -0.1318 -0.3515
18657SOL     OW57411   7.160   0.229   3.260  0.0065  0.1333  0.3284
18657SOL    HW157412   7.163   0.317   3.224  0.7116 -0.5229 -1.2903
18657SOL    HW257413   7.248   0.213   3.294  0.3256 -0.4914 -0.7681
18658SOL     OW57414   6.352   5.825   2.997 -0.0934 -0.3583  0.1023
18658SOL    HW157415   6.388   5.858   2.914 -1.3080  0.4431 -0.1235
18658SOL    HW257416   6.425   5.834   3.059  0.4072  0.3461 -0.5558
18659SOL     OW57417   0.357   0.450   0.467 -0.1193 -0.1973 -0.2560
18659SOL    HW157418   0.351   0.523   0.406  1.0634 -0.1983 -0.3940
18659SOL    HW257419   0.443   0.459   0.508  0.0150 -1.4594 -0.2130
18660SOL     OW57420   5.493   7.341   4.059  0.2621 -0.0582 -0.3274
18660SOL    HW157421   5.582   7.361   4.030 -0.0785  0.1382 -1.2508
18660SOL    HW257422   5.451   7.303   3.983 -0.6581  0.5087 -0.1117
18661SOL     OW57423   5.113   5.566   0.661 -0.5553 -0.8030  0.3758
18661SOL    HW157424   5.122   5.569   0.756  0.4286 -1.3510  0.3079
18661SOL    HW257425   5.140   5.653   0.632 -1.9130 -0.2587  0.6578
18662SOL     OW57426   6.144   6.970  10.167  1.0048  0.0539 -0.0364
18662SOL    HW157427   6.079   6.956  10.236  0.5072  0.8813 -0.3167
18662SOL    HW257428   6.116   6.912  10.096  2.4379 -2.0123  1.0134
18663SOL     OW57429   4.344   0.440   2.437 -0.2630  1.0047 -0.4316
18663SOL    HW157430   4.347   0.382   2.361 -1.2781 -1.4122  1.2348
18663SOL    HW257431   4.432   0.435   2.475  0.1752  2.0288 -1.2637
18664SOL     OW57432   2.541   2.643   6.814 -0.3358 -1.0592  0.2299
18664SOL    HW157433   2.498   2.599   6.888 -1.0050 -2.4759 -0.9449
18664SOL    HW257434   2.613   2.691   6.853 -1.5595 -0.5415  1.9903
18665SOL     OW57435   1.682   0.932   7.760  0.5226  0.7040  0.2318
18665SOL    HW157436   1.748   0.866   7.781  0.7772  1.0763  0.6198
18665SOL    HW257437   1.724   0.990   7.697  0.7494  1.2378  0.8662
18666SOL     OW57438   5.493   7.453  11.436  0.0073 -0.2461 -0.4509
18666SOL    HW157439   5.493   7.397  11.359  0.4077  0.9851 -1.3710
18666SOL    HW257440   5.561   7.417  11.493  0.4985 -0.4784 -1.1789
18667SOL     OW57441   6.085   7.450   3.567  0.0544  0.1557 -0.2810
18667SOL    HW157442   6.000   7.415   3.539 -0.0254  1.8398 -2.4613
18667SOL    HW257443   6.140   7.373   3.578 -1.1879 -0.8667 -0.9639
18668SOL     OW57444   4.197   1.857  10.353  0.0845  0.4882  0.2499
18668SOL    HW157445   4.241   1.786  10.307 -2.2084 -1.9395  1.5326
18668SOL    HW257446   4.269   1.911  10.386  1.9298 -0.8711 -1.2841
18669SOL     OW57447   4.247   1.464   1.443 -0.3307 -0.0810 -0.0399
18669SOL    HW157448   4.268   1.447   1.535 -0.7254  0.0372  0.0733
18669SOL    HW257449   4.328   1.501   1.407 -0.3039  0.2733  0.3697
18670SOL     OW57450   5.166   2.103   5.950  0.4107 -0.3030  0.6676
18670SOL    HW157451   5.165   2.197   5.930 -0.8980 -0.3745  0.2634
18670SOL    HW257452   5.257   2.077   5.938  0.3963  0.4528 -1.5408
18671SOL     OW57453   5.178   3.623  11.451 -0.4462 -0.9296  0.6126
18671SOL    HW157454   5.086   3.646  11.437  0.0097  0.0138 -1.0728
18671SOL    HW257455   5.186   3.615  11.546 -2.1617 -0.5761  0.8276
18672SOL     OW57456   2.974   4.112   2.635  0.3658  0.0237 -0.1793
18672SOL    HW157457   2.970   4.146   2.546 -0.9570  2.9674  0.9105
18672SOL    HW257458   3.067   4.114   2.657  0.4634  1.9506 -0.5916
18673SOL     OW57459   5.072   1.483   1.181  0.0767 -0.0145 -0.0886
18673SOL    HW157460   5.148   1.434   1.150 -1.2839 -1.2384 -1.6162
18673SOL    HW257461   5.006   1.417   1.199 -0.7879  1.0583  0.8415
18674SOL     OW57462   5.789   0.779   8.161 -0.7414 -0.1976  0.3458
18674SOL    HW157463   5.878   0.795   8.195 -0.2640 -2.3962  0.2933
18674SOL    HW257464   5.781   0.839   8.087  0.4401  0.5236  0.7642
18675SOL     OW57465   7.784   0.508   9.437 -0.2712  0.9619 -0.1844
18675SOL    HW157466   7.849   0.503   9.366  0.0696 -0.3119  0.1846
18675SOL    HW257467   7.705   0.540   9.394 -0.1794 -0.1290 -1.2317
18676SOL     OW57468   0.419   2.452   9.933  0.3375 -0.1985  0.2240
18676SOL    HW157469   0.326   2.474   9.938  0.0354 -0.6542 -2.2796
18676SOL    HW257470   0.463   2.536   9.921  0.0750 -0.1218 -0.2233
18677SOL     OW57471   6.976   1.988  10.351 -0.1591 -0.7501 -0.1450
18677SOL    HW157472   7.010   2.075  10.329 -1.4241  0.0234  0.8383
18677SOL    HW257473   7.025   1.928  10.294  0.2591  0.6622 -1.3244
18678SOL     OW57474   1.665   5.947   8.903  0.3406 -0.2799 -0.5727
18678SOL    HW157475   1.593   5.889   8.879 -0.4036  0.1916  0.4544
18678SOL    HW257476   1.734   5.926   8.841  0.3065 -2.6733  0.1059
18679SOL     OW57477   6.187   1.484   7.723 -0.4764  0.2311  0.1318
18679SOL    HW157478   6.210   1.569   7.686 -1.4913  0.9369  1.0867
18679SOL    HW257479   6.266   1.456   7.769 -0.1531  0.6679 -0.1471
18680SOL     OW57480   6.680   1.770   0.434 -0.3785 -0.5451 -0.6648
18680SOL    HW157481   6.610   1.762   0.370 -0.0209 -2.1484 -0.9102
18680SOL    HW257482   6.663   1.701   0.498  1.2067 -1.2986 -0.9954
18681SOL     OW57483   4.808   0.975   7.803 -0.2174  0.2611 -0.5052
18681SOL    HW157484   4.858   0.918   7.743  0.1298 -0.1001  0.1095
18681SOL    HW257485   4.749   1.023   7.746 -1.8649 -2.0590 -0.9086
18682SOL     OW57486   6.513   0.010   1.625  0.3222  0.1022  0.5239
18682SOL    HW157487   6.491   0.049   1.540  3.3581  2.1796  0.5237
18682SOL    HW257488   6.447   0.046   1.685 -0.5309  0.3997 -0.5499
18683SOL     OW57489   4.061   6.703  12.193 -0.1608 -0.0661 -0.0429
18683SOL    HW157490   4.042   6.795  12.212 -1.4795 -0.0713 -1.1739
18683SOL    HW257491   4.016   6.686  12.110 -1.2081 -2.1481  0.8835
18684SOL     OW57492   3.459   5.970  10.149  0.7260 -0.3619 -0.0590
18684SOL    HW157493   3.410   5.909  10.094  1.0081 -0.6333 -0.0146
18684SOL    HW257494   3.417   5.965  10.235  1.2610 -1.1168  0.1645
18685SOL     OW57495   7.210   0.621   3.443 -0.0698  1.0290  0.3809
18685SOL    HW157496   7.151   0.546   3.453  0.1712  0.7377 -0.3488
18685SOL    HW257497   7.167   0.691   3.493 -0.0054  0.2612  1.5643
18686SOL     OW57498   2.233   3.964   4.300  0.2398  0.2905  0.3545
18686SOL    HW157499   2.219   3.891   4.240 -0.6843 -0.0787  0.9728
18686SOL    HW257500   2.309   4.010   4.266  0.8585 -0.9766 -0.0430
18687SOL     OW57501   4.294   1.762   3.229  0.0604  0.0867 -0.6087
18687SOL    HW157502   4.352   1.692   3.257 -0.8887 -0.5796 -0.2425
18687SOL    HW257503   4.349   1.820   3.177  1.7834  1.0680  2.0866
18688SOL     OW57504   3.848   3.060   5.241  0.4516  0.1445  0.4129
18688SOL    HW157505   3.893   3.144   5.245  0.1829  0.3536 -0.6653
18688SOL    HW257506   3.759   3.082   5.213  0.9625 -0.6665 -2.0638
18689SOL     OW57507   2.736   5.107   3.944 -0.0761 -0.6614  0.3752
18689SOL    HW157508   2.677   5.113   4.019 -0.6808  1.5678 -0.1876
18689SOL    HW257509   2.683   5.072   3.874 -1.1243  2.1838 -0.3799
18690SOL     OW57510   3.187   7.491   2.175 -0.0394  0.4435  0.0808
18690SOL    HW157511   3.246   7.508   2.248 -0.2934 -2.2154  1.0035
18690SOL    HW257512   3.100   7.514   2.208 -0.1093 -0.4321  0.5505
18691SOL     OW57513   1.961   1.040   8.757  0.1653 -0.5469 -0.1679
18691SOL    HW157514   1.934   1.044   8.665  1.4802  1.0361 -0.5256
18691SOL    HW257515   2.039   1.094   8.761 -0.4198  0.2078  2.0975
18692SOL     OW57516   6.634   6.334   0.867 -0.8598 -0.1363 -0.9143
18692SOL    HW157517   6.613   6.241   0.877  0.1053 -0.4031 -1.2594
18692SOL    HW257518   6.564   6.379   0.914 -1.2502 -1.0432 -0.5952
18693SOL     OW57519   2.881   3.961   0.704 -0.0944 -0.3725 -0.0647
18693SOL    HW157520   2.839   4.030   0.756 -0.5264 -1.6564  1.3280
18693SOL    HW257521   2.852   3.979   0.614 -0.6613  0.9099  0.3460
18694SOL     OW57522   5.738   5.709   6.699 -0.3079  0.1671  0.2337
18694SOL    HW157523   5.794   5.761   6.757  1.7840 -2.4593  0.7410
18694SOL    HW257524   5.741   5.621   6.734  0.3079 -1.3723 -3.2678
18695SOL     OW57525   6.925   6.556   7.141 -0.0281 -0.1565 -0.0153
18695SOL    HW157526   6.966   6.504   7.209 -0.8684 -0.2236  0.4541
18695SOL    HW257527   6.873   6.621   7.188 -0.4780 -0.0888 -0.5857
18696SOL     OW57528   5.423   3.298   5.900 -0.3906 -0.5134 -0.2278
18696SOL    HW157529   5.408   3.269   5.990 -2.6699 -2.2747 -1.0863
18696SOL    HW257530   5.391   3.388   5.897  1.1479  0.1240  1.0326
18697SOL     OW57531   6.899   7.494   7.333 -0.1459 -0.1802 -0.0950
18697SOL    HW157532   6.961   7.525   7.400 -0.4500 -0.6348  0.4022
18697SOL    HW257533   6.940   7.415   7.298  1.0532  1.1889 -1.9761
18698SOL     OW57534   3.687   3.869   2.705 -0.1360 -0.5283 -0.3543
18698SOL    HW157535   3.600   3.854   2.668 -0.4997 -0.5419  0.4744
18698SOL    HW257536   3.744   3.812   2.654 -0.9360 -2.0525  0.3774
18699SOL     OW57537   2.288   7.846   7.046 -0.1696 -0.0177  0.0481
18699SOL    HW157538   2.369   7.898   7.047 -0.3284  0.2555 -0.7454
18699SOL    HW257539   2.311   7.767   6.997 -0.2077 -0.2524  0.3996
18700SOL     OW57540   7.103   2.051  10.011 -0.0996 -0.1262 -0.1400
18700SOL    HW157541   7.142   2.048   9.924 -1.1833 -1.7725 -0.6042
18700SOL    HW257542   7.127   1.967  10.051  0.1668  0.5027  1.0748
18701SOL     OW57543   6.784   6.281   7.664 -0.2375 -0.3240 -0.4315
18701SOL    HW157544   6.699   6.238   7.670 -0.2754 -0.1205  0.8622
18701SOL    HW257545   6.795   6.302   7.571 -1.9945  0.4578 -0.4839
18702SOL     OW57546   4.625   2.575  11.153 -0.0085  0.4227 -0.1419
18702SOL    HW157547   4.656   2.488  11.128 -1.1572  0.2446 -1.0641
18702SOL    HW257548   4.607   2.568  11.247  0.3404 -0.2000 -0.1135
18703SOL     OW57549   0.510   0.176   7.789  0.5068  0.8422 -0.2895
18703SOL    HW157550   0.520   0.264   7.753 -0.9426  1.4666  0.6929
18703SOL    HW257551   0.530   0.186   7.882 -2.2033  0.7923  0.3998
18704SOL     OW57552   1.843   1.710   4.863  0.4620 -0.1454  0.0523
18704SOL    HW157553   1.924   1.761   4.857 -1.4337  3.1058 -0.6851
18704SOL    HW257554   1.795   1.735   4.784 -2.0319 -0.4255  1.3941
18705SOL     OW57555   3.045   1.036   8.415  0.3494  0.4272  0.1650
18705SOL    HW157556   3.060   1.122   8.456  1.0440  0.6070 -0.4512
18705SOL    HW257557   3.132   0.997   8.409  0.0587 -0.2374  0.2477
18706SOL     OW57558   7.075   3.983   7.667 -0.2979 -0.1471  0.3182
18706SOL    HW157559   6.980   3.972   7.667 -0.3285  0.0275 -0.6121
18706SOL    HW257560   7.104   3.937   7.588  0.0714  2.2426 -1.0316
18707SOL     OW57561   2.589   5.213   9.756  0.4877  0.5153 -0.0032
18707SOL    HW157562   2.589   5.208   9.852  0.3944 -0.5218 -0.0368
18707SOL    HW257563   2.558   5.126   9.729  0.4796  0.8177 -0.9712
18708SOL     OW57564   5.625   7.453  11.692 -0.0449 -0.1461 -0.0149
18708SOL    HW157565   5.705   7.413  11.726  0.1436 -0.0706 -0.3570
18708SOL    HW257566   5.634   7.547  11.711  1.0221  0.2193 -2.0650
18709SOL     OW57567   5.180   0.974   5.185 -0.2583 -0.0048 -0.0729
18709SOL    HW157568   5.266   0.978   5.142 -1.1653 -1.5877 -2.2371
18709SOL    HW257569   5.149   1.065   5.185  1.4163  0.6134  0.8638
18710SOL     OW57570   4.000   6.393   8.323 -0.4692  0.0578  0.1527
18710SOL    HW157571   4.072   6.370   8.381  0.2812 -0.3976 -0.9299
18710SOL    HW257572   4.040   6.404   8.237 -1.9140 -2.2290 -0.9168
18711SOL     OW57573   4.787   0.894   3.989  0.7163  0.1894  0.4004
18711SOL    HW157574   4.740   0.934   3.915 -0.5478 -1.2064  0.3871
18711SOL    HW257575   4.879   0.909   3.969  0.3540  1.9282 -0.2282
18712SOL     OW57576   2.113   3.593  10.128  0.3559 -0.3814  0.1861
18712SOL    HW157577   2.120   3.584  10.223  1.1686  0.0815  0.1849
18712SOL    HW257578   2.202   3.577  10.096 -0.2017 -2.0028 -0.6450
18713SOL     OW57579   3.513   7.131   3.837 -0.0986 -0.7909  0.4855
18713SOL    HW157580   3.538   7.218   3.803 -0.1949 -0.9441  0.0161
18713SOL    HW257581   3.561   7.069   3.781 -1.5043 -1.0931 -0.4422
18714SOL     OW57582   7.772   5.644   8.806 -0.2513  0.0327 -0.2510
18714SOL    HW157583   7.720   5.564   8.803 -1.1729  0.6538 -2.1499
18714SOL    HW257584   7.862   5.614   8.814 -0.6049 -1.2012 -0.7571
18715SOL     OW57585   2.972   5.037   3.823 -0.1463  0.0860  0.8077
18715SOL    HW157586   3.037   5.018   3.892 -0.9528 -1.5575  1.1762
18715SOL    HW257587   2.890   5.049   3.871  0.1050  4.2417  0.5467
18716SOL     OW57588   3.290   0.910   6.142  0.0169  0.1570 -0.1276
18716SOL    HW157589   3.270   0.926   6.050  0.7750  1.1127 -0.1456
18716SOL    HW257590   3.215   0.946   6.190  0.5654  1.5533 -0.2908
18717SOL     OW57591   7.525   7.415   4.986  0.3054 -0.1925  0.4331
18717SOL    HW157592   7.472   7.336   4.991 -1.2733  0.5503 -2.3891
18717SOL    HW257593   7.609   7.386   4.952 -0.7459 -0.5735 -2.0280
18718SOL     OW57594   6.669   1.100  10.148  0.0850  0.3458 -0.6995
18718SOL    HW157595   6.715   1.042  10.210 -0.3989 -0.3273 -0.9613
18718SOL    HW257596   6.579   1.103  10.180  0.2128  1.3464 -0.4169
18719SOL     OW57597   7.245   5.955   4.734 -0.1690  0.1501 -0.0015
18719SOL    HW157598   7.311   5.890   4.756  1.1698  1.4976  0.1292
18719SOL    HW257599   7.292   6.038   4.734 -1.7123  1.0719 -0.6659
18720SOL     OW57600   2.272   4.008  10.602  0.5569  0.4319  0.1166
18720SOL    HW157601   2.227   4.037  10.523 -0.9693 -1.0678  0.3730
18720SOL    HW257602   2.307   4.088  10.641 -0.8321  1.5118 -0.7695
18721SOL     OW57603   4.153   5.715  12.071  0.2471 -0.4096 -0.3093
18721SOL    HW157604   4.138   5.767  11.992 -1.6144 -1.0811 -0.4422
18721SOL    HW257605   4.104   5.634  12.057  2.3535 -1.8749  0.2664
18722SOL     OW57606   4.582   7.855   0.447 -0.0225  0.0508  0.1166
18722SOL    HW157607   4.646   7.924   0.467  0.5161 -0.5698  0.6002
18722SOL    HW257608   4.510   7.901   0.404  1.5313  0.5470 -2.1666
18723SOL     OW57609   4.716   2.582   2.897  0.4301 -0.4414 -0.7032
18723SOL    HW157610   4.688   2.518   2.962  0.6320 -0.4897 -0.6634
18723SOL    HW257611   4.637   2.601   2.847 -0.0110  0.4799  0.3095
18724SOL     OW57612   5.207   4.734   2.458 -0.0266  0.8173  0.5756
18724SOL    HW157613   5.188   4.803   2.394 -1.4685 -0.6382 -0.6694
18724SOL    HW257614   5.245   4.663   2.406 -0.7844 -0.2327  1.4076
18725SOL     OW57615   1.577   7.897   8.623  0.4910 -0.0880 -0.0523
18725SOL    HW157616   1.543   7.969   8.569 -2.9718 -0.6802  1.0605
18725SOL    HW257617   1.644   7.937   8.678 -1.8629  2.6046  1.1031
18726SOL     OW57618   4.236   0.703   8.430 -0.2016  0.0148  0.5253
18726SOL    HW157619   4.200   0.791   8.423 -1.6453 -0.4909  1.3434
18726SOL    HW257620   4.278   0.701   8.516  2.8912  0.9469 -0.8267
18727SOL     OW57621   4.021   7.657   1.392  0.5127  0.0898 -0.3836
18727SOL    HW157622   3.983   7.734   1.351 -0.3804 -0.3664 -0.4433
18727SOL    HW257623   3.955   7.589   1.381  0.8537 -0.4181  0.5634
18728SOL     OW57624   0.096   0.300  11.151 -0.1910  0.1633 -0.1766
18728SOL    HW157625   0.088   0.297  11.246  0.0997 -1.5140 -0.1632
18728SOL    HW257626   0.065   0.214  11.122  1.4739 -0.0747 -1.4324
18729SOL     OW57627   5.141   6.434   5.568  0.4278  0.0179  0.0167
18729SOL    HW157628   5.203   6.504   5.591 -0.2723  0.5533  0.3079
18729SOL    HW257629   5.178   6.395   5.489  1.8615 -0.5796  0.9359
18730SOL     OW57630   4.028   2.510  10.079  0.2782 -0.4394  0.4567
18730SOL    HW157631   4.093   2.441  10.088  0.8768 -0.0685 -0.7847
18730SOL    HW257632   4.078   2.589  10.062 -0.4236  0.2322  1.3955
18731SOL     OW57633   6.832   4.498   2.185 -0.0015  0.0851 -0.1620
18731SOL    HW157634   6.826   4.578   2.237 -1.3924 -1.4240  2.1970
18731SOL    HW257635   6.922   4.467   2.200 -0.1707  0.0327  0.8086
18732SOL     OW57636   4.919   0.720   2.245 -0.1990 -0.4014  0.1296
18732SOL    HW157637   4.911   0.783   2.173 -2.5415  0.4157  0.9930
18732SOL    HW257638   4.857   0.650   2.221 -2.6886  0.9063  2.2279
18733SOL     OW57639   5.127   4.594   9.040  0.5245  0.4979 -0.6236
18733SOL    HW157640   5.163   4.513   9.004  0.8648 -0.9260  2.5683
18733SOL    HW257641   5.203   4.638   9.079 -0.3285 -0.3530  2.2622
18734SOL     OW57642   6.609   6.418   5.445 -0.1895  0.4169 -0.1201
18734SOL    HW157643   6.603   6.513   5.437  3.5002  0.7328 -0.9074
18734SOL    HW257644   6.703   6.400   5.450 -0.7269 -3.2284 -0.3123
18735SOL     OW57645   6.331   4.815   9.739  0.0225  0.2936 -0.3010
18735SOL    HW157646   6.353   4.726   9.766  1.6188  0.7602  0.0565
18735SOL    HW257647   6.362   4.821   9.648  0.2639  0.5841 -0.2024
18736SOL     OW57648   7.611   4.810  11.010 -0.7387 -0.7521  0.3194
18736SOL    HW157649   7.516   4.794  11.009 -0.9550  0.1951 -2.3649
18736SOL    HW257650   7.649   4.728  10.979 -0.6457 -1.1443  1.4305
18737SOL     OW57651   2.124   0.735   2.809  0.0876 -0.2694 -0.2371
18737SOL    HW157652   2.154   0.702   2.724 -1.9917 -0.0216 -1.1292
18737SOL    HW257653   2.132   0.830   2.803 -1.1890 -0.1705 -0.6508
18738SOL     OW57654   3.207   4.891   5.701 -0.5434  1.0000  0.0369
18738SOL    HW157655   3.166   4.828   5.642  0.3244 -0.5164  0.9769
18738SOL    HW257656   3.287   4.918   5.656 -1.0616  1.6984 -0.4971
18739SOL     OW57657   3.298   4.047  11.306 -0.0309 -0.6371 -0.2703
18739SOL    HW157658   3.342   3.999  11.376  1.4254 -0.2854 -0.9028
18739SOL    HW257659   3.368   4.070  11.245 -0.7007  1.9737 -0.1722
18740SOL     OW57660   7.799   7.425   6.798 -1.1864  0.0999 -0.0622
18740SOL    HW157661   7.826   7.473   6.720 -1.1713  0.4222  0.1362
18740SOL    HW257662   7.849   7.466   6.869 -0.2719 -0.9992 -0.0503
18741SOL     OW57663   6.711   5.471   2.608  0.3609 -0.4840  0.0018
18741SOL    HW157664   6.806   5.469   2.597  0.4674 -1.4076  0.9615
18741SOL    HW257665   6.693   5.407   2.677 -1.0349 -0.9219 -0.7145
18742SOL     OW57666   7.152   6.129   5.896  0.2444  0.1300 -0.4559
18742SOL    HW157667   7.224   6.082   5.938  2.3062  2.4393 -1.1292
18742SOL    HW257668   7.131   6.200   5.957  0.7297  1.3150 -1.6059
18743SOL     OW57669   3.924   5.747   5.766 -0.4800  0.3938  0.5827
18743SOL    HW157670   3.936   5.841   5.756  0.8243  0.4941  2.4865
18743SOL    HW257671   4.005   5.709   5.734 -1.6711 -0.3040 -1.8803
18744SOL     OW57672   6.740   2.923   4.861 -0.2111 -0.1017 -0.1193
18744SOL    HW157673   6.707   2.836   4.882 -0.1706 -0.0659  0.0941
18744SOL    HW257674   6.743   2.969   4.945 -0.7877  0.2996 -0.3067
18745SOL     OW57675   1.869   3.461   5.406  0.3971  0.0316  0.1236
18745SOL    HW157676   1.890   3.540   5.356 -1.5015  1.1194  0.9252
18745SOL    HW257677   1.843   3.494   5.492 -1.8012 -1.3172  0.0420
18746SOL     OW57678   3.855   0.079   2.366  0.0082  0.3381  0.1555
18746SOL    HW157679   3.925   0.131   2.405  0.1362  0.0542  0.3100
18746SOL    HW257680   3.811   0.138   2.305  0.8332  0.3012 -0.4751
18747SOL     OW57681   0.132   5.780   0.562 -0.2709  0.2689 -1.2669
18747SOL    HW157682   0.145   5.695   0.519 -0.0775 -1.3960  1.8315
18747SOL    HW257683   0.041   5.779   0.590 -0.4730  1.4480 -1.8049
18748SOL     OW57684   1.029   7.209  11.001  1.1198  0.2725 -0.3644
18748SOL    HW157685   1.076   7.141  11.049  0.2390  0.7543  1.2553
18748SOL    HW257686   1.091   7.283  10.996  1.1006  0.3336  0.3193
18749SOL     OW57687   4.421   0.104   6.614  0.4087 -0.1409 -0.7026
18749SOL    HW157688   4.501   0.101   6.668 -0.4532  0.6144  0.6691
18749SOL    HW257689   4.428   0.027   6.558  1.2491 -1.1111  0.6502
18750SOL     OW57690   2.566   1.983  10.879  0.2239 -0.1653 -0.1185
18750SOL    HW157691   2.581   2.057  10.937 -0.4243  0.8144 -1.1629
18750SOL    HW257692   2.636   1.990  10.813 -0.8524  0.5784 -1.2248
18751SOL     OW57693   6.768   6.290   1.359  0.2251  0.4497  0.2987
18751SOL    HW157694   6.841   6.299   1.420  0.7349  1.3028 -0.3989
18751SOL    HW257695   6.797   6.222   1.298  1.3339  2.0944 -1.1248
18752SOL     OW57696   4.233   3.509  11.745 -0.0665 -0.0660  0.1196
18752SOL    HW157697   4.322   3.483  11.718 -0.1841 -0.4145  0.0568
18752SOL    HW257698   4.186   3.521  11.663 -0.2586 -0.5321  0.1590
18753SOL     OW57699   0.150   6.357  11.365  0.4512  0.1280  0.3592
18753SOL    HW157700   0.092   6.281  11.356  0.5259  0.2093 -0.9740
18753SOL    HW257701   0.238   6.322  11.352  0.4576  0.4971 -0.6156
18754SOL     OW57702   6.064   3.337   5.984  0.2008 -0.1684  0.4343
18754SOL    HW157703   6.085   3.260   5.932  1.5549 -0.0785  0.8251
18754SOL    HW257704   6.070   3.308   6.075  2.0852  0.6875  0.6270
18755SOL     OW57705   3.916   7.027   0.011  0.6352  0.3085 -0.5714
18755SOL    HW157706   3.870   7.110   0.001 -0.8495 -0.5749 -1.6478
18755SOL    HW257707   3.933   6.998  -0.079 -0.1825 -1.2008 -0.2786
18756SOL     OW57708   2.664   5.819  10.683  0.7303  0.0442  0.3469
18756SOL    HW157709   2.611   5.816  10.763 -0.2471  1.1580 -0.2228
18756SOL    HW257710   2.653   5.732  10.644  2.2525 -0.9624  2.0224
18757SOL     OW57711   6.760   5.029   8.654 -0.4412 -0.3043  0.2051
18757SOL    HW157712   6.739   4.981   8.734 -1.3903  1.6402  1.1759
18757SOL    HW257713   6.676   5.044   8.612  0.1173 -2.2382 -1.8098
18758SOL     OW57714   4.973   1.544   8.465 -0.1673 -0.2673  0.7359
18758SOL    HW157715   5.065   1.545   8.491 -0.0237 -0.7353  0.2722
18758SOL    HW257716   4.971   1.486   8.389 -0.7978 -0.0124  0.5556
18759SOL     OW57717   4.678   4.111   4.116  0.1755 -0.1299 -0.0057
18759SOL    HW157718   4.772   4.132   4.118  0.2964 -0.6447 -0.1306
18759SOL    HW257719   4.641   4.173   4.054  0.2580  0.7540  0.8097
18760SOL     OW57720   0.925   6.903   3.265  0.0244 -0.9008 -0.4202
18760SOL    HW157721   0.856   6.884   3.201 -0.2260 -0.9191 -0.1423
18760SOL    HW257722   0.948   6.995   3.248 -1.6388 -0.1896  0.9746
18761SOL     OW57723   1.165   5.922   9.620 -0.1050  0.2705 -0.7939
18761SOL    HW157724   1.208   5.845   9.657 -0.6200 -0.9126 -2.5463
18761SOL    HW257725   1.218   5.944   9.543 -0.1919  1.4517 -0.5359
18762SOL     OW57726   5.578   1.470   4.557 -0.2108  0.5280 -0.7524
18762SOL    HW157727   5.559   1.464   4.650  1.0730 -0.3610 -0.5244
18762SOL    HW257728   5.495   1.446   4.514 -0.5859  0.1598  0.1603
18763SOL     OW57729   3.615   0.191  10.419  0.0907  0.0143 -0.3167
18763SOL    HW157730   3.613   0.285  10.400  0.0944  0.1053  0.1316
18763SOL    HW257731   3.536   0.175  10.470  0.2677 -0.1619 -0.0988
18764SOL     OW57732   2.996   5.801   6.615 -0.1478  0.4416  0.5719
18764SOL    HW157733   3.072   5.746   6.631  0.3800  0.5578 -1.3010
18764SOL    HW257734   3.012   5.880   6.667  0.6857  0.1947  0.6986
18765SOL     OW57735   4.807   4.634   5.560  0.4330  0.1465  0.0629
18765SOL    HW157736   4.780   4.607   5.648 -0.9555  1.4672  0.0870
18765SOL    HW257737   4.854   4.716   5.574 -0.7567  0.9458 -0.4874
18766SOL     OW57738   5.970   4.841   6.320 -0.0929 -0.1313 -0.1358
18766SOL    HW157739   5.952   4.829   6.226 -2.3559  1.4376  0.0158
18766SOL    HW257740   6.044   4.903   6.322 -0.6233  0.5526 -0.9105
18767SOL     OW57741   5.263   3.759   5.606  0.3214  0.1832  0.0442
18767SOL    HW157742   5.253   3.815   5.529  0.9921 -1.8077 -1.5571
18767SOL    HW257743   5.187   3.701   5.605 -0.4247  1.0383  1.7514
18768SOL     OW57744   7.484   4.445  10.515 -0.5662 -0.1772 -0.2468
18768SOL    HW157745   7.505   4.359  10.478 -0.1534 -0.0775 -0.2508
18768SOL    HW257746   7.483   4.431  10.610 -0.4740 -0.1841 -0.2463
18769SOL     OW57747   3.846   1.725  11.523  0.1419  0.3853  0.7953
18769SOL    HW157748   3.752   1.711  11.528 -0.1788  2.2194  0.5969
18769SOL    HW257749   3.856   1.816  11.493  1.9711  0.3755  1.2136
18770SOL     OW57750   1.938   2.681  11.481 -0.3125  0.3927 -0.0967
18770SOL    HW157751   1.971   2.592  11.467  0.8527  0.7945 -0.0513
18770SOL    HW257752   2.017   2.733  11.497 -0.8477  1.6931 -1.4383
18771SOL     OW57753   7.269   1.749  12.267 -0.1152  0.1707 -0.3475
18771SOL    HW157754   7.319   1.822  12.230  0.4410  0.1345  0.3204
18771SOL    HW257755   7.183   1.757  12.226 -0.8484  2.6143  1.4302
18772SOL     OW57756   2.430   0.820   4.505 -0.6031  0.1399 -0.0100
18772SOL    HW157757   2.490   0.788   4.437  1.2696 -0.5785  1.8788
18772SOL    HW257758   2.410   0.910   4.479 -0.5133 -0.3193 -1.8460
18773SOL     OW57759   3.661   5.203   1.136 -1.0039 -1.1311 -0.3892
18773SOL    HW157760   3.708   5.282   1.110  0.3770 -1.0623  1.9754
18773SOL    HW257761   3.570   5.220   1.113 -0.8317  1.3923  0.4909
18774SOL     OW57762   6.160   3.528  10.502  0.6245 -0.3790  0.0454
18774SOL    HW157763   6.165   3.621  10.525  1.5267 -0.5826  0.7302
18774SOL    HW257764   6.068   3.505  10.513  0.5119  0.2760  0.5244
18775SOL     OW57765   6.053   2.555   3.567 -0.4616 -0.1336 -0.5044
18775SOL    HW157766   6.109   2.479   3.549 -0.0041  0.2093 -0.5587
18775SOL    HW257767   6.072   2.578   3.658 -1.8245 -1.0807  0.0462
18776SOL     OW57768   5.266   1.462   0.700 -0.4668 -0.2229 -0.4671
18776SOL    HW157769   5.283   1.513   0.620  2.9271 -1.1451 -0.4654
18776SOL    HW257770   5.206   1.518   0.750 -0.5255  1.6511 -2.4234
18777SOL     OW57771   5.073   6.444   4.263 -0.2832  0.0587  0.2906
18777SOL    HW157772   5.073   6.359   4.307 -1.0473  0.1993  0.5872
18777SOL    HW257773   5.018   6.431   4.186 -0.4031  0.2813  0.3374
18778SOL     OW57774   6.540   5.358   6.165  0.4884 -0.2368 -0.2039
18778SOL    HW157775   6.533   5.453   6.171 -0.9586  0.0289 -3.8671
18778SOL    HW257776   6.463   5.326   6.213  1.8770  0.2107  2.5443
18779SOL     OW57777   0.694   6.337   0.443  0.0726  0.1820  0.4007
18779SOL    HW157778   0.679   6.251   0.482  0.0192 -0.5998 -1.2321
18779SOL    HW257779   0.747   6.319   0.366  0.0189  1.6184 -0.0062
18780SOL     OW57780   5.099   7.633  11.586 -0.1697  0.1844  0.2877
18780SOL    HW157781   5.186   7.629  11.626 -0.0437  0.2797  0.0256
18780SOL    HW257782   5.093   7.721  11.550  0.6106 -0.5435 -1.8431
18781SOL     OW57783   0.198   2.745  11.274  0.2771  0.6464 -0.3531
18781SOL    HW157784   0.173   2.834  11.247 -0.0351 -0.1102 -2.8373
18781SOL    HW257785   0.115   2.704  11.298  0.3832  0.8968  0.4855
18782SOL     OW57786   1.408   4.365  11.618  0.7917 -0.0474  0.5698
18782SOL    HW157787   1.352   4.421  11.672  0.8602  0.4916  0.0880
18782SOL    HW257788   1.346   4.317  11.563  0.8336  1.7816 -1.1667
18783SOL     OW57789   2.583   7.764   6.754 -0.5016 -0.0867  0.1654
18783SOL    HW157790   2.631   7.831   6.801  0.7874 -0.8412 -0.0427
18783SOL    HW257791   2.570   7.694   6.818 -0.7226 -0.1857  0.0162
18784SOL     OW57792   4.395   5.604   9.688 -0.1183  0.3685 -0.1312
18784SOL    HW157793   4.318   5.598   9.745  0.1102  0.0688  0.1555
18784SOL    HW257794   4.367   5.564   9.606 -0.3238  0.4198 -0.0882
18785SOL     OW57795   0.515   2.681   4.516 -0.3979 -0.2289 -0.4380
18785SOL    HW157796   0.469   2.644   4.441  0.9321 -1.2543 -0.7811
18785SOL    HW257797   0.445   2.703   4.578 -1.4817  0.2527 -1.7849
18786SOL     OW57798   1.218   7.527   5.942  0.0659  0.3016  0.1453
18786SOL    HW157799   1.284   7.591   5.968  1.3414  0.1247 -2.3972
18786SOL    HW257800   1.233   7.452   6.000  2.1612  0.2629 -0.3566
18787SOL     OW57801   1.016   1.846   5.941  0.1077  0.6768  0.1995
18787SOL    HW157802   1.029   1.753   5.925  1.0365  0.9241 -0.5973
18787SOL    HW257803   0.922   1.856   5.955  0.0412 -0.4095  0.5630
18788SOL     OW57804   1.658   7.140   8.792  0.0921 -0.2302  0.2283
18788SOL    HW157805   1.748   7.119   8.814 -0.0788  1.2081  2.6783
18788SOL    HW257806   1.659   7.235   8.775 -1.3873  0.5290  3.5822
18789SOL     OW57807   1.403   4.553   5.325  0.2392  0.1169 -0.3129
18789SOL    HW157808   1.469   4.606   5.370  0.2297 -0.2969  0.1982
18789SOL    HW257809   1.363   4.613   5.262 -1.1351  1.3314  1.5809
18790SOL     OW57810   4.922   4.221   4.111 -0.1319 -0.1023  0.1271
18790SOL    HW157811   5.005   4.197   4.071  0.1083  0.8213  0.0396
18790SOL    HW257812   4.942   4.232   4.204  0.6429  3.2909 -0.3218
18791SOL     OW57813   3.562   6.133   8.027  0.0406 -0.2375 -0.0796
18791SOL    HW157814   3.614   6.155   7.949 -0.5618 -0.5671 -0.5794
18791SOL    HW257815   3.496   6.203   8.032  0.4445  0.1157  0.4883
18792SOL     OW57816   3.292   1.424  11.580 -0.1101  0.3424  0.2216
18792SOL    HW157817   3.325   1.467  11.502 -1.4102  0.1086 -0.4695
18792SOL    HW257818   3.281   1.495  11.644 -0.8762  0.8188 -0.4367
18793SOL     OW57819   7.321   6.047   3.019  0.2772 -0.5126 -0.4714
18793SOL    HW157820   7.412   6.063   3.047  0.5587  0.6361 -1.9193
18793SOL    HW257821   7.268   6.087   3.088  0.9065  0.1822 -0.3697
18794SOL     OW57822   5.487   7.175   5.628 -0.0559  0.1189 -0.2715
18794SOL    HW157823   5.421   7.214   5.684  0.5559  0.7027  0.0467
18794SOL    HW257824   5.499   7.237   5.556 -0.2057 -0.2185 -0.5974
18795SOL     OW57825   3.607   4.078   0.951 -0.0234 -0.1460  0.5515
18795SOL    HW157826   3.670   4.138   0.990 -0.7048  1.4347 -0.6261
18795SOL    HW257827   3.652   4.039   0.876 -0.3509  0.8660 -0.1971
18796SOL     OW57828   6.085   5.343   4.587 -0.0060 -0.5628  0.1401
18796SOL    HW157829   6.029   5.352   4.510 -0.7577 -3.0828  0.2940
18796SOL    HW257830   6.138   5.265   4.569  2.0317  0.5754  0.8863
18797SOL     OW57831   7.684   6.591   2.301  0.1791 -0.0061  0.0160
18797SOL    HW157832   7.625   6.589   2.225  1.1045  1.0275 -0.7546
18797SOL    HW257833   7.759   6.539   2.274  0.5686  0.4699  0.1718
18798SOL     OW57834   4.196   1.629   5.977 -0.0571 -0.0992  0.7889
18798SOL    HW157835   4.118   1.650   5.926  1.0544 -0.3760 -1.1171
18798SOL    HW257836   4.239   1.714   5.989 -0.1477 -0.0799  0.9798
18799SOL     OW57837   0.609   6.131   3.723  0.3879 -0.3137 -0.4467
18799SOL    HW157838   0.591   6.225   3.730 -0.4863 -0.5306  0.3444
18799SOL    HW257839   0.523   6.090   3.724  0.8254 -1.2369  0.8971
18800SOL     OW57840   2.729   7.473   4.407 -0.2888  0.2121 -0.2889
18800SOL    HW157841   2.677   7.543   4.445  2.3877  1.4602  1.3411
18800SOL    HW257842   2.785   7.516   4.343  0.2602 -0.7086 -0.4545
18801SOL     OW57843   2.061   2.127  11.204  0.2592 -0.0244 -0.9251
18801SOL    HW157844   2.059   2.031  11.210  2.5094 -0.0706 -0.0750
18801SOL    HW257845   2.141   2.146  11.156  0.0866  1.4631 -0.6616
18802SOL     OW57846   2.909   2.650   6.436  0.2220  0.4606 -0.8269
18802SOL    HW157847   2.918   2.568   6.483  1.3723  0.6738 -0.6402
18802SOL    HW257848   2.819   2.679   6.454  0.3278  0.0488  0.4310
18803SOL     OW57849   0.846   3.095   3.136 -0.2210  0.2325  0.4657
18803SOL    HW157850   0.914   3.037   3.102  0.1907 -0.4240  2.2790
18803SOL    HW257851   0.766   3.043   3.133  0.1597 -0.5313  2.1501
18804SOL     OW57852   1.458   2.687   6.250  0.0899 -0.4411 -0.5125
18804SOL    HW157853   1.525   2.629   6.217  1.3164  0.7913 -0.2691
18804SOL    HW257854   1.497   2.729   6.326 -1.5640 -0.9284  0.6791
18805SOL     OW57855   4.895   6.326   8.422 -0.5102  0.4011 -0.0528
18805SOL    HW157856   4.928   6.375   8.497 -2.3920  1.7205 -0.0035
18805SOL    HW257857   4.928   6.373   8.346 -0.9645  0.7883 -0.0155
18806SOL     OW57858   1.666   0.392   1.840 -0.2740 -0.3017  0.2625
18806SOL    HW157859   1.660   0.442   1.922 -0.6280 -1.2828  0.8620
18806SOL    HW257860   1.759   0.370   1.832 -0.0698  0.6918 -0.1635
18807SOL     OW57861   6.893   7.671   9.411  0.3585 -0.0075  0.0241
18807SOL    HW157862   6.873   7.763   9.398 -0.2629 -0.2244 -0.6616
18807SOL    HW257863   6.967   7.670   9.471 -0.5599  0.8951  1.2179
18808SOL     OW57864   2.147   6.346   7.420  0.4641 -0.0382 -0.2225
18808SOL    HW157865   2.152   6.402   7.342 -0.7798 -0.0387 -0.3160
18808SOL    HW257866   2.066   6.372   7.464 -0.3357 -1.9640 -0.4440
18809SOL     OW57867   7.067   3.470  10.314 -0.0555  0.4680  0.2266
18809SOL    HW157868   7.044   3.498  10.403 -0.2668  1.7960 -0.2247
18809SOL    HW257869   6.994   3.499  10.260  1.0853  1.7205 -0.7221
18810SOL     OW57870   4.041   7.882   9.388 -0.4472 -0.6790  0.3210
18810SOL    HW157871   4.077   7.831   9.315  0.1704 -1.7398  1.3317
18810SOL    HW257872   4.113   7.938   9.416 -0.2299 -1.2949  1.0099
18811SOL     OW57873   7.340   3.254  11.698 -0.2119 -0.1516 -0.0018
18811SOL    HW157874   7.354   3.220  11.787  0.6117  1.2875  0.4513
18811SOL    HW257875   7.378   3.187  11.641  1.7892  0.1347  0.8878
18812SOL     OW57876   5.018   1.344   7.558  0.5510 -0.2195 -0.5186
18812SOL    HW157877   4.950   1.308   7.615  1.5618 -0.8945  0.2985
18812SOL    HW257878   4.973   1.411   7.507 -0.4666  0.2012  0.8657
18813SOL     OW57879   4.408   4.877  12.364 -0.0115  0.5304 -0.7780
18813SOL    HW157880   4.404   4.785  12.390  0.0251  1.1463  1.5653
18813SOL    HW257881   4.348   4.883  12.289 -1.8026 -0.9481  0.4572
18814SOL     OW57882   1.011   1.496   2.893 -0.4142 -0.3726 -0.1489
18814SOL    HW157883   0.935   1.458   2.849 -0.1851 -0.0328 -0.8678
18814SOL    HW257884   0.982   1.584   2.918  0.1820  0.3652 -1.8214
18815SOL     OW57885   3.455   2.507   2.932  0.2527  0.0856 -0.0305
18815SOL    HW157886   3.496   2.545   3.009  0.0054 -0.3250  0.3122
18815SOL    HW257887   3.368   2.548   2.929  0.0553 -0.3051  0.2329
18816SOL     OW57888   3.333   1.547   8.760 -0.2551 -0.1842 -0.2193
18816SOL    HW157889   3.267   1.511   8.820  0.8336  0.6917  1.6120
18816SOL    HW257890   3.415   1.504   8.786  0.5145  1.3411 -0.0171
18817SOL     OW57891   7.084   0.178  11.873  0.3528 -0.1626 -0.0017
18817SOL    HW157892   7.029   0.256  11.884  0.1330 -0.3140 -0.0239
18817SOL    HW257893   7.127   0.167  11.958  1.9647  1.1616 -0.5670
18818SOL     OW57894   7.904   0.523   3.562 -0.1837 -0.4284 -0.0997
18818SOL    HW157895   7.937   0.601   3.519 -0.1594 -1.4046 -1.9715
18818SOL    HW257896   7.811   0.519   3.537 -0.0416 -1.2861 -0.5510
18819SOL     OW57897   5.839   0.673  10.457 -0.0699  0.6265  0.3355
18819SOL    HW157898   5.843   0.678  10.552 -0.1937 -0.2857  0.3943
18819SOL    HW257899   5.869   0.585  10.436 -3.0270 -0.3323 -0.2885
18820SOL     OW57900   2.801   3.775   4.565 -0.3089  0.1876 -0.5303
18820SOL    HW157901   2.817   3.869   4.561  0.4531  0.0630 -0.5892
18820SOL    HW257902   2.852   3.739   4.493  0.0882 -0.3483  0.0064
18821SOL     OW57903   3.286   6.753   0.182 -0.0561 -0.5790 -0.1756
18821SOL    HW157904   3.358   6.709   0.136  0.7581 -2.9009  2.9694
18821SOL    HW257905   3.209   6.700   0.162 -0.4180  0.3849 -1.4513
18822SOL     OW57906   0.180   0.237   7.158  0.2411  0.0074 -0.0252
18822SOL    HW157907   0.266   0.237   7.199 -0.4839  1.6015  1.6291
18822SOL    HW257908   0.190   0.293   7.081  0.1359  2.3519  1.5780
18823SOL     OW57909   3.914   4.500   5.188  0.0570 -0.4479  0.0509
18823SOL    HW157910   4.000   4.536   5.209  0.1485  0.3574 -1.5116
18823SOL    HW257911   3.855   4.575   5.188 -0.1797 -0.6081 -1.1480
18824SOL     OW57912   5.658   5.196   6.292  0.5000  0.8034  0.5998
18824SOL    HW157913   5.604   5.215   6.215 -0.3264  0.2405  1.0158
18824SOL    HW257914   5.748   5.205   6.262  0.2281 -0.8400 -0.8223
18825SOL     OW57915   5.934   2.876  12.035 -0.3662  0.1837 -0.4538
18825SOL    HW157916   6.006   2.901  12.093 -0.9118  0.4062  0.1430
18825SOL    HW257917   5.977   2.840  11.958  0.3906 -1.0048  0.4791
18826SOL     OW57918   2.487   4.080   1.185  0.1874 -0.8456  0.3468
18826SOL    HW157919   2.430   4.156   1.197  0.7877 -0.4483  0.7033
18826SOL    HW257920   2.436   4.007   1.218 -0.7388 -0.7457 -0.7798
18827SOL     OW57921   3.178   1.941   8.466  0.2589  0.2524  0.1746
18827SOL    HW157922   3.109   1.902   8.519 -0.2413 -0.8015 -1.1925
18827SOL    HW257923   3.237   1.868   8.445  1.2277  0.9309  0.4534
18828SOL     OW57924   7.738   5.838   8.228 -0.1331  0.5363  0.5390
18828SOL    HW157925   7.670   5.903   8.214 -0.4714  0.1360  0.2950
18828SOL    HW257926   7.804   5.857   8.161 -1.5471 -1.1032 -1.4399
18829SOL     OW57927   1.406   2.249  10.559 -0.6976  0.3558  0.6797
18829SOL    HW157928   1.479   2.310  10.546 -0.2433 -0.1639  0.7260
18829SOL    HW257929   1.368   2.238  10.472 -0.2462  0.0515  0.5187
18830SOL     OW57930   5.540   1.833   6.757  0.1506 -0.2348 -0.3561
18830SOL    HW157931   5.498   1.851   6.842  1.3679  0.5471  0.0982
18830SOL    HW257932   5.580   1.746   6.768  1.3656  0.3835  0.3264
18831SOL     OW57933   4.423   5.770   2.642 -0.1363 -0.1207 -0.3932
18831SOL    HW157934   4.367   5.721   2.582 -0.1399 -0.2864 -0.2553
18831SOL    HW257935   4.504   5.785   2.593  0.6613 -2.0288  0.2561
18832SOL     OW57936   7.029   5.176   7.259  0.1920 -0.5927 -0.0412
18832SOL    HW157937   7.077   5.110   7.308  1.0623 -0.2537 -0.4232
18832SOL    HW257938   6.954   5.197   7.315  1.3343  0.0341  1.3165
18833SOL     OW57939   5.062   2.650   7.296  0.6393  0.2953 -0.0154
18833SOL    HW157940   5.092   2.662   7.386  1.2464  0.5951 -0.2565
18833SOL    HW257941   5.054   2.739   7.262 -0.1685  0.2085 -0.0784
18834SOL     OW57942   7.674   3.669   5.985  0.1862  0.2506 -0.0205
18834SOL    HW157943   7.669   3.574   5.976 -0.8938  0.2278  0.5801
18834SOL    HW257944   7.742   3.684   6.051  0.5541 -0.0819 -0.3213
18835SOL     OW57945   1.787   5.877   8.209  0.7472  0.2777 -0.1755
18835SOL    HW157946   1.817   5.963   8.179  1.2244  0.2148  0.1018
18835SOL    HW257947   1.713   5.896   8.267  1.7036  0.6117  0.9831
18836SOL     OW57948   2.394   2.886  11.859 -1.1996  0.3669  0.3309
18836SOL    HW157949   2.467   2.929  11.814 -0.8871 -0.5780 -0.0893
18836SOL    HW257950   2.344   2.844  11.789 -0.3240 -1.7109  0.8943
18837SOL     OW57951   4.097   1.035   1.411 -0.0870 -0.0895 -0.5828
18837SOL    HW157952   4.148   1.027   1.330 -0.0398 -1.0743 -0.4640
18837SOL    HW257953   4.019   0.983   1.395  0.2166 -0.8294  0.2290
18838SOL     OW57954   6.275   1.446   2.595 -0.3225 -0.1522  0.0205
18838SOL    HW157955   6.293   1.531   2.635 -0.8559  1.2212 -2.4120
18838SOL    HW257956   6.341   1.438   2.526 -1.4355 -0.8014 -1.0002
18839SOL     OW57957   1.096   1.829  10.043 -0.0737  0.1053 -0.3908
18839SOL    HW157958   1.025   1.873  10.089  0.8769 -0.6744  1.9777
18839SOL    HW257959   1.170   1.890  10.047  0.2304 -0.2682 -0.1934
18840SOL     OW57960   7.272   2.471   5.303  0.3037  0.5293 -0.6617
18840SOL    HW157961   7.203   2.467   5.370  2.2137  0.3520  1.3951
18840SOL    HW257962   7.276   2.382   5.268  0.0319  0.3375 -0.2213
18841SOL     OW57963   5.966   4.801   8.964 -0.3249  0.4818 -0.3918
18841SOL    HW157964   5.965   4.707   8.942  0.7096  0.1914  0.6986
18841SOL    HW257965   6.024   4.840   8.899  2.1022 -0.2459  1.2329
18842SOL     OW57966   5.161   5.486   3.730 -0.4182 -0.1434  0.3829
18842SOL    HW157967   5.143   5.449   3.816  1.1960 -0.3962  0.6499
18842SOL    HW257968   5.120   5.426   3.669 -1.0409 -0.3082  0.9462
18843SOL     OW57969   7.036   2.831   7.313  0.2422  0.4078  0.2328
18843SOL    HW157970   7.039   2.872   7.399  0.9206 -1.2038  1.0124
18843SOL    HW257971   6.943   2.810   7.300  0.1968  0.2542  0.7764
18844SOL     OW57972   5.216   2.657   2.244  0.6333 -0.0458 -0.4722
18844SOL    HW157973   5.184   2.682   2.158  0.5023 -1.0954 -0.7332
18844SOL    HW257974   5.304   2.696   2.249  0.6287  0.0450 -1.0659
18845SOL     OW57975   5.355   6.284   9.526  0.2222  0.1959  0.1836
18845SOL    HW157976   5.336   6.260   9.436  1.0917 -3.1176  0.7520
18845SOL    HW257977   5.268   6.299   9.566 -0.4003 -1.6572 -0.4064
18846SOL     OW57978   2.465   7.133  10.462  0.4717 -0.3208 -0.2471
18846SOL    HW157979   2.397   7.129  10.529  2.1629 -0.4626  1.5292
18846SOL    HW257980   2.479   7.042  10.435  0.0828 -0.3076 -0.4967
18847SOL     OW57981   2.926   0.611   9.453 -0.0141  0.0009  0.2751
18847SOL    HW157982   2.984   0.591   9.380 -1.1528 -1.3400 -0.3036
18847SOL    HW257983   2.972   0.576   9.530  0.9442  0.9496  0.1594
18848SOL     OW57984   0.869   1.909   4.746 -0.3441 -0.5059 -0.2065
18848SOL    HW157985   0.879   1.976   4.678  0.8739  1.0151  1.3992
18848SOL    HW257986   0.814   1.951   4.813 -0.3856 -1.4776  0.3842
18849SOL     OW57987   4.475   0.756   4.415  0.2315  0.2289 -0.6163
18849SOL    HW157988   4.505   0.820   4.350  2.2019 -0.3963 -0.4102
18849SOL    HW257989   4.390   0.727   4.383  0.6219  0.8036 -2.2818
18850SOL     OW57990   1.684   2.653   0.546  0.5780 -0.2002 -0.4158
18850SOL    HW157991   1.761   2.701   0.576 -0.8033  1.2024  1.1321
18850SOL    HW257992   1.630   2.718   0.501  0.3133 -1.1728 -1.5632
18851SOL     OW57993   1.486   7.751  10.320  0.0893  1.0984 -0.4235
18851SOL    HW157994   1.464   7.795  10.402  2.3251 -0.7833  1.3460
18851SOL    HW257995   1.581   7.739  10.324 -0.1800 -2.7863 -1.1968
18852SOL     OW57996   7.398   7.413   8.201 -0.0130  0.0698 -0.1296
18852SOL    HW157997   7.436   7.327   8.182  0.8601  0.9528 -2.7774
18852SOL    HW257998   7.470   7.463   8.240  0.3829  0.4785 -1.3451
18853SOL     OW57999   2.466   0.268   2.419 -0.2763 -0.2002  0.2779
18853SOL    HW158000   2.393   0.263   2.358 -0.9848  2.5710  0.7436
18853SOL    HW258001   2.427   0.294   2.503  0.9868 -1.1152  1.2071
18854SOL     OW58002   1.991   3.219   6.793 -0.3334  0.4884 -0.1208
18854SOL    HW158003   2.047   3.267   6.854 -0.1927 -4.3185  4.1393
18854SOL    HW258004   2.051   3.184   6.728  0.6022  0.5082  0.7131
18855SOL     OW58005   7.406   1.589   8.105  0.8168  0.5971  0.4137
18855SOL    HW158006   7.471   1.635   8.052  0.3093 -0.3722 -1.1209
18855SOL    HW258007   7.388   1.649   8.177  3.4651  0.8414  0.9642
18856SOL     OW58008   6.496   5.586  10.229  0.3327  0.1879 -0.1233
18856SOL    HW158009   6.553   5.563  10.155  0.4025  1.7900 -0.5929
18856SOL    HW258010   6.485   5.681  10.223 -1.1048  0.1145  0.9045
18857SOL     OW58011   4.899   1.568   7.390 -0.3967  0.3637 -0.1139
18857SOL    HW158012   4.857   1.621   7.322  2.6814  2.2883 -0.7591
18857SOL    HW258013   4.920   1.631   7.459 -0.4858 -0.9114  1.0974
18858SOL     OW58014   0.547   2.948   4.682  0.0743 -0.1542 -0.4300
18858SOL    HW158015   0.485   2.890   4.638  0.1395  1.4864 -2.8938
18858SOL    HW258016   0.615   2.965   4.617  0.1977  2.4334  0.2730
18859SOL     OW58017   1.520   7.965   1.079 -0.1963 -0.2280  0.3390
18859SOL    HW158018   1.561   7.883   1.107 -0.5741 -0.0637  1.4503
18859SOL    HW258019   1.593   8.025   1.064  0.0905 -0.8241 -0.6929
18860SOL     OW58020   1.254   2.711   0.401 -0.2678  0.0816 -0.0648
18860SOL    HW158021   1.227   2.715   0.492 -1.4868 -0.9001 -0.3632
18860SOL    HW258022   1.331   2.769   0.396 -0.7246  0.8462  1.3696
18861SOL     OW58023   3.739   7.668   7.857 -0.1011  0.6829  0.4136
18861SOL    HW158024   3.666   7.728   7.875  0.3261  0.7819  1.9236
18861SOL    HW258025   3.716   7.628   7.773 -2.0463  0.4962  0.9672
18862SOL     OW58026   5.084   6.198  10.612 -0.1144 -0.0252  0.3656
18862SOL    HW158027   5.014   6.157  10.664  0.6244 -2.4519 -0.3866
18862SOL    HW258028   5.073   6.161  10.525  0.8632  1.1800 -0.2990
18863SOL     OW58029   2.818   7.501   0.022 -0.0190  0.0370 -0.2613
18863SOL    HW158030   2.765   7.422   0.017  0.0357 -0.1560  1.4086
18863SOL    HW258031   2.907   7.470   0.034  0.3461  0.3702 -1.8704
18864SOL     OW58032   1.904   0.570   2.878  0.1251 -0.1483  0.4242
18864SOL    HW158033   1.979   0.630   2.871 -0.2722  0.3098  0.0331
18864SOL    HW258034   1.838   0.607   2.819 -0.7727 -0.0219  1.4856
18865SOL     OW58035   4.185   2.039   1.006 -0.1180  0.0671 -0.1991
18865SOL    HW158036   4.123   2.107   1.033 -2.1399 -1.3329 -1.1188
18865SOL    HW258037   4.196   1.985   1.084  2.7264  2.1619  1.0508
18866SOL     OW58038   1.202   5.721  11.535  0.0227 -0.4882  0.2661
18866SOL    HW158039   1.165   5.683  11.455  1.3473 -0.6491 -0.3015
18866SOL    HW258040   1.218   5.813  11.512 -0.7124 -0.2358  0.7526
18867SOL     OW58041   5.951   5.601  12.095  0.1440 -1.0002  0.2853
18867SOL    HW158042   5.872   5.550  12.111 -1.2499  0.8302 -0.4103
18867SOL    HW258043   5.946   5.673  12.157  0.3326  0.1018 -0.9443
18868SOL     OW58044   5.265   0.085  10.951  0.1074 -0.2860  0.7867
18868SOL    HW158045   5.301   0.064  10.865 -0.4970  0.6942  0.2733
18868SOL    HW258046   5.237   0.001  10.987  0.0938 -0.6705 -0.1044
18869SOL     OW58047   3.554   7.206   5.397 -0.4813  0.3907  0.5903
18869SOL    HW158048   3.600   7.153   5.331  0.0284  1.7636 -0.2125
18869SOL    HW258049   3.523   7.282   5.348 -1.9686  0.4172  1.5297
18870SOL     OW58050   3.540   6.696   9.737 -0.3008  0.6183 -0.2038
18870SOL    HW158051   3.539   6.661   9.647  0.8278 -2.3841  0.8236
18870SOL    HW258052   3.454   6.671   9.772 -0.7640  1.8447 -0.4137
18871SOL     OW58053   7.635   6.160   6.193  0.0244 -0.1900  0.2202
18871SOL    HW158054   7.679   6.100   6.133 -1.3344 -0.6599 -0.3551
18871SOL    HW258055   7.705   6.197   6.246  1.2505  0.1196 -1.5485
18872SOL     OW58056   0.341   5.821   4.679 -0.2054 -0.3954 -0.0359
18872SOL    HW158057   0.374   5.881   4.746  1.7074 -1.4066 -0.0112
18872SOL    HW258058   0.275   5.769   4.724  1.7471 -1.7418  1.4296
18873SOL     OW58059   3.376   5.968   8.650  0.1769 -0.1702  0.2045
18873SOL    HW158060   3.435   6.035   8.687  0.5760  1.4574 -2.9951
18873SOL    HW258061   3.289   6.008   8.655 -0.2216 -1.1583  1.8566
18874SOL     OW58062   0.544   0.038   0.408  0.1145 -0.3106 -0.1669
18874SOL    HW158063   0.513  -0.031   0.349  0.4947 -0.9808  0.4045
18874SOL    HW258064   0.476   0.045   0.476 -1.2152  1.6872 -1.5800
18875SOL     OW58065   1.153   2.924   3.459  0.1071 -0.1224  0.0209
18875SOL    HW158066   1.243   2.895   3.476  0.6658 -0.1477 -2.6069
18875SOL    HW258067   1.162   3.014   3.427 -1.1232  0.9986  2.5603
18876SOL     OW58068   4.550   1.224  11.692  0.3155  0.2199  0.3927
18876SOL    HW158069   4.621   1.280  11.723 -1.2958  2.6850 -0.1416
18876SOL    HW258070   4.594   1.151  11.649  2.5297  1.7953 -0.1488
18877SOL     OW58071   4.359   6.321   8.702  0.8158  0.0519  0.1404
18877SOL    HW158072   4.272   6.327   8.663  0.4886  1.0083  0.9809
18877SOL    HW258073   4.353   6.245   8.760 -0.0742  1.1798  1.6044
18878SOL     OW58074   5.079   5.826   5.334 -0.2244 -0.1686 -0.0179
18878SOL    HW158075   5.067   5.919   5.349 -0.4684 -0.0669 -0.8241
18878SOL    HW258076   5.148   5.820   5.268 -0.6145 -0.5324 -0.4027
18879SOL     OW58077   3.543   0.860   3.586 -0.2720 -0.3814  0.5493
18879SOL    HW158078   3.614   0.868   3.649  0.0229  0.0618  0.1650
18879SOL    HW258079   3.567   0.920   3.515 -2.0949  1.5002  1.4086
18880SOL     OW58080   5.459   2.842   8.730  0.4306 -0.3553 -0.0284
18880SOL    HW158081   5.378   2.887   8.706  0.2964  0.3465  1.6433
18880SOL    HW258082   5.441   2.750   8.711 -1.2973 -0.4135  1.5715
18881SOL     OW58083   0.004   0.195  10.544 -0.4347  0.0807  0.1019
18881SOL    HW158084   0.058   0.256  10.595 -1.5851  0.0601  1.4204
18881SOL    HW258085  -0.078   0.189  10.594 -1.5840 -0.0410 -1.7124
18882SOL     OW58086   1.009   2.870   2.923  0.7550 -0.3136 -0.4670
18882SOL    HW158087   0.998   2.909   2.836 -0.3343 -1.0746 -0.7011
18882SOL    HW258088   1.054   2.937   2.974  1.7037  0.0276 -1.7008
18883SOL     OW58089   5.508   2.729   2.206 -0.1709 -0.0044 -0.3167
18883SOL    HW158090   5.566   2.694   2.138 -0.7959 -0.7010 -0.5024
18883SOL    HW258091   5.551   2.809   2.235  0.2503  0.1615 -1.3451
18884SOL     OW58092   7.702   6.102   8.244  0.4855  0.2639  0.3368
18884SOL    HW158093   7.792   6.070   8.246  0.2035 -0.5481  2.1338
18884SOL    HW258094   7.693   6.145   8.159  2.3312 -0.3005 -0.1785
18885SOL     OW58095   3.578   6.148   1.866 -0.0062 -0.3304  0.2494
18885SOL    HW158096   3.549   6.239   1.862 -0.7997 -0.5776  0.2265
18885SOL    HW258097   3.522   6.102   1.804  0.2447 -0.8726  0.4198
18886SOL     OW58098   6.118   7.861  10.296 -0.1563  0.2172 -0.5034
18886SOL    HW158099   6.110   7.780  10.247  2.3565  0.6443 -1.8376
18886SOL    HW258100   6.111   7.836  10.388  0.3324 -1.4735 -0.9068
18887SOL     OW58101   5.056   4.544  10.100  0.8225  0.4546  0.6957
18887SOL    HW158102   5.032   4.588  10.181  1.2528 -2.3942  2.5028
18887SOL    HW258103   4.973   4.512  10.064  0.7341  0.7918  0.6043
18888SOL     OW58104   6.165   0.141   5.773  0.1792 -1.0349 -0.4098
18888SOL    HW158105   6.198   0.213   5.827  1.5579 -0.8923 -1.3882
18888SOL    HW258106   6.098   0.182   5.718  1.9012 -0.1319 -1.9254
18889SOL     OW58107   0.068   5.844   5.616 -0.3736  0.7765  0.2931
18889SOL    HW158108   0.055   5.924   5.566  0.7535  1.0777  0.4690
18889SOL    HW258109  -0.015   5.796   5.606 -1.0076  1.8888  0.0844
18890SOL     OW58110   3.595   1.927   5.149  0.1561 -0.4209  0.0798
18890SOL    HW158111   3.586   1.935   5.244 -3.4484  0.0657 -0.1491
18890SOL    HW258112   3.622   1.836   5.136 -1.9083 -1.3661  1.5968
18891SOL     OW58113   4.632   2.968  11.772  0.1882  0.8680  0.4382
18891SOL    HW158114   4.556   3.010  11.733 -0.3099  0.0567  0.5281
18891SOL    HW258115   4.609   2.876  11.779  0.2200  0.9715  2.7171
18892SOL     OW58116   2.205   1.230   5.955  0.1985 -0.3010 -0.0034
18892SOL    HW158117   2.110   1.228   5.956  0.0508  2.3167 -0.6651
18892SOL    HW258118   2.232   1.146   5.919 -1.8456 -1.1072  0.2748
18893SOL     OW58119   4.544   2.761   2.116  0.0436  0.4817  0.0990
18893SOL    HW158120   4.468   2.820   2.118 -0.0324  0.4994 -1.7840
18893SOL    HW258121   4.535   2.708   2.195 -1.2147  1.3715  0.5839
18894SOL     OW58122   4.325   5.824   0.875  0.0584  0.4087 -0.6097
18894SOL    HW158123   4.295   5.834   0.966  0.6528 -0.0319 -0.3550
18894SOL    HW258124   4.300   5.735   0.852 -0.5833  0.7066 -1.0721
18895SOL     OW58125   5.657   0.938  12.348  0.1559 -0.3277 -0.7607
18895SOL    HW158126   5.598   1.008  12.373 -0.1335 -0.0742 -2.0654
18895SOL    HW258127   5.674   0.890  12.429 -0.0037  0.9618  0.0699
18896SOL     OW58128   5.771   1.011   0.667 -0.1973 -0.3323  0.2063
18896SOL    HW158129   5.715   1.014   0.589 -0.1725 -3.0282 -0.0110
18896SOL    HW258130   5.853   1.052   0.639 -1.8042  3.4930  0.4626
18897SOL     OW58131   1.304   2.466   5.731 -0.4264 -0.0606 -0.1824
18897SOL    HW158132   1.209   2.465   5.718 -0.4998 -0.2224  0.3286
18897SOL    HW258133   1.317   2.523   5.807 -0.1937 -0.7505  0.3041
18898SOL     OW58134   4.406   3.574   0.068 -0.0686 -0.0751 -0.2355
18898SOL    HW158135   4.317   3.551   0.095  0.1905 -0.0525  0.6592
18898SOL    HW258136   4.399   3.665   0.039 -0.2223  0.1183  0.3984
18899SOL     OW58137   5.334   6.949   5.498 -0.0369  0.3110  0.3485
18899SOL    HW158138   5.273   7.021   5.484 -0.4210 -0.4581 -2.7832
18899SOL    HW258139   5.412   6.990   5.536 -1.2890  1.8264  1.4139
18900SOL     OW58140   0.482   0.394   3.422 -0.1328 -0.0915 -0.0679
18900SOL    HW158141   0.408   0.450   3.396 -1.1276 -0.6209  1.4576
18900SOL    HW258142   0.545   0.454   3.461  0.1733  0.3424 -1.2058
18901SOL     OW58143   1.937   3.365   5.744 -0.0820  0.1726  0.4368
18901SOL    HW158144   2.014   3.402   5.787  0.6072 -0.3829 -0.2895
18901SOL    HW258145   1.890   3.441   5.708 -0.2774  0.5738  1.5142
18902SOL     OW58146   4.401   0.303   6.941 -0.2077 -0.6155 -0.0441
18902SOL    HW158147   4.414   0.383   6.890  0.1435 -0.4197  0.3383
18902SOL    HW258148   4.309   0.306   6.968 -0.7480 -1.3547 -1.6971
18903SOL     OW58149   6.046   7.564   6.187  1.1504  0.2858 -0.4326
18903SOL    HW158150   6.003   7.647   6.209  1.5218  1.0791 -2.4395
18903SOL    HW258151   5.974   7.500   6.184  1.0327  0.1716  2.4287
18904SOL     OW58152   7.578   0.763   7.849 -0.1623 -0.3246 -0.2200
18904SOL    HW158153   7.494   0.808   7.845  0.1721  0.2626 -2.2278
18904SOL    HW258154   7.638   0.821   7.801  1.1346 -1.2195  0.2664
18905SOL     OW58155   1.847   3.603   2.074  0.6489  0.0060  0.1237
18905SOL    HW158156   1.840   3.588   1.980  1.2187 -0.8462  0.2120
18905SOL    HW258157   1.760   3.582   2.108  0.8592 -1.1839 -0.0242
18906SOL     OW58158   3.772   0.794   4.704  0.7088  0.2379  0.2837
18906SOL    HW158159   3.866   0.792   4.689  0.5824 -0.1188 -0.5432
18906SOL    HW258160   3.742   0.873   4.660  0.7527  0.9314  1.4631
18907SOL     OW58161   1.994   6.911   9.718 -0.2719 -0.2038 -0.2234
18907SOL    HW158162   1.943   6.991   9.727  0.3402  0.5062 -2.3699
18907SOL    HW258163   1.991   6.871   9.804  1.2294  3.2059  1.5937
18908SOL     OW58164   6.984   7.326   7.073 -0.0312  0.3938  0.2688
18908SOL    HW158165   7.018   7.293   7.156  2.2028 -1.7653 -1.3269
18908SOL    HW258166   7.040   7.402   7.053 -0.2488  0.6155  0.4932
18909SOL     OW58167   7.900   0.591   6.103  0.2554 -0.1629 -0.2289
18909SOL    HW158168   7.908   0.682   6.074  3.4161 -1.0190 -2.6485
18909SOL    HW258169   7.868   0.545   6.025 -0.4170 -1.2674  0.6803
18910SOL     OW58170   3.921   7.094   6.758 -0.1764  0.1352 -0.2018
18910SOL    HW158171   3.865   7.067   6.685 -0.8484  1.1021 -0.0725
18910SOL    HW258172   3.987   7.151   6.718 -0.4867  0.5876 -0.0816
18911SOL     OW58173   4.518   5.402   7.149 -0.1300 -0.5533 -0.0489
18911SOL    HW158174   4.497   5.322   7.197 -3.7433  0.9020  1.1292
18911SOL    HW258175   4.498   5.473   7.211 -0.9057  1.3312 -2.3197
18912SOL     OW58176   7.937   2.987   4.550 -0.2211 -0.1147  0.6936
18912SOL    HW158177   7.925   2.901   4.590  1.5813 -1.0310 -0.5979
18912SOL    HW258178   7.973   3.042   4.619 -1.8234 -0.2258  1.6597
18913SOL     OW58179   1.465   0.482   6.883 -0.2250  0.5264  0.0753
18913SOL    HW158180   1.428   0.438   6.959  0.1500 -0.8126 -0.4884
18913SOL    HW258181   1.519   0.552   6.920  0.0810 -0.2018  1.0631
18914SOL     OW58182   7.407   0.941   6.277 -0.4358 -0.1311 -0.0129
18914SOL    HW158183   7.454   0.894   6.209 -0.1549  0.4719 -0.2395
18914SOL    HW258184   7.454   0.921   6.358 -1.1692 -1.4010  0.1327
18915SOL     OW58185   2.695   5.778   8.547 -0.3923  0.2745  0.2136
18915SOL    HW158186   2.681   5.774   8.641  0.3075  0.2756  0.3268
18915SOL    HW258187   2.708   5.686   8.521 -0.3298  0.2987  0.1597
18916SOL     OW58188   6.606   4.277   1.781 -0.2238  0.1829  0.3166
18916SOL    HW158189   6.602   4.286   1.876  0.2562  0.0464  0.3513
18916SOL    HW258190   6.546   4.204   1.762  0.0405 -0.1037  0.5625
18917SOL     OW58191   4.481   1.918   1.999  0.0700 -0.3549 -0.2695
18917SOL    HW158192   4.434   1.894   2.079 -0.2202 -0.8887 -0.5911
18917SOL    HW258193   4.555   1.971   2.029 -0.8089  0.6190  0.2390
18918SOL     OW58194   3.795   7.856   5.863 -0.1326  0.1404  0.2462
18918SOL    HW158195   3.753   7.882   5.945  0.1592  1.3335  0.0454
18918SOL    HW258196   3.853   7.930   5.842  0.4041 -0.5086 -0.6135
18919SOL     OW58197   3.010   0.250   4.700 -0.0267  0.2021 -0.5812
18919SOL    HW158198   3.047   0.186   4.760 -0.0271  1.7205  1.1131
18919SOL    HW258199   3.083   0.272   4.642  0.3616 -0.3100 -0.2983
18920SOL     OW58200   7.245   0.751   3.872  0.5207 -0.0097  0.1265
18920SOL    HW158201   7.257   0.842   3.896 -0.6060  0.3767 -0.6997
18920SOL    HW258202   7.254   0.750   3.776  0.2976 -0.7319  0.1056
18921SOL     OW58203   6.827   1.044   6.247 -0.2864 -1.0988 -0.5350
18921SOL    HW158204   6.870   1.029   6.331 -1.1298 -1.1885 -0.1073
18921SOL    HW258205   6.811   1.138   6.244  1.2864 -0.8348 -1.3746
18922SOL     OW58206   4.505   4.352   4.834  0.0770 -0.3347 -0.7173
18922SOL    HW158207   4.591   4.377   4.868 -0.6186  2.6786 -0.9292
18922SOL    HW258208   4.509   4.376   4.741 -0.8817 -0.5216 -0.8128
18923SOL     OW58209   7.433   5.821   4.551  0.5763  0.3955  0.4444
18923SOL    HW158210   7.457   5.799   4.641 -0.1762  1.0808  0.8266
18923SOL    HW258211   7.341   5.794   4.543  0.8148 -0.2269 -0.3164
18924SOL     OW58212   0.987   6.350   3.506  0.7261 -0.3230 -0.0179
18924SOL    HW158213   0.922   6.284   3.480  0.4088 -0.1754  0.3810
18924SOL    HW258214   0.978   6.419   3.440 -0.9360  0.6172  1.1015
18925SOL     OW58215   7.460   1.701   3.919 -0.2843 -0.3013 -0.1647
18925SOL    HW158216   7.550   1.733   3.921 -0.4957  0.2905  0.8039
18925SOL    HW258217   7.446   1.665   4.007 -0.7347 -1.1638 -0.5748
18926SOL     OW58218   1.244   4.931   1.786  0.2558 -0.1236 -0.1530
18926SOL    HW158219   1.286   4.849   1.811  1.4892  0.8429  1.1388
18926SOL    HW258220   1.242   4.983   1.867 -2.4702  0.3286 -0.4095
18927SOL     OW58221   2.398   7.119   7.672 -0.6256 -0.8901 -0.1130
18927SOL    HW158222   2.429   7.161   7.592 -0.0879 -0.1077  0.4888
18927SOL    HW258223   2.321   7.169   7.698 -0.9877 -1.3401 -0.3084
18928SOL     OW58224   5.138   1.154  10.113 -0.1865  0.6985  0.4308
18928SOL    HW158225   5.211   1.214  10.126  0.0374  0.5879 -0.2735
18928SOL    HW258226   5.059   1.207  10.127  0.0117  0.4679  2.7312
18929SOL     OW58227   4.323   5.039   2.916 -0.3836 -0.3896  0.2481
18929SOL    HW158228   4.384   5.091   2.969 -0.4041 -0.7730  0.6460
18929SOL    HW258229   4.243   5.092   2.913 -0.2191 -0.1393  0.1843
18930SOL     OW58230   6.117   0.670   0.581 -0.1592  0.1443 -0.2289
18930SOL    HW158231   6.025   0.693   0.593 -0.0252  0.7150 -0.2516
18930SOL    HW258232   6.164   0.753   0.594  0.3264 -0.0823 -0.5110
18931SOL     OW58233   4.135   7.062   4.885 -0.9838  0.6617  0.2814
18931SOL    HW158234   4.180   7.098   4.961 -0.9425  0.9656  0.1166
18931SOL    HW258235   4.205   7.026   4.830 -1.1499 -1.2684  1.2488
18932SOL     OW58236   6.169   3.602   8.791 -0.3889  0.1170 -0.0504
18932SOL    HW158237   6.142   3.514   8.762 -0.8944  0.7142 -1.5074
18932SOL    HW258238   6.089   3.642   8.824 -0.2849  0.2231  0.0709
18933SOL     OW58239   7.771   6.803  10.163 -0.3615 -0.2026 -0.1729
18933SOL    HW158240   7.750   6.739  10.230  0.5020 -0.4613 -0.1349
18933SOL    HW258241   7.826   6.868  10.208 -1.5995  0.8299 -0.0936
18934SOL     OW58242   6.045   7.820   0.857 -0.1448  0.3779  0.3592
18934SOL    HW158243   6.119   7.879   0.843  1.3794 -1.7247 -1.1406
18934SOL    HW258244   6.060   7.782   0.944  0.6210 -0.0804  0.0381
18935SOL     OW58245   3.059   5.125   5.813  0.2269 -0.1858  0.2304
18935SOL    HW158246   3.089   5.049   5.763 -0.1424  0.1475 -0.5181
18935SOL    HW258247   2.992   5.091   5.872 -0.2214 -0.3878 -0.3797
18936SOL     OW58248   2.921   3.683   4.778 -0.0507 -0.5767  0.0323
18936SOL    HW158249   2.880   3.705   4.695 -1.4839 -0.6006  0.7044
18936SOL    HW258250   2.997   3.629   4.754  0.4942  0.7288 -1.3218
18937SOL     OW58251   5.764   5.942  10.592 -0.3444 -0.2036 -0.5644
18937SOL    HW158252   5.729   5.913  10.676  1.0865 -0.2556  0.0393
18937SOL    HW258253   5.706   5.902  10.527 -0.4284 -1.6356  0.3447
18938SOL     OW58254   0.018   6.195   2.267 -0.1102 -0.0363 -0.1136
18938SOL    HW158255   0.049   6.191   2.176 -0.4079  0.8067 -0.2602
18938SOL    HW258256  -0.058   6.253   2.264  0.0881  0.2748  0.7309
18939SOL     OW58257   5.258   4.432  11.516 -0.2858  0.2156 -0.1622
18939SOL    HW158258   5.184   4.384  11.477 -0.0032  0.6648 -1.3015
18939SOL    HW258259   5.247   4.422  11.610 -0.8652 -1.1309 -0.3580
18940SOL     OW58260   4.752   0.386   4.653  0.3873  0.7314  0.2312
18940SOL    HW158261   4.803   0.390   4.734  0.2805  3.2638  0.2547
18940SOL    HW258262   4.665   0.419   4.677  0.1898  0.9977 -0.7889
18941SOL     OW58263   3.494   3.345   4.378  0.6265 -0.3687 -0.7077
18941SOL    HW158264   3.438   3.405   4.330  1.4669  1.3816  0.3935
18941SOL    HW258265   3.465   3.258   4.351 -1.5403  0.4864 -1.3414
18942SOL     OW58266   0.745   1.180  10.743  0.1536 -0.1515 -0.2643
18942SOL    HW158267   0.702   1.135  10.815 -0.7347 -1.6323 -1.6687
18942SOL    HW258268   0.696   1.154  10.665  2.5276 -0.5362 -1.7290
18943SOL     OW58269   2.542   7.075   1.366  0.3930 -0.2755  0.1360
18943SOL    HW158270   2.623   7.071   1.417  1.0203 -0.0350 -0.8121
18943SOL    HW258271   2.505   6.987   1.371  1.4268 -0.7721 -0.5278
18944SOL     OW58272   0.221   3.970   5.396  0.2456 -0.1462 -0.1106
18944SOL    HW158273   0.209   4.061   5.371  1.0166  0.0319  0.1247
18944SOL    HW258274   0.141   3.947   5.444  0.1990  0.5129  0.1385
18945SOL     OW58275   7.723   1.937   7.571 -1.3354 -0.8275  0.2974
18945SOL    HW158276   7.706   2.012   7.628  1.9807 -0.7331  1.3739
18945SOL    HW258277   7.713   1.861   7.629  2.2216 -0.7225  1.2374
18946SOL     OW58278   1.558   4.646   1.851  0.5199 -0.5858  0.0907
18946SOL    HW158279   1.562   4.599   1.768  0.3176  2.4568 -1.7964
18946SOL    HW258280   1.465   4.657   1.868  0.4886  1.9438 -1.3232
18947SOL     OW58281   4.403   6.189   1.190 -0.0196  0.4124  0.4226
18947SOL    HW158282   4.353   6.271   1.188  0.2333  0.5616 -0.1835
18947SOL    HW258283   4.438   6.181   1.101 -0.7788 -0.8035  0.2057
18948SOL     OW58284   2.031   2.014  10.230 -0.3692  0.1686 -0.5954
18948SOL    HW158285   1.956   2.070  10.209 -0.2511  0.0657 -1.2986
18948SOL    HW258286   1.993   1.929  10.251 -0.5050  0.3467 -0.0843
18949SOL     OW58287   7.526   2.888   5.865  0.2388  0.6607 -0.1425
18949SOL    HW158288   7.594   2.830   5.830  0.9735  1.8419 -0.7354
18949SOL    HW258289   7.482   2.836   5.932 -0.0482 -1.0772 -1.6134
18950SOL     OW58290   4.524   4.739   4.302 -0.5506  0.7009 -0.3947
18950SOL    HW158291   4.465   4.666   4.322 -0.7071  0.7702 -0.6027
18950SOL    HW258292   4.471   4.817   4.315  0.1228  0.8783  1.6483
18951SOL     OW58293   3.174   5.319   2.071  0.6326  0.4521  0.5237
18951SOL    HW158294   3.243   5.334   2.136  0.5552 -1.4641  1.1059
18951SOL    HW258295   3.186   5.228   2.044  0.4404  1.0762 -1.9464
18952SOL     OW58296   7.969   3.654   0.242  0.5394  0.2239 -0.2543
18952SOL    HW158297   7.923   3.631   0.323 -0.1895  1.5857 -0.2485
18952SOL    HW258298   7.907   3.710   0.195  1.1406 -0.1538 -1.5399
18953SOL     OW58299   4.215   0.828   5.065  0.0542 -0.1969 -0.6935
18953SOL    HW158300   4.184   0.758   5.122 -2.2054  0.4925 -0.9980
18953SOL    HW258301   4.198   0.797   4.976  0.4360  0.1290 -0.8880
18954SOL     OW58302   5.464   2.114   1.116 -0.2095  0.0103 -0.2802
18954SOL    HW158303   5.491   2.173   1.187 -0.6431  2.2644 -1.9009
18954SOL    HW258304   5.542   2.104   1.061 -0.4605 -0.0151 -0.6352
18955SOL     OW58305   6.401   4.687   4.793  0.1414  0.2940 -0.0594
18955SOL    HW158306   6.383   4.594   4.805 -1.6122  0.5135 -0.6676
18955SOL    HW258307   6.447   4.713   4.873  0.0359 -0.9363  0.4277
18956SOL     OW58308   0.873   6.496   7.604  0.1416 -0.0512  0.7721
18956SOL    HW158309   0.906   6.408   7.588 -0.9070 -0.2139 -0.5980
18956SOL    HW258310   0.779   6.491   7.587  0.0950  1.3691  0.4677
18957SOL     OW58311   5.623   1.709   3.811 -0.3360  0.0315 -0.4076
18957SOL    HW158312   5.643   1.799   3.836 -0.2442 -0.2918  0.7113
18957SOL    HW258313   5.552   1.718   3.748 -1.2438  0.8408  0.6812
18958SOL     OW58314   3.052   3.678   2.459  0.4487  0.4297  0.0194
18958SOL    HW158315   3.129   3.654   2.511 -0.6035 -0.9592  0.9852
18958SOL    HW258316   2.979   3.635   2.502 -0.6636  0.3457 -1.8365
18959SOL     OW58317   2.222   3.435   5.455 -0.2957 -0.1761 -0.4191
18959SOL    HW158318   2.263   3.385   5.525 -3.1146  0.2180  1.6679
18959SOL    HW258319   2.211   3.523   5.491 -0.0737  0.5899 -2.1153
18960SOL     OW58320   5.987   7.292   4.535  0.6237 -0.8787 -0.6763
18960SOL    HW158321   5.996   7.203   4.501 -1.3477 -0.9912 -1.0480
18960SOL    HW258322   5.948   7.281   4.622 -0.4437 -0.3998 -1.0660
18961SOL     OW58323   2.234   1.144   3.855  0.1533 -0.2127  0.2796
18961SOL    HW158324   2.253   1.114   3.944  0.4528 -0.3555  0.1711
18961SOL    HW258325   2.214   1.064   3.806 -0.4168 -0.0941  0.3131
18962SOL     OW58326   2.869   3.582   4.334 -0.2928 -0.5212 -0.0556
18962SOL    HW158327   2.803   3.554   4.270  0.7749 -0.8061 -1.0591
18962SOL    HW258328   2.889   3.503   4.384 -0.9041 -0.3680  0.4477
18963SOL     OW58329   1.734   2.337   7.569  0.1035  0.2579 -0.1330
18963SOL    HW158330   1.810   2.395   7.583  0.2091  0.0074  0.3760
18963SOL    HW258331   1.658   2.392   7.592  0.1151  0.5657 -0.8194
18964SOL     OW58332   5.972   0.639  11.312  0.0872 -0.4509 -0.1401
18964SOL    HW158333   6.056   0.656  11.354 -0.8138  1.7194  0.9108
18964SOL    HW258334   5.915   0.710  11.341 -1.3788 -0.3467 -2.9106
18965SOL     OW58335   2.984   1.516   0.185 -0.6253  0.3254  0.1684
18965SOL    HW158336   2.982   1.604   0.147 -2.3977  0.1405 -0.2943
18965SOL    HW258337   3.024   1.462   0.117 -1.5472  0.4167 -0.4637
18966SOL     OW58338   1.224   2.499  10.533  0.0952 -0.2833  0.1669
18966SOL    HW158339   1.280   2.421  10.541 -0.6889 -0.7390  1.4680
18966SOL    HW258340   1.254   2.558  10.601 -1.2711 -0.7197  1.1830
18967SOL     OW58341   3.842   0.816   9.224  0.1260 -0.3725 -0.4123
18967SOL    HW158342   3.891   0.883   9.176 -0.4075 -0.0747 -0.5440
18967SOL    HW258343   3.809   0.862   9.301  0.3505 -0.6625 -0.1418
18968SOL     OW58344   6.967   2.349   5.023 -0.4718  0.1139 -0.1216
18968SOL    HW158345   6.989   2.364   5.115 -0.7409 -1.1204  0.1621
18968SOL    HW258346   6.925   2.263   5.022  0.9098 -0.5942 -1.6161
18969SOL     OW58347   0.808   2.390  11.913 -0.0352  0.2445 -0.4407
18969SOL    HW158348   0.901   2.392  11.937 -0.1991  0.0414  0.2199
18969SOL    HW258349   0.763   2.356  11.991 -0.3819 -2.3814 -1.6736
18970SOL     OW58350   0.959   5.358   3.688 -0.2182 -0.1050 -0.5318
18970SOL    HW158351   0.981   5.450   3.673 -0.7946  0.0718 -0.3025
18970SOL    HW258352   0.909   5.332   3.611  1.0059 -0.5952 -1.1980
18971SOL     OW58353   3.426   5.060   4.320 -0.2232  0.6525  0.4038
18971SOL    HW158354   3.410   5.138   4.266  0.9497 -0.7625 -2.1525
18971SOL    HW258355   3.502   5.018   4.280 -0.1705 -1.2889  2.3527
18972SOL     OW58356   4.095   5.613   6.882 -0.8576  0.2601 -0.5114
18972SOL    HW158357   4.109   5.519   6.888  0.9383  0.3025 -2.6621
18972SOL    HW258358   4.167   5.652   6.933 -1.5175  0.4973  0.2636
18973SOL     OW58359   4.007   6.748  10.705 -0.7521 -0.0835  0.4718
18973SOL    HW158360   4.000   6.661  10.744  2.4779  1.0150  4.1007
18973SOL    HW258361   4.063   6.736  10.628  0.6307 -1.1238  1.5978
18974SOL     OW58362   6.342   4.830   9.173  0.2356  0.3023 -0.0327
18974SOL    HW158363   6.270   4.893   9.173 -1.6708 -1.5939  3.4445
18974SOL    HW258364   6.325   4.774   9.097 -3.4890 -1.4615  1.8571
18975SOL     OW58365   7.365   1.142   6.520 -0.3577 -0.2598 -0.1210
18975SOL    HW158366   7.277   1.177   6.518 -1.1218 -2.0819 -0.8103
18975SOL    HW258367   7.353   1.047   6.526  1.5663 -0.5039  0.7078
18976SOL     OW58368   3.404   3.103  10.941  0.1891  0.0060  0.0990
18976SOL    HW158369   3.448   3.159  11.005  2.3250  0.8764 -2.0029
18976SOL    HW258370   3.474   3.050  10.904 -1.0634 -0.7943 -1.1893
18977SOL     OW58371   0.631   0.582   1.457 -0.5619 -0.3640 -0.5868
18977SOL    HW158372   0.563   0.558   1.394  0.2050 -0.0817 -1.5513
18977SOL    HW258373   0.583   0.622   1.529 -1.5003 -1.0772 -0.7853
18978SOL     OW58374   5.078   3.949   8.086 -0.9499  0.1182 -0.2160
18978SOL    HW158375   5.157   3.971   8.035 -0.3645 -0.3144  0.4820
18978SOL    HW258376   5.023   3.900   8.025 -0.0270 -0.8496 -0.3032
18979SOL     OW58377   5.805   7.753   1.667  0.3664  0.3603 -0.8103
18979SOL    HW158378   5.880   7.794   1.625  0.8160 -0.1232 -0.5045
18979SOL    HW258379   5.765   7.823   1.719  0.2127  0.7828 -1.4966
18980SOL     OW58380   4.680   1.776   1.394 -0.3729  0.3996  0.5975
18980SOL    HW158381   4.603   1.730   1.427 -1.3989  0.1935 -1.8492
18980SOL    HW258382   4.738   1.707   1.363 -0.1701  0.6174  0.4856
18981SOL     OW58383   2.387   3.445   9.759  0.2630 -0.2914 -0.4748
18981SOL    HW158384   2.323   3.373   9.756 -0.7071  0.4694  0.8041
18981SOL    HW258385   2.416   3.447   9.851 -0.0788  1.2147 -0.3705
18982SOL     OW58386   6.425   1.176  10.533  0.5038  0.2468  0.3602
18982SOL    HW158387   6.427   1.176  10.628  0.5772 -0.6963  0.3683
18982SOL    HW258388   6.480   1.102  10.507  0.0398  0.1458 -0.3934
18983SOL     OW58389   0.459   7.649  11.206  0.1249 -0.0045 -0.3792
18983SOL    HW158390   0.512   7.572  11.230 -1.8719 -1.1766  0.5610
18983SOL    HW258391   0.480   7.664  11.114  0.5971 -1.6718 -0.5889
18984SOL     OW58392   5.183   0.866   8.260 -0.1217  0.4174  0.0133
18984SOL    HW158393   5.187   0.776   8.292 -0.1091 -0.3237 -1.9625
18984SOL    HW258394   5.203   0.859   8.167 -3.1507  2.0846 -0.8791
18985SOL     OW58395   0.279   6.825   3.030 -1.1010 -0.0306  0.7292
18985SOL    HW158396   0.277   6.920   3.036 -3.5989 -0.1007  2.0045
18985SOL    HW258397   0.293   6.795   3.120 -0.0863 -0.9022  0.3098
18986SOL     OW58398   4.253   5.215   4.513  0.2911  0.0393 -0.4594
18986SOL    HW158399   4.265   5.295   4.566  2.4946 -0.3777 -0.2353
18986SOL    HW258400   4.223   5.150   4.576  1.6926 -0.1305  0.0618
18987SOL     OW58401   3.706   4.493   6.763  0.3050  0.4511  0.4910
18987SOL    HW158402   3.676   4.493   6.854 -0.9026  0.1696  0.1132
18987SOL    HW258403   3.674   4.576   6.727  1.5368  0.9671  0.5422
18988SOL     OW58404   4.525   0.274   8.067  0.2777 -0.1868  0.1768
18988SOL    HW158405   4.561   0.188   8.087 -0.8894 -0.9566 -0.9194
18988SOL    HW258406   4.579   0.335   8.118  1.6072 -1.4840  0.3815
18989SOL     OW58407   4.586   4.240  11.828  0.5549 -0.2505  0.6913
18989SOL    HW158408   4.571   4.237  11.922 -0.2639  2.2942  0.7155
18989SOL    HW258409   4.559   4.153  11.796  2.0251 -1.6209  2.8790
18990SOL     OW58410   5.698   1.939   3.317 -0.2131  0.5296  0.7067
18990SOL    HW158411   5.647   2.020   3.312 -1.9993 -0.4035  2.4160
18990SOL    HW258412   5.746   1.946   3.399  0.7866  0.4774  0.1363
18991SOL     OW58413   7.169   5.560   5.840  0.2470 -0.0707 -0.3179
18991SOL    HW158414   7.234   5.601   5.783  0.3780  0.4973  0.2268
18991SOL    HW258415   7.119   5.634   5.877  0.1264 -0.4273  0.2488
18992SOL     OW58416   4.170   4.338   7.423  0.5668 -0.5736  0.1615
18992SOL    HW158417   4.184   4.393   7.346  2.6862  1.3474  1.7809
18992SOL    HW258418   4.089   4.372   7.463  0.4034 -0.4486 -0.2738
18993SOL     OW58419   2.023   3.805   2.050  0.5896 -0.1784 -0.6117
18993SOL    HW158420   2.045   3.869   2.117  1.3647  1.3755 -2.2488
18993SOL    HW258421   1.968   3.740   2.094 -1.1427  2.1806  0.8859
18994SOL     OW58422   2.267   0.196   9.404 -0.3818  0.2349  0.4097
18994SOL    HW158423   2.360   0.216   9.391 -0.3102 -0.6808 -0.5584
18994SOL    HW258424   2.221   0.268   9.361 -0.1229  0.5655  0.6818
18995SOL     OW58425   4.698   7.157  12.281  0.3061  0.6465  0.0969
18995SOL    HW158426   4.747   7.081  12.312  0.3345  0.1391 -1.1314
18995SOL    HW258427   4.664   7.197  12.360 -1.0853 -1.5675  0.7089
18996SOL     OW58428   5.922   0.304   7.376 -0.6392  0.2505 -0.5114
18996SOL    HW158429   6.001   0.323   7.326 -0.6262 -0.3040 -0.7023
18996SOL    HW258430   5.883   0.228   7.333 -0.8010 -0.0287  0.1141
18997SOL     OW58431   7.217   1.954   7.887  0.2408  0.0156 -0.0358
18997SOL    HW158432   7.183   2.035   7.926 -0.6989  0.3208 -1.4403
18997SOL    HW258433   7.312   1.968   7.883 -0.0002  1.6239 -1.4242
18998SOL     OW58434   6.905   3.124   8.625  0.4216 -0.3627  0.2739
18998SOL    HW158435   6.884   3.071   8.702 -0.4944 -0.6726 -0.1806
18998SOL    HW258436   6.820   3.150   8.590  0.7255 -1.8059 -1.7291
18999SOL     OW58437   5.385   4.320   2.441 -0.0933  0.1840  0.4596
18999SOL    HW158438   5.346   4.233   2.434 -0.3269  0.4004 -1.4440
18999SOL    HW258439   5.310   4.380   2.435  0.2743  0.5473 -0.9092
19000SOL     OW58440   6.801   4.109  11.453  0.3135 -0.3161 -0.1873
19000SOL    HW158441   6.838   4.092  11.366  1.1653 -2.3754  0.5180
19000SOL    HW258442   6.754   4.028  11.474 -3.3519  1.5674 -0.3400
19001SOL     OW58443   2.728   4.249  11.542 -0.9776 -0.1311  0.2153
19001SOL    HW158444   2.767   4.167  11.572  0.7764  0.5269 -0.1351
19001SOL    HW258445   2.793   4.286  11.482 -1.1084  2.1071  1.3340
19002SOL     OW58446   4.937   3.510   2.208 -0.4467 -0.2804  0.0727
19002SOL    HW158447   4.976   3.424   2.224 -0.5666 -0.2633  0.4878
19002SOL    HW258448   4.878   3.496   2.134 -1.4113 -0.8597  0.9181
19003SOL     OW58449   7.153   1.809   4.188  0.6864 -0.4327  0.1058
19003SOL    HW158450   7.084   1.774   4.131 -0.5617  2.7750 -0.6426
19003SOL    HW258451   7.221   1.838   4.128  0.6717  0.3753  0.4646
19004SOL     OW58452   3.468   6.593   2.035  0.2674  1.2855 -0.2921
19004SOL    HW158453   3.520   6.672   2.020  0.6899  0.9430 -0.6241
19004SOL    HW258454   3.512   6.525   1.985 -0.4839  0.9850 -0.5591
19005SOL     OW58455   1.973   6.118   8.107  0.1775  0.3424 -0.6517
19005SOL    HW158456   1.962   6.155   8.019  2.3596 -1.0301 -1.5935
19005SOL    HW258457   2.058   6.074   8.104  0.2589  0.1290  2.1412
19006SOL     OW58458   4.172   2.752   4.766  0.6433 -0.6361 -0.3483
19006SOL    HW158459   4.080   2.772   4.750  0.8912  0.3298 -0.6337
19006SOL    HW258460   4.210   2.740   4.679  0.8014 -1.0152 -0.2333
19007SOL     OW58461   6.231   0.061   2.980 -0.0385 -0.8604  0.4527
19007SOL    HW158462   6.227  -0.034   2.986 -1.1143 -1.0317 -1.8154
19007SOL    HW258463   6.214   0.080   2.887  1.3759  1.4900  0.5859
19008SOL     OW58464   2.270   0.448   2.244 -0.0612 -0.3539 -0.0930
19008SOL    HW158465   2.278   0.543   2.239 -1.1368 -0.2120  0.5638
19008SOL    HW258466   2.324   0.416   2.172 -0.9129  0.8239 -1.3079
19009SOL     OW58467   4.132   4.640  12.112  0.2966  0.0980  0.0381
19009SOL    HW158468   4.173   4.560  12.143 -0.6384 -0.1013  0.8238
19009SOL    HW258469   4.040   4.617  12.100 -0.1284  1.2072  0.9367
19010SOL     OW58470   4.936   3.856   2.876 -0.0003  0.0476 -0.1313
19010SOL    HW158471   4.922   3.936   2.927  0.8734  0.2077 -0.1321
19010SOL    HW258472   4.967   3.792   2.940  0.1379 -0.0398 -0.2864
19011SOL     OW58473   2.907   4.361   5.839  0.0525 -0.2407 -0.0753
19011SOL    HW158474   2.969   4.392   5.906 -1.0305 -0.6780  1.1697
19011SOL    HW258475   2.904   4.432   5.775  1.4951 -0.0184  0.0598
19012SOL     OW58476   1.219   1.759   1.944 -0.0114 -0.1673 -0.2333
19012SOL    HW158477   1.141   1.781   1.894 -0.2257  0.3540  0.3223
19012SOL    HW258478   1.259   1.687   1.895 -1.5493 -1.3726  0.1907
19013SOL     OW58479   7.558   3.761   7.612  0.0485  0.1521 -0.2988
19013SOL    HW158480   7.592   3.802   7.691 -1.0619 -1.0812  0.8591
19013SOL    HW258481   7.631   3.709   7.579  1.2734  2.4147 -1.4362
19014SOL     OW58482   1.095   6.183   9.613 -0.3058 -0.4962  0.1784
19014SOL    HW158483   1.029   6.206   9.678  0.9727  0.2584  1.2685
19014SOL    HW258484   1.108   6.089   9.625 -1.1982 -0.6586 -0.0777
19015SOL     OW58485   4.357   5.251   9.267  0.0186  0.0943  0.2252
19015SOL    HW158486   4.351   5.157   9.252 -1.9551  0.2877 -0.4804
19015SOL    HW258487   4.351   5.290   9.180  1.4612  0.8942  0.4444
19016SOL     OW58488   5.770   2.016   3.682  0.9618 -0.2075  0.1074
19016SOL    HW158489   5.677   2.026   3.704  1.0136  0.3957  0.0794
19016SOL    HW258490   5.814   2.084   3.733  1.4994 -1.0721  0.8055
19017SOL     OW58491   3.301   0.026   4.300 -0.0198 -0.6496  0.2773
19017SOL    HW158492   3.253  -0.056   4.314  0.7056 -1.1758 -0.2757
19017SOL    HW258493   3.350   0.012   4.220 -0.8099  0.7830 -0.4903
19018SOL     OW58494   5.824   4.549   1.727  0.5616 -0.5582  0.7251
19018SOL    HW158495   5.893   4.492   1.694  0.6024 -0.4280  0.5872
19018SOL    HW258496   5.865   4.635   1.733  0.2108 -0.3302 -0.0402
19019SOL     OW58497   6.513   1.217   8.519  0.0488  0.0655 -0.0735
19019SOL    HW158498   6.553   1.304   8.527 -1.3189  0.7556 -0.5093
19019SOL    HW258499   6.548   1.182   8.438  1.3720 -0.2242  0.5962
19020SOL     OW58500   1.965   7.640   4.371 -0.0553 -0.2895 -0.4126
19020SOL    HW158501   2.040   7.672   4.320 -0.9994  0.5483 -1.3134
19020SOL    HW258502   1.895   7.628   4.307 -0.2673 -2.6200  0.1507
19021SOL     OW58503   7.209   0.876   7.995 -0.0478 -0.0935  0.2576
19021SOL    HW158504   7.151   0.946   7.965  0.0681 -0.6789 -1.4760
19021SOL    HW258505   7.251   0.911   8.073 -0.0811  1.7343 -0.4850
19022SOL     OW58506   4.395   0.330  11.559  0.0334  0.2474  0.4339
19022SOL    HW158507   4.414   0.362  11.471 -0.0389  1.5030  0.8517
19022SOL    HW258508   4.359   0.406  11.605 -1.8798 -0.8920  0.9649
19023SOL     OW58509   0.178   0.008   3.870 -0.4248  0.0568  0.4701
19023SOL    HW158510   0.256   0.038   3.822 -0.7314  1.2359  0.6698
19023SOL    HW258511   0.146  -0.066   3.818  0.6981 -0.3151  0.2678
19024SOL     OW58512   6.898   7.312   5.746 -0.5125 -0.0811  0.0224
19024SOL    HW158513   6.975   7.366   5.726 -0.7412  0.0066 -0.6508
19024SOL    HW258514   6.912   7.284   5.836  0.9187 -1.0769 -0.4639
19025SOL     OW58515   5.413   4.565  11.029 -0.6833  0.0883  0.5693
19025SOL    HW158516   5.450   4.652  11.037  0.5044 -0.2864 -0.5855
19025SOL    HW258517   5.435   4.522  11.112  1.9871 -0.2770 -0.2298
19026SOL     OW58518   3.227   6.700   1.868  0.3835  0.3284 -0.4241
19026SOL    HW158519   3.226   6.655   1.784  2.0035 -0.8682  0.1421
19026SOL    HW258520   3.290   6.651   1.921 -0.8160  0.8590  1.6039
19027SOL     OW58521   7.841   6.211  11.046  0.6362 -0.1338 -0.7211
19027SOL    HW158522   7.767   6.253  11.090  0.5427 -2.2551  1.3469
19027SOL    HW258523   7.916   6.228  11.104  1.2323 -0.1418 -1.4818
19028SOL     OW58524   5.405   6.351   0.681  0.0964 -0.0873  0.2782
19028SOL    HW158525   5.345   6.375   0.751  0.7496  0.8744  0.5291
19028SOL    HW258526   5.491   6.345   0.724  0.3030 -0.7356 -0.2037
19029SOL     OW58527   0.922   5.161   3.861  0.0522  0.1849  0.5729
19029SOL    HW158528   0.907   5.238   3.806  0.8380  0.8781  1.2979
19029SOL    HW258529   0.952   5.094   3.800 -1.3148  0.2286 -0.1713
19030SOL     OW58530   0.438   4.693   3.590 -0.0674 -0.0091  0.3314
19030SOL    HW158531   0.457   4.785   3.571 -0.3073  0.2245  1.1857
19030SOL    HW258532   0.507   4.666   3.650 -0.7641  0.0210  1.1731
19031SOL     OW58533   5.088   6.181   1.484  0.4888  0.0164 -0.2640
19031SOL    HW158534   5.168   6.189   1.536 -1.2945  0.2613  2.7094
19031SOL    HW258535   5.067   6.270   1.458  0.8005  0.0501 -0.3961
19032SOL     OW58536   3.075   7.563   7.497 -0.2286  0.1542  0.1654
19032SOL    HW158537   3.167   7.563   7.469 -0.3201  0.6904 -0.1313
19032SOL    HW258538   3.069   7.487   7.555 -0.0058 -0.9106 -1.1571
19033SOL     OW58539   3.045   7.475   4.328 -0.4054  0.7020 -0.5676
19033SOL    HW158540   3.057   7.570   4.334 -0.0799  0.8144 -2.4833
19033SOL    HW258541   3.028   7.458   4.235  0.0469 -1.1795 -0.3548
19034SOL     OW58542   0.130   7.832   9.909 -0.0708 -0.5626  0.0211
19034SOL    HW158543   0.063   7.834   9.977 -0.6379 -2.0311 -0.4635
19034SOL    HW258544   0.083   7.809   9.829  0.6452  0.7689 -0.8379
19035SOL     OW58545   7.117   5.075   1.140 -0.6288  0.1681 -0.2875
19035SOL    HW158546   7.134   4.985   1.165 -1.3264  0.0451 -0.2252
19035SOL    HW258547   7.114   5.074   1.044 -0.8100  0.0863 -0.2822
19036SOL     OW58548   4.371   2.695   9.579 -0.4120  0.1937  0.1281
19036SOL    HW158549   4.465   2.683   9.592  0.0485 -0.4659 -2.9232
19036SOL    HW258550   4.341   2.611   9.545 -2.1004  0.4367  0.9496
19037SOL     OW58551   4.518   1.806  11.918  0.2635  0.2720 -0.2466
19037SOL    HW158552   4.460   1.879  11.895 -0.7477 -0.2043  0.6526
19037SOL    HW258553   4.602   1.847  11.938 -0.0755  1.1107 -0.4891
19038SOL     OW58554   5.134   3.467   0.851  0.1825 -0.0623  0.1607
19038SOL    HW158555   5.063   3.407   0.871  1.6520 -1.5057  1.3051
19038SOL    HW258556   5.121   3.541   0.911  0.2683 -0.8443  1.1624
19039SOL     OW58557   4.955   4.855   5.631  0.1291 -0.6858  0.1438
19039SOL    HW158558   4.990   4.826   5.715 -0.3810  1.7213  1.2741
19039SOL    HW258559   4.954   4.951   5.637 -1.3074 -0.4888 -2.0351
19040SOL     OW58560   7.585   2.705  11.655 -0.8788 -0.7577  0.2099
19040SOL    HW158561   7.642   2.719  11.730 -1.9601 -0.1496  0.9387
19040SOL    HW258562   7.497   2.698  11.692 -1.4609 -0.2280 -1.0180
19041SOL     OW58563   2.491   6.052   6.624  0.7187  0.5490  0.3072
19041SOL    HW158564   2.424   6.089   6.682  1.3763  1.3584  0.5656
19041SOL    HW258565   2.444   6.036   6.542  0.2591  1.3505  0.3978
19042SOL     OW58566   2.943   4.513   5.112  0.3163  0.8452  0.5782
19042SOL    HW158567   2.889   4.471   5.179 -0.3495  1.5960  0.5290
19042SOL    HW258568   2.942   4.606   5.134  0.6538  1.0151 -0.0775
19043SOL     OW58569   3.474   4.968   2.241 -0.2057 -0.2937 -0.3843
19043SOL    HW158570   3.538   4.898   2.224  0.3574  0.0166  0.4235
19043SOL    HW258571   3.527   5.048   2.246 -0.7043  0.0185 -0.0615
19044SOL     OW58572   0.287   0.513   8.036  0.5008 -0.0024  0.0098
19044SOL    HW158573   0.333   0.522   8.120  0.8629 -0.5740 -0.1219
19044SOL    HW258574   0.195   0.527   8.057  0.7063  0.9643  0.3115
19045SOL     OW58575   4.992   1.848   6.561  0.5145 -0.6371 -0.1169
19045SOL    HW158576   4.906   1.836   6.519 -0.0667  1.0239  0.4881
19045SOL    HW258577   5.024   1.760   6.576 -1.5523 -1.3457  0.5487
19046SOL     OW58578   4.752   4.943   2.270 -0.3817  0.4781  0.0448
19046SOL    HW158579   4.740   5.004   2.197  1.9807  2.0081  0.7989
19046SOL    HW258580   4.749   4.857   2.229 -0.5509  1.2353 -1.6414
19047SOL     OW58581   0.073   0.357  11.440  0.4137  0.2787 -0.0873
19047SOL    HW158582   0.152   0.381  11.489 -0.8211  0.2680  2.0055
19047SOL    HW258583   0.048   0.437  11.394  0.4972  0.8982  0.9109
19048SOL     OW58584   6.681   1.957   1.891  0.0585 -0.6818 -0.3240
19048SOL    HW158585   6.638   1.874   1.869  1.5557 -1.5932  0.0259
19048SOL    HW258586   6.665   1.968   1.985 -1.9338  0.5545 -0.7531
19049SOL     OW58587   6.336   4.508   7.500  0.3298 -0.0710  0.0048
19049SOL    HW158588   6.394   4.569   7.546 -0.1989  0.2018  0.3194
19049SOL    HW258589   6.270   4.484   7.565  0.4444 -0.8706 -0.1560
19050SOL     OW58590   3.905   2.741   0.135 -0.7969  0.2509 -0.4667
19050SOL    HW158591   3.907   2.806   0.205  1.2214  0.3197 -0.5357
19050SOL    HW258592   3.822   2.757   0.090 -0.2807  2.9743 -0.6282
19051SOL     OW58593   3.201   4.799  12.174 -0.2752 -0.7119 -0.4031
19051SOL    HW158594   3.207   4.894  12.180  0.3968 -0.7280 -0.6519
19051SOL    HW258595   3.261   4.767  12.242  0.8755 -0.9365 -1.4887
19052SOL     OW58596   6.609   7.956   8.263  0.1682 -0.1055 -0.2197
19052SOL    HW158597   6.657   7.992   8.189 -1.4024 -0.6274 -1.5407
19052SOL    HW258598   6.524   8.000   8.261 -0.5816 -1.4641  0.1212
19053SOL     OW58599   0.595   3.020   7.221  0.2036 -0.1311 -0.0403
19053SOL    HW158600   0.650   3.056   7.152 -0.5795  1.1714 -0.0139
19053SOL    HW258601   0.653   3.014   7.297  0.1572  1.9599  0.2087
19054SOL     OW58602   0.686   6.159   8.249  0.1236 -0.0594  0.0646
19054SOL    HW158603   0.700   6.065   8.241 -0.4293 -0.1113 -0.3547
19054SOL    HW258604   0.613   6.177   8.191  0.3317  0.6580  0.0191
19055SOL     OW58605   5.232   2.179   5.009  0.4229 -0.2320 -0.0213
19055SOL    HW158606   5.321   2.212   5.017  0.1865  0.1936  1.0471
19055SOL    HW258607   5.222   2.119   5.083 -0.1332 -0.3774 -0.2104
19056SOL     OW58608   3.180   1.997  10.731 -0.3641  0.5240 -0.5256
19056SOL    HW158609   3.173   1.978  10.638 -0.3808  0.9871 -0.6224
19056SOL    HW258610   3.116   1.939  10.773  0.7835 -0.8577 -0.6351
19057SOL     OW58611   7.122   4.347  11.010  0.5744 -0.4072  0.4544
19057SOL    HW158612   7.192   4.296  11.050 -0.1429 -0.9771  0.9949
19057SOL    HW258613   7.041   4.305  11.039  0.0093 -0.1274 -0.6391
19058SOL     OW58614   1.090   4.342   9.880  0.0823 -0.2540 -0.1945
19058SOL    HW158615   1.046   4.415   9.924  1.0433 -0.7414  1.6406
19058SOL    HW258616   1.028   4.269   9.886 -0.9659  0.3670 -2.2055
19059SOL     OW58617   2.650   2.711  12.183  0.5292  0.4236  0.7079
19059SOL    HW158618   2.620   2.712  12.092 -0.6123 -1.2496  1.0117
19059SOL    HW258619   2.743   2.689  12.177  0.3113 -0.3532 -0.0471
19060SOL     OW58620   4.862   5.902   8.045  0.0573  0.6537  0.5140
19060SOL    HW158621   4.933   5.967   8.050 -0.6130  1.3236  2.3418
19060SOL    HW258622   4.895   5.828   8.097 -1.1705  1.6617  2.9108
19061SOL     OW58623   2.274   5.740   7.163 -0.4518  0.0013 -0.1976
19061SOL    HW158624   2.254   5.787   7.244 -0.9563  0.7325 -0.7323
19061SOL    HW258625   2.232   5.655   7.173 -0.6096  0.1325  0.2570
19062SOL     OW58626   5.801   3.641   2.971 -0.1744  0.5633 -0.5502
19062SOL    HW158627   5.839   3.555   2.984 -1.9283 -0.5943 -2.3642
19062SOL    HW258628   5.744   3.654   3.047  1.3046  0.8907  0.5425
19063SOL     OW58629   2.267   0.092   9.669  0.2448  0.1925 -0.0720
19063SOL    HW158630   2.258   0.083   9.574  2.4414  0.1567 -0.3326
19063SOL    HW258631   2.251   0.004   9.703 -1.9210  0.4720 -0.2153
19064SOL     OW58632   6.411   3.385   6.404 -0.4826  0.0874  0.0706
19064SOL    HW158633   6.424   3.442   6.329 -1.7688 -0.4323 -0.5697
19064SOL    HW258634   6.494   3.338   6.413 -0.6334 -0.5660 -1.6455
19065SOL     OW58635   0.982   2.592  10.492 -0.4313  0.1442  0.7470
19065SOL    HW158636   1.067   2.548  10.495 -0.9757 -1.1011 -0.7794
19065SOL    HW258637   0.918   2.521  10.493 -1.3942  0.9783  0.1408
19066SOL     OW58638   4.151   7.914   3.744 -0.0320  0.7366  0.3734
19066SOL    HW158639   4.088   7.984   3.761 -0.1462  1.1904 -1.6914
19066SOL    HW258640   4.164   7.915   3.649  0.2046 -1.8435  0.2961
19067SOL     OW58641   5.467   6.401   6.263  0.3106 -0.3180 -0.4502
19067SOL    HW158642   5.536   6.453   6.303  0.8572 -0.3759 -1.2993
19067SOL    HW258643   5.491   6.310   6.281 -0.2518 -0.3189  0.3858
19068SOL     OW58644   7.397   7.115   6.014  0.2173  0.3637 -0.0215
19068SOL    HW158645   7.415   7.129   6.107  1.0950  2.5337 -0.4516
19068SOL    HW258646   7.364   7.200   5.983 -3.5281 -1.2238 -0.9946
19069SOL     OW58647   0.283   0.109   5.079  0.1653  0.0733  0.5659
19069SOL    HW158648   0.374   0.108   5.110  0.5774 -1.8009 -0.5355
19069SOL    HW258649   0.247   0.025   5.108 -1.1311  0.6676  0.7262
19070SOL     OW58650   5.363   2.794   3.730  0.6255  0.3023 -0.6687
19070SOL    HW158651   5.416   2.754   3.661 -1.8079 -0.9127 -1.9751
19070SOL    HW258652   5.273   2.773   3.706 -0.4892  2.2315  1.4384
19071SOL     OW58653   3.879   5.153   9.786  0.2434  0.2930  0.3949
19071SOL    HW158654   3.937   5.223   9.757 -0.7110  1.0110  0.1630
19071SOL    HW258655   3.797   5.168   9.739  0.4689 -1.9170 -0.8941
19072SOL     OW58656   6.660   3.847   9.162  0.1569 -0.5751 -0.4209
19072SOL    HW158657   6.730   3.825   9.100  0.4464  2.7222 -1.4470
19072SOL    HW258658   6.706   3.873   9.242  0.2689  2.0445 -1.2454
19073SOL     OW58659   1.425   6.073   0.854 -0.0832  0.1211 -0.4520
19073SOL    HW158660   1.362   6.135   0.817 -1.1747 -0.3457  0.5484
19073SOL    HW258661   1.510   6.116   0.845 -0.8453  1.9508  0.5770
19074SOL     OW58662   4.198   4.764  11.877  0.0105  0.7256 -0.9635
19074SOL    HW158663   4.178   4.716  11.957  1.0347 -0.3321 -1.3161
19074SOL    HW258664   4.293   4.755  11.867 -0.4062 -2.1358 -4.0928
19075SOL     OW58665   4.546   5.184   5.679 -0.5752 -0.3420 -0.9590
19075SOL    HW158666   4.500   5.264   5.654 -3.3960 -1.8068 -0.9213
19075SOL    HW258667   4.508   5.116   5.622  0.4742 -1.9198  0.1443
19076SOL     OW58668   1.793   5.729   4.080 -0.0773 -0.6458 -0.6410
19076SOL    HW158669   1.874   5.776   4.101 -0.0397 -0.3806 -1.3626
19076SOL    HW258670   1.815   5.636   4.092  0.6064 -0.6358 -1.6801
19077SOL     OW58671   2.056   5.778   8.197 -0.1564  0.0036 -0.0871
19077SOL    HW158672   1.967   5.808   8.213  0.2056  0.7992  0.5077
19077SOL    HW258673   2.052   5.683   8.210 -0.5318  0.2331  1.8370
19078SOL     OW58674   3.142   3.505   3.870  0.3120 -0.7665 -0.4654
19078SOL    HW158675   3.207   3.540   3.931  1.3699  0.2257 -2.0662
19078SOL    HW258676   3.189   3.436   3.822 -0.7038 -1.9965  0.2783
19079SOL     OW58677   5.833   0.948   1.904 -0.0816 -0.0113 -0.2898
19079SOL    HW158678   5.866   0.879   1.847 -0.7796  1.1733 -2.2381
19079SOL    HW258679   5.737   0.943   1.895 -0.2637 -0.3298  1.4828
19080SOL     OW58680   6.953   5.897  12.006  0.0654  0.0894 -0.1386
19080SOL    HW158681   7.005   5.823  11.977 -1.2036 -1.3073  0.9692
19080SOL    HW258682   6.993   5.925  12.089  0.4293  0.5264 -0.4590
19081SOL     OW58683   5.371   1.015   1.133 -0.7078 -0.4907 -0.4442
19081SOL    HW158684   5.463   1.020   1.159 -0.7367  2.1587 -0.6088
19081SOL    HW258685   5.324   1.067   1.199 -1.6154  0.9950 -2.1739
19082SOL     OW58686   1.608   1.503   2.781 -1.2918 -0.1778  0.0590
19082SOL    HW158687   1.690   1.465   2.813 -0.8609  1.7682  1.4781
19082SOL    HW258688   1.619   1.508   2.686 -0.2004 -0.8840  0.1263
19083SOL     OW58689   3.653   0.938   5.575 -0.1352  0.0099  0.3066
19083SOL    HW158690   3.607   0.895   5.647  0.9932  0.0741  1.0950
19083SOL    HW258691   3.584   0.983   5.527 -1.3355 -2.4550 -0.4426
19084SOL     OW58692   1.488   6.185  11.418  0.6137 -0.2252 -0.5218
19084SOL    HW158693   1.519   6.273  11.439 -0.4204  0.3406 -1.2651
19084SOL    HW258694   1.529   6.165  11.334  0.8307 -0.4420 -0.3632
19085SOL     OW58695   0.275   4.859   5.066  0.2648 -0.3223 -0.2412
19085SOL    HW158696   0.300   4.950   5.082  1.3830 -0.6407 -0.0947
19085SOL    HW258697   0.294   4.814   5.148 -2.2978 -0.3167  0.4225
19086SOL     OW58698   0.869   3.892   5.554 -0.5826 -0.3216  0.2418
19086SOL    HW158699   0.868   3.913   5.461  0.6809  0.8391  0.4627
19086SOL    HW258700   0.916   3.809   5.559  0.5801  0.2934 -0.0610
19087SOL     OW58701   2.388   0.514   1.985 -0.1041  0.0414 -0.1220
19087SOL    HW158702   2.416   0.606   1.988  1.2071 -0.3309 -0.4863
19087SOL    HW258703   2.467   0.465   1.964 -0.7613 -1.2025  0.2054
19088SOL     OW58704   5.328   4.578   9.362 -0.2124 -0.3153 -0.0313
19088SOL    HW158705   5.372   4.507   9.409 -1.1577 -1.3219 -0.6173
19088SOL    HW258706   5.382   4.591   9.283 -1.1714 -1.9015 -1.0103
19089SOL     OW58707   5.233   6.179  11.845 -0.8817 -0.1440 -0.4412
19089SOL    HW158708   5.252   6.231  11.767  1.8316 -0.2423  0.0683
19089SOL    HW258709   5.269   6.093  11.827  0.4212  0.0220  1.1341
19090SOL     OW58710   6.868   0.555   9.617 -0.2158  0.2582 -0.1853
19090SOL    HW158711   6.939   0.519   9.669  0.6078  0.1198 -1.3534
19090SOL    HW258712   6.790   0.543   9.670  0.6160  0.3612  1.1071
19091SOL     OW58713   2.776   6.939   8.925 -0.3951 -0.6614  0.2222
19091SOL    HW158714   2.681   6.933   8.940 -0.7253  1.7143 -0.5460
19091SOL    HW258715   2.813   6.954   9.012 -1.1340  1.7873  0.1945
19092SOL     OW58716   4.261   1.020   1.175  0.0316  0.1340 -0.8483
19092SOL    HW158717   4.288   0.928   1.165 -0.0124  0.0516 -0.2535
19092SOL    HW258718   4.344   1.068   1.180  0.0645  0.0465 -0.4952
19093SOL     OW58719   0.763   0.193   9.659 -0.5308 -0.3669 -0.5795
19093SOL    HW158720   0.784   0.264   9.720 -0.4618 -0.5723 -0.3638
19093SOL    HW258721   0.841   0.138   9.658 -0.0457  0.3061 -1.8062
19094SOL     OW58722   2.506   5.050   2.462 -0.7025  0.3393 -0.2357
19094SOL    HW158723   2.583   5.095   2.496 -0.1165 -0.2491 -0.7608
19094SOL    HW258724   2.457   5.022   2.540  1.2355 -2.0832  0.2426
19095SOL     OW58725   1.431   6.588  10.800 -0.1334 -0.4622  0.5465
19095SOL    HW158726   1.361   6.644  10.835  0.9823  1.6800 -0.4296
19095SOL    HW258727   1.400   6.563  10.712 -0.0982 -0.3124  0.4909
19096SOL     OW58728   5.962   1.816   4.142 -0.4875 -0.2717 -0.1025
19096SOL    HW158729   6.040   1.870   4.129  0.3225  0.0142  4.4323
19096SOL    HW258730   5.970   1.747   4.076  1.5653  1.7609 -2.1834
19097SOL     OW58731   6.900   7.353   8.130 -0.0625  0.7112  0.0035
19097SOL    HW158732   6.984   7.311   8.108  0.7894  0.9720  2.3937
19097SOL    HW258733   6.920   7.446   8.132 -0.2007  0.7332  1.2211
19098SOL     OW58734   1.578   4.973   5.742  0.2307  0.0215 -0.2047
19098SOL    HW158735   1.555   4.967   5.834 -1.0099  1.6829 -0.3565
19098SOL    HW258736   1.654   4.916   5.732  0.3957 -0.1718  1.8379
19099SOL     OW58737   5.956   6.140   9.584  0.4593  0.3320  0.3246
19099SOL    HW158738   5.991   6.169   9.668 -0.5333  1.1037  0.4956
19099SOL    HW258739   5.981   6.208   9.522 -1.7334  1.5784  0.6945
19100SOL     OW58740   3.928   1.883   9.566 -0.3119 -0.3637 -0.0068
19100SOL    HW158741   3.869   1.932   9.622 -0.1542 -1.3576  1.0853
19100SOL    HW258742   4.016   1.907   9.597 -0.1684  0.2042 -0.8269
19101SOL     OW58743   7.955   5.204   8.097  0.0056 -0.2186 -0.3268
19101SOL    HW158744   7.945   5.221   8.003 -1.5330 -0.8674 -0.3095
19101SOL    HW258745   7.898   5.129   8.114 -0.1101  0.1951  1.2261
19102SOL     OW58746   4.981   0.698   8.042 -0.4672 -0.1749  0.2473
19102SOL    HW158747   5.020   0.663   8.121  1.0256  0.8401 -0.0011
19102SOL    HW258748   4.909   0.753   8.073  0.3405  0.5155  0.9439
19103SOL     OW58749   0.484   6.396   5.356 -0.4485 -0.3678 -0.8978
19103SOL    HW158750   0.396   6.427   5.339 -0.5406  0.2016  0.4581
19103SOL    HW258751   0.475   6.301   5.365 -0.7149 -0.4453 -1.8942
19104SOL     OW58752   7.041   6.630   9.811  0.6825  0.5144 -0.1199
19104SOL    HW158753   7.040   6.704   9.751 -0.6657  1.6172  1.2273
19104SOL    HW258754   6.973   6.571   9.779  0.2042  0.9362  0.1226
19105SOL     OW58755   0.121   2.207  11.109  0.3163 -0.1653 -0.0148
19105SOL    HW158756   0.099   2.268  11.180  0.2981  1.0649 -1.0367
19105SOL    HW258757   0.059   2.135  11.119 -0.1876  0.3620  0.7570
19106SOL     OW58758   3.838   7.876   1.609  0.4249 -0.2139 -0.7219
19106SOL    HW158759   3.905   7.828   1.559  1.7073  0.5550  0.1837
19106SOL    HW258760   3.883   7.902   1.689 -1.0782  0.0800  0.0570
19107SOL     OW58761   7.820   3.751   5.764 -0.3692  0.1827  0.3180
19107SOL    HW158762   7.821   3.686   5.694  0.6422  2.2195 -1.7129
19107SOL    HW258763   7.754   3.720   5.826 -1.1089 -1.8553 -1.3879
19108SOL     OW58764   6.862   4.126   3.733 -0.4418 -0.1089 -0.0470
19108SOL    HW158765   6.813   4.113   3.815 -0.6273 -2.1034 -0.4346
19108SOL    HW258766   6.868   4.221   3.725 -1.2240  0.1585  1.8067
19109SOL     OW58767   7.182   0.392   5.831 -0.2122 -0.3158  0.0609
19109SOL    HW158768   7.099   0.429   5.803 -0.1620 -0.2268  0.0307
19109SOL    HW258769   7.239   0.401   5.755  0.1173  0.5043  0.3906
19110SOL     OW58770   0.053   5.092   5.893  0.3282  0.3695 -0.4426
19110SOL    HW158771   0.009   5.071   5.976  1.0520 -0.7731 -0.3184
19110SOL    HW258772   0.013   5.174   5.864 -0.1437  0.6305  0.8906
19111SOL     OW58773   4.489   4.869   0.184 -0.4108  0.1852 -0.0002
19111SOL    HW158774   4.479   4.897   0.093  1.1393  1.8261  0.2724
19111SOL    HW258775   4.584   4.870   0.199 -0.4928 -2.1358  1.0383
19112SOL     OW58776   5.376   6.317   6.802  0.2143  0.4972 -0.1899
19112SOL    HW158777   5.348   6.408   6.798 -2.0614  0.0233  2.1011
19112SOL    HW258778   5.344   6.279   6.720  0.1250  1.4913 -0.6305
19113SOL     OW58779   2.880   4.391   1.416  0.3753  0.3218 -0.2209
19113SOL    HW158780   2.833   4.365   1.495 -0.9498  0.0958 -1.0497
19113SOL    HW258781   2.966   4.349   1.424 -0.4481 -1.3952  0.1636
19114SOL     OW58782   7.151   5.634   3.421  0.2300  0.0209  0.3010
19114SOL    HW158783   7.170   5.727   3.436 -1.2351  0.2016  1.2446
19114SOL    HW258784   7.221   5.588   3.468  1.8190  0.5999 -1.3663
19115SOL     OW58785   5.955   4.041   6.220 -0.2869  0.0604 -0.0519
19115SOL    HW158786   5.919   3.967   6.270 -1.6140 -1.5039 -3.0737
19115SOL    HW258787   6.046   4.047   6.250 -1.2597  0.1133  3.3822
19116SOL     OW58788   5.569   4.691   9.548  0.1447  0.6845 -0.2938
19116SOL    HW158789   5.534   4.602   9.542  1.3539  0.2109 -0.5329
19116SOL    HW258790   5.549   4.718   9.637  1.4729 -0.5773  0.4215
19117SOL     OW58791   7.388   1.418   6.291 -0.2405  0.3618  0.4379
19117SOL    HW158792   7.478   1.447   6.305  0.1394 -0.0207 -1.0276
19117SOL    HW258793   7.337   1.465   6.357  1.1608 -0.2553  2.0561
19118SOL     OW58794   6.455   6.664   2.985  0.6688  0.3043  0.5343
19118SOL    HW158795   6.513   6.737   3.005 -0.5357  1.7807 -1.0884
19118SOL    HW258796   6.378   6.704   2.945 -0.4421 -1.7884  0.4212
19119SOL     OW58797   1.994   4.755   6.209 -0.8620  0.0556 -0.3810
19119SOL    HW158798   2.025   4.669   6.239  0.6915  1.3940  2.2119
19119SOL    HW258799   1.989   4.747   6.114  1.9509 -2.0852 -0.4850
19120SOL     OW58800   7.028   4.605   7.465 -0.3426 -0.2104 -0.3452
19120SOL    HW158801   6.992   4.517   7.461 -2.5830  0.6331 -0.5940
19120SOL    HW258802   6.957   4.658   7.502  0.1457  1.8382 -2.1215
19121SOL     OW58803   1.229   1.145  10.770  0.4382 -0.4283  0.3176
19121SOL    HW158804   1.152   1.120  10.822 -0.1079 -1.8507 -1.0849
19121SOL    HW258805   1.192   1.180  10.689  1.2536 -0.6449 -0.1574
19122SOL     OW58806   5.047   4.468  10.388  0.3554 -0.5422  0.0060
19122SOL    HW158807   5.071   4.475  10.481  1.3976 -0.3612 -0.2579
19122SOL    HW258808   4.972   4.527  10.378  1.5467  1.0908  0.3205
19123SOL     OW58809   0.586   0.364  11.769  0.0955  0.3608  0.3110
19123SOL    HW158810   0.496   0.355  11.738 -0.1039  0.9036  0.7180
19123SOL    HW258811   0.581   0.345  11.862  0.6197 -0.8486  0.1120
19124SOL     OW58812   5.550   3.082  11.293 -0.3293  0.2842  0.0133
19124SOL    HW158813   5.478   3.088  11.355  0.5635  0.7807  1.0443
19124SOL    HW258814   5.623   3.047  11.345  0.6044  1.2442 -0.6091
19125SOL     OW58815   7.577   6.597   7.451 -0.2144  0.2080  0.4728
19125SOL    HW158816   7.611   6.678   7.415  0.8322 -0.1171  0.6930
19125SOL    HW258817   7.643   6.531   7.430 -0.9921 -0.5766  0.3893
19126SOL     OW58818   5.255   3.813   9.378  0.1355 -0.6280 -0.1588
19126SOL    HW158819   5.194   3.885   9.394  1.0644  0.0828  0.2828
19126SOL    HW258820   5.234   3.783   9.290 -1.0976 -0.6442  0.1318
19127SOL     OW58821   7.265   1.909   6.087  0.5755  0.0521  0.5429
19127SOL    HW158822   7.209   1.958   6.146 -0.6327 -1.9315  1.1239
19127SOL    HW258823   7.209   1.890   6.011  1.4229  0.6741 -0.2535
19128SOL     OW58824   2.326   7.168  11.699  0.2418  0.3530  0.0791
19128SOL    HW158825   2.356   7.077  11.697  1.6037  0.7789 -0.8231
19128SOL    HW258826   2.256   7.171  11.634  1.3627  0.2909 -1.1798
19129SOL     OW58827   6.547   7.967   5.020  0.1293  0.0817  0.4753
19129SOL    HW158828   6.541   7.976   4.925 -1.7239  0.3278  0.5752
19129SOL    HW258829   6.610   8.035   5.046 -0.2876  0.8602 -0.4596
19130SOL     OW58830   3.107   3.080  10.250 -0.0266 -0.1457  0.0224
19130SOL    HW158831   3.175   3.138  10.217 -1.2058 -0.1742 -2.8085
19130SOL    HW258832   3.060   3.131  10.315  0.2589  1.3094 -0.8784
19131SOL     OW58833   0.716   5.549   1.245 -0.5432  0.5296 -0.4621
19131SOL    HW158834   0.713   5.640   1.273  0.0060  0.7064 -0.9571
19131SOL    HW258835   0.719   5.499   1.326 -0.1501  0.9820 -0.1931
19132SOL     OW58836   6.609   5.935  10.789  0.3170  0.0669  0.0098
19132SOL    HW158837   6.538   5.915  10.850  0.7702 -0.6401  0.3191
19132SOL    HW258838   6.648   5.850  10.769  2.2388  0.5916  1.2500
19133SOL     OW58839   2.453   0.737   3.062 -0.7354 -0.5780 -0.2953
19133SOL    HW158840   2.456   0.643   3.044 -2.3570 -0.8016  0.4099
19133SOL    HW258841   2.492   0.746   3.149 -3.1806 -1.0641  0.9644
19134SOL     OW58842   3.093   4.399   5.509 -0.6139 -0.0017 -0.5475
19134SOL    HW158843   3.137   4.321   5.544 -3.5359 -1.7063 -0.3129
19134SOL    HW258844   3.161   4.444   5.460  1.5116 -2.1078  0.2316
19135SOL     OW58845   5.489   4.640   7.324 -0.0931  0.1244  0.0409
19135SOL    HW158846   5.512   4.640   7.231  1.2412 -1.6180  0.3089
19135SOL    HW258847   5.446   4.556   7.338 -0.2181  0.3397  1.0231
19136SOL     OW58848   4.132   7.280  11.388 -0.3500  0.1156 -0.2138
19136SOL    HW158849   4.194   7.238  11.448  0.1987  1.6766  0.3754
19136SOL    HW258850   4.064   7.214  11.373 -0.5714 -0.3086  2.2080
19137SOL     OW58851   4.803   0.734   4.212  0.7462  0.3013  0.3184
19137SOL    HW158852   4.808   0.653   4.162  1.7418 -0.1924  1.1810
19137SOL    HW258853   4.801   0.804   4.147  1.2279 -0.3575 -0.4068
19138SOL     OW58854   7.686   4.178   0.954  0.1888 -0.2352  0.3835
19138SOL    HW158855   7.613   4.226   0.914  0.5788  0.4027  0.4201
19138SOL    HW258856   7.682   4.203   1.047  0.1586 -0.5853  0.4760
19139SOL     OW58857   3.576   7.098   2.784  1.3454  0.0457 -0.6337
19139SOL    HW158858   3.629   7.031   2.741 -0.5299 -1.9537  0.0265
19139SOL    HW258859   3.537   7.147   2.712  0.7442 -1.2389 -1.2204
19140SOL     OW58860   2.531   2.487   2.067 -0.1615  0.0173  0.0171
19140SOL    HW158861   2.518   2.419   2.133 -0.4882  0.0497 -0.0138
19140SOL    HW258862   2.459   2.548   2.080  0.2319  0.4608  0.1653
19141SOL     OW58863   0.193   0.323   7.791  0.0212  0.7197 -0.2862
19141SOL    HW158864   0.227   0.365   7.870 -3.0767  1.9044  0.5528
19141SOL    HW258865   0.247   0.359   7.720  0.1544  2.9407  0.8508
19142SOL     OW58866   0.112   6.948  12.423 -0.8029  0.3643 -0.3378
19142SOL    HW158867   0.189   6.976  12.472 -1.5319 -0.4555  1.3437
19142SOL    HW258868   0.143   6.875  12.369 -0.1198  0.9012 -0.6796
19143SOL     OW58869   3.211   6.163   4.802  0.3343  0.2835 -0.0297
19143SOL    HW158870   3.296   6.132   4.833  0.3783  0.4330  0.0016
19143SOL    HW258871   3.193   6.112   4.723  0.4560  0.2575 -0.0399
19144SOL     OW58872   6.920   2.562   7.705 -0.8046 -0.3890  0.0078
19144SOL    HW158873   6.876   2.628   7.652 -2.0370 -0.3928  0.9894
19144SOL    HW258874   6.873   2.481   7.686 -0.4639 -0.6337  0.1897
19145SOL     OW58875   5.017   2.807   6.584  0.2211 -0.3547 -0.3387
19145SOL    HW158876   5.092   2.806   6.643 -0.7496  2.3448  1.0996
19145SOL    HW258877   4.987   2.898   6.584 -2.9494 -1.2780 -0.9718
19146SOL     OW58878   7.228   4.848   2.928  0.5550 -0.0733 -0.1554
19146SOL    HW158879   7.311   4.854   2.976  1.8980 -0.4017 -2.3254
19146SOL    HW258880   7.253   4.843   2.836 -1.8396 -1.3214 -0.8253
19147SOL     OW58881   2.593   6.389   2.865 -0.4292 -0.3747 -0.9393
19147SOL    HW158882   2.534   6.345   2.926  0.1477 -0.6079 -0.5463
19147SOL    HW258883   2.668   6.331   2.857  0.7199  0.8867  0.2233
19148SOL     OW58884   3.087   3.372  11.583  0.1019  0.2675  0.1030
19148SOL    HW158885   2.995   3.362  11.557 -0.6708  2.7904  1.4839
19148SOL    HW258886   3.124   3.285  11.574 -1.8405 -0.4214 -2.5971
19149SOL     OW58887   3.048   7.619   4.942 -0.1824 -0.7093  0.4689
19149SOL    HW158888   3.097   7.686   4.988 -0.4753 -1.4689  1.9389
19149SOL    HW258889   3.114   7.556   4.912  0.5395  1.6683 -3.7609
19150SOL     OW58890   4.028   4.722   8.561 -0.2120  0.2567  0.4769
19150SOL    HW158891   4.014   4.648   8.502 -0.3341  1.1714 -0.6591
19150SOL    HW258892   3.945   4.731   8.608  0.0189 -0.7294  1.1211
19151SOL     OW58893   5.309   7.169   8.983 -0.2849 -0.1608  0.1384
19151SOL    HW158894   5.379   7.161   9.049  0.0059  0.9146 -0.0129
19151SOL    HW258895   5.231   7.192   9.034 -0.1321  0.3499  0.1508
19152SOL     OW58896   5.484   2.494   0.055  0.2896  0.0183 -0.5128
19152SOL    HW158897   5.456   2.477   0.146 -0.6809 -2.0824 -1.1357
19152SOL    HW258898   5.414   2.548   0.019 -1.4192 -2.4052 -1.0742
19153SOL     OW58899   0.267   2.111   0.067 -0.3225  0.2859 -0.0297
19153SOL    HW158900   0.277   2.178   0.134  1.8095 -0.3600  0.3985
19153SOL    HW258901   0.297   2.030   0.109 -0.5268 -0.4570 -1.2531
19154SOL     OW58902   1.517   2.025   5.934  0.3176 -0.2591  0.2733
19154SOL    HW158903   1.449   2.072   5.982  0.7564 -0.2437  0.8827
19154SOL    HW258904   1.589   2.016   5.996  1.3375  0.7369 -0.7019
19155SOL     OW58905   7.702   5.695   6.430 -0.0948  0.5562 -0.3240
19155SOL    HW158906   7.719   5.661   6.342 -1.6561 -0.2529 -0.3399
19155SOL    HW258907   7.648   5.628   6.471  0.7218  0.8711  1.3121
19156SOL     OW58908   5.866   7.096  12.146  0.6303  0.0529 -0.6325
19156SOL    HW158909   5.959   7.086  12.122  0.9072  0.8310  0.0641
19156SOL    HW258910   5.867   7.155  12.221 -0.4296 -0.0499 -0.5250
19157SOL     OW58911   2.390   3.599   6.972  0.6063  0.2780  1.1629
19157SOL    HW158912   2.482   3.614   6.994  1.5813  2.1045 -3.0645
19157SOL    HW258913   2.352   3.687   6.974  0.1645  0.2052 -1.2038
19158SOL     OW58914   1.811   4.379   9.970  0.2632  0.3567 -0.0571
19158SOL    HW158915   1.827   4.443   9.901 -0.4011  2.9768  2.0205
19158SOL    HW258916   1.717   4.387   9.988  0.0391 -1.7054 -0.1276
19159SOL     OW58917   2.678   5.716   8.823  0.2451 -0.4062 -0.2276
19159SOL    HW158918   2.735   5.641   8.814  0.4692 -0.5538  1.9332
19159SOL    HW258919   2.663   5.724   8.917  0.3212  2.3113 -0.3617
19160SOL     OW58920   3.119   7.069  11.568 -0.3129  0.0611 -0.1848
19160SOL    HW158921   3.057   7.045  11.636  0.4563  0.2095  0.5959
19160SOL    HW258922   3.132   7.164  11.580 -0.0018  0.0462 -0.3882
19161SOL     OW58923   4.050   5.588  10.584  0.7662  0.0689  0.0086
19161SOL    HW158924   4.024   5.502  10.551  1.5701  0.2012 -1.0297
19161SOL    HW258925   4.124   5.570  10.642  1.0967  0.0690 -0.4055
19162SOL     OW58926   7.930   6.802   9.932 -0.1429 -0.0973  0.2116
19162SOL    HW158927   8.019   6.789   9.966 -0.4589  1.4195  1.7694
19162SOL    HW258928   7.874   6.751   9.991 -0.5022  0.7888  0.6502
19163SOL     OW58929   1.327   2.184   7.036  0.3103  0.8619 -0.5085
19163SOL    HW158930   1.409   2.151   7.075  0.6528  0.8411 -1.2206
19163SOL    HW258931   1.339   2.279   7.033  0.4064  0.8413 -0.8180
19164SOL     OW58932   4.038   2.507   3.873  0.0548  0.3614  0.3788
19164SOL    HW158933   3.951   2.536   3.849  0.0251  0.5910  0.7515
19164SOL    HW258934   4.033   2.491   3.968  0.5059  0.7151  0.4669
19165SOL     OW58935   3.194   3.744  10.818 -0.1883  0.0160  0.4898
19165SOL    HW158936   3.132   3.749  10.892 -1.4227  1.8896 -0.5778
19165SOL    HW258937   3.239   3.828  10.819  1.2716 -0.7403  0.3106
19166SOL     OW58938   6.707   7.084   0.112 -0.0136  0.1768 -0.3226
19166SOL    HW158939   6.619   7.046   0.116  0.3901 -0.6727  1.1129
19166SOL    HW258940   6.745   7.066   0.197  1.2991  1.2102 -0.6529
19167SOL     OW58941   7.052   4.279  12.054 -0.2941 -0.4748  0.2419
19167SOL    HW158942   7.080   4.187  12.052 -0.5996 -0.5613 -0.5570
19167SOL    HW258943   6.962   4.276  12.087  0.0371 -0.3599  1.1768
19168SOL     OW58944   5.380   0.395   0.382  0.0054 -0.2750 -0.0566
19168SOL    HW158945   5.412   0.388   0.472 -0.4085 -1.7535 -0.0021
19168SOL    HW258946   5.435   0.335   0.332 -1.4752 -1.5348 -0.2730
19169SOL     OW58947   2.436   7.618   6.565  0.4515 -0.0034  0.0577
19169SOL    HW158948   2.500   7.661   6.622  0.1422  0.5079  0.0297
19169SOL    HW258949   2.404   7.544   6.616 -0.8402  1.2357  1.1223
19170SOL     OW58950   0.707   2.421   8.724 -0.0293  0.3274  0.2541
19170SOL    HW158951   0.642   2.367   8.680 -0.2007  0.5336  0.2502
19170SOL    HW258952   0.729   2.489   8.661  0.5835 -0.0482  0.0595
19171SOL     OW58953   3.827   1.615   5.624  0.1334  0.0413 -0.2469
19171SOL    HW158954   3.845   1.688   5.683 -1.9135  0.1493  0.3075
19171SOL    HW258955   3.810   1.656   5.539  1.2607  0.0078 -0.5113
19172SOL     OW58956   3.571   4.196   1.197  0.5497 -0.1914 -0.0750
19172SOL    HW158957   3.549   4.129   1.133  3.2961 -2.7748  1.4086
19172SOL    HW258958   3.656   4.230   1.169  1.5263 -0.9615  1.7249
19173SOL     OW58959   4.387   1.004   3.995  0.3769  0.4040 -0.0993
19173SOL    HW158960   4.297   1.020   4.023  0.3453 -0.9129  0.6550
19173SOL    HW258961   4.378   0.967   3.907  0.0833 -0.8011  0.4185
19174SOL     OW58962   7.676   0.888   9.677 -0.7358  0.2374 -0.3432
19174SOL    HW158963   7.657   0.971   9.720  0.2099  0.7936 -0.9717
19174SOL    HW258964   7.593   0.863   9.637 -1.3133  0.3218  0.7388
19175SOL     OW58965   7.984   4.008   3.461 -0.5151 -0.3214  0.0441
19175SOL    HW158966   7.995   3.970   3.374  1.5415 -1.9359  0.9310
19175SOL    HW258967   8.042   4.084   3.461 -1.3920  0.3812 -0.3107
19176SOL     OW58968   0.468   7.920   7.652  0.5440 -1.1813 -0.0492
19176SOL    HW158969   0.412   7.896   7.578  1.6642 -0.4817 -1.1516
19176SOL    HW258970   0.432   8.002   7.684 -1.3482 -2.5723  1.7155
19177SOL     OW58971   0.805   2.143   8.960 -0.4391 -0.3276 -0.2586
19177SOL    HW158972   0.843   2.059   8.986 -1.2484 -0.7884 -0.5129
19177SOL    HW258973   0.741   2.120   8.893  0.9237  0.7210 -2.0126
19178SOL     OW58974   3.272   3.928   3.752  0.2453  0.1065 -0.2297
19178SOL    HW158975   3.241   3.921   3.842 -0.1063  1.9313 -0.1714
19178SOL    HW258976   3.363   3.956   3.761  0.8908 -1.7652 -0.4553
19179SOL     OW58977   3.780   5.616   7.434  0.3418  0.3205  0.2059
19179SOL    HW158978   3.739   5.562   7.366  0.2753 -0.0095  0.5039
19179SOL    HW258979   3.742   5.584   7.516  0.9839  0.2067  0.4643
19180SOL     OW58980   1.084   5.512  10.684  0.5211  0.5950  0.2424
19180SOL    HW158981   1.131   5.569  10.746  1.0281  0.8996 -0.4142
19180SOL    HW258982   1.017   5.568  10.645  0.9540  0.7306 -0.3277
19181SOL     OW58983   3.777   6.017   8.504 -0.0455 -0.4669  0.3187
19181SOL    HW158984   3.831   5.944   8.473 -1.1388 -1.8292  1.4944
19181SOL    HW258985   3.687   5.986   8.498 -0.5332  0.7015  1.0866
19182SOL     OW58986   0.684   1.351   2.136 -0.0116  0.5320  0.2103
19182SOL    HW158987   0.685   1.258   2.113 -1.0204  0.9943 -2.0552
19182SOL    HW258988   0.684   1.352   2.232 -1.2351 -1.8453  0.3337
19183SOL     OW58989   5.940   6.991  12.438 -0.3332 -0.1758  0.0860
19183SOL    HW158990   5.944   6.935  12.361  1.8345  0.5826 -0.4552
19183SOL    HW258991   5.916   6.933  12.510 -2.3894 -0.8992 -1.1276
19184SOL     OW58992   2.044   2.977  10.405 -0.2171  0.3969 -0.1818
19184SOL    HW158993   2.128   2.969  10.450 -0.3562  1.6692  0.3714
19184SOL    HW258994   1.992   2.904  10.438 -0.2179  1.1212  1.5779
19185SOL     OW58995   6.314   1.373   4.890 -0.2158  0.3922 -0.8119
19185SOL    HW158996   6.358   1.453   4.861 -0.5378  2.0975  2.8454
19185SOL    HW258997   6.226   1.378   4.852 -0.5701  2.3721  0.1485
19186SOL     OW58998   2.615   3.295   3.651 -0.3640  0.0673 -0.0818
19186SOL    HW158999   2.669   3.256   3.582 -2.0571  0.6162 -1.7779
19186SOL    HW259000   2.546   3.231   3.667 -0.2046  0.1153  0.8579
19187SOL     OW59001   6.592   2.014   9.556 -0.3589 -0.0037  0.5788
19187SOL    HW159002   6.667   1.955   9.546  0.2554  1.0221 -1.2422
19187SOL    HW259003   6.619   2.095   9.512 -2.6618  0.2902 -0.4284
19188SOL     OW59004   0.097   6.803   7.813 -0.2215 -0.2434  1.0990
19188SOL    HW159005   0.174   6.754   7.783  0.1447  0.2036  1.2978
19188SOL    HW259006   0.125   6.844   7.895 -0.9814 -0.8675  1.6898
19189SOL     OW59007   7.540   6.726   2.834 -0.0680  0.2889  0.7548
19189SOL    HW159008   7.474   6.689   2.892  1.6557  0.4123  2.9426
19189SOL    HW259009   7.620   6.679   2.856  0.6959  0.4048 -1.5349
19190SOL     OW59010   3.229   0.199   0.393  0.1584  0.3665  0.3959
19190SOL    HW159011   3.202   0.138   0.324 -1.2435 -0.7895  1.9104
19190SOL    HW259012   3.241   0.282   0.347 -1.6787 -0.1358 -1.1390
19191SOL     OW59013   7.434   3.902   1.629 -0.3503 -0.0860  0.4037
19191SOL    HW159014   7.479   3.985   1.612 -0.6773  0.1359  0.6289
19191SOL    HW259015   7.354   3.926   1.675 -0.2018 -0.5652  0.9294
19192SOL     OW59016   3.211   2.542   5.582  0.6370  0.2343  0.1466
19192SOL    HW159017   3.270   2.496   5.641 -1.3408 -0.0148  2.0590
19192SOL    HW259018   3.160   2.474   5.539 -0.7299  0.5048  1.2715
19193SOL     OW59019   6.106   4.006   3.711 -0.3603  0.1723 -0.2555
19193SOL    HW159020   6.048   3.930   3.713  1.3208 -1.1903 -0.9139
19193SOL    HW259021   6.192   3.970   3.691  0.2652  2.4024 -1.9968
19194SOL     OW59022   6.777   3.325  11.970 -0.6019  0.3212  0.1027
19194SOL    HW159023   6.819   3.326  12.055  1.0361 -1.5148 -0.6024
19194SOL    HW259024   6.844   3.356  11.909 -1.1570 -0.0417 -0.7204
19195SOL     OW59025   0.033   2.650   9.206  0.0766  0.3541  0.1015
19195SOL    HW159026   0.125   2.676   9.194  1.0719 -2.9318 -0.2394
19195SOL    HW259027   0.018   2.658   9.300  1.8247 -2.0817  0.6754
19196SOL     OW59028   2.610   4.315   8.491 -0.1123 -0.2690 -0.4356
19196SOL    HW159029   2.520   4.305   8.521 -0.5467  1.4734 -1.0201
19196SOL    HW259030   2.654   4.364   8.560  0.0544 -0.0579 -0.6871
19197SOL     OW59031   5.486   4.918   1.662  0.3762 -0.4496 -0.3252
19197SOL    HW159032   5.434   4.841   1.640 -0.5717  0.0128  0.2771
19197SOL    HW259033   5.478   4.927   1.757  1.0157  0.0131 -0.3071
19198SOL     OW59034   1.657   3.376   4.616 -0.0184  0.6981  0.2089
19198SOL    HW159035   1.732   3.317   4.608  1.0137  2.0712 -0.5771
19198SOL    HW259036   1.590   3.323   4.659  1.1230 -0.8071  0.2201
19199SOL     OW59037   1.202   0.280   9.392  0.3217 -0.3603  1.0309
19199SOL    HW159038   1.125   0.328   9.421  0.8216  0.0947  1.6321
19199SOL    HW259039   1.178   0.188   9.399  0.0250 -0.2321  1.7558
19200SOL     OW59040   4.074   1.228   7.873  0.1189  0.2472 -0.0773
19200SOL    HW159041   4.129   1.151   7.856 -0.5615 -0.0404 -1.0731
19200SOL    HW259042   4.123   1.301   7.836  0.5560  0.2335  0.4623
19201SOL     OW59043   6.374   5.461   2.057 -0.1547  0.4995 -0.4068
19201SOL    HW159044   6.466   5.485   2.068  0.1002 -0.6796  0.3024
19201SOL    HW259045   6.336   5.470   2.145 -0.9351  1.7827 -0.8566
19202SOL     OW59046   7.945   3.866   7.963  0.3195 -0.5444  0.0772
19202SOL    HW159047   7.993   3.905   8.036  0.6867 -0.2503 -0.3150
19202SOL    HW259048   8.008   3.865   7.891 -0.7902  1.6823 -1.0468
19203SOL     OW59049   0.565   7.111   6.799 -0.1593 -0.3391 -0.0098
19203SOL    HW159050   0.611   7.108   6.883 -0.5385  2.7693  0.4215
19203SOL    HW259051   0.634   7.114   6.734  0.2949  1.7315  0.4994
19204SOL     OW59052   3.785   6.341   0.669  0.2539  0.3074  0.1259
19204SOL    HW159053   3.790   6.297   0.584  1.1881  0.0737  0.2812
19204SOL    HW259054   3.698   6.381   0.671  0.9778  2.2004 -1.8912
19205SOL     OW59055   5.704   7.731   9.200  0.0566  0.1241  0.4394
19205SOL    HW159056   5.694   7.705   9.109 -0.5408  0.3245  0.4397
19205SOL    HW259057   5.625   7.698   9.244  1.2583 -1.7172  1.3128
19206SOL     OW59058   6.558   4.483   4.997 -0.2567 -0.2586  0.3191
19206SOL    HW159059   6.582   4.438   4.916  1.1715 -0.9888  1.1191
19206SOL    HW259060   6.587   4.424   5.067  0.2636  1.2015  1.3886
19207SOL     OW59061   3.548   5.595  11.191 -0.3731 -0.1163  0.1641
19207SOL    HW159062   3.477   5.654  11.168 -0.4180  1.3707  3.5368
19207SOL    HW259063   3.621   5.622  11.135 -1.1814  1.3544 -0.2108
19208SOL     OW59064   6.681   1.038   1.373  0.3765  0.6244  0.0038
19208SOL    HW159065   6.683   1.108   1.308 -0.1383  0.4319 -0.2204
19208SOL    HW259066   6.772   1.008   1.378  0.1243 -0.7066 -2.0934
19209SOL     OW59067   1.703   2.053   2.060 -0.3427  0.4070  0.3091
19209SOL    HW159068   1.645   1.977   2.053 -0.5158  0.5371  0.3389
19209SOL    HW259069   1.661   2.110   2.124 -0.7270  0.9927 -0.4456
19210SOL     OW59070   5.240   0.904   9.154 -0.2677  0.2757  0.3383
19210SOL    HW159071   5.237   0.875   9.245 -0.5874  0.3894  0.3638
19210SOL    HW259072   5.182   0.844   9.108 -0.6507  0.6478  0.3294
19211SOL     OW59073   6.387   6.600   0.654  0.5603  0.8514  0.1638
19211SOL    HW159074   6.366   6.507   0.645 -0.5997  1.0897  0.3289
19211SOL    HW259075   6.483   6.603   0.650  0.6866 -0.4893  1.4348
19212SOL     OW59076   6.680   6.393   6.739 -0.4129 -0.2272 -0.3817
19212SOL    HW159077   6.611   6.442   6.694 -1.1766 -3.0927 -2.6423
19212SOL    HW259078   6.734   6.460   6.781 -2.2009  2.3746 -1.9602
19213SOL     OW59079   6.534   7.789   2.342  0.3816  0.2512  0.1933
19213SOL    HW159080   6.519   7.816   2.251 -0.4502 -0.4277  0.1119
19213SOL    HW259081   6.447   7.789   2.381  0.3437 -2.0574  0.2434
19214SOL     OW59082   7.550   3.555  11.347 -0.3767 -0.4130  0.5150
19214SOL    HW159083   7.499   3.563  11.427 -1.6573  2.3158 -0.4709
19214SOL    HW259084   7.486   3.535  11.279  0.4167 -0.7476 -0.1496
19215SOL     OW59085   0.810   6.275   0.146  0.6240  0.6531  0.6853
19215SOL    HW159086   0.763   6.193   0.166  1.1459  0.6135  1.8313
19215SOL    HW259087   0.862   6.254   0.068 -0.7490  0.5089 -0.2325
19216SOL     OW59088   4.179   3.547   3.034 -0.3271 -0.3944 -0.0433
19216SOL    HW159089   4.217   3.566   3.119  0.7320 -0.5028 -0.4808
19216SOL    HW259090   4.251   3.557   2.972 -1.1500  0.0134 -0.9747
19217SOL     OW59091   5.779   7.627   1.102  0.0426 -0.5671  0.5498
19217SOL    HW159092   5.715   7.666   1.044 -1.2880 -2.7143  0.4693
19217SOL    HW259093   5.782   7.534   1.077  1.0571 -1.1063  2.4382
19218SOL     OW59094   6.890   0.879   3.341  0.3774  0.0025  0.1419
19218SOL    HW159095   6.809   0.860   3.294  0.5860 -0.8032  0.0797
19218SOL    HW259096   6.927   0.956   3.298 -0.0393 -0.0072 -0.2305
19219SOL     OW59097   6.870   1.438   2.456  0.0684  0.1973  0.3880
19219SOL    HW159098   6.947   1.390   2.489  0.6817  0.7771 -0.1745
19219SOL    HW259099   6.841   1.387   2.380  1.2666  1.1575 -0.7626
19220SOL     OW59100   7.358   6.702   1.849  0.5186 -0.5336 -0.1354
19220SOL    HW159101   7.342   6.633   1.784  0.2837 -0.0168 -0.6318
19220SOL    HW259102   7.276   6.710   1.897  0.4069 -0.2939 -0.3683
19221SOL     OW59103   4.631   2.208   3.501 -0.8108  0.3408 -0.7484
19221SOL    HW159104   4.579   2.148   3.447  0.1260 -0.1309 -1.1455
19221SOL    HW259105   4.697   2.152   3.541 -0.0781  1.0757 -0.9227
19222SOL     OW59106   5.414   1.647   2.984  0.4714 -0.1779 -0.4948
19222SOL    HW159107   5.380   1.565   2.948 -0.9769 -0.3964  1.2324
19222SOL    HW259108   5.467   1.684   2.914  0.9881 -2.4786 -1.3979
19223SOL     OW59109   3.184   0.771  11.976 -0.3467  0.4216  0.4743
19223SOL    HW159110   3.127   0.711  12.025 -0.7111  0.7765  0.4909
19223SOL    HW259111   3.223   0.715  11.908 -0.0330 -0.0148  1.0052
19224SOL     OW59112   7.031   0.060   3.551 -0.1624 -0.0534 -0.0727
19224SOL    HW159113   7.114   0.015   3.561 -0.0707  0.2489  0.5988
19224SOL    HW259114   7.000   0.075   3.640  0.4594  2.3722 -0.1907
19225SOL     OW59115   5.286   6.824  12.309  0.3201 -0.1898  0.4701
19225SOL    HW159116   5.359   6.763  12.322  0.6253 -0.1107 -0.7310
19225SOL    HW259117   5.267   6.857  12.397  1.8190 -0.1208  0.8033
19226SOL     OW59118   1.530   4.371   1.266 -0.5512  1.0310 -0.1753
19226SOL    HW159119   1.519   4.419   1.184 -2.9853  0.2646 -0.3841
19226SOL    HW259120   1.488   4.286   1.249  0.3215  0.2419  1.3780
19227SOL     OW59121   6.893   1.338   8.160  0.0831 -0.3569  0.2398
19227SOL    HW159122   6.977   1.368   8.126 -0.2782 -0.4459 -0.7554
19227SOL    HW259123   6.833   1.345   8.086 -0.6499 -0.8658  0.7692
19228SOL     OW59124   7.028   2.723  10.916  0.3514  0.0394 -0.7261
19228SOL    HW159125   7.122   2.743  10.925 -0.1460  2.2297  0.0474
19228SOL    HW259126   6.996   2.719  11.006 -0.6030  0.9293 -1.0144
19229SOL     OW59127   3.595   5.346  11.959 -0.0470 -0.2826  0.3173
19229SOL    HW159128   3.654   5.419  11.980  0.8877 -0.7026 -0.7588
19229SOL    HW259129   3.638   5.301  11.886 -1.6672 -0.6697 -0.4264
19230SOL     OW59130   5.896   5.513   4.716 -0.1580  0.1050 -0.0312
19230SOL    HW159131   5.966   5.454   4.689  0.2220  0.2548  0.6211
19230SOL    HW259132   5.854   5.468   4.790  0.2004  0.6885  0.5360
19231SOL     OW59133   1.771   7.261   0.607 -0.3180  0.9059 -0.1015
19231SOL    HW159134   1.721   7.243   0.527  0.2309  0.5149 -0.3658
19231SOL    HW259135   1.748   7.351   0.630 -1.4869  0.5827  0.0481
19232SOL     OW59136   7.869   3.129  10.681 -0.3034 -0.2320 -0.2961
19232SOL    HW159137   7.799   3.064  10.675 -1.3993  0.8760 -0.0199
19232SOL    HW259138   7.836   3.193  10.745  0.0840  1.3587 -1.6134
19233SOL     OW59139   6.190   5.950   5.902  0.1451  0.1860  0.6797
19233SOL    HW159140   6.221   5.964   5.812  1.2836  0.0610  1.0423
19233SOL    HW259141   6.152   5.862   5.901  0.2518  0.1414  0.3405
19234SOL     OW59142   1.180   4.528   4.441  0.1297  0.0565 -0.1406
19234SOL    HW159143   1.271   4.512   4.415 -0.1807 -1.3703 -0.4427
19234SOL    HW259144   1.173   4.492   4.529 -0.0333  0.5710  0.0586
19235SOL     OW59145   6.629   4.481   4.092 -0.2937 -0.5634 -0.4289
19235SOL    HW159146   6.701   4.421   4.111  1.4077  1.3533 -0.6020
19235SOL    HW259147   6.660   4.535   4.020 -1.3967  1.1330  0.2903
19236SOL     OW59148   3.722   4.104   9.233  0.6054 -0.3785  0.9671
19236SOL    HW159149   3.701   4.193   9.207 -3.1899 -1.0401  1.2344
19236SOL    HW259150   3.803   4.112   9.283  0.6820  2.7941  0.5435
19237SOL     OW59151   3.338   4.199  10.075 -0.1603  0.7397 -0.0273
19237SOL    HW159152   3.324   4.225  10.166  2.5966 -0.2779  0.7713
19237SOL    HW259153   3.292   4.115  10.067 -1.2514  1.3015  0.0766
19238SOL     OW59154   4.732   0.218   6.336 -0.2801  0.5219 -0.2325
19238SOL    HW159155   4.677   0.141   6.321 -0.3497  0.4859  0.1798
19238SOL    HW259156   4.761   0.244   6.249  0.6316 -0.6197 -0.3070
19239SOL     OW59157   3.930   4.756  12.402 -0.1174 -0.1016  0.5593
19239SOL    HW159158   3.873   4.761  12.325  0.0962  1.6745  0.4754
19239SOL    HW259159   3.890   4.689  12.457 -0.6110 -0.9782 -0.8210
19240SOL     OW59160   1.817   5.535   6.958  0.2316 -0.5792 -0.1219
19240SOL    HW159161   1.816   5.606   7.022  0.3867 -0.3730 -0.3481
19240SOL    HW259162   1.884   5.559   6.895  0.1431 -0.8255 -0.3156
19241SOL     OW59163   4.833   3.928   6.127  0.4442  0.0950 -0.0879
19241SOL    HW159164   4.771   3.882   6.182  0.7850 -1.1172 -0.6807
19241SOL    HW259165   4.811   3.902   6.037  0.2038  1.6458 -0.5077
19242SOL     OW59166   4.496   6.169  11.283 -0.3900  0.2013  0.8495
19242SOL    HW159167   4.451   6.218  11.214 -0.1892  0.8805  1.1914
19242SOL    HW259168   4.588   6.193  11.273 -0.2459 -0.3456  0.8317
19243SOL     OW59169   6.795   6.820   1.123  0.1811 -0.8914 -0.5049
19243SOL    HW159170   6.721   6.761   1.139  1.2621 -2.2787 -0.4209
19243SOL    HW259171   6.866   6.762   1.094  0.6975  0.6164 -2.4161
19244SOL     OW59172   6.244   7.725   6.727 -0.6840  0.6630  0.2754
19244SOL    HW159173   6.250   7.818   6.746  0.2277  0.5977  0.3678
19244SOL    HW259174   6.152   7.709   6.709 -0.7786  1.6527 -0.1340
19245SOL     OW59175   4.196   3.028   8.975 -0.4765  0.2022  0.3500
19245SOL    HW159176   4.177   3.083   8.899  2.1927  1.7252  0.6470
19245SOL    HW259177   4.207   2.940   8.939 -0.9952  0.5700 -0.7433
19246SOL     OW59178   1.240   5.259   2.859 -0.2697  0.1304 -0.2896
19246SOL    HW159179   1.207   5.338   2.902 -0.3099 -0.0319 -0.0228
19246SOL    HW259180   1.170   5.233   2.799  0.1011  0.8030 -1.0330
19247SOL     OW59181   5.487   0.689  12.237  0.0457 -0.0695 -0.3009
19247SOL    HW159182   5.528   0.769  12.271  1.3165 -1.2601  1.1141
19247SOL    HW259183   5.438   0.718  12.160  0.1610  2.1268  0.3780
19248SOL     OW59184   1.587   1.915   1.377 -0.0047  0.0413  0.2576
19248SOL    HW159185   1.522   1.969   1.421 -0.7398 -2.1191  2.0316
19248SOL    HW259186   1.664   1.971   1.368 -0.2954  1.0395  3.1413
19249SOL     OW59187   0.004   7.693   3.087 -0.8187 -0.3072 -0.2104
19249SOL    HW159188   0.093   7.660   3.080 -0.0589  0.8482  2.6548
19249SOL    HW259189  -0.051   7.615   3.094  0.2037 -1.0066  0.1599
19250SOL     OW59190   6.170   6.466   9.726  0.1785 -0.2166  0.0500
19250SOL    HW159191   6.216   6.548   9.745  1.3631 -0.5008 -1.3636
19250SOL    HW259192   6.239   6.400   9.719 -0.6699 -1.1520  0.2457
19251SOL     OW59193   5.310   5.022   9.132 -0.1084  0.1412  0.1703
19251SOL    HW159194   5.284   5.100   9.181 -0.9574 -1.1517  1.9227
19251SOL    HW259195   5.404   5.029   9.121 -0.1258  1.2069  0.6682
19252SOL     OW59196   4.526   7.108   6.145  1.1375  0.0968  0.2058
19252SOL    HW159197   4.435   7.121   6.171  0.6150 -1.8537 -0.4581
19252SOL    HW259198   4.563   7.054   6.215  2.6822  3.1561  1.9510
19253SOL     OW59199   3.629   0.412   9.679 -0.2200 -0.4659 -0.4128
19253SOL    HW159200   3.549   0.400   9.731 -0.0231  0.9644  0.2637
19253SOL    HW259201   3.692   0.450   9.740  0.1388  0.8892 -1.5779
19254SOL     OW59202   7.680   1.124   7.105  0.8571  0.7803 -0.5655
19254SOL    HW159203   7.720   1.133   7.018  0.0732 -2.2825 -1.4003
19254SOL    HW259204   7.753   1.104   7.163  1.0525 -1.2295 -1.3983
19255SOL     OW59205   2.634   6.889  11.605  0.6843  0.2559 -0.1149
19255SOL    HW159206   2.695   6.955  11.573 -0.0642  1.2709  0.4937
19255SOL    HW259207   2.625   6.828  11.532 -0.6684  2.2890 -1.7682
19256SOL     OW59208   2.465   3.674   5.435 -0.6872 -0.0005 -0.5748
19256SOL    HW159209   2.406   3.705   5.504 -0.9074  1.9201 -1.5462
19256SOL    HW259210   2.551   3.669   5.478 -1.1951 -0.9562  0.3640
19257SOL     OW59211   1.141   2.295   0.698  0.2053  0.2182  0.1530
19257SOL    HW159212   1.131   2.386   0.668  1.1696  0.3825  0.2969
19257SOL    HW259213   1.066   2.249   0.661 -0.4090  1.1171  0.2357
19258SOL     OW59214   6.562   5.621   2.885  0.2830 -0.4518 -0.3062
19258SOL    HW159215   6.572   5.542   2.832  0.9184 -0.8221  0.3446
19258SOL    HW259216   6.640   5.623   2.941  1.0958  1.4906 -1.3934
19259SOL     OW59217   7.281   1.551   1.144 -0.7881  0.3559 -0.0580
19259SOL    HW159218   7.299   1.533   1.236  1.3090  1.1285 -0.2557
19259SOL    HW259219   7.209   1.615   1.145  0.1465  1.4398  1.1343
19260SOL     OW59220   0.135   7.950   6.556 -0.1234  0.2184 -0.2199
19260SOL    HW159221   0.154   8.006   6.481 -0.1682  0.3502 -0.1332
19260SOL    HW259222   0.217   7.905   6.574 -0.0046  0.4817 -0.1021
19261SOL     OW59223   4.305   6.418  10.218 -0.0908  0.0270 -0.2242
19261SOL    HW159224   4.393   6.454  10.228 -0.3532  1.1919 -1.6930
19261SOL    HW259225   4.315   6.350  10.151 -0.2244 -0.1384 -0.0749
19262SOL     OW59226   7.652   4.565   5.480 -0.2628 -0.2847  0.4153
19262SOL    HW159227   7.572   4.615   5.496 -0.3189 -0.4955  0.8074
19262SOL    HW259228   7.668   4.576   5.386  0.6823  1.8948  0.7667
19263SOL     OW59229   6.249   2.408   5.179  0.2469 -0.3607  0.5350
19263SOL    HW159230   6.339   2.433   5.156 -0.4105  0.6795 -1.1231
19263SOL    HW259231   6.246   2.314   5.162  0.8742 -0.2983  0.0097
19264SOL     OW59232   7.949   7.694   0.157 -0.0178  0.0349  0.4499
19264SOL    HW159233   8.006   7.692   0.234  1.5761  2.2082 -0.5592
19264SOL    HW259234   7.872   7.744   0.186 -0.6109 -1.3141  1.2943
19265SOL     OW59235   5.704   5.941   6.187 -0.2008  0.1408 -0.0120
19265SOL    HW159236   5.647   5.867   6.207 -1.0550  0.4647 -1.1503
19265SOL    HW259237   5.749   5.959   6.269  0.2739 -1.8377  0.2105
19266SOL     OW59238   7.434   6.999  11.140  0.0953 -0.1250  0.3822
19266SOL    HW159239   7.442   6.911  11.104 -0.5111  0.6193 -1.6759
19266SOL    HW259240   7.522   7.035  11.135  0.5845 -0.8948  2.2058
19267SOL     OW59241   4.878   1.448   6.599 -0.4771  0.3524  0.3057
19267SOL    HW159242   4.840   1.509   6.536 -0.0606 -1.5474 -1.9347
19267SOL    HW259243   4.805   1.421   6.654 -1.0250  1.4820  0.1632
19268SOL     OW59244   7.969   1.477  10.731  0.0814  0.0486  0.3728
19268SOL    HW159245   7.915   1.461  10.808  0.9583 -1.4905  0.7178
19268SOL    HW259246   7.990   1.570  10.734 -1.2667  0.3428  1.0684
19269SOL     OW59247   7.735   0.049  10.774  0.2247  0.1817  0.0274
19269SOL    HW159248   7.641   0.044  10.788 -0.0075  0.0304 -1.4573
19269SOL    HW259249   7.755  -0.024  10.715  1.1936  0.5042 -0.0626
19270SOL     OW59250   2.119   7.541   3.568  0.0178 -0.3119 -0.3659
19270SOL    HW159251   2.177   7.616   3.553 -0.4363  0.2032  0.3863
19270SOL    HW259252   2.142   7.510   3.656 -1.3908  0.4229  0.3010
19271SOL     OW59253   1.129   7.338   7.750 -0.0436 -0.3330  0.8791
19271SOL    HW159254   1.223   7.320   7.751  0.1129  0.3339  2.8911
19271SOL    HW259255   1.089   7.261   7.791 -0.3045 -0.2471  0.7917
19272SOL     OW59256   5.524   5.025  11.861 -0.3617 -0.3039  0.3041
19272SOL    HW159257   5.473   5.082  11.918  2.1324  1.8386  0.5813
19272SOL    HW259258   5.574   4.969  11.920 -0.3944 -0.5309  0.1182
19273SOL     OW59259   2.364   1.849   4.398 -0.4171  0.5898 -0.0693
19273SOL    HW159260   2.443   1.795   4.389 -2.2940 -2.3478 -0.2055
19273SOL    HW259261   2.375   1.892   4.483  0.9057 -0.4892  0.3559
19274SOL     OW59262   7.933   2.767   4.697 -0.0255  0.2663 -0.2861
19274SOL    HW159263   7.917   2.675   4.718  0.5875  0.0623 -0.6823
19274SOL    HW259264   7.911   2.814   4.777  0.3505 -0.3027  0.1636
19275SOL     OW59265   2.024   1.988   4.509  0.1133 -0.1475 -0.6187
19275SOL    HW159266   2.059   2.071   4.474  1.9303 -0.7509 -0.3514
19275SOL    HW259267   1.970   2.014   4.583 -1.8476  0.9917 -2.3423
19276SOL     OW59268   4.225   7.732  11.559 -0.1977  0.3785  0.0722
19276SOL    HW159269   4.288   7.801  11.535  1.2371 -0.6666  0.7245
19276SOL    HW259270   4.194   7.758  11.646  0.5964  0.0545  0.4666
19277SOL     OW59271   2.175   7.774   4.291 -0.3821  0.1003 -0.0307
19277SOL    HW159272   2.255   7.720   4.293 -0.0651  0.5422 -0.5836
19277SOL    HW259273   2.207   7.864   4.298 -0.8699  0.2544  0.2644
19278SOL     OW59274   6.609   7.247   9.780 -0.2029 -0.5454  0.3353
19278SOL    HW159275   6.530   7.204   9.746  0.0881 -0.2505 -0.7497
19278SOL    HW259276   6.580   7.334   9.806 -0.5163 -0.9176  1.2725
19279SOL     OW59277   5.522   4.821   0.843  0.5156 -0.0481 -0.2199
19279SOL    HW159278   5.487   4.893   0.896  2.1965  0.1716  0.6619
19279SOL    HW259279   5.613   4.845   0.829  0.6228 -1.1459 -1.4716
19280SOL     OW59280   0.779   2.498   7.785 -0.2284 -0.4046  0.0530
19280SOL    HW159281   0.848   2.437   7.761  0.3006  0.3015 -0.2651
19280SOL    HW259282   0.713   2.487   7.717 -0.1843 -0.7017  0.0595
19281SOL     OW59283   0.917   5.760   0.267  0.0844  0.4000  0.2495
19281SOL    HW159284   0.992   5.725   0.313  0.9761  1.4077 -0.3888
19281SOL    HW259285   0.951   5.788   0.182 -0.6588  2.2618  0.5095
19282SOL     OW59286   6.471   6.166   7.854 -0.1761  0.1011  0.6218
19282SOL    HW159287   6.530   6.100   7.891 -1.0159 -1.6768 -1.0606
19282SOL    HW259288   6.412   6.117   7.797  0.1946  2.4961 -2.0457
19283SOL     OW59289   7.815   2.621   9.875  0.1461 -0.3564  0.5179
19283SOL    HW159290   7.750   2.690   9.883  0.5068 -0.0698  1.0989
19283SOL    HW259291   7.898   2.668   9.862  0.1421 -0.7280 -1.1027
19284SOL     OW59292   0.204   6.105   0.074 -0.1617 -0.2881  0.1838
19284SOL    HW159293   0.181   6.186   0.119 -0.5209 -0.7098  0.7794
19284SOL    HW259294   0.208   6.129  -0.019 -0.8906  0.2671  0.2867
19285SOL     OW59295   3.592   5.671  10.168 -0.2607 -0.0482  0.4588
19285SOL    HW159296   3.677   5.711  10.150 -1.2790  1.4467 -1.2594
19285SOL    HW259297   3.568   5.628  10.086 -1.0983 -0.5926  0.9817
19286SOL     OW59298   2.874   6.752   4.044  0.2627  0.2741 -0.4920
19286SOL    HW159299   2.884   6.714   4.131 -0.2964  0.1943 -0.4534
19286SOL    HW259300   2.963   6.758   4.009  0.3274 -1.6423 -0.7347
19287SOL     OW59301   7.980   0.553   1.182 -0.3864  0.0154  0.4411
19287SOL    HW159302   8.017   0.467   1.200  1.6105  0.2861 -1.9148
19287SOL    HW259303   8.056   0.611   1.175 -1.3949  1.1992 -1.7010
19288SOL     OW59304   3.640   1.053   6.162 -0.1459 -0.0623 -0.3049
19288SOL    HW159305   3.597   1.058   6.247 -1.2572  0.5917 -0.8795
19288SOL    HW259306   3.668   0.962   6.154 -1.1958 -0.4508  0.2246
19289SOL     OW59307   2.693   0.609   9.328  0.5426 -0.0816  0.0682
19289SOL    HW159308   2.640   0.683   9.358  0.3415 -0.9465  2.0203
19289SOL    HW259309   2.774   0.616   9.379  0.2539 -1.5549  0.7696
19290SOL     OW59310   2.897   1.490   3.434  0.4650  0.1715 -0.1133
19290SOL    HW159311   2.867   1.486   3.525  1.1652  3.4384  0.3977
19290SOL    HW259312   2.946   1.408   3.422 -0.2281 -0.6856  2.1976
19291SOL     OW59313   3.655   3.883   2.231  0.3415  0.1387  0.9107
19291SOL    HW159314   3.591   3.952   2.217  1.3454  0.9527  0.1406
19291SOL    HW259315   3.740   3.925   2.217  0.9817 -1.2567  0.3176
19292SOL     OW59316   7.015   4.157   5.554 -0.2604 -0.4237 -0.2158
19292SOL    HW159317   7.095   4.151   5.607 -0.2977  0.9589  0.0366
19292SOL    HW259318   6.955   4.094   5.595  1.1455 -2.6027 -1.3114
19293SOL     OW59319   1.661   0.087   6.937  0.3183 -1.1142 -0.3485
19293SOL    HW159320   1.650   0.015   6.999 -1.4027  0.7318  1.6146
19293SOL    HW259321   1.576   0.095   6.893  0.3078  0.0660 -0.1422
19294SOL     OW59322   6.273   6.311   7.431 -0.3353  0.0361 -0.2314
19294SOL    HW159323   6.229   6.228   7.447 -1.2415  0.7827  1.3301
19294SOL    HW259324   6.210   6.378   7.459  1.3343  1.1705  1.0127
19295SOL     OW59325   1.682   2.431   9.811  0.2307  0.0367 -0.8463
19295SOL    HW159326   1.594   2.425   9.775  0.5052  0.5264 -1.6160
19295SOL    HW259327   1.678   2.504   9.872  0.0291 -0.1433 -0.6405
19296SOL     OW59328   1.266   0.438   9.181  0.5273  0.2127  0.0689
19296SOL    HW159329   1.196   0.432   9.115 -0.4241  3.0397  0.6485
19296SOL    HW259330   1.234   0.385   9.254  0.3305 -0.7800 -0.7124
19297SOL     OW59331   1.494   2.975  10.943 -0.1217 -0.1290  0.1910
19297SOL    HW159332   1.422   3.007  10.889  0.9798  1.0268 -0.6701
19297SOL    HW259333   1.469   2.886  10.967 -1.4521 -0.0400 -0.7768
19298SOL     OW59334   3.896   5.205  11.173  0.0752  0.2669  0.4073
19298SOL    HW159335   3.806   5.236  11.161  0.1813  1.2201  1.8215
19298SOL    HW259336   3.890   5.110  11.161 -0.9746  0.3939 -0.2315
19299SOL     OW59337   3.974   4.187   2.487 -0.4200 -0.5692 -0.1563
19299SOL    HW159338   4.037   4.192   2.559 -1.2233 -0.1525  0.5337
19299SOL    HW259339   4.001   4.256   2.427 -0.3665 -0.2206  0.2648
19300SOL     OW59340   7.979   7.769   0.551  0.1698 -0.0108  0.6900
19300SOL    HW159341   7.913   7.700   0.539 -0.5628  0.6611  0.7978
19300SOL    HW259342   7.964   7.830   0.479  1.7130 -0.6430 -0.2152
19301SOL     OW59343   7.448   4.539   3.701  0.1384 -0.0484  0.0689
19301SOL    HW159344   7.414   4.606   3.761  1.3280  0.0776  0.6307
19301SOL    HW259345   7.543   4.543   3.712  0.2114 -2.8094  1.1885
19302SOL     OW59346   5.507   7.628   4.133  0.0280  0.0613 -0.1301
19302SOL    HW159347   5.489   7.555   4.074  1.7343 -0.5234  0.0104
19302SOL    HW259348   5.433   7.687   4.122 -1.5408 -1.8077 -0.0247
19303SOL     OW59349   3.240   3.500  11.783 -0.4146 -0.0314  0.3801
19303SOL    HW159350   3.299   3.537  11.718 -0.4557  2.7595  1.7827
19303SOL    HW259351   3.172   3.455  11.732  0.3068  0.8496 -1.4130
19304SOL     OW59352   5.915   0.463   4.453  0.4043 -0.0329  0.6950
19304SOL    HW159353   5.841   0.421   4.496  1.3155 -1.2284  1.1570
19304SOL    HW259354   5.889   0.471   4.362  0.0391 -1.2564  0.6772
19305SOL     OW59355   5.627   2.312   0.540  0.0166  0.2563  0.1559
19305SOL    HW159356   5.590   2.239   0.590  1.1105 -0.9924 -0.7901
19305SOL    HW259357   5.664   2.371   0.607 -0.8458 -0.0459  0.9263
19306SOL     OW59358   3.462   2.135   1.050 -0.0784  0.2076  0.9068
19306SOL    HW159359   3.394   2.195   1.019  0.9578  0.6173 -0.6490
19306SOL    HW259360   3.428   2.048   1.029  0.2376  0.4424 -0.7117
19307SOL     OW59361   7.932   3.521  12.162 -0.4851  0.0091  0.2633
19307SOL    HW159362   7.996   3.519  12.091 -0.1096  1.3944  0.5409
19307SOL    HW259363   7.901   3.430  12.169  1.3440 -0.6783  0.0187
19308SOL     OW59364   4.791   2.017   7.287  0.1808  0.2882 -0.1005
19308SOL    HW159365   4.862   2.069   7.250  1.2962 -1.7706 -1.0960
19308SOL    HW259366   4.776   2.054   7.374  2.8119  0.5383  0.3274
19309SOL     OW59367   1.140   7.355   3.765 -0.2371 -0.2568  0.1571
19309SOL    HW159368   1.195   7.337   3.689  1.1166  2.2870  0.3974
19309SOL    HW259369   1.182   7.308   3.837 -0.6172 -1.4061 -0.3571
19310SOL     OW59370   3.850   5.142   8.307 -0.3187 -0.6374 -0.5227
19310SOL    HW159371   3.906   5.123   8.382  2.8352  1.4488 -2.1267
19310SOL    HW259372   3.854   5.063   8.253 -1.4806 -1.6157  0.7214
19311SOL     OW59373   7.280   0.484   4.638 -0.5679 -0.2169  0.3072
19311SOL    HW159374   7.205   0.425   4.649 -0.0506 -1.0133 -0.3507
19311SOL    HW259375   7.356   0.426   4.633  0.2052  0.6359  1.8247
19312SOL     OW59376   0.507   6.696   3.918 -0.4059 -0.4831  0.3673
19312SOL    HW159377   0.528   6.682   4.010 -3.3706  0.6479  1.3562
19312SOL    HW259378   0.444   6.627   3.897 -2.0411  0.9719  0.1875
19313SOL     OW59379   3.076   7.324   8.656 -0.0982 -0.5698  0.6209
19313SOL    HW159380   2.983   7.304   8.643  0.0784 -0.5562 -0.8757
19313SOL    HW259381   3.122   7.250   8.617  0.5294 -0.4459  1.1122
19314SOL     OW59382   3.696   4.631   9.212 -0.3755 -0.1594  0.1949
19314SOL    HW159383   3.665   4.702   9.156 -0.6775  0.4801  1.1459
19314SOL    HW259384   3.644   4.640   9.292 -0.6275 -1.6349  0.2268
19315SOL     OW59385   0.314   0.232   8.663  0.0749  0.3761 -0.2631
19315SOL    HW159386   0.329   0.326   8.676  0.5479  0.3294 -0.4272
19315SOL    HW259387   0.392   0.202   8.616 -0.2833 -0.0103 -0.6226
19316SOL     OW59388   7.900   1.078  10.462 -0.2642 -0.4674 -0.0524
19316SOL    HW159389   7.984   1.034  10.453  0.2560  0.7124 -1.4836
19316SOL    HW259390   7.908   1.131  10.541  1.0966  1.0871 -1.1577
19317SOL     OW59391   2.734   1.393  12.133 -0.2236 -0.1145 -0.1716
19317SOL    HW159392   2.689   1.460  12.082  0.5934 -0.8536 -1.9550
19317SOL    HW259393   2.823   1.427  12.144 -0.1401 -0.3720 -0.0409
19318SOL     OW59394   7.622   5.327   8.600  0.4075 -0.1734 -0.2042
19318SOL    HW159395   7.564   5.376   8.659 -1.1660 -0.8542 -1.1054
19318SOL    HW259396   7.662   5.394   8.545 -0.0334  0.2750  0.0089
19319SOL     OW59397   7.535   0.415   1.731  0.1452  0.1683 -0.1188
19319SOL    HW159398   7.573   0.369   1.656  0.6684 -1.0690  0.8564
19319SOL    HW259399   7.519   0.504   1.700  1.2879 -0.0401 -1.3846
19320SOL     OW59400   5.110   7.405   4.175 -0.7649  0.4302 -0.6432
19320SOL    HW159401   5.154   7.360   4.247  0.6750  0.4098 -1.4901
19320SOL    HW259402   5.088   7.335   4.113  0.3713  0.7000 -1.3946
19321SOL     OW59403   0.673   6.741  12.198  0.3257  0.5874 -0.2441
19321SOL    HW159404   0.730   6.800  12.247 -1.0001  1.1369  0.6836
19321SOL    HW259405   0.722   6.659  12.192 -0.1913 -0.2160  3.8039
19322SOL     OW59406   4.670   4.781  12.241  0.2370  0.5868  0.2591
19322SOL    HW159407   4.596   4.731  12.206  0.3258  0.7199 -0.1229
19322SOL    HW259408   4.629   4.845  12.300  0.1916 -0.4594  1.3973
19323SOL     OW59409   6.130   3.178   7.290 -0.5772  0.3392  0.1338
19323SOL    HW159410   6.057   3.238   7.278 -0.6183 -0.0845 -2.0762
19323SOL    HW259411   6.090   3.096   7.321 -0.9703  0.3035 -0.4639
19324SOL     OW59412   5.198   3.343   4.571 -0.3159 -0.2362  0.2987
19324SOL    HW159413   5.132   3.309   4.630 -1.3453  0.1215 -0.5997
19324SOL    HW259414   5.238   3.416   4.618 -0.1778 -0.7951  1.0561
19325SOL     OW59415   7.367   4.683   1.996 -0.0055 -0.2561 -0.1678
19325SOL    HW159416   7.461   4.694   1.981  0.0465 -2.0320 -1.3591
19325SOL    HW259417   7.329   4.671   1.908 -0.7884 -3.2941  0.4785
19326SOL     OW59418   4.981   2.216   7.228  0.2053  0.4992  1.0050
19326SOL    HW159419   5.021   2.266   7.298 -0.2638  0.7360  1.1041
19326SOL    HW259420   4.984   2.274   7.152 -0.7755  0.8713  1.2389
19327SOL     OW59421   0.782   5.445  10.805  0.0420  0.1572  0.3912
19327SOL    HW159422   0.697   5.420  10.842  0.2230 -0.3212  0.4883
19327SOL    HW259423   0.797   5.533  10.838  0.1881 -0.2480  1.4476
19328SOL     OW59424   6.715   7.325   7.035  0.7507 -0.2619 -0.0417
19328SOL    HW159425   6.695   7.416   7.054 -0.3620 -0.9321  2.3646
19328SOL    HW259426   6.810   7.322   7.026  0.9291  0.9223  1.2028
19329SOL     OW59427   2.079   5.609   9.181  0.2412  0.1817  0.2579
19329SOL    HW159428   2.082   5.700   9.209  0.3513  0.1929  0.2126
19329SOL    HW259429   1.990   5.597   9.148  0.4639  0.5056 -0.4921
19330SOL     OW59430   0.949   6.655   4.482 -0.0050 -0.4994  0.0561
19330SOL    HW159431   0.946   6.560   4.473 -1.1784 -0.4742 -0.0246
19330SOL    HW259432   0.931   6.688   4.394  0.7409 -0.1935  0.0114
19331SOL     OW59433   6.809   1.803   2.761  0.2489  0.2192  0.0456
19331SOL    HW159434   6.892   1.758   2.778 -0.0850 -0.2618  0.4341
19331SOL    HW259435   6.751   1.773   2.831 -0.7751 -0.8029 -1.2048
19332SOL     OW59436   1.983   5.147   6.491 -0.0745 -0.0992 -0.2103
19332SOL    HW159437   1.986   5.143   6.587  0.0603 -0.4167 -0.2270
19332SOL    HW259438   2.072   5.168   6.464 -0.4157  1.4677 -0.2062
19333SOL     OW59439   0.641   0.740   9.017 -0.3372  0.2169 -0.4561
19333SOL    HW159440   0.579   0.669   9.035 -0.2074  0.3361  0.4557
19333SOL    HW259441   0.659   0.779   9.102  0.3981  0.6831 -0.8210
19334SOL     OW59442   2.224   7.222   1.263 -0.3305 -0.0160  0.4210
19334SOL    HW159443   2.250   7.165   1.335  0.8841  0.9720  0.8085
19334SOL    HW259444   2.286   7.202   1.193 -0.1616  0.5174  0.4125
19335SOL     OW59445   6.236   3.049   5.496 -0.0956  0.1767  0.0356
19335SOL    HW159446   6.326   3.060   5.466  0.6896 -1.5182  1.4898
19335SOL    HW259447   6.212   2.961   5.466 -1.2091  0.5594 -0.2076
19336SOL     OW59448   1.483   3.249   4.820 -0.0894 -0.4548 -0.3965
19336SOL    HW159449   1.491   3.338   4.854  0.5154 -0.0553 -1.5268
19336SOL    HW259450   1.422   3.206   4.879  1.1843  0.0854  1.4062
19337SOL     OW59451   2.488   6.387   0.535  0.1895 -0.4431 -0.0049
19337SOL    HW159452   2.568   6.398   0.587 -0.3757  0.9521  0.6100
19337SOL    HW259453   2.501   6.304   0.489  1.0396 -1.3428  1.7615
19338SOL     OW59454   2.361   2.837  11.545 -0.1659  0.4031 -0.2256
19338SOL    HW159455   2.356   2.817  11.451 -1.0919  0.2814 -0.1599
19338SOL    HW259456   2.270   2.850  11.571 -0.0483 -1.0543  0.9862
19339SOL     OW59457   6.124   7.051  12.072  1.1166  0.1863  0.2708
19339SOL    HW159458   6.205   7.079  12.029  1.1268 -1.3135 -0.7664
19339SOL    HW259459   6.149   6.974  12.122  0.3954 -0.1154  0.1807
19340SOL     OW59460   4.723   6.541   3.665  0.2487  0.4409 -0.5905
19340SOL    HW159461   4.707   6.630   3.696  0.3092  0.0511  0.5832
19340SOL    HW259462   4.795   6.509   3.720 -1.2983 -1.1415  0.6160
19341SOL     OW59463   7.863   4.087   2.971  0.3404  0.2896 -0.1254
19341SOL    HW159464   7.827   4.176   2.978  0.5670  0.3440  0.3429
19341SOL    HW259465   7.835   4.043   3.051 -2.3030 -1.0137 -1.6112
19342SOL     OW59466   0.472   7.168   6.114  0.1180 -0.0456 -0.6241
19342SOL    HW159467   0.470   7.253   6.069  1.4944 -0.8123 -2.2306
19342SOL    HW259468   0.522   7.185   6.194 -0.0012  0.7321 -0.7026
19343SOL     OW59469   3.151   2.966   4.630  0.1986  0.3753 -0.5564
19343SOL    HW159470   3.170   3.008   4.713  1.5253  0.7795 -1.0358
19343SOL    HW259471   3.155   3.036   4.565  0.0107 -0.0754 -1.0728
19344SOL     OW59472   7.885   6.095   5.058 -0.2121  0.2317 -0.4836
19344SOL    HW159473   7.846   6.053   5.135 -0.5550  1.7232  0.1896
19344SOL    HW259474   7.818   6.155   5.026 -0.8311 -1.6908 -3.1606
19345SOL     OW59475   0.285   6.984   8.754  0.0551  0.6079  0.1770
19345SOL    HW159476   0.196   6.959   8.781 -0.4386  0.9738 -1.0546
19345SOL    HW259477   0.342   6.924   8.803 -0.8466  0.5459  1.1948
19346SOL     OW59478   1.013   4.058   0.049  0.1108 -0.0134  0.4619
19346SOL    HW159479   1.024   4.102  -0.035  0.7311 -1.5543 -0.3125
19346SOL    HW259480   1.059   4.113   0.112 -0.3744  1.1723 -0.2062
19347SOL     OW59481   6.329   3.765   7.448  0.1232 -0.1655  0.5343
19347SOL    HW159482   6.314   3.671   7.452 -3.2847  0.1608 -0.6775
19347SOL    HW259483   6.332   3.793   7.539 -1.4257 -1.1979  0.9464
19348SOL     OW59484   5.413   0.727   7.356 -0.0786 -0.1442  0.5752
19348SOL    HW159485   5.493   0.780   7.349  0.6113 -1.1626  0.4808
19348SOL    HW259486   5.426   0.674   7.434 -2.1844  2.0483  2.6012
19349SOL     OW59487   5.481   1.806   7.272  0.2618  0.4330 -0.0031
19349SOL    HW159488   5.458   1.807   7.179 -0.5630  1.2309  0.1957
19349SOL    HW259489   5.419   1.745   7.311  0.5018  0.2215  0.0454
19350SOL     OW59490   7.544   4.652   6.329 -0.7611 -0.1172  0.3094
19350SOL    HW159491   7.575   4.615   6.412 -0.6341  1.6762  1.0989
19350SOL    HW259492   7.555   4.746   6.339 -0.4728  0.1325 -1.8718
19351SOL     OW59493   7.529   4.410   7.132  0.4225 -0.3183  0.0008
19351SOL    HW159494   7.445   4.398   7.176  0.0511  0.2104 -0.5508
19351SOL    HW259495   7.563   4.492   7.168  1.5923 -1.4473  1.6054
19352SOL     OW59496   7.597   6.538   0.105 -0.3007  0.2418  0.5679
19352SOL    HW159497   7.622   6.446   0.098  1.3417  0.7139 -0.4030
19352SOL    HW259498   7.658   6.576   0.168 -0.7976  0.7148  0.7747
19353SOL     OW59499   5.485   3.977   1.130 -0.2565  0.3615  1.4576
19353SOL    HW159500   5.446   4.015   1.051 -1.6407 -0.7542  1.5615
19353SOL    HW259501   5.446   4.026   1.202 -2.6875 -1.6505  1.6355
19354SOL     OW59502   1.622   7.826   7.332 -0.1157 -0.4534  0.1516
19354SOL    HW159503   1.589   7.788   7.414  2.1630 -2.0057  0.4206
19354SOL    HW259504   1.700   7.875   7.357 -0.4481  0.6416 -0.8618
19355SOL     OW59505   4.863   2.375   0.959  0.4762 -0.1677  1.0734
19355SOL    HW159506   4.915   2.337   1.029  1.1205  0.0354  0.7187
19355SOL    HW259507   4.886   2.324   0.881  1.0141  0.6347  0.6831
19356SOL     OW59508   4.743   3.378  12.066  0.5300  0.3383 -0.2260
19356SOL    HW159509   4.797   3.424  12.002  2.2200  1.3287  1.7957
19356SOL    HW259510   4.680   3.444  12.096  0.2037  0.0818 -0.3308
19357SOL     OW59511   5.988   7.422  11.589  0.6710 -0.3267  0.1952
19357SOL    HW159512   5.930   7.454  11.520  0.7607 -0.9469 -0.1754
19357SOL    HW259513   6.027   7.501  11.625 -2.5065  0.4425  2.4118
19358SOL     OW59514   7.472   5.600   0.057  0.4859 -0.5186  0.4007
19358SOL    HW159515   7.435   5.636   0.137  1.6835 -1.4599  1.4261
19358SOL    HW259516   7.540   5.662   0.032 -1.9326  1.4934 -1.7800
19359SOL     OW59517   1.227   4.040   5.071 -0.2184  0.0403  0.8530
19359SOL    HW159518   1.171   4.011   4.998  0.5102  1.3678 -0.2698
19359SOL    HW259519   1.305   3.985   5.064 -0.7262 -0.7945  1.5186
19360SOL     OW59520   0.306   0.755   2.864  0.1265  0.1148  0.5728
19360SOL    HW159521   0.230   0.704   2.834 -0.9829  2.2648 -0.4796
19360SOL    HW259522   0.292   0.765   2.958 -1.1476  0.8045  0.3402
19361SOL     OW59523   3.275   1.279   9.784  0.1252 -0.0478  0.6911
19361SOL    HW159524   3.314   1.250   9.866  0.3882  1.0237  0.9610
19361SOL    HW259525   3.341   1.337   9.744 -0.1725 -0.2068 -0.0589
19362SOL     OW59526   7.967   2.470   4.701 -0.3428  0.3248  0.7426
19362SOL    HW159527   8.046   2.502   4.743 -0.3935  0.0023  1.0851
19362SOL    HW259528   7.951   2.384   4.740 -0.9522  0.4560  0.8050
19363SOL     OW59529   3.853   3.806   9.088 -0.0960 -0.1442  0.0973
19363SOL    HW159530   3.895   3.844   9.165 -1.0534  0.4860  0.3258
19363SOL    HW259531   3.806   3.730   9.122 -1.1641  0.5887  0.2838
19364SOL     OW59532   1.835   6.967   1.621  0.0622 -0.0702 -0.2148
19364SOL    HW159533   1.888   7.020   1.680 -2.4451  0.9540  1.2612
19364SOL    HW259534   1.832   6.881   1.662  0.6116 -0.1725 -0.3722
19365SOL     OW59535   1.680   2.715   2.119 -0.5450 -0.3235  0.3150
19365SOL    HW159536   1.750   2.701   2.182 -0.0138  2.3374  0.4173
19365SOL    HW259537   1.611   2.761   2.168 -0.1317  1.7689 -0.9459
19366SOL     OW59538   0.774   4.871   8.365  0.0580 -0.2825 -0.5346
19366SOL    HW159539   0.764   4.949   8.419 -0.7236 -0.1743 -0.8272
19366SOL    HW259540   0.812   4.904   8.283 -0.4216 -0.1748 -0.7198
19367SOL     OW59541   7.952   0.038   4.069 -0.1259  0.7863 -0.2200
19367SOL    HW159542   8.019   0.022   4.002 -0.2175  0.7553 -0.3045
19367SOL    HW259543   8.002   0.067   4.145  0.0280  0.2808 -0.1241
19368SOL     OW59544   6.750   0.022  11.144 -0.5447  0.2172  0.0641
19368SOL    HW159545   6.825  -0.038  11.150  0.7280  1.5955 -1.1950
19368SOL    HW259546   6.688  -0.023  11.086  1.3921  0.9646 -2.8168
19369SOL     OW59547   6.272   4.284  11.972  0.2236  0.5531  0.3172
19369SOL    HW159548   6.208   4.218  11.998 -0.1204  0.4357 -0.7702
19369SOL    HW259549   6.329   4.240  11.909 -0.0996  1.3144 -0.5346
19370SOL     OW59550   5.432   1.265  11.428 -0.7510  0.2052  0.6152
19370SOL    HW159551   5.467   1.321  11.359 -0.4792 -0.3843  0.2669
19370SOL    HW259552   5.462   1.306  11.509 -0.1997  0.3296  0.3517
19371SOL     OW59553   7.162   0.731   1.326  0.5603 -0.2994  0.7325
19371SOL    HW159554   7.201   0.657   1.280  0.1580 -1.0746  1.5937
19371SOL    HW259555   7.067   0.716   1.318  0.4799 -0.4633  1.7873
19372SOL     OW59556   5.655   4.842   9.819 -0.6210  0.5914 -0.4265
19372SOL    HW159557   5.668   4.860   9.912 -2.4816  1.0939 -0.2277
19372SOL    HW259558   5.569   4.802   9.814 -0.3441  0.1127 -1.8990
19373SOL     OW59559   5.379   1.103   6.160 -0.3663  0.8995 -0.4084
19373SOL    HW159560   5.432   1.023   6.155 -1.3280  0.2335 -0.3814
19373SOL    HW259561   5.291   1.071   6.183 -0.8187  1.9510 -0.6355
19374SOL     OW59562   1.973   0.054   3.893 -0.0755  0.3378 -0.1012
19374SOL    HW159563   1.923   0.108   3.954 -0.7866  0.3585 -0.6940
19374SOL    HW259564   1.982   0.109   3.815  1.4955  0.6227  0.2318
19375SOL     OW59565   6.392   1.808  10.359  0.4307  0.0737 -0.0745
19375SOL    HW159566   6.387   1.818  10.264 -0.0296 -0.4398 -0.1126
19375SOL    HW259567   6.306   1.835  10.391  0.9379  1.3168  0.3131
19376SOL     OW59568   7.375   4.271   3.359 -0.0292 -0.0682 -0.2730
19376SOL    HW159569   7.450   4.237   3.310  0.3730 -0.2770  0.4828
19376SOL    HW259570   7.391   4.366   3.363  1.3435 -0.3168  1.7294
19377SOL     OW59571   6.309   0.591  11.829 -0.2357 -0.5106 -0.0136
19377SOL    HW159572   6.292   0.509  11.784  0.3337 -0.5746 -0.1140
19377SOL    HW259573   6.341   0.565  11.916 -2.5394 -0.4033  0.9504
19378SOL     OW59574   6.376   4.270   7.736  0.2795 -0.0832  0.2980
19378SOL    HW159575   6.440   4.288   7.667 -0.0811 -1.3609 -0.4063
19378SOL    HW259576   6.312   4.212   7.694 -2.4597  2.6199  0.3689
19379SOL     OW59577   0.336   1.257   9.351 -0.2110  0.8049  0.2032
19379SOL    HW159578   0.287   1.274   9.431 -1.7184  1.8718 -0.8745
19379SOL    HW259579   0.298   1.177   9.315  0.2503  0.4951  0.4094
19380SOL     OW59580   3.445   6.180   5.140 -0.1147 -0.2922 -0.3020
19380SOL    HW159581   3.446   6.276   5.145 -1.0250 -0.3193  1.0103
19380SOL    HW259582   3.439   6.161   5.047 -1.2390  0.9780 -0.5184
19381SOL     OW59583   4.306   2.304   2.778  0.4925 -0.0153 -0.6025
19381SOL    HW159584   4.242   2.235   2.797  2.2722 -1.8848 -0.9708
19381SOL    HW259585   4.382   2.257   2.741  3.5744  1.5232  3.0795
19382SOL     OW59586   2.724   0.788   0.482  0.7330 -0.3371 -0.2457
19382SOL    HW159587   2.717   0.760   0.391  0.2072  1.4684 -0.7919
19382SOL    HW259588   2.642   0.760   0.522  0.1009  0.5888 -0.8498
19383SOL     OW59589   2.184   7.456   3.291 -0.0471 -0.3462  0.1171
19383SOL    HW159590   2.217   7.376   3.250  0.5521  0.4640 -1.0420
19383SOL    HW259591   2.098   7.432   3.325 -0.8429 -0.9221 -2.1738
19384SOL     OW59592   1.651   3.644   5.038  0.0002 -0.3562 -0.5329
19384SOL    HW159593   1.671   3.729   4.999 -2.6469  0.6930  0.1911
19384SOL    HW259594   1.576   3.612   4.990 -2.1673  0.1029  2.2616
19385SOL     OW59595   5.582   1.029   4.872  0.0927 -0.0096  0.1973
19385SOL    HW159596   5.520   1.057   4.940  0.7089  1.1669  0.2954
19385SOL    HW259597   5.667   1.025   4.917  0.4768  0.6356 -0.4624
19386SOL     OW59598   7.045   2.523   9.931 -0.0033  0.3450 -0.0960
19386SOL    HW159599   7.102   2.463   9.883 -0.1891  0.7738 -0.8726
19386SOL    HW259600   7.095   2.546  10.009  1.0688  1.0118 -0.9419
19387SOL     OW59601   4.172   4.854   5.776  0.0720 -0.2326 -0.9019
19387SOL    HW159602   4.115   4.800   5.831  1.8038 -0.4910  0.8013
19387SOL    HW259603   4.151   4.829   5.687 -3.9970  1.3203 -0.5782
19388SOL     OW59604   0.302   1.844   4.246 -0.0408  0.3974 -0.3948
19388SOL    HW159605   0.258   1.804   4.171  1.2679 -0.0565 -0.9489
19388SOL    HW259606   0.382   1.881   4.209  1.1013 -0.6793  0.9187
19389SOL     OW59607   2.610   4.597   7.684 -0.2370 -0.2778  0.5247
19389SOL    HW159608   2.565   4.641   7.756  0.4630  1.2507  0.0629
19389SOL    HW259609   2.698   4.633   7.684 -0.1603 -0.3846 -0.9576
19390SOL     OW59610   5.711   3.430   4.777  0.0082  0.2114 -0.1016
19390SOL    HW159611   5.756   3.503   4.819 -1.8824  1.5324 -0.2397
19390SOL    HW259612   5.639   3.470   4.728 -1.3489 -1.7592  0.1264
19391SOL     OW59613   7.178   4.528   4.604  0.3385  0.0515  0.2328
19391SOL    HW159614   7.197   4.517   4.697  1.5980 -0.0004 -0.0062
19391SOL    HW259615   7.260   4.562   4.567  0.6695 -2.1381 -1.2409
19392SOL     OW59616   0.035   1.165  12.139  0.0939 -0.7681  0.0597
19392SOL    HW159617  -0.038   1.160  12.201 -0.2870 -1.5493 -0.4283
19392SOL    HW259618   0.004   1.118  12.062  0.1908  0.9681 -1.1114
19393SOL     OW59619   3.916   7.528   3.265 -0.3642  0.1432  0.2883
19393SOL    HW159620   3.880   7.455   3.214  0.8344 -0.0909 -0.2437
19393SOL    HW259621   3.983   7.488   3.320  0.0473  0.7829  0.2607
19394SOL     OW59622   3.231   3.770   8.060 -0.2574 -0.7759 -0.1388
19394SOL    HW159623   3.323   3.771   8.086 -0.1714  1.6719 -0.2454
19394SOL    HW259624   3.234   3.776   7.965 -0.4902  0.3009 -0.0900
19395SOL     OW59625   5.873   6.885  10.620  0.7068  0.1137  0.0217
19395SOL    HW159626   5.912   6.824  10.682 -0.1211  1.3405  1.8200
19395SOL    HW259627   5.778   6.873  10.631  0.5225  1.6207  0.3487
19396SOL     OW59628   5.818   0.109   1.627  0.2962  0.3008 -0.2843
19396SOL    HW159629   5.810   0.203   1.611  2.1665  1.0278  2.3726
19396SOL    HW259630   5.885   0.102   1.695 -1.5197 -2.7911  1.4074
19397SOL     OW59631   1.231   6.846   0.774  0.0038  0.4692 -1.1547
19397SOL    HW159632   1.206   6.886   0.857 -1.8935 -3.3259  0.3529
19397SOL    HW259633   1.171   6.884   0.710 -0.7060  1.1027 -0.1349
19398SOL     OW59634   3.034   1.545  11.990  0.2495 -0.0230 -0.4724
19398SOL    HW159635   3.070   1.622  12.033  0.3179  0.5079 -1.4612
19398SOL    HW259636   2.953   1.575  11.949 -0.6350 -0.8843  0.5620
19399SOL     OW59637   5.441   5.729  12.428  0.3011 -0.2174  0.4296
19399SOL    HW159638   5.386   5.674  12.373 -0.2896 -0.4883  1.2687
19399SOL    HW259639   5.379   5.771  12.488  0.9453 -0.0644  0.9930
19400SOL     OW59640   7.704   0.443  10.151  0.3373 -0.0094 -0.0721
19400SOL    HW159641   7.788   0.465  10.110  0.0948 -1.0972 -1.2331
19400SOL    HW259642   7.722   0.444  10.245  1.7964 -0.7007 -0.3144
19401SOL     OW59643   3.173   3.569   4.721  0.2099  0.0529 -0.5328
19401SOL    HW159644   3.185   3.509   4.648  2.5214 -0.3852  0.1345
19401SOL    HW259645   3.186   3.515   4.799  0.0720  0.9637  0.1353
19402SOL     OW59646   2.754   1.038  10.210  0.9986 -0.7537  0.3171
19402SOL    HW159647   2.816   1.093  10.257 -1.0921  1.1050  1.0833
19402SOL    HW259648   2.702   1.099  10.158  0.8217 -2.3976 -1.5575
19403SOL     OW59649   6.466   5.204   6.732  0.4917  0.2823 -0.2783
19403SOL    HW159650   6.491   5.203   6.825  0.8123  1.0955 -0.3527
19403SOL    HW259651   6.471   5.296   6.707 -2.1880  0.4822 -0.3998
19404SOL     OW59652   3.990   7.656  10.908  0.2569  0.2900  0.5272
19404SOL    HW159653   3.968   7.566  10.885  0.6090 -0.1404  1.7895
19404SOL    HW259654   4.018   7.695  10.826 -0.3061 -0.6205 -0.1234
19405SOL     OW59655   7.978   6.580  10.886  0.1660 -0.4449  0.0482
19405SOL    HW159656   8.027   6.539  10.957 -1.7723 -0.4240  1.5060
19405SOL    HW259657   7.955   6.667  10.919 -0.1677 -0.1520 -0.9007
19406SOL     OW59658   5.641   1.422   9.297 -0.0098 -0.1494  0.2228
19406SOL    HW159659   5.704   1.430   9.226  0.4288 -1.0063  0.4972
19406SOL    HW259660   5.648   1.505   9.345 -0.4568  0.5124 -0.8313
19407SOL     OW59661   5.284   3.085  10.387  0.6949  0.7530  0.2714
19407SOL    HW159662   5.358   3.041  10.429  0.8863 -0.6110 -1.3906
19407SOL    HW259663   5.213   3.021  10.391 -0.6451  2.2351  2.3338
19408SOL     OW59664   1.844   4.182   6.119 -0.1163 -0.5234  0.0424
19408SOL    HW159665   1.853   4.252   6.183  0.3740 -1.1617  0.6862
19408SOL    HW259666   1.802   4.223   6.044 -0.3664  0.3194  0.6334
19409SOL     OW59667   3.364   0.779   8.727 -0.3829 -0.1197  0.4561
19409SOL    HW159668   3.313   0.860   8.733 -1.8868 -0.8329 -1.5879
19409SOL    HW259669   3.341   0.730   8.807 -0.8957  0.6775  0.8042
19410SOL     OW59670   0.031   7.726   9.078 -0.4434  0.1331  0.0696
19410SOL    HW159671  -0.022   7.798   9.111  0.9244  1.6068 -0.7730
19410SOL    HW259672   0.073   7.689   9.156  1.8160  2.7904  0.2958
19411SOL     OW59673   0.414   1.781   5.725  0.4297  0.1988 -0.1713
19411SOL    HW159674   0.324   1.751   5.736  0.6856 -0.6588 -0.2958
19411SOL    HW259675   0.416   1.867   5.766 -0.1538 -0.2858  0.9220
19412SOL     OW59676   2.601   3.798   2.329 -0.4776 -0.1140 -0.3034
19412SOL    HW159677   2.694   3.820   2.333 -0.3907  0.4879 -3.2202
19412SOL    HW259678   2.560   3.848   2.400  1.2692  0.3297  0.4284
19413SOL     OW59679   4.699   7.832   9.410  0.0782 -0.3329 -0.2100
19413SOL    HW159680   4.774   7.882   9.379  0.6414 -0.7077  0.5153
19413SOL    HW259681   4.725   7.801   9.497 -0.8915 -0.5227  0.0231
19414SOL     OW59682   4.434   4.594   0.229  0.1386  0.1021 -0.0012
19414SOL    HW159683   4.432   4.687   0.251  1.1709  0.0952  0.1508
19414SOL    HW259684   4.452   4.592   0.135 -0.3283  0.0514 -0.0962
19415SOL     OW59685   4.923   6.291   5.175  0.0433 -0.0779 -0.3663
19415SOL    HW159686   4.955   6.373   5.213  0.7571 -0.6701  0.3543
19415SOL    HW259687   4.980   6.275   5.100  0.6321 -0.4732  0.1541
19416SOL     OW59688   2.410   7.769   0.233  0.7750  0.2518  0.3422
19416SOL    HW159689   2.466   7.803   0.303 -0.1012  2.6328 -0.0388
19416SOL    HW259690   2.403   7.841   0.170  0.6989 -1.4588 -1.7409
19417SOL     OW59691   2.482   2.273   2.226  0.3288  0.1299 -0.3703
19417SOL    HW159692   2.549   2.210   2.254  1.4574  0.3439 -2.4328
19417SOL    HW259693   2.423   2.223   2.170 -0.3211  0.3291  0.1174
19418SOL     OW59694   0.881   1.722   0.985  0.1064 -0.2300  0.1737
19418SOL    HW159695   0.897   1.810   0.951  0.6533 -0.3814  0.0314
19418SOL    HW259696   0.854   1.736   1.075  1.4367  0.0209  0.5460
19419SOL     OW59697   0.389   1.918   9.551 -0.2579 -0.2135  0.0259
19419SOL    HW159698   0.316   1.863   9.522 -1.3808  0.7717  0.8775
19419SOL    HW259699   0.382   1.919   9.646  0.8071 -0.0046  0.1102
19420SOL     OW59700   7.962   1.946   6.263  0.0300  0.4209  0.0588
19420SOL    HW159701   8.050   1.909   6.264 -0.3847 -0.6089 -0.2540
19420SOL    HW259702   7.943   1.965   6.355  0.4240  0.2538  0.1764
19421SOL     OW59703   6.141   0.557   7.969 -0.1938  0.3975  0.0893
19421SOL    HW159704   6.127   0.467   8.001 -1.2934 -0.6477 -2.9406
19421SOL    HW259705   6.165   0.607   8.047 -1.5158 -2.0921  2.2580
19422SOL     OW59706   4.977   0.288   6.415 -0.1155 -0.1826  0.6206
19422SOL    HW159707   4.885   0.266   6.405 -0.2579 -0.2594  1.9045
19422SOL    HW259708   4.980   0.383   6.401 -0.1082 -0.4099 -1.0734
19423SOL     OW59709   7.506   5.047   4.669 -0.0205  0.5402 -0.3334
19423SOL    HW159710   7.499   5.106   4.593 -1.0402 -0.0205 -0.6904
19423SOL    HW259711   7.477   4.962   4.636 -0.4213  0.2784  0.6768
19424SOL     OW59712   1.232   4.223   5.297 -0.1169  0.1694 -0.1624
19424SOL    HW159713   1.316   4.262   5.274  0.9867 -1.0046  1.5752
19424SOL    HW259714   1.193   4.199   5.213  0.0293  3.1204 -1.1709
19425SOL     OW59715   6.617   6.505   4.321 -0.3423  0.2742 -0.4441
19425SOL    HW159716   6.632   6.538   4.410 -1.2217  1.3672 -0.6809
19425SOL    HW259717   6.521   6.500   4.314 -0.2662 -0.4838 -1.0988
19426SOL     OW59718   7.730   1.697  11.761 -0.0862  0.4571  0.6876
19426SOL    HW159719   7.673   1.703  11.685 -0.0494  0.5739  0.6684
19426SOL    HW259720   7.783   1.776  11.758  0.7013 -0.0772  0.2087
19427SOL     OW59721   1.014   4.462  11.212 -0.1001  0.2646  0.5908
19427SOL    HW159722   0.989   4.543  11.167 -1.6274  0.5436  1.8722
19427SOL    HW259723   1.110   4.460  11.205 -0.2326 -0.4408 -3.8265
19428SOL     OW59724   4.352   3.373   5.484 -0.4466  0.3243  0.1110
19428SOL    HW159725   4.379   3.374   5.576  1.1686  3.1692 -0.2922
19428SOL    HW259726   4.272   3.425   5.482 -1.4944 -1.2199  0.0961
19429SOL     OW59727   6.110   4.621   9.639 -0.1890  0.0844 -0.1688
19429SOL    HW159728   6.074   4.699   9.682 -2.3565 -1.2875  0.6438
19429SOL    HW259729   6.101   4.641   9.545 -0.2887  0.9926  0.0184
19430SOL     OW59730   7.541   5.204   9.505 -0.2625  0.2581  0.2533
19430SOL    HW159731   7.498   5.240   9.582 -1.4862 -1.7106  0.5591
19430SOL    HW259732   7.477   5.216   9.434  0.0457  0.2638 -0.0288
19431SOL     OW59733   1.246   4.386   0.767 -0.5667 -0.3670 -0.4144
19431SOL    HW159734   1.211   4.447   0.702 -2.1781 -0.0667  0.7004
19431SOL    HW259735   1.233   4.299   0.728 -0.6068 -0.1434 -0.9069
19432SOL     OW59736   0.252   6.971   1.618 -0.4273  0.3056 -0.1943
19432SOL    HW159737   0.235   7.050   1.567  0.3600  1.2200  0.9272
19432SOL    HW259738   0.176   6.964   1.676  0.1288  0.9993  0.6297
19433SOL     OW59739   6.143   3.757   5.537 -0.1572 -0.4981 -0.5512
19433SOL    HW159740   6.074   3.821   5.554  0.3728  0.0181 -0.2732
19433SOL    HW259741   6.134   3.693   5.608  1.0796  0.8227  0.8939
19434SOL     OW59742   1.841   4.729   0.270  0.2278  0.2266  0.1590
19434SOL    HW159743   1.903   4.729   0.197  0.6448  0.7715  0.4979
19434SOL    HW259744   1.897   4.738   0.348  0.0293 -2.9420  0.7755
19435SOL     OW59745   2.414   0.939   0.043  0.3956  0.2456  0.0697
19435SOL    HW159746   2.493   0.939   0.097  1.9180 -0.0330 -2.0113
19435SOL    HW259747   2.423   1.016  -0.013 -1.6495  1.1249  0.8452
19436SOL     OW59748   3.351   0.270   9.527 -0.2858  0.0738 -0.0675
19436SOL    HW159749   3.436   0.266   9.483  0.2340  1.1219  0.7854
19436SOL    HW259750   3.343   0.361   9.556 -0.2086 -0.6947  2.6516
19437SOL     OW59751   5.432   3.756   4.991 -0.0110  0.2146 -0.2500
19437SOL    HW159752   5.409   3.664   5.005  1.8894 -0.0699  1.4150
19437SOL    HW259753   5.510   3.753   4.934  0.4603  0.7475  0.3559
19438SOL     OW59754   6.095   6.760  10.012 -0.2149 -0.1513 -0.3416
19438SOL    HW159755   6.072   6.687  10.071 -0.0098  0.7240  0.8608
19438SOL    HW259756   6.179   6.735   9.975  0.2743 -0.1640  0.7290
19439SOL     OW59757   3.833   4.711   1.919  0.5072  0.3017 -0.0071
19439SOL    HW159758   3.795   4.704   2.006 -0.5047 -2.6819 -0.5452
19439SOL    HW259759   3.804   4.796   1.886 -0.5433  0.7385  1.8985
19440SOL     OW59760   6.402   7.017   3.849  0.4798 -0.3423 -0.3431
19440SOL    HW159761   6.449   7.073   3.787 -0.2622 -1.0917 -1.6071
19440SOL    HW259762   6.453   7.024   3.930  2.4009 -0.6123 -1.4731
19441SOL     OW59763   1.552   5.629   4.236 -0.1804 -0.4723 -0.1211
19441SOL    HW159764   1.521   5.701   4.181 -1.1308 -0.3882  0.4826
19441SOL    HW259765   1.621   5.587   4.186 -0.8819 -0.2718 -1.2834
19442SOL     OW59766   1.901   7.345   2.308 -0.1061 -0.5187 -0.2760
19442SOL    HW159767   1.944   7.380   2.386  2.1691  0.4526 -1.8808
19442SOL    HW259768   1.834   7.285   2.343 -1.0383  1.8669  2.4631
19443SOL     OW59769   5.485   1.942   2.179  0.7150 -0.1942  0.0173
19443SOL    HW159770   5.476   1.860   2.226  1.4357 -0.9473 -1.0957
19443SOL    HW259771   5.577   1.944   2.151  0.8131  1.1731  0.3267
19444SOL     OW59772   6.875   6.964   1.339  0.4832 -0.6152 -0.1954
19444SOL    HW159773   6.802   7.026   1.342  1.8946  1.1093  2.0344
19444SOL    HW259774   6.850   6.900   1.272 -1.0424  2.3501 -2.6898
19445SOL     OW59775   7.092   2.029   1.962  1.0545 -0.1905  0.0064
19445SOL    HW159776   7.062   2.043   1.873 -0.7095 -0.7875  0.4544
19445SOL    HW259777   7.043   1.952   1.992  0.8496  0.5710  1.7934
19446SOL     OW59778   4.909   2.698  11.149  0.0999 -0.1254  0.3306
19446SOL    HW159779   4.889   2.656  11.232 -0.6717  1.0267  0.7489
19446SOL    HW259780   4.999   2.731  11.160  0.4062 -0.9260  0.2930
19447SOL     OW59781   5.477   7.518   0.304 -0.0329  0.0260  0.6149
19447SOL    HW159782   5.535   7.480   0.238 -2.0927 -2.2004 -0.0424
19447SOL    HW259783   5.389   7.501   0.271 -1.1654 -1.3130  3.9643
19448SOL     OW59784   6.026   1.012   0.988  0.4591 -0.1092 -0.3466
19448SOL    HW159785   5.967   0.940   1.006  0.7959 -0.5932 -1.1215
19448SOL    HW259786   6.110   0.970   0.967  0.7411  0.5137 -0.5095
19449SOL     OW59787   5.216   6.969  11.758  0.7304 -0.1093 -0.4415
19449SOL    HW159788   5.300   6.932  11.785  0.3099 -0.6314  0.1737
19449SOL    HW259789   5.151   6.922  11.810  0.0394  0.1566 -1.0507
19450SOL     OW59790   1.791   5.636   3.486 -0.1337 -0.5258  0.4425
19450SOL    HW159791   1.823   5.637   3.395 -3.3165  1.0824 -0.8204
19450SOL    HW259792   1.866   5.664   3.538  0.6133  3.3996 -2.2785
19451SOL     OW59793   3.722   5.161   5.957  0.0659 -0.0581 -0.7811
19451SOL    HW159794   3.643   5.215   5.964 -0.7327 -1.2225 -0.5360
19451SOL    HW259795   3.692   5.072   5.977  1.9841 -0.1326  2.3627
19452SOL     OW59796   4.962   7.761   5.817 -0.4924 -0.0013 -0.4110
19452SOL    HW159797   4.869   7.771   5.835 -0.3583  1.2369 -0.3379
19452SOL    HW259798   4.969   7.773   5.722 -0.2232  1.6349 -0.2139
19453SOL     OW59799   4.041   3.467   6.313  0.4391 -0.3333 -0.3976
19453SOL    HW159800   4.041   3.511   6.399 -0.6569 -0.9077 -0.0904
19453SOL    HW259801   4.020   3.376   6.333 -0.5083 -0.3398 -1.3372
19454SOL     OW59802   5.328   6.038   6.937 -0.2447  0.3634  0.5147
19454SOL    HW159803   5.365   6.058   7.022  1.4508  2.4114 -0.6148
19454SOL    HW259804   5.314   6.123   6.896 -1.2265 -0.5520 -1.1804
19455SOL     OW59805   0.959   4.884   7.818  0.4593  0.7759  0.2165
19455SOL    HW159806   0.906   4.807   7.797  0.3407  0.5401  1.2837
19455SOL    HW259807   1.032   4.881   7.757 -1.4251  1.8917 -2.2838
19456SOL     OW59808   3.296   1.245   1.154  0.5003  0.5445  0.6341
19456SOL    HW159809   3.329   1.155   1.153  0.8567  0.6670  0.9563
19456SOL    HW259810   3.289   1.269   1.062  2.2984  0.8580  0.5503
19457SOL     OW59811   2.315   1.583   2.797  0.6651 -0.0195  0.1300
19457SOL    HW159812   2.378   1.640   2.753 -0.1275 -0.2192 -1.3109
19457SOL    HW259813   2.303   1.509   2.738 -2.2676  0.8605 -0.5682
19458SOL     OW59814   0.292   4.069   2.560  0.5279 -0.1647 -0.0971
19458SOL    HW159815   0.227   3.998   2.560 -0.2785  0.5239  1.4989
19458SOL    HW259816   0.310   4.085   2.653  0.9874  1.4617 -0.4418
19459SOL     OW59817   1.761   4.056  10.022 -0.0401 -0.2840  0.0067
19459SOL    HW159818   1.796   4.144  10.009  1.3799 -0.7003  0.7607
19459SOL    HW259819   1.677   4.056   9.977 -1.0832  2.0989  1.7691
19460SOL     OW59820   5.523   0.536   9.814  0.4465 -0.8019  0.1102
19460SOL    HW159821   5.534   0.517   9.907 -0.9406 -0.7573  0.2955
19460SOL    HW259822   5.486   0.624   9.812 -0.3514 -1.1426 -0.4509
19461SOL     OW59823   2.178   1.950   8.588 -0.1129  0.1009  0.0543
19461SOL    HW159824   2.122   1.933   8.663 -1.1242  2.3320 -0.1288
19461SOL    HW259825   2.149   1.887   8.522 -0.1264 -0.9698  1.0312
19462SOL     OW59826   3.531   6.103   2.872 -0.2178 -0.5733  0.1564
19462SOL    HW159827   3.529   6.052   2.953 -0.3904 -3.1996 -1.3914
19462SOL    HW259828   3.624   6.106   2.848 -0.4134 -2.5664 -1.0898
19463SOL     OW59829   1.781   7.904  12.088  0.1798 -0.5089  0.0501
19463SOL    HW159830   1.784   7.852  12.169 -2.4890 -0.0625  0.5563
19463SOL    HW259831   1.802   7.993  12.117 -0.1827 -0.4554  0.1575
19464SOL     OW59832   3.594   5.292   6.683 -0.7613  0.1234  0.9174
19464SOL    HW159833   3.616   5.328   6.769  2.1183  2.3003 -0.5535
19464SOL    HW259834   3.648   5.214   6.675 -0.8227  0.0748  0.9752
19465SOL     OW59835   3.718   5.553  10.388 -0.5296  0.4134 -0.0173
19465SOL    HW159836   3.767   5.622  10.432 -2.0251  1.4142  0.1489
19465SOL    HW259837   3.663   5.599  10.324 -0.7951 -0.7204 -0.6379
19466SOL     OW59838   2.828   2.473   7.485 -0.5458  0.1058 -0.4587
19466SOL    HW159839   2.735   2.463   7.507 -0.3833 -1.5563 -0.3987
19466SOL    HW259840   2.850   2.560   7.516 -1.6297 -0.1874  1.3035
19467SOL     OW59841   3.676   6.077   6.053 -0.5080  0.0462  0.3470
19467SOL    HW159842   3.610   6.066   6.122  0.1852 -0.5282  0.9351
19467SOL    HW259843   3.719   5.991   6.048  0.9479  0.7275  0.7599
19468SOL     OW59844   1.542   3.996  11.118  0.0349 -0.1314  0.2337
19468SOL    HW159845   1.479   3.988  11.046 -0.9176  0.9479  0.9057
19468SOL    HW259846   1.568   3.906  11.138 -2.1173 -0.7125  0.6418
19469SOL     OW59847   1.562   0.119   6.665 -0.3102  0.0601  0.4334
19469SOL    HW159848   1.584   0.200   6.620 -0.6110 -0.1835 -0.1595
19469SOL    HW259849   1.467   0.125   6.680 -0.3469 -0.2223  0.3111
19470SOL     OW59850   7.015   4.280   8.430 -0.4466  0.5717 -0.1763
19470SOL    HW159851   6.974   4.366   8.420 -0.7564  0.3824 -0.6401
19470SOL    HW259852   6.942   4.221   8.451 -0.3578  0.3035 -0.5833
19471SOL     OW59853   6.975   0.062   7.458  0.2846  0.3881 -0.0750
19471SOL    HW159854   6.898   0.048   7.512 -0.0549 -0.5439 -0.7710
19471SOL    HW259855   7.046   0.015   7.502  0.1708  0.2205 -0.0718
19472SOL     OW59856   3.785   1.088   6.760  0.3084  0.3198  0.2311
19472SOL    HW159857   3.764   1.131   6.842 -0.0788 -1.0503  0.8780
19472SOL    HW259858   3.739   1.139   6.693 -3.5879 -1.3663  1.3612
19473SOL     OW59859   0.708   0.663   5.193 -0.1232 -0.3074  0.0725
19473SOL    HW159860   0.780   0.670   5.255 -0.2408 -1.9437  0.4397
19473SOL    HW259861   0.653   0.593   5.228 -1.3582  0.2234 -0.7322
19474SOL     OW59862   2.138   6.218   5.211 -0.2425 -0.0341  0.1874
19474SOL    HW159863   2.110   6.130   5.187 -0.8263  0.1536  0.1789
19474SOL    HW259864   2.146   6.265   5.128  1.3392 -0.4402  0.0789
19475SOL     OW59865   6.241   4.444   6.862  0.8768 -0.1869  0.1023
19475SOL    HW159866   6.260   4.534   6.886  2.4846 -0.9332  1.9241
19475SOL    HW259867   6.146   4.442   6.847  1.1515  2.3714 -3.0214
19476SOL     OW59868   3.897   1.024  11.448  0.0745  0.7500  0.0639
19476SOL    HW159869   3.986   1.034  11.416  0.5762 -1.0960  0.7645
19476SOL    HW259870   3.847   0.999  11.371  0.2947  1.0792 -0.1907
19477SOL     OW59871   0.451   2.745  12.305 -0.3488  0.0861 -0.2296
19477SOL    HW159872   0.533   2.776  12.345 -0.0790 -2.5913  1.6312
19477SOL    HW259873   0.388   2.744  12.377 -2.0459  1.8805 -1.5807
19478SOL     OW59874   2.514   4.168   7.387  0.4652 -0.4554 -0.1229
19478SOL    HW159875   2.497   4.144   7.478 -0.3124 -0.0768 -0.1513
19478SOL    HW259876   2.442   4.227   7.365  1.2591  0.3432 -0.6437
19479SOL     OW59877   7.143   2.770   3.806  0.0133 -0.2870  0.0255
19479SOL    HW159878   7.202   2.719   3.750 -0.5506  0.0782 -0.9218
19479SOL    HW259879   7.080   2.706   3.840 -1.2922 -0.1271 -1.9358
19480SOL     OW59880   1.676   7.597   1.475  0.5002 -0.3066  0.2334
19480SOL    HW159881   1.675   7.541   1.553 -0.0074 -1.8655 -0.8445
19480SOL    HW259882   1.675   7.686   1.509  0.4517 -0.9565  2.0106
19481SOL     OW59883   7.819   3.672   0.877 -0.2228  0.3020  0.5813
19481SOL    HW159884   7.757   3.658   0.949 -0.4247  2.6940  0.9502
19481SOL    HW259885   7.900   3.629   0.906 -0.8719 -0.4463  1.3381
19482SOL     OW59886   1.321   0.711  10.632  0.0101  0.4702 -0.0494
19482SOL    HW159887   1.313   0.625  10.591  0.5377 -0.2437  1.2590
19482SOL    HW259888   1.231   0.742  10.642 -0.3224 -0.7896  1.1407
19483SOL     OW59889   7.234   3.169   9.072  0.7528  0.0269  0.0135
19483SOL    HW159890   7.141   3.150   9.075  0.7220 -0.1416 -1.4699
19483SOL    HW259891   7.239   3.257   9.035  1.1479  0.4953  1.1440
19484SOL     OW59892   0.048   0.127   6.787  0.0578  0.3663 -0.7877
19484SOL    HW159893   0.058   0.084   6.703 -0.6478  0.4122 -0.8976
19484SOL    HW259894   0.047   0.221   6.767  0.7684  0.4165 -0.6321
19485SOL     OW59895   4.879   6.451   6.589  0.0633  0.1277  0.9328
19485SOL    HW159896   4.863   6.410   6.675  0.9159 -1.9586  0.1434
19485SOL    HW259897   4.877   6.379   6.527 -0.4193  1.5840 -0.8405
19486SOL     OW59898   6.640   5.971  12.041  0.2214  0.2419 -0.0055
19486SOL    HW159899   6.628   5.878  12.026  0.4578  0.3777 -1.1286
19486SOL    HW259900   6.729   5.979  12.076 -0.1252 -0.0298  0.9575
19487SOL     OW59901   4.314   4.285   5.540  0.1145 -0.2772  0.5657
19487SOL    HW159902   4.287   4.320   5.455 -1.1056  0.3810  1.1912
19487SOL    HW259903   4.348   4.361   5.588  0.5707 -0.5990  0.7595
19488SOL     OW59904   6.329   2.254   6.861 -0.2768  0.5594  0.3662
19488SOL    HW159905   6.400   2.317   6.851  0.2742 -0.1570 -0.3994
19488SOL    HW259906   6.333   2.227   6.953  0.0094  1.0197  0.4893
19489SOL     OW59907   3.101   3.415   2.163 -0.6716 -0.1088  0.0111
19489SOL    HW159908   3.017   3.450   2.192 -1.3957 -0.7156 -1.2494
19489SOL    HW259909   3.123   3.346   2.226  0.9318  2.6387  2.7244
19490SOL     OW59910   1.816   4.639   6.450  0.7419  0.0066 -0.4941
19490SOL    HW159911   1.904   4.613   6.475  1.5787  1.1849 -2.0110
19490SOL    HW259912   1.829   4.713   6.390 -1.2506 -0.1465 -1.1958
19491SOL     OW59913   5.102   3.422   3.536 -0.2526 -0.0772  0.4815
19491SOL    HW159914   5.028   3.483   3.535  0.0009  0.2907  1.6480
19491SOL    HW259915   5.164   3.461   3.599  1.2641 -0.0070 -0.9687
19492SOL     OW59916   4.918   5.339   4.430 -0.0715  0.3536  0.1848
19492SOL    HW159917   4.867   5.419   4.420  2.3952  2.3371  2.1736
19492SOL    HW259918   4.922   5.324   4.525  1.9605 -0.3890  0.0473
19493SOL     OW59919   7.760   7.383   4.512 -0.2661  0.5714  0.1461
19493SOL    HW159920   7.725   7.318   4.451 -2.7990  1.9858 -0.0282
19493SOL    HW259921   7.778   7.460   4.458  1.1711  0.6082  0.6123
19494SOL     OW59922   5.663   2.663   7.252  0.5157 -0.0108 -0.8554
19494SOL    HW159923   5.680   2.754   7.226  0.3769  0.9553  2.1034
19494SOL    HW259924   5.592   2.669   7.316  0.9245 -2.1389 -0.1200
19495SOL     OW59925   0.399   1.311   3.612  0.3748  0.3950 -0.0361
19495SOL    HW159926   0.435   1.306   3.523 -0.8866  1.9674 -0.6796
19495SOL    HW259927   0.434   1.233   3.656  0.8709 -0.5354 -1.9549
19496SOL     OW59928   6.314   2.008   9.764 -0.6257  0.0835 -0.1645
19496SOL    HW159929   6.354   2.089   9.732 -1.0778  0.3344 -0.0934
19496SOL    HW259930   6.389   1.951   9.781 -0.1365  1.2049  1.7705
19497SOL     OW59931   5.021   0.126   4.665  0.3333  0.0050 -0.0289
19497SOL    HW159932   5.110   0.102   4.637  0.4908 -0.4597  0.8429
19497SOL    HW259933   5.030   0.209   4.710  0.9121 -1.5445  2.9913
19498SOL     OW59934   0.834   4.223  12.304  0.0278 -0.0784 -0.6813
19498SOL    HW159935   0.886   4.303  12.305 -1.4906  1.0449 -3.0306
19498SOL    HW259936   0.847   4.187  12.216 -1.1631 -1.1336 -0.4568
19499SOL     OW59937   2.373   6.891  11.677  0.1074 -0.7284  0.1104
19499SOL    HW159938   2.468   6.880  11.676  0.1404 -0.4330 -0.0736
19499SOL    HW259939   2.342   6.828  11.743  0.4275 -0.8389  0.1553
19500SOL     OW59940   5.143   6.475   4.937 -0.0885  0.1617  0.0215
19500SOL    HW159941   5.232   6.441   4.938  0.0012  0.4109  0.6120
19500SOL    HW259942   5.088   6.397   4.925  0.1948 -0.0095 -0.1860
19501SOL     OW59943   6.630   0.162   7.319 -0.2615 -0.4294 -0.1452
19501SOL    HW159944   6.708   0.139   7.269  0.6548 -0.1005  1.0734
19501SOL    HW259945   6.629   0.100   7.392 -0.9090 -0.1523  0.0929
19502SOL     OW59946   3.827   7.692  12.358 -0.3862 -0.6681 -0.3019
19502SOL    HW159947   3.812   7.599  12.339 -0.3770 -0.6312 -0.4926
19502SOL    HW259948   3.865   7.727  12.278  1.3692 -0.9131  0.3707
19503SOL     OW59949   3.615   3.262   2.152  0.4925 -0.0304  0.4044
19503SOL    HW159950   3.567   3.307   2.221  0.2098  0.7386 -0.2818
19503SOL    HW259951   3.603   3.316   2.074 -2.0483 -2.5389 -1.1432
19504SOL     OW59952   5.015   4.237   8.382  0.7470  0.4057  0.1857
19504SOL    HW159953   4.968   4.293   8.444 -0.2731  0.5170 -0.6490
19504SOL    HW259954   5.099   4.280   8.369  0.1407  1.5331 -0.1203
19505SOL     OW59955   4.430   2.208   4.404 -0.1746  0.4708 -0.3164
19505SOL    HW159956   4.485   2.211   4.325  1.1428 -1.2270  0.4592
19505SOL    HW259957   4.486   2.245   4.473 -0.2587 -0.6067  0.3451
19506SOL     OW59958   1.563   1.279   6.269  0.0195 -0.5229  0.7257
19506SOL    HW159959   1.594   1.364   6.239 -0.8732 -0.4195  0.0215
19506SOL    HW259960   1.642   1.227   6.281  0.4746 -0.6746 -2.1950
19507SOL     OW59961   3.189   2.486  10.723  0.2155  0.2292  0.0182
19507SOL    HW159962   3.162   2.551  10.789  1.1360  1.1065 -0.4383
19507SOL    HW259963   3.257   2.531  10.672 -1.0446 -0.1054 -2.0780
19508SOL     OW59964   2.612   1.918   0.808 -0.3000 -0.4450 -0.1401
19508SOL    HW159965   2.540   1.962   0.853  1.1550  0.3163  1.5482
19508SOL    HW259966   2.600   1.825   0.830 -2.2347 -0.7551 -2.0916
19509SOL     OW59967   7.082   0.142  11.295  0.2131 -0.2143  0.4505
19509SOL    HW159968   7.060   0.221  11.344 -0.0234 -0.8214  1.3534
19509SOL    HW259969   6.999   0.097  11.282  0.5863 -1.4875  2.0668
19510SOL     OW59970   0.102   4.333   2.674 -0.2416  0.5355 -0.2186
19510SOL    HW159971   0.150   4.250   2.681 -0.7348  0.2572 -0.1259
19510SOL    HW259972   0.085   4.344   2.581  0.2057  0.7539 -0.2780
19511SOL     OW59973   2.311   4.923  11.778  0.0257 -0.5216 -0.3436
19511SOL    HW159974   2.237   4.954  11.830  0.4537 -0.5412  0.2834
19511SOL    HW259975   2.321   4.989  11.709  0.1174  0.0695  0.2234
19512SOL     OW59976   7.784   0.272   6.465  0.1143  0.1728  0.1326
19512SOL    HW159977   7.847   0.291   6.395  0.5323  1.3546  0.7878
19512SOL    HW259978   7.739   0.192   6.437  1.8333 -0.6472 -0.4111
19513SOL     OW59979   2.229   3.409   7.453  0.3852 -0.1026  0.3273
19513SOL    HW159980   2.258   3.417   7.363  1.7607 -0.2813  0.7351
19513SOL    HW259981   2.261   3.488   7.497 -1.0684  0.4377  0.4770
19514SOL     OW59982   1.587   2.798   7.169 -0.2645  0.0988  0.1174
19514SOL    HW159983   1.616   2.770   7.256  3.1459  0.5835 -0.6984
19514SOL    HW259984   1.615   2.890   7.163 -0.3524  0.0509 -1.4971
19515SOL     OW59985   4.519   1.058   7.936  0.1630  0.1526 -0.4283
19515SOL    HW159986   4.503   1.015   7.852 -1.3473  0.7303 -0.4743
19515SOL    HW259987   4.449   1.026   7.993  0.0141  1.2539  0.0276
19516SOL     OW59988   6.936   3.275   1.183 -0.2835 -0.1759  1.2335
19516SOL    HW159989   6.865   3.338   1.170 -0.5694 -0.7151  0.0141
19516SOL    HW259990   6.899   3.210   1.244 -2.4171 -2.6308 -2.3008
19517SOL     OW59991   1.380   6.889  10.545 -0.0972 -0.4708  0.4653
19517SOL    HW159992   1.395   6.797  10.566 -1.6980 -0.4242  2.0772
19517SOL    HW259993   1.456   6.935  10.582 -0.4529 -0.9348  1.8493
19518SOL     OW59994   7.005   3.770  10.001  0.2589 -0.6666 -0.4967
19518SOL    HW159995   6.980   3.840  10.061 -1.0534  0.4329 -2.2224
19518SOL    HW259996   6.973   3.690  10.042 -0.0908 -0.0137  0.5230
19519SOL     OW59997   3.539   7.492   4.659 -0.0913 -0.2620  0.3509
19519SOL    HW159998   3.529   7.551   4.734  2.4444 -1.0302  1.4045
19519SOL    HW259999   3.466   7.431   4.667 -0.2332  0.0596  1.8603
19520SOL     OW60000   3.483   0.933   1.270  0.3058  0.4912 -0.0044
19520SOL    HW160001   3.459   0.849   1.310 -0.8128  1.5426  1.6696
19520SOL    HW260002   3.435   0.934   1.187  0.6063 -0.6437 -0.2176
19521SOL     OW60003   6.247   6.522   0.208 -0.5361 -0.0564  0.7301
19521SOL    HW160004   6.232   6.463   0.133  1.7103  0.2508 -0.0263
19521SOL    HW260005   6.178   6.498   0.270 -1.3675 -1.5885 -0.6749
19522SOL     OW60006   3.569   6.188   5.799 -0.3472 -0.2854  0.3969
19522SOL    HW160007   3.610   6.129   5.863  0.1298 -1.4174 -0.8955
19522SOL    HW260008   3.594   6.151   5.714 -1.5821  0.7506 -0.4426
19523SOL     OW60009   1.159   3.642   5.866 -1.0182 -0.5662  0.2205
19523SOL    HW160010   1.071   3.620   5.833 -0.5339  0.1760 -1.7146
19523SOL    HW260011   1.218   3.619   5.794  0.2521  0.0816  1.0204
19524SOL     OW60012   0.644   2.070   0.169 -0.3869  0.0173 -0.1563
19524SOL    HW160013   0.611   2.036   0.253 -1.3529 -0.3089 -0.6535
19524SOL    HW260014   0.716   2.011   0.146  0.2687  0.4443  0.7008
19525SOL     OW60015   4.585   1.092   2.631 -0.1520 -0.0133 -0.0171
19525SOL    HW160016   4.544   1.126   2.552 -0.0608  1.2953  0.4845
19525SOL    HW260017   4.619   1.169   2.677  2.3763 -0.9831 -0.1040
19526SOL     OW60018   6.497   5.005   2.232  0.0071  0.3000 -0.0271
19526SOL    HW160019   6.532   4.975   2.148  2.2652  1.2389  0.5136
19526SOL    HW260020   6.433   5.072   2.209  1.1596  1.1002 -1.0199
19527SOL     OW60021   0.649   7.368   8.836  0.1031 -0.2562  0.4097
19527SOL    HW160022   0.644   7.345   8.743  0.7516  1.1104  0.0089
19527SOL    HW260023   0.603   7.297   8.881 -0.5435 -0.7535 -0.9796
19528SOL     OW60024   6.116   1.920   8.513 -0.1601  0.1304  0.5781
19528SOL    HW160025   6.054   1.914   8.440  1.8925 -1.2214 -1.1673
19528SOL    HW260026   6.107   1.836   8.559  1.0003 -0.4934 -0.2790
19529SOL     OW60027   4.009   4.270   1.529  0.0504 -0.1239 -0.2356
19529SOL    HW160028   4.097   4.306   1.528 -0.1456  0.5011  1.7223
19529SOL    HW260029   4.021   4.175   1.524  0.8251 -0.0432  0.0818
19530SOL     OW60030   5.127   4.292  10.150 -0.5669  0.0159 -0.7761
19530SOL    HW160031   5.201   4.252  10.105 -0.7008 -0.3846 -0.6464
19530SOL    HW260032   5.124   4.382  10.117  1.6845  0.9472  1.2483
19531SOL     OW60033   6.488   6.829   3.600 -0.0171 -0.0864 -0.7783
19531SOL    HW160034   6.490   6.810   3.694  3.0607 -1.5012 -0.9909
19531SOL    HW260035   6.485   6.743   3.559  2.5138  0.2552 -1.8791
19532SOL     OW60036   0.164   0.060   0.977 -0.7820 -0.0407  0.0078
19532SOL    HW160037   0.154   0.061   0.882 -1.5522  0.4251  0.0841
19532SOL    HW260038   0.258   0.046   0.992 -0.6866 -0.3040 -0.8138
19533SOL     OW60039   2.753   7.387   6.049 -0.2285 -0.3528  0.1779
19533SOL    HW160040   2.771   7.428   6.133  0.9440  1.5585 -0.9233
19533SOL    HW260041   2.658   7.375   6.047 -0.5419  1.7055  0.8775
19534SOL     OW60042   6.595   1.542   8.081  0.0825  0.5254 -0.0017
19534SOL    HW160043   6.532   1.474   8.054 -0.1394  0.6830  0.1108
19534SOL    HW260044   6.663   1.539   8.014 -0.9354  1.5614 -1.1499
19535SOL     OW60045   5.713   7.070   8.871  0.1769 -0.3018  0.7175
19535SOL    HW160046   5.730   7.091   8.963 -1.4138  0.2580  0.9066
19535SOL    HW260047   5.756   7.140   8.823  1.6535 -0.9893  0.9576
19536SOL     OW60048   6.298   0.739   8.112 -0.2497 -0.1375 -0.1820
19536SOL    HW160049   6.342   0.730   8.028  2.4530 -2.1568  1.2784
19536SOL    HW260050   6.367   0.762   8.174 -1.8152 -0.4149  1.7946
19537SOL     OW60051   1.796   4.658   2.447  0.3399  0.2130 -0.1887
19537SOL    HW160052   1.794   4.672   2.542  0.4767 -0.3395 -0.1031
19537SOL    HW260053   1.752   4.735   2.411 -0.6048 -0.0416  0.3796
19538SOL     OW60054   2.508   5.447   4.597 -0.4188  0.4123  0.0905
19538SOL    HW160055   2.512   5.540   4.619  0.7547  0.2285  0.7177
19538SOL    HW260056   2.446   5.442   4.524 -0.7740  1.6334  0.2920
19539SOL     OW60057   3.089   2.243   9.784 -0.3853 -0.1675  0.1640
19539SOL    HW160058   3.091   2.334   9.753 -1.2280 -0.1431  0.1602
19539SOL    HW260059   3.156   2.198   9.732 -0.6713  0.2273 -0.5502
19540SOL     OW60060   6.369   2.008   8.428  0.1417  0.5593 -0.4154
19540SOL    HW160061   6.379   1.925   8.382 -2.3138 -0.0898  0.0818
19540SOL    HW260062   6.279   2.007   8.461 -0.2806  3.7814 -1.1124
19541SOL     OW60063   6.378   6.216  10.260  0.0621 -0.2387 -0.2494
19541SOL    HW160064   6.355   6.239  10.170  0.1411 -1.7610 -0.6864
19541SOL    HW260065   6.294   6.201  10.304 -0.0583  1.9583  0.3902
19542SOL     OW60066   6.871   1.721   6.976 -0.1118  0.1094  0.0599
19542SOL    HW160067   6.908   1.803   6.944 -0.3818  0.7032  1.2322
19542SOL    HW260068   6.841   1.740   7.065 -2.7958 -0.4868 -0.6250
19543SOL     OW60069   7.137   0.911   9.014  0.1481  0.2517  0.7056
19543SOL    HW160070   7.046   0.905   9.044 -0.2829  1.4040 -0.2786
19543SOL    HW260071   7.179   0.970   9.077 -0.1914  0.9329  0.3057
19544SOL     OW60072   5.818   3.408  11.641  0.0287  0.1007  0.3084
19544SOL    HW160073   5.845   3.365  11.722  0.1080  3.1290  2.0184
19544SOL    HW260074   5.899   3.443  11.604  0.0036 -1.3177 -1.1883
19545SOL     OW60075   6.465   5.515   3.748  0.2595  0.4638 -0.2866
19545SOL    HW160076   6.546   5.480   3.711 -0.4387  0.0571 -1.5039
19545SOL    HW260077   6.423   5.560   3.674 -1.0031 -0.0566  0.0950
19546SOL     OW60078   0.399   4.587  11.405 -0.0000 -0.2889  0.6300
19546SOL    HW160079   0.462   4.591  11.334  1.0480  1.2719  1.5825
19546SOL    HW260080   0.314   4.578  11.362  0.6828 -0.1764 -0.7760
19547SOL     OW60081   1.638   4.888   0.715  0.0741 -0.2617 -0.3705
19547SOL    HW160082   1.565   4.827   0.725  1.8137 -2.1679  1.4104
19547SOL    HW260083   1.624   4.954   0.782 -0.3324 -0.2525 -0.4613
19548SOL     OW60084   0.908   0.429  12.074  0.0170  0.1277  0.0647
19548SOL    HW160085   0.871   0.459  11.991 -0.5796 -1.4812 -0.2899
19548SOL    HW260086   0.892   0.501  12.134  1.0176  1.5835 -1.3421
19549SOL     OW60087   6.755   4.863   0.763  0.0915  0.5706 -0.0112
19549SOL    HW160088   6.734   4.800   0.833  0.2566  1.9816  1.3661
19549SOL    HW260089   6.850   4.870   0.765  0.3029 -0.9646 -1.8713
19550SOL     OW60090   6.624   3.801   3.414 -0.8961  0.6372 -0.2198
19550SOL    HW160091   6.636   3.855   3.492 -1.3013  1.5412 -0.7771
19550SOL    HW260092   6.597   3.715   3.449 -0.3271  0.8065  0.6617
19551SOL     OW60093   2.646   6.804   6.732 -0.0304  0.2567  0.4169
19551SOL    HW160094   2.563   6.849   6.744  0.1086  0.3361  1.1746
19551SOL    HW260095   2.628   6.714   6.758  0.0755  0.2340  0.4117
19552SOL     OW60096   4.702   4.198   5.253 -0.1274 -0.0630 -0.4948
19552SOL    HW160097   4.702   4.236   5.341 -1.7293 -1.7297  0.2781
19552SOL    HW260098   4.730   4.270   5.197 -0.6857  1.5451  1.1657
19553SOL     OW60099   5.090   5.840   2.511  0.3284  0.2331 -0.2429
19553SOL    HW160100   5.123   5.769   2.565 -0.3102  0.2428  0.1739
19553SOL    HW260101   5.045   5.898   2.573 -0.1743  0.3864 -0.7429
19554SOL     OW60102   5.197   0.469   3.208  1.2862  0.0254  0.0691
19554SOL    HW160103   5.202   0.505   3.296  2.0196 -0.4809  0.2439
19554SOL    HW260104   5.200   0.545   3.150 -1.0959  0.5141  0.4939
19555SOL     OW60105   1.164   6.918  12.322  0.2532  0.0408  0.1154
19555SOL    HW160106   1.086   6.957  12.361  0.5745  0.5328  0.2841
19555SOL    HW260107   1.237   6.957  12.371  0.6337  0.0921 -0.4770
19556SOL     OW60108   2.275   0.023  11.509  0.5790 -0.7627 -0.0515
19556SOL    HW160109   2.335   0.090  11.543 -0.0829  0.7152 -1.6257
19556SOL    HW260110   2.203   0.021  11.572 -0.4153  1.5975 -0.9843
19557SOL     OW60111   5.606   7.711   1.963  1.0324  0.1059 -0.0057
19557SOL    HW160112   5.551   7.715   2.041 -2.2465  0.7644 -2.1640
19557SOL    HW260113   5.636   7.801   1.949 -1.0112  0.6744 -1.1315
19558SOL     OW60114   4.097   5.921   5.489  0.0729 -0.4259  0.0143
19558SOL    HW160115   4.141   5.951   5.409 -0.6901 -1.2656 -0.7403
19558SOL    HW260116   4.050   5.998   5.520  1.4418  0.2868  0.4315
19559SOL     OW60117   6.476   4.904   0.375  0.2584  0.2747 -0.4363
19559SOL    HW160118   6.436   4.973   0.321  2.2583  1.1823 -0.8470
19559SOL    HW260119   6.485   4.943   0.461 -0.8524 -0.3806 -0.0010
19560SOL     OW60120   6.555   4.235   7.532 -0.2084 -0.1276  0.6127
19560SOL    HW160121   6.637   4.187   7.545 -1.2177 -2.0948  0.0447
19560SOL    HW260122   6.568   4.282   7.449  1.0999  1.3074  1.5918
19561SOL     OW60123   6.410   1.122  10.234 -0.0429  0.1855  0.2040
19561SOL    HW160124   6.341   1.150  10.173  1.1695  2.4460 -0.2407
19561SOL    HW260125   6.388   1.165  10.317  0.7173  0.8007  0.0999
19562SOL     OW60126   1.033   3.761  12.077 -0.7932 -0.1151 -0.1523
19562SOL    HW160127   0.938   3.752  12.079 -0.8419  0.5375  0.7833
19562SOL    HW260128   1.061   3.706  12.003 -1.5892 -3.1762  1.6349
19563SOL     OW60129   2.419   0.252  11.544  0.0225 -0.1200  0.3474
19563SOL    HW160130   2.470   0.252  11.625  0.3766  0.6703  0.1327
19563SOL    HW260131   2.483   0.241  11.475 -0.2414 -0.4244  0.1509
19564SOL     OW60132   7.917   4.746   7.765  0.3531 -0.2478  0.1357
19564SOL    HW160133   7.857   4.671   7.758  0.1034 -0.0578  0.2162
19564SOL    HW260134   7.951   4.741   7.854  0.7437 -0.5699 -0.0282
19565SOL     OW60135   2.793   1.899  11.740 -0.1740  0.0848  0.6266
19565SOL    HW160136   2.702   1.877  11.761  0.8186 -1.7316  3.7806
19565SOL    HW260137   2.808   1.983  11.783 -0.4785  0.7162 -0.4567
19566SOL     OW60138   2.228   2.444  11.217  0.3516 -0.3912  0.0242
19566SOL    HW160139   2.238   2.501  11.141 -2.1575 -1.2475 -1.0838
19566SOL    HW260140   2.269   2.362  11.192  0.9815 -0.1602  0.2779
19567SOL     OW60141   3.443   6.089   3.254 -0.2844  0.4602 -0.8102
19567SOL    HW160142   3.534   6.115   3.240  0.0137  0.0338  0.2631
19567SOL    HW260143   3.393   6.169   3.240  0.6255  1.8314  2.6477
19568SOL     OW60144   1.824   3.322   2.664 -0.2994 -0.4800  0.3009
19568SOL    HW160145   1.915   3.353   2.669 -0.2796 -0.1583 -1.4117
19568SOL    HW260146   1.775   3.384   2.718  0.3820 -0.1983  0.6163
19569SOL     OW60147   4.487   3.184   5.330 -0.7632  0.4111  0.6575
19569SOL    HW160148   4.580   3.175   5.353 -0.3175  2.0216 -0.3372
19569SOL    HW260149   4.446   3.219   5.409 -0.2593  0.9039  0.7107
19570SOL     OW60150   7.941   6.659   3.596 -0.7488  0.1307  0.4310
19570SOL    HW160151   7.862   6.638   3.646  0.0659  0.1336  1.7649
19570SOL    HW260152   8.013   6.633   3.654  0.2436 -0.7140 -1.1176
19571SOL     OW60153   0.404   7.272   2.590  1.2653  0.2040 -0.5462
19571SOL    HW160154   0.451   7.191   2.610  0.0773 -0.0552  1.3716
19571SOL    HW260155   0.329   7.272   2.649  1.3275  2.7952 -0.3699
19572SOL     OW60156   3.749   0.041   9.718  0.0286  0.3221 -0.3458
19572SOL    HW160157   3.706  -0.026   9.665 -0.4405  0.8480 -0.6384
19572SOL    HW260158   3.682   0.108   9.733  0.7462  1.1854 -0.8707
19573SOL     OW60159   0.975   6.170   0.851 -0.2206 -0.5656  0.3059
19573SOL    HW160160   1.042   6.200   0.790 -0.1967 -0.0388  0.5853
19573SOL    HW260161   0.902   6.231   0.837  0.1462  0.1871  1.4954
19574SOL     OW60162   4.182   6.890   7.055 -0.0608  0.0510  0.5175
19574SOL    HW160163   4.141   6.866   7.138 -0.5924 -0.3551  0.1461
19574SOL    HW260164   4.220   6.976   7.071 -1.5398  0.6910  0.7112
19575SOL     OW60165   0.997   3.853   2.855  0.0682  0.2919 -0.0568
19575SOL    HW160166   0.930   3.887   2.796  1.6183 -0.9654 -2.7588
19575SOL    HW260167   0.962   3.769   2.886  0.1661 -0.1429 -1.0909
19576SOL     OW60168   5.765   1.863   5.684  0.4773  0.4026 -0.3726
19576SOL    HW160169   5.803   1.931   5.629 -2.0457  2.1088 -0.1601
19576SOL    HW260170   5.742   1.908   5.765  0.8626 -1.2770  0.7322
19577SOL     OW60171   1.326   4.187   7.166 -0.4871  0.2016  0.6248
19577SOL    HW160172   1.410   4.146   7.143  0.2434  1.2831  1.2732
19577SOL    HW260173   1.345   4.281   7.165 -1.5925  0.4380  1.1988
19578SOL     OW60174   6.992   2.272   1.652  0.5360  0.2022 -0.7397
19578SOL    HW160175   7.067   2.271   1.711 -0.2044  1.3905  0.2798
19578SOL    HW260176   7.016   2.334   1.583  0.0139  1.6903  0.3368
19579SOL     OW60177   6.419   5.235  10.052  1.0344  0.0766 -0.0325
19579SOL    HW160178   6.380   5.175   9.988  1.3360 -1.4375  1.1524
19579SOL    HW260179   6.500   5.192  10.079  2.1380  1.8288 -0.3488
19580SOL     OW60180   2.636   7.823   2.283 -0.0276  0.1801 -0.1236
19580SOL    HW160181   2.549   7.862   2.280 -1.7063 -2.9368  1.8830
19580SOL    HW260182   2.681   7.870   2.352 -1.4796 -0.3449  1.2657
19581SOL     OW60183   5.793   1.926   2.406 -0.2266  0.3175 -0.1816
19581SOL    HW160184   5.767   1.920   2.314  0.5311  2.4145 -0.5906
19581SOL    HW260185   5.803   2.020   2.422  1.9946 -0.0911  1.3603
19582SOL     OW60186   6.404   4.952   5.070 -0.0752 -0.1360  0.0812
19582SOL    HW160187   6.487   4.991   5.045 -0.4980 -0.6502 -2.3199
19582SOL    HW260188   6.429   4.872   5.118  0.8990 -1.1824 -2.0430
19583SOL     OW60189   3.242   6.594   5.799  0.3236 -0.1852  0.1039
19583SOL    HW160190   3.237   6.618   5.706  2.1636  0.7796  0.2050
19583SOL    HW260191   3.285   6.509   5.799 -1.0190 -0.8886  0.0290
19584SOL     OW60192   5.520   5.146   2.296 -0.3231  0.3890  0.0613
19584SOL    HW160193   5.503   5.130   2.203 -0.1784  1.2046 -0.1186
19584SOL    HW260194   5.549   5.062   2.330 -0.6993 -0.0033 -0.5561
19585SOL     OW60195   7.909   5.273   6.275 -0.0911 -0.5446 -0.1102
19585SOL    HW160196   7.894   5.222   6.195 -0.6364  1.4856 -1.3833
19585SOL    HW260197   7.826   5.268   6.322 -1.6203  2.3246 -2.1968
19586SOL     OW60198   1.540   2.536   6.636 -0.1096  0.1814 -0.0708
19586SOL    HW160199   1.492   2.612   6.670  0.4408  0.3774  0.2687
19586SOL    HW260200   1.591   2.570   6.563  1.0093  0.3832  0.7854
19587SOL     OW60201   4.584   6.820   3.149 -0.6402 -0.7985  0.5886
19587SOL    HW160202   4.650   6.878   3.189 -1.1004  0.2491 -0.1150
19587SOL    HW260203   4.614   6.810   3.058 -1.4300 -0.3247  0.2693
19588SOL     OW60204   4.571   4.693   4.637 -0.6789 -0.1357  0.5659
19588SOL    HW160205   4.476   4.680   4.638 -1.1505  2.6379  2.2229
19588SOL    HW260206   4.582   4.787   4.624  1.9193 -0.5031 -0.4549
19589SOL     OW60207   1.994   5.651   6.801  0.3472  0.0550 -0.1436
19589SOL    HW160208   2.061   5.706   6.842  2.0770 -1.6351 -0.5974
19589SOL    HW260209   1.954   5.708   6.736  1.8740  0.8993 -0.4046
19590SOL     OW60210   5.728   4.081   7.731  0.2169  0.2401 -0.6262
19590SOL    HW160211   5.796   4.126   7.780  0.1040 -2.1558  1.9260
19590SOL    HW260212   5.748   4.100   7.639  2.1562  2.5109  0.1790
19591SOL     OW60213   7.740   3.261  10.871  0.2250 -0.1649 -0.1380
19591SOL    HW160214   7.675   3.326  10.896  0.7661  0.7409 -1.0165
19591SOL    HW260215   7.738   3.196  10.942 -1.8034 -0.3174 -0.2644
19592SOL     OW60216   5.833   0.539   5.329  0.0970  0.6182  0.4777
19592SOL    HW160217   5.770   0.467   5.322  1.2790 -0.3231 -1.6738
19592SOL    HW260218   5.789   0.612   5.286  0.5033 -0.1325 -1.3379
19593SOL     OW60219   0.020   7.096  10.130  0.7558  0.0582  0.0009
19593SOL    HW160220  -0.066   7.137  10.117  1.4418  1.3291 -0.6974
19593SOL    HW260221   0.061   7.100  10.044  1.3625 -0.9468  0.2273
19594SOL     OW60222   5.363   4.786   1.226 -0.1699  0.3252 -0.0055
19594SOL    HW160223   5.276   4.769   1.262  0.1246  0.8240  0.9893
19594SOL    HW260224   5.389   4.870   1.264  0.5258  0.4475 -0.7171
19595SOL     OW60225   5.346   1.935   1.912 -0.1566 -0.0450  0.0971
19595SOL    HW160226   5.277   1.869   1.921 -0.0427  0.0554  2.4745
19595SOL    HW260227   5.380   1.945   2.001  2.1132  0.7964 -0.7943
19596SOL     OW60228   5.217   7.966   9.534 -0.3153  0.2833 -0.2860
19596SOL    HW160229   5.195   7.951   9.626 -0.3532 -1.0212 -0.4838
19596SOL    HW260230   5.281   8.037   9.536 -0.3832  0.3357  0.7418
19597SOL     OW60231   5.074   2.710   3.626  0.2101  0.0642 -0.4272
19597SOL    HW160232   5.027   2.629   3.648 -0.5223  0.9968  1.7265
19597SOL    HW260233   5.103   2.697   3.536 -2.1591 -1.5081 -1.0523
19598SOL     OW60234   7.479   5.812   7.471 -0.4232  0.6846  0.5181
19598SOL    HW160235   7.406   5.874   7.474  0.1882  1.4138  0.6284
19598SOL    HW260236   7.466   5.756   7.548 -2.0628 -0.6046 -0.6379
19599SOL     OW60237   3.897   1.688   6.881 -0.1035 -0.1720 -0.2661
19599SOL    HW160238   3.880   1.672   6.974  0.8292 -0.6802 -0.1651
19599SOL    HW260239   3.991   1.672   6.871 -0.2209 -0.2790 -1.3273
19600SOL     OW60240   7.177   6.505   5.293 -0.8788  0.5619 -0.3789
19600SOL    HW160241   7.258   6.553   5.275 -0.3818 -0.8970 -2.3817
19600SOL    HW260242   7.207   6.421   5.328 -1.6695  0.9279  1.2768
19601SOL     OW60243   5.607   2.312   5.806  0.1418 -0.7466  0.2368
19601SOL    HW160244   5.696   2.347   5.813  0.2426 -1.0595  0.5519
19601SOL    HW260245   5.619   2.220   5.784 -0.0909 -0.8707  0.6074
19602SOL     OW60246   4.267   7.131   9.452 -0.2439  0.3175  0.2066
19602SOL    HW160247   4.197   7.086   9.498  0.6165 -0.3880  0.8773
19602SOL    HW260248   4.236   7.220   9.441 -1.2446  0.0101  0.4629
19603SOL     OW60249   3.433   7.230   9.730  0.2892  0.4760 -0.4013
19603SOL    HW160250   3.512   7.177   9.733 -0.1961 -0.2451  1.6796
19603SOL    HW260251   3.446   7.296   9.797 -0.5293  0.8623 -0.6072
19604SOL     OW60252   6.822   7.029  10.607 -0.5279  0.1447 -0.0689
19604SOL    HW160253   6.863   7.006  10.691  0.9014  0.4597 -0.6589
19604SOL    HW260254   6.827   6.948  10.556 -0.0784  0.3579 -0.3629
19605SOL     OW60255   2.004   3.641   4.275  0.2449 -0.0425 -0.1568
19605SOL    HW160256   2.003   3.549   4.248  0.7014  0.5564 -2.4364
19605SOL    HW260257   2.067   3.645   4.346 -2.7417 -2.1435  2.9172
19606SOL     OW60258   6.210   0.544   5.674 -0.3522 -0.4010  0.1285
19606SOL    HW160259   6.233   0.501   5.592 -0.8148 -1.7295  0.6738
19606SOL    HW260260   6.130   0.593   5.654  0.4777  0.6850 -0.6357
19607SOL     OW60261   0.623   3.051  11.597  0.5686 -0.4535  0.0607
19607SOL    HW160262   0.608   3.021  11.687  1.5570  0.5687  0.5877
19607SOL    HW260263   0.536   3.070  11.563  0.3127  1.1429  1.5232
19608SOL     OW60264   6.780   2.729   7.523 -0.1475 -0.6755 -0.2767
19608SOL    HW160265   6.823   2.801   7.477  0.4485 -1.3515 -0.8257
19608SOL    HW260266   6.692   2.760   7.542  0.9592  1.3060  2.1567
19609SOL     OW60267   7.407   2.957   1.336 -0.1768  0.4596 -0.3295
19609SOL    HW160268   7.498   2.943   1.307 -0.0163  1.4751 -0.3584
19609SOL    HW260269   7.354   2.903   1.278  0.3294  0.6964 -1.0208
19610SOL     OW60270   5.610   6.947  11.530 -0.4370  0.4458  0.5017
19610SOL    HW160271   5.569   6.996  11.602  0.1868  1.9711 -0.1513
19610SOL    HW260272   5.692   6.993  11.513  0.5599 -1.3015  0.3668
19611SOL     OW60273   6.095   5.127   4.302  0.2641  0.0642  0.1697
19611SOL    HW160274   6.180   5.168   4.315  0.1709  0.7849 -1.3025
19611SOL    HW260275   6.112   5.054   4.243 -0.3091  1.0020 -1.1970
19612SOL     OW60276   2.838   6.529  10.559 -0.2595  0.6124 -0.4606
19612SOL    HW160277   2.766   6.475  10.529  1.0486 -0.3281 -2.0752
19612SOL    HW260278   2.840   6.602  10.497  0.2332  0.5724 -0.4949
19613SOL     OW60279   6.990   7.969   2.380 -0.2031  0.0190 -0.5502
19613SOL    HW160280   7.057   7.909   2.348  1.4388  0.9549  0.9534
19613SOL    HW260281   7.038   8.034   2.431 -2.2314  0.9504  0.3026
19614SOL     OW60282   4.573   5.730  10.724 -0.0673 -0.2370  0.7232
19614SOL    HW160283   4.483   5.699  10.716  0.3742 -1.4626  0.3528
19614SOL    HW260284   4.608   5.685  10.801  0.4917 -0.4392  0.3581
19615SOL     OW60285   7.147   7.405   8.701  0.3990  0.3712 -0.0384
19615SOL    HW160286   7.055   7.427   8.719  0.2511 -0.6667  0.5521
19615SOL    HW260287   7.193   7.429   8.782  0.4961  0.0422  0.0044
19616SOL     OW60288   3.034   5.538   5.680 -0.0786 -0.4444  0.0258
19616SOL    HW160289   3.112   5.484   5.668 -0.9762 -1.5177 -1.3309
19616SOL    HW260290   3.041   5.606   5.613  0.0999 -0.0139  0.4726
19617SOL     OW60291   5.904   0.049   5.409 -0.4506 -0.9782  0.8073
19617SOL    HW160292   5.879  -0.017   5.474  0.1151 -1.1794  0.8273
19617SOL    HW260293   5.994   0.026   5.385  0.4897  0.9579  2.2759
19618SOL     OW60294   7.506   1.173   4.996 -0.2172  0.0414  0.2304
19618SOL    HW160295   7.441   1.225   4.948  1.0149  1.2528 -0.2119
19618SOL    HW260296   7.460   1.094   5.022 -1.5038  0.2991 -1.1554
19619SOL     OW60297   7.292   3.620   4.433 -0.5147 -0.1170 -0.5092
19619SOL    HW160298   7.328   3.619   4.522  0.0570 -0.3499 -0.7363
19619SOL    HW260299   7.360   3.664   4.381 -0.0292 -1.5789 -1.1608
19620SOL     OW60300   5.146   4.900   2.245 -0.0783 -0.2416  0.3044
19620SOL    HW160301   5.240   4.910   2.228  0.2232 -2.3403  0.4597
19620SOL    HW260302   5.109   4.870   2.162 -1.0123  2.3479 -0.3148
19621SOL     OW60303   7.040   0.792  10.207 -0.3781  0.3660 -0.2400
19621SOL    HW160304   7.049   0.735  10.130 -1.3536 -1.1981  0.7457
19621SOL    HW260305   7.033   0.731  10.281  1.4081  1.8458  1.2210
19622SOL     OW60306   1.156   4.445   6.496 -0.0882 -0.2758  0.3270
19622SOL    HW160307   1.233   4.398   6.466 -0.2597 -0.6648  0.4746
19622SOL    HW260308   1.110   4.381   6.551  0.2737  0.4459  1.4958
19623SOL     OW60309   6.463   4.259  11.403 -0.3042 -0.1213 -0.1575
19623SOL    HW160310   6.522   4.261  11.478 -0.5681  0.7781  0.0403
19623SOL    HW260311   6.454   4.166  11.382 -0.7481 -0.4538  1.3500
19624SOL     OW60312   4.669   2.172   0.759  0.6959 -0.4359 -0.1209
19624SOL    HW160313   4.764   2.179   0.768  0.6534  0.3610 -0.2653
19624SOL    HW260314   4.655   2.085   0.721  1.3239 -0.8093  0.4653
19625SOL     OW60315   3.891   5.815   9.298 -0.4759 -0.0764  0.3747
19625SOL    HW160316   3.820   5.799   9.360 -1.5360  1.7353 -0.2718
19625SOL    HW260317   3.945   5.882   9.341 -0.0792 -0.2657  0.1739
19626SOL     OW60318   1.246   5.541   2.657  0.2951 -0.0327  0.4812
19626SOL    HW160319   1.177   5.476   2.643 -0.2486  0.2768  1.6300
19626SOL    HW260320   1.200   5.619   2.689  1.2121 -0.0727  2.0136
19627SOL     OW60321   0.577   1.120   8.024  0.1675  0.1310  0.0285
19627SOL    HW160322   0.578   1.030   7.993  1.0868 -0.3753  1.4249
19627SOL    HW260323   0.568   1.173   7.945  0.6760 -1.1450 -0.9118
19628SOL     OW60324   3.329   7.804   1.920  0.1727 -0.0091 -0.5603
19628SOL    HW160325   3.383   7.882   1.911  0.5927 -0.2535 -0.2063
19628SOL    HW260326   3.383   7.743   1.971  0.7212 -1.3192 -2.5845
19629SOL     OW60327   7.261   6.649   4.896 -0.1043  0.4288  0.0291
19629SOL    HW160328   7.212   6.591   4.954 -1.4595  1.2097 -0.3108
19629SOL    HW260329   7.252   6.610   4.809  2.1444 -0.8867  0.3124
19630SOL     OW60330   7.142   5.735   4.603  0.2141 -0.6647 -0.7046
19630SOL    HW160331   7.121   5.663   4.662  2.1548  0.6035  1.7623
19630SOL    HW260332   7.159   5.809   4.661  2.1154  0.7505 -2.8658
19631SOL     OW60333   3.212   3.731   4.253 -0.1660 -0.0382  0.6003
19631SOL    HW160334   3.233   3.781   4.331 -0.2779 -0.6235  1.0154
19631SOL    HW260335   3.126   3.763   4.226  1.0669  2.2283 -0.9920
19632SOL     OW60336   7.423   3.507   9.426 -1.2101 -0.4931 -0.2543
19632SOL    HW160337   7.482   3.580   9.406 -2.2331  0.6969  0.8591
19632SOL    HW260338   7.452   3.436   9.369  2.3846 -0.5428  1.3598
19633SOL     OW60339   0.914   7.820   9.194  0.0258 -0.8370 -0.2283
19633SOL    HW160340   0.881   7.845   9.281  1.0406 -2.8853  0.8238
19633SOL    HW260341   0.916   7.902   9.145 -3.4220 -0.0331  0.6444
19634SOL     OW60342   6.641   5.265   8.971 -0.0115 -0.2706  0.6180
19634SOL    HW160343   6.705   5.328   8.936 -0.8143  0.5764  0.6409
19634SOL    HW260344   6.694   5.200   9.017  0.8657  0.1628  0.2416
19635SOL     OW60345   4.206   0.749   8.979  0.3206 -0.0801  0.6839
19635SOL    HW160346   4.172   0.666   8.945  1.4318 -0.6845  0.9846
19635SOL    HW260347   4.282   0.724   9.031  1.3179  1.2112 -0.0726
19636SOL     OW60348   3.747   6.164   5.505 -0.0387  0.2468 -0.1623
19636SOL    HW160349   3.766   6.141   5.414 -0.8219  3.1082 -1.1765
19636SOL    HW260350   3.710   6.085   5.543  1.8881 -1.5569 -1.7945
19637SOL     OW60351   7.978   3.721   4.652 -0.4475  0.4264  0.5680
19637SOL    HW160352   7.935   3.645   4.690 -0.1952 -0.6423 -1.1564
19637SOL    HW260353   8.069   3.693   4.639 -0.2950  1.0984  0.1330
19638SOL     OW60354   2.699   2.397   6.992  0.4833  0.1439 -0.0297
19638SOL    HW160355   2.725   2.328   6.931  1.1133  0.2058  0.1633
19638SOL    HW260356   2.781   2.439   7.018  0.0169  2.4107 -1.8052
19639SOL     OW60357   6.337   5.154   3.427  0.3058  0.0347  0.3474
19639SOL    HW160358   6.249   5.192   3.419  0.5253  0.2902 -1.1672
19639SOL    HW260359   6.326   5.062   3.402  0.4679  0.0502  0.2240
19640SOL     OW60360   4.181   4.116   7.605  0.1669 -0.5352  0.4466
19640SOL    HW160361   4.183   4.201   7.562  0.7726  0.1309  1.7411
19640SOL    HW260362   4.093   4.110   7.643  1.0714  0.9531  3.0298
19641SOL     OW60363   6.298   5.481   0.469  0.7468  0.4009 -0.2043
19641SOL    HW160364   6.367   5.469   0.534 -0.1282  1.0495  0.8827
19641SOL    HW260365   6.231   5.533   0.514 -0.3102  0.0714 -1.3278
19642SOL     OW60366   2.816   2.278   0.465 -0.0606 -0.5093  0.1813
19642SOL    HW160367   2.906   2.252   0.448  0.0462  0.4883 -0.9707
19642SOL    HW260368   2.780   2.209   0.520  1.5953 -0.5919  1.2254
19643SOL     OW60369   1.298   6.052   2.231 -0.3428 -0.3507 -0.1718
19643SOL    HW160370   1.282   6.006   2.314  0.8528 -1.3916 -0.4855
19643SOL    HW260371   1.233   6.016   2.171 -0.1427 -0.8063 -0.1177
19644SOL     OW60372   3.446   5.487   7.200  0.0290  0.0999 -0.8325
19644SOL    HW160373   3.377   5.447   7.148  1.0777 -0.9245 -1.4760
19644SOL    HW260374   3.406   5.500   7.286 -0.6674 -1.4300 -0.8852
19645SOL     OW60375   6.327   6.672   6.953  0.6283 -0.2696 -0.2650
19645SOL    HW160376   6.280   6.631   6.880  1.2556  0.2598 -0.9845
19645SOL    HW260377   6.420   6.660   6.931  0.8223  0.6320  0.0160
19646SOL     OW60378   7.808   1.330   1.097 -0.1794 -0.1286  0.5919
19646SOL    HW160379   7.814   1.385   1.175  1.3279 -0.3936  0.7040
19646SOL    HW260380   7.895   1.337   1.057 -0.8498 -0.1924 -0.9382
19647SOL     OW60381   4.502   3.099   3.889  0.2921  0.2041 -1.0353
19647SOL    HW160382   4.420   3.147   3.902  0.8614  1.3730 -1.5996
19647SOL    HW260383   4.530   3.077   3.978 -0.0842  0.7450 -0.7747
19648SOL     OW60384   1.495   3.491   8.918 -0.3063 -0.0403 -0.5590
19648SOL    HW160385   1.533   3.510   9.003 -1.2006  0.8220 -0.3313
19648SOL    HW260386   1.555   3.532   8.855  0.7577 -1.3211 -0.4139
19649SOL     OW60387   1.256   0.733  11.694 -0.4405  0.0464 -0.3921
19649SOL    HW160388   1.257   0.805  11.631  1.3556  0.3822 -0.0423
19649SOL    HW260389   1.236   0.655  11.641  0.6218  0.3775 -1.3249
19650SOL     OW60390   0.616   0.771  10.516  0.0083 -0.0500  0.0892
19650SOL    HW160391   0.645   0.854  10.480 -0.7751  0.1537 -0.0748
19650SOL    HW260392   0.547   0.794  10.579 -0.2135 -0.5709  0.0445
19651SOL     OW60393   4.579   4.558   2.634  0.0857  0.0989  0.2469
19651SOL    HW160394   4.503   4.610   2.608  0.3712  0.3158 -0.1657
19651SOL    HW260395   4.650   4.621   2.642  0.2469 -0.1183  0.5230
19652SOL     OW60396   0.568   1.660   1.918 -0.4175 -0.1756 -0.5310
19652SOL    HW160397   0.555   1.695   2.006 -1.9782  1.7279 -1.4308
19652SOL    HW260398   0.581   1.738   1.863  1.4693 -1.3488 -1.8933
19653SOL     OW60399   3.597   0.384   1.464  0.5121 -0.3179 -0.1470
19653SOL    HW160400   3.631   0.437   1.392 -0.0905  1.8508  1.1032
19653SOL    HW260401   3.507   0.366   1.439 -0.2531  1.9218  0.7847
19654SOL     OW60402   7.839   4.495   0.145  0.5187 -0.5119  0.2319
19654SOL    HW160403   7.865   4.549   0.220  0.6554 -0.4502  0.1406
19654SOL    HW260404   7.794   4.555   0.086  1.9354 -0.1553 -0.5432
19655SOL     OW60405   6.626   5.989   2.967  0.1604 -0.2847 -0.3618
19655SOL    HW160406   6.619   6.079   2.935 -1.1974 -0.2460 -0.0044
19655SOL    HW260407   6.677   5.944   2.900  0.1538  0.5658 -0.9496
19656SOL     OW60408   1.467   6.885   4.642 -0.8390  0.3884  0.1011
19656SOL    HW160409   1.560   6.877   4.621 -0.8735 -0.0508  0.1098
19656SOL    HW260410   1.432   6.796   4.630 -0.9795  0.2393  1.4488
19657SOL     OW60411   5.594   1.910   1.428 -0.0529  0.6821 -0.2870
19657SOL    HW160412   5.587   1.905   1.333 -0.5447  0.4908 -0.2430
19657SOL    HW260413   5.664   1.974   1.444  1.7746 -1.0702 -0.8032
19658SOL     OW60414   3.382   7.930   0.774  0.0276 -0.0843 -0.6328
19658SOL    HW160415   3.307   7.976   0.736  1.6660  0.7754 -2.9879
19658SOL    HW260416   3.386   7.847   0.727  0.7022 -0.0225 -0.6943
19659SOL     OW60417   0.087   2.984   8.872  0.1721  0.5855 -0.1824
19659SOL    HW160418   0.042   3.058   8.833 -2.5336 -0.3351  0.9161
19659SOL    HW260419   0.060   2.909   8.819  4.4873  0.4174 -2.5921
19660SOL     OW60420   5.137   2.686   7.559 -0.2467  0.0562 -0.2215
19660SOL    HW160421   5.086   2.659   7.636  1.0107 -1.1429  0.2302
19660SOL    HW260422   5.216   2.726   7.596 -1.1035  2.5412 -0.9108
19661SOL     OW60423   6.179   1.461  11.441  0.0081 -0.0941 -0.3325
19661SOL    HW160424   6.235   1.400  11.490  0.4408 -0.6246 -1.4295
19661SOL    HW260425   6.234   1.539  11.429  0.4380 -0.4996 -1.1464
19662SOL     OW60426   1.985   6.243   3.691  0.0174 -0.1930  0.0059
19662SOL    HW160427   2.014   6.184   3.761  1.2602  0.6602  0.2352
19662SOL    HW260428   1.902   6.278   3.723 -1.5950 -2.9684 -0.8324
19663SOL     OW60429   7.435   0.130   6.527 -0.3196 -0.6937  0.3290
19663SOL    HW160430   7.508   0.123   6.465  0.0199  1.7645  0.3757
19663SOL    HW260431   7.357   0.133   6.472 -0.4806 -3.3233  0.2774
19664SOL     OW60432   1.037   1.297  10.661 -0.4559  0.6012  0.0330
19664SOL    HW160433   1.061   1.313  10.569  1.6154  0.3855  0.4908
19664SOL    HW260434   0.955   1.247  10.656  1.1850 -2.1619 -1.8384
19665SOL     OW60435   7.053   7.713   1.256 -0.0483 -0.0881  0.1895
19665SOL    HW160436   6.979   7.713   1.317  1.4594 -1.5470  2.1516
19665SOL    HW260437   7.087   7.624   1.259  2.0342  0.6295 -0.3469
19666SOL     OW60438   1.432   2.045   6.350  0.2219 -0.2729  0.2545
19666SOL    HW160439   1.367   2.095   6.400  0.6040  0.2916  0.1939
19666SOL    HW260440   1.382   2.008   6.277  0.1871  1.1826 -0.4999
19667SOL     OW60441   6.404   2.957   3.071  0.1844  0.0914  0.1274
19667SOL    HW160442   6.453   2.915   3.000 -0.3556  1.9408 -1.4312
19667SOL    HW260443   6.314   2.959   3.038  0.1442  2.1147  0.2807
19668SOL     OW60444   5.889   1.441   6.083  0.2657  0.3727 -0.3654
19668SOL    HW160445   5.826   1.443   6.011  0.3917  1.2007 -0.4630
19668SOL    HW260446   5.955   1.378   6.055 -1.2448 -1.6492  0.3843
19669SOL     OW60447   4.022   4.525   2.013  0.2632 -0.6901 -0.5478
19669SOL    HW160448   4.109   4.556   1.988  0.6369 -1.4318 -0.1786
19669SOL    HW260449   3.962   4.582   1.965  0.8628  2.2943  1.9140
19670SOL     OW60450   4.915   3.111   2.494  0.1696  0.2386  0.1934
19670SOL    HW160451   4.998   3.115   2.445  0.4696 -1.1829  0.5414
19670SOL    HW260452   4.861   3.179   2.454  0.7337 -0.2507 -1.5223
19671SOL     OW60453   6.493   2.587   7.686 -0.0526  0.1009  0.1564
19671SOL    HW160454   6.500   2.491   7.692  2.3997  0.2419  0.4058
19671SOL    HW260455   6.552   2.620   7.754 -1.3538  1.8304  0.5144
19672SOL     OW60456   4.805   6.207   4.819 -0.4254  0.2291 -0.5631
19672SOL    HW160457   4.901   6.203   4.821 -0.4636 -0.5811 -0.0083
19672SOL    HW260458   4.777   6.124   4.856 -1.3480  1.1613  0.9242
19673SOL     OW60459   4.674   2.020  10.993  0.1380  0.1949  0.3339
19673SOL    HW160460   4.744   2.082  10.972  1.1866 -0.2957  2.1315
19673SOL    HW260461   4.595   2.073  10.998  0.5909  0.9656 -0.5477
19674SOL     OW60462   3.993   6.793   1.016 -0.0992  0.1404 -0.1774
19674SOL    HW160463   3.934   6.809   0.942  0.9840  1.0119 -0.8955
19674SOL    HW260464   4.080   6.812   0.981  0.6700 -1.5958  0.7095
19675SOL     OW60465   3.679   7.269   0.486  0.1869  0.5853 -0.1104
19675SOL    HW160466   3.647   7.300   0.570 -0.8647  1.2083 -0.7239
19675SOL    HW260467   3.604   7.224   0.447  1.4871 -2.3356  0.5100
19676SOL     OW60468   7.913   3.628   3.732 -0.0830  0.2142 -0.0494
19676SOL    HW160469   7.955   3.687   3.670  0.1818  0.1331  0.0492
19676SOL    HW260470   7.869   3.562   3.677  0.5045 -0.0993 -0.1504
19677SOL     OW60471   3.037   7.905   9.620 -0.4043  0.0316  0.3399
19677SOL    HW160472   3.059   7.961   9.547  1.2554 -1.0998 -0.0968
19677SOL    HW260473   3.060   7.817   9.591 -1.2456 -0.6580  1.6326
19678SOL     OW60474   5.801   7.750   6.015  0.0073 -0.7336  0.3191
19678SOL    HW160475   5.719   7.768   6.062  0.3345  0.9755  0.3283
19678SOL    HW260476   5.850   7.833   6.021  0.2575 -0.5542 -2.6428
19679SOL     OW60477   2.474   5.108   9.382  0.5019  0.3343 -0.2803
19679SOL    HW160478   2.395   5.111   9.328  1.8315  0.3050 -2.3493
19679SOL    HW260479   2.458   5.038   9.445 -0.9793  0.1061 -0.8780
19680SOL     OW60480   5.199   0.481   8.550 -0.3176  0.1892 -0.1336
19680SOL    HW160481   5.163   0.461   8.636 -0.2985  1.0899  0.0899
19680SOL    HW260482   5.264   0.412   8.535  0.9650  1.0146  1.3649
19681SOL     OW60483   4.042   2.731   5.438 -0.5810  0.2716  0.2764
19681SOL    HW160484   3.985   2.751   5.364 -0.1762 -1.1844 -0.4596
19681SOL    HW260485   4.075   2.816   5.467 -1.1792  0.9091 -0.8588
19682SOL     OW60486   6.164   1.763   5.604 -0.0534  0.0706  0.5771
19682SOL    HW160487   6.164   1.739   5.697 -1.5924  0.6637  0.7514
19682SOL    HW260488   6.152   1.857   5.603  0.8255  0.1990 -0.2332
19683SOL     OW60489   5.968   1.020   2.241 -0.0704 -0.2885 -0.1042
19683SOL    HW160490   5.961   1.074   2.162  0.5505 -0.7605 -0.4936
19683SOL    HW260491   6.052   1.044   2.279 -0.1297 -0.4478  0.1304
19684SOL     OW60492   0.983   0.438  12.470 -0.1006  0.7335  0.0846
19684SOL    HW160493   0.943   0.512  12.423  1.6459  2.0324  0.5327
19684SOL    HW260494   0.919   0.417  12.538 -1.1644  1.0269 -0.7837
19685SOL     OW60495   0.439   7.212  11.454  0.1170  0.2688 -0.1680
19685SOL    HW160496   0.414   7.120  11.450 -2.0550  0.7812  0.3897
19685SOL    HW260497   0.531   7.211  11.480 -0.3567 -1.7414  1.6522
19686SOL     OW60498   1.101   0.764   3.075 -0.5334 -0.2391  0.0270
19686SOL    HW160499   1.034   0.822   3.040 -1.5929  0.2508  2.6331
19686SOL    HW260500   1.159   0.821   3.125  0.8481 -0.9046 -0.7690
19687SOL     OW60501   3.904   6.985   5.563  0.3916 -0.5386  0.6493
19687SOL    HW160502   3.817   6.989   5.601  0.1014 -0.4554 -0.0070
19687SOL    HW260503   3.937   6.898   5.588  1.5367  0.6657  3.8537
19688SOL     OW60504   0.831   6.794   8.299 -0.0034  0.4339  0.5176
19688SOL    HW160505   0.846   6.790   8.393 -1.6712  2.1138  0.9160
19688SOL    HW260506   0.914   6.764   8.260  0.6714 -0.4150  2.4834
19689SOL     OW60507   4.525   4.317   1.596 -0.2291 -0.1668  0.2532
19689SOL    HW160508   4.454   4.253   1.586 -1.0988  0.8531 -0.3018
19689SOL    HW260509   4.517   4.347   1.687  0.3472 -1.0246  0.5934
19690SOL     OW60510   4.425   4.205   6.550  0.4679 -0.3504  0.3217
19690SOL    HW160511   4.362   4.160   6.607 -1.5219  2.3430  0.4521
19690SOL    HW260512   4.396   4.184   6.461 -0.6623  0.7842  0.3807
19691SOL     OW60513   1.759   2.900  11.427 -0.1837  0.4855  0.0082
19691SOL    HW160514   1.802   2.816  11.440 -0.6151  0.4433  1.2887
19691SOL    HW260515   1.822   2.952  11.377  0.4084 -0.3346 -0.1045
19692SOL     OW60516   5.955   3.103   0.759  0.5654 -0.4416 -0.2309
19692SOL    HW160517   5.948   3.101   0.663  1.9790  1.5182 -0.4544
19692SOL    HW260518   5.892   3.170   0.785 -0.0584 -1.2145  0.2533
19693SOL     OW60519   1.098   1.768  11.354 -0.1446  0.2487 -0.7028
19693SOL    HW160520   1.057   1.717  11.284 -0.5893 -0.2319 -0.1064
19693SOL    HW260521   1.039   1.757  11.428  1.4914 -1.1974  0.4716
19694SOL     OW60522   2.661   4.153   8.058 -0.3370  0.0168  0.1948
19694SOL    HW160523   2.742   4.122   8.098 -1.0509 -0.7206  1.0888
19694SOL    HW260524   2.602   4.169   8.131 -0.5476  1.9791 -0.3401
19695SOL     OW60525   6.012   6.328   2.727  0.4671  0.5529 -0.0607
19695SOL    HW160526   5.933   6.349   2.677 -0.0344 -2.2679 -0.6262
19695SOL    HW260527   6.071   6.289   2.663  2.1361  1.9895  0.4961
19696SOL     OW60528   1.916   7.368   1.799  0.2045 -0.0316  0.2826
19696SOL    HW160529   1.997   7.383   1.751 -1.2259  0.8432 -2.1104
19696SOL    HW260530   1.928   7.413   1.882  1.8925  0.7257 -0.3245
19697SOL     OW60531   0.507   3.332   3.036  0.6241 -0.0692 -0.4543
19697SOL    HW160532   0.522   3.263   3.101  1.4108  1.9795  1.6568
19697SOL    HW260533   0.531   3.292   2.952  0.0779 -2.6380  0.5278
19698SOL     OW60534   6.200   3.937   1.712 -0.1627  0.3755 -0.5383
19698SOL    HW160535   6.165   3.955   1.799  0.2715  1.4542 -0.5599
19698SOL    HW260536   6.150   3.862   1.680  0.6445 -0.9683  1.1997
19699SOL     OW60537   7.459   2.076  10.542 -0.0572  0.1665  0.0716
19699SOL    HW160538   7.539   2.078  10.595 -0.5596  1.8390  0.8502
19699SOL    HW260539   7.487   2.044  10.456  1.1687 -0.5999  0.7315
19700SOL     OW60540   0.770   5.213   9.403 -0.5106 -0.5481  0.1992
19700SOL    HW160541   0.727   5.150   9.462 -1.3549  1.2845  1.6445
19700SOL    HW260542   0.708   5.225   9.332 -0.1523 -1.6407 -0.3199
19701SOL     OW60543   4.572   7.065   8.575  0.1766  0.0803 -0.0966
19701SOL    HW160544   4.557   7.147   8.529 -0.9403 -0.1564 -0.1888
19701SOL    HW260545   4.588   7.091   8.666 -0.5396  0.3821 -0.0543
19702SOL     OW60546   6.731   1.158   9.869 -0.3684  0.1748 -0.0409
19702SOL    HW160547   6.671   1.145   9.796  0.7262  0.2315 -0.9824
19702SOL    HW260548   6.677   1.146   9.947 -1.2562 -1.3556 -0.8518
19703SOL     OW60549   1.700   7.610  10.105  0.3746  0.5498 -0.5151
19703SOL    HW160550   1.686   7.523  10.068  1.9525 -0.3282  0.8091
19703SOL    HW260551   1.613   7.641  10.129 -0.1584 -0.9859 -0.3612
19704SOL     OW60552   6.514   3.089   5.442 -0.4071  0.3672  0.1438
19704SOL    HW160553   6.597   3.134   5.422  0.1288 -0.4933  0.3634
19704SOL    HW260554   6.538   3.026   5.510 -0.6122 -1.8777 -1.7606
19705SOL     OW60555   7.116   5.471   6.661 -0.0029  0.6275 -0.3926
19705SOL    HW160556   7.199   5.424   6.651 -0.9321 -1.4722  1.2060
19705SOL    HW260557   7.122   5.542   6.597  2.0504 -0.8342 -1.9693
19706SOL     OW60558   5.642   5.421   9.904 -0.3100  0.0353  0.2366
19706SOL    HW160559   5.652   5.389   9.815  1.3225 -1.3630  0.8639
19706SOL    HW260560   5.566   5.374   9.939 -0.9544  0.5925 -0.3773
19707SOL     OW60561   6.282   6.023   7.702 -0.0616  0.4110 -0.2644
19707SOL    HW160562   6.276   5.937   7.661  1.0065 -0.1644  0.7270
19707SOL    HW260563   6.224   6.017   7.778 -0.1089  0.6178 -0.2841
19708SOL     OW60564   6.321   0.780   5.392  0.6998  0.2993  0.2750
19708SOL    HW160565   6.238   0.750   5.355  0.9954 -1.3742  0.8845
19708SOL    HW260566   6.348   0.852   5.335  0.2537 -1.0050 -1.7189
19709SOL     OW60567   4.456   6.302   5.625 -0.1407 -0.1699  0.5827
19709SOL    HW160568   4.512   6.361   5.676  0.6261  0.1005 -0.5289
19709SOL    HW260569   4.439   6.229   5.684  1.7226 -0.4436  0.8579
19710SOL     OW60570   1.289   7.671   7.054  0.0838  0.0613 -0.7339
19710SOL    HW160571   1.258   7.675   7.145  1.2712 -2.8838 -0.0784
19710SOL    HW260572   1.223   7.719   7.004  0.2617  3.2909  1.8191
19711SOL     OW60573   7.915   1.325  11.375 -0.0200  0.3384  0.3750
19711SOL    HW160574   7.999   1.357  11.343  0.9508 -1.4454  1.0292
19711SOL    HW260575   7.922   1.331  11.470 -0.5085 -0.1597  0.4448
19712SOL     OW60576   5.264   4.091   7.101 -0.4699  0.2231 -0.1753
19712SOL    HW160577   5.258   3.996   7.085  0.6799  0.1328 -0.1508
19712SOL    HW260578   5.208   4.105   7.178 -1.5391 -0.2407 -0.8348
19713SOL     OW60579   6.648   6.321  10.019 -0.0593  0.4017  0.1710
19713SOL    HW160580   6.576   6.311   9.957 -1.2187  0.1225  1.5085
19713SOL    HW260581   6.717   6.263   9.987 -0.3332  0.8203 -1.2359
19714SOL     OW60582   0.500   5.222   3.467 -0.1577 -0.3869 -0.5075
19714SOL    HW160583   0.484   5.241   3.374 -0.7609 -1.1306 -0.5616
19714SOL    HW260584   0.539   5.303   3.501 -1.3614  0.4597 -1.0518
19715SOL     OW60585   3.670   6.503   7.728  0.5068 -0.6908  0.0158
19715SOL    HW160586   3.675   6.538   7.817 -0.5336  1.0276 -0.5528
19715SOL    HW260587   3.666   6.408   7.740  0.7939 -0.5163  1.7723
19716SOL     OW60588   0.588   1.407  10.139 -0.1737  0.7639 -1.1358
19716SOL    HW160589   0.520   1.365  10.192 -1.9645  1.6990 -2.5932
19716SOL    HW260590   0.665   1.350  10.149 -1.6054 -1.1940 -0.6588
19717SOL     OW60591   3.964   4.433  12.263 -0.0932  0.0683  0.0160
19717SOL    HW160592   3.952   4.338  12.257  1.1501 -0.1100  0.1306
19717SOL    HW260593   3.955   4.452  12.356 -0.5909  0.0999 -0.0381
19718SOL     OW60594   7.003   1.114   5.053  0.9207 -0.1075 -0.4044
19718SOL    HW160595   6.938   1.081   5.115  1.5234 -0.0945  0.2617
19718SOL    HW260596   7.070   1.155   5.109  1.9036 -0.8379 -1.0002
19719SOL     OW60597   4.102   7.846  12.150 -0.0392  0.1165 -0.2162
19719SOL    HW160598   4.145   7.774  12.196  0.4674  0.7566  0.3259
19719SOL    HW260599   4.148   7.852  12.066 -0.1193 -0.2251 -0.2852
19720SOL     OW60600   7.819   1.887   9.678  0.3300  0.3740 -0.0993
19720SOL    HW160601   7.845   1.960   9.734  2.2837 -1.0746  1.0034
19720SOL    HW260602   7.857   1.809   9.720 -0.9075 -1.1756 -1.7033
19721SOL     OW60603   2.889   5.768   9.428 -0.3768  0.3517 -0.2266
19721SOL    HW160604   2.931   5.852   9.412 -0.2713  0.9997  2.7268
19721SOL    HW260605   2.960   5.704   9.417 -0.2052  0.7299 -1.4503
19722SOL     OW60606   7.590   2.966   7.682 -0.3485  0.5970  0.0244
19722SOL    HW160607   7.548   3.052   7.692  1.2324  1.3327  0.6548
19722SOL    HW260608   7.640   2.974   7.600  0.9825  0.8375  0.8243
19723SOL     OW60609   6.637   7.648  12.397  0.0566 -0.1001  0.6166
19723SOL    HW160610   6.563   7.706  12.382  0.6741  1.1490  2.0921
19723SOL    HW260611   6.604   7.582  12.457 -0.3304 -0.5882 -0.1286
19724SOL     OW60612   4.636   4.382   4.319 -0.2847 -0.1860 -0.1154
19724SOL    HW160613   4.631   4.456   4.259  0.9142 -0.9043 -1.1462
19724SOL    HW260614   4.718   4.338   4.296 -0.6797 -1.4972  0.8723
19725SOL     OW60615   7.389   3.555   7.522 -0.2817  0.2224 -0.9727
19725SOL    HW160616   7.328   3.621   7.488 -0.1120  0.6840 -0.3811
19725SOL    HW260617   7.443   3.601   7.586 -1.1686 -0.8144  0.6001
19726SOL     OW60618   2.251   7.147   8.509 -0.3758  0.6744 -0.4916
19726SOL    HW160619   2.235   7.152   8.415  1.1471  0.4813 -0.7816
19726SOL    HW260620   2.235   7.056   8.532 -0.9284  0.7613 -0.5197
19727SOL     OW60621   3.525   2.629   6.635  0.2100 -0.1065 -0.8394
19727SOL    HW160622   3.563   2.565   6.576  0.5126 -1.1480  0.4586
19727SOL    HW260623   3.597   2.657   6.691 -0.6991 -1.6220  1.2181
19728SOL     OW60624   0.833   1.896   8.222 -0.3194 -0.3468 -0.6460
19728SOL    HW160625   0.875   1.972   8.180  1.1859  1.2167  3.2330
19728SOL    HW260626   0.889   1.822   8.199  2.1764  0.9613  0.8249
19729SOL     OW60627   4.391   0.700   3.972  0.0100 -0.0900  0.2904
19729SOL    HW160628   4.472   0.657   3.942 -0.4607 -0.2136 -0.8574
19729SOL    HW260629   4.421   0.767   4.033  1.1366  0.8911 -1.2710
19730SOL     OW60630   5.264   3.539  10.587 -0.1814 -0.0319 -0.5077
19730SOL    HW160631   5.277   3.461  10.641  0.0134  0.7802  0.6370
19730SOL    HW260632   5.265   3.506  10.497  1.0597 -1.1934 -0.0890
19731SOL     OW60633   0.638   3.589   3.072 -0.5291 -0.2877 -0.4187
19731SOL    HW160634   0.694   3.583   2.994  1.4031  0.0790  0.8755
19731SOL    HW260635   0.579   3.514   3.064 -0.4483 -0.2100 -2.2585
19732SOL     OW60636   5.802   1.336   8.010  0.5192 -0.6440 -0.5009
19732SOL    HW160637   5.736   1.274   7.981  0.0210 -0.4203  0.1167
19732SOL    HW260638   5.870   1.333   7.943  0.8182 -2.3158 -0.1703
19733SOL     OW60639   0.098   0.940   1.133  0.0720  0.0489 -0.2740
19733SOL    HW160640   0.072   0.901   1.217 -1.5168 -0.0588 -0.7836
19733SOL    HW260641   0.170   0.999   1.156 -1.0709  0.8835  1.3658
19734SOL     OW60642   5.918   7.662  11.082 -0.0568  0.3519 -0.2370
19734SOL    HW160643   5.867   7.731  11.124  0.4350 -0.1369  1.2249
19734SOL    HW260644   6.008   7.695  11.084  0.1255 -0.1585  0.1265
19735SOL     OW60645   2.467   1.645   6.713 -0.0905  0.5183  0.2025
19735SOL    HW160646   2.413   1.581   6.668 -1.3340  1.6437  0.0207
19735SOL    HW260647   2.410   1.680   6.782 -0.2957  3.0178 -1.1116
19736SOL     OW60648   2.094   2.810   1.217  0.1282 -0.4700  0.0263
19736SOL    HW160649   2.005   2.840   1.194 -0.2174 -0.5029  1.2236
19736SOL    HW260650   2.097   2.720   1.187 -0.5130 -0.6943  0.5863
19737SOL     OW60651   2.559   4.649   7.085 -0.3758 -0.8801 -0.2308
19737SOL    HW160652   2.640   4.680   7.046  0.0862 -1.4510  0.2527
19737SOL    HW260653   2.554   4.557   7.060 -1.4627 -0.5856 -1.2150
19738SOL     OW60654   2.924   1.542   0.572  0.0134 -0.1470  0.1824
19738SOL    HW160655   2.982   1.606   0.615  1.0721 -0.3896 -0.8183
19738SOL    HW260656   2.890   1.589   0.496 -2.1222  0.3961  1.3977
19739SOL     OW60657   1.409   6.543   7.975  0.2757 -0.2728  0.3094
19739SOL    HW160658   1.403   6.639   7.973  0.6074 -0.2641 -0.5774
19739SOL    HW260659   1.464   6.524   8.051  1.2451  0.3106 -0.2206
19740SOL     OW60660   5.300   2.830   7.747 -0.1862  0.1208  0.3253
19740SOL    HW160661   5.352   2.817   7.826  2.2441  1.4952 -0.9350
19740SOL    HW260662   5.259   2.916   7.759 -1.2327 -0.4273  0.7925
19741SOL     OW60663   7.676   0.471   3.849  0.2768  0.7349  0.2644
19741SOL    HW160664   7.747   0.484   3.913  0.8446 -1.0358  0.0354
19741SOL    HW260665   7.705   0.397   3.796 -0.9152  1.1792 -1.0447
19742SOL     OW60666   7.497   6.881   3.516  0.2280  0.0969  0.4079
19742SOL    HW160667   7.591   6.889   3.533 -0.0458  2.6304  1.1304
19742SOL    HW260668   7.467   6.971   3.507 -2.3632 -0.5852  1.4176
19743SOL     OW60669   2.472   6.736   1.063  0.1462 -1.1270  0.4887
19743SOL    HW160670   2.418   6.761   0.988  2.0532 -0.2048 -0.6637
19743SOL    HW260671   2.499   6.646   1.044 -0.6264 -1.4423  0.8602
19744SOL     OW60672   4.878   6.651   8.133  0.2621  0.5488 -0.3178
19744SOL    HW160673   4.955   6.689   8.177  0.7990  0.6294 -1.3016
19744SOL    HW260674   4.883   6.683   8.043 -1.1786  0.9043 -0.2918
19745SOL     OW60675   6.204   7.510   4.709 -0.3772  0.0300  0.4591
19745SOL    HW160676   6.124   7.527   4.659 -1.1545 -2.6056  0.7052
19745SOL    HW260677   6.271   7.559   4.661 -1.5260 -0.4416 -1.8078
19746SOL     OW60678   4.624   0.102   4.956  0.1957  0.0675  0.4211
19746SOL    HW160679   4.587   0.051   4.884  0.8338  1.6214 -1.0706
19746SOL    HW260680   4.695   0.047   4.989  0.8836 -0.0489 -1.1591
19747SOL     OW60681   5.450   0.877   5.825  0.3694 -0.0976  0.6846
19747SOL    HW160682   5.540   0.884   5.792  0.5289  0.5842  1.2187
19747SOL    HW260683   5.459   0.892   5.920 -0.3961  0.7127  0.6348
19748SOL     OW60684   3.752   1.373   4.781 -0.3991 -0.1873  0.1797
19748SOL    HW160685   3.672   1.325   4.759 -1.1642  2.0049 -2.3003
19748SOL    HW260686   3.725   1.464   4.787  1.7947  0.5183  0.1223
19749SOL     OW60687   1.893   3.772   4.529 -0.3169  0.1634 -0.2841
19749SOL    HW160688   1.924   3.726   4.450 -1.0209 -1.0999  0.1399
19749SOL    HW260689   1.832   3.710   4.569  0.2468  0.6776  1.4175
19750SOL     OW60690   2.169   5.327   2.963  0.1509  0.4003 -0.3316
19750SOL    HW160691   2.222   5.326   2.883  0.0293 -0.2531 -0.4157
19750SOL    HW260692   2.103   5.259   2.948  0.3033  0.0696  0.4336
19751SOL     OW60693   3.031   2.290   7.445 -0.0374  0.0330  0.6023
19751SOL    HW160694   3.065   2.317   7.359 -0.8311  0.0208  0.2716
19751SOL    HW260695   2.954   2.345   7.458 -0.2620 -0.3801  1.0423
19752SOL     OW60696   6.261   1.014   1.722 -0.3642 -0.1059  0.5256
19752SOL    HW160697   6.253   0.954   1.796 -0.2130  1.2035  1.6512
19752SOL    HW260698   6.355   1.031   1.716  0.1631 -2.9851 -2.3563
19753SOL     OW60699   7.898   3.620   1.274  0.2453 -0.3429  0.6979
19753SOL    HW160700   7.982   3.659   1.250  0.2175 -0.5046  0.3394
19753SOL    HW260701   7.903   3.530   1.243  0.6612 -0.9135  2.2965
19754SOL     OW60702   2.469   0.570  10.633 -0.4985 -0.4004 -0.6764
19754SOL    HW160703   2.440   0.485  10.599 -0.4740 -1.4248  1.6332
19754SOL    HW260704   2.463   0.561  10.728  1.6939  1.4074 -0.2589
19755SOL     OW60705   1.820   4.740   1.311 -0.4972 -0.3354  0.1873
19755SOL    HW160706   1.760   4.760   1.239 -0.7724 -0.2670  0.4344
19755SOL    HW260707   1.872   4.820   1.322 -1.3916  0.1534  0.9740
19756SOL     OW60708   0.368   6.976  10.109 -0.2327  0.4317 -0.5919
19756SOL    HW160709   0.420   7.045  10.067  0.2098  0.3115 -0.2462
19756SOL    HW260710   0.339   7.015  10.191  0.6809 -0.0562 -0.0243
19757SOL     OW60711   7.214   7.967  12.354  0.7153 -0.7013  0.3316
19757SOL    HW160712   7.275   8.041  12.354  1.2469 -1.0889 -1.5449
19757SOL    HW260713   7.249   7.907  12.288 -1.8333 -0.8138 -1.0341
19758SOL     OW60714   7.503   3.085   8.987 -0.4401  0.1433 -0.1708
19758SOL    HW160715   7.414   3.118   8.997 -0.4941 -0.0437 -0.0237
19758SOL    HW260716   7.558   3.163   8.981 -0.7025  0.2729 -1.1144
19759SOL     OW60717   7.201   7.172   6.868  0.5435 -0.2646 -0.3913
19759SOL    HW160718   7.143   7.100   6.841 -0.1083  0.2370 -0.3703
19759SOL    HW260719   7.148   7.250   6.855  0.5793  0.0856  1.3281
19760SOL     OW60720   3.795   5.513  11.664  0.9131  0.5843 -0.1800
19760SOL    HW160721   3.737   5.578  11.705 -2.0854 -1.7276 -0.3707
19760SOL    HW260722   3.841   5.473  11.738 -0.9505 -0.3624  0.5404
19761SOL     OW60723   4.917   1.361  10.492 -0.0821 -0.0846 -0.3437
19761SOL    HW160724   4.908   1.414  10.414 -0.7098 -1.2665 -1.1091
19761SOL    HW260725   4.975   1.412  10.549  0.2449  0.8832 -1.4914
19762SOL     OW60726   0.926   7.738   7.204  0.2962  0.6400 -0.7903
19762SOL    HW160727   0.955   7.781   7.284 -1.6091 -0.2866  0.4802
19762SOL    HW260728   0.971   7.785   7.133  1.8511  1.6298  0.7780
19763SOL     OW60729   2.714   4.876   9.251  0.1802 -0.4516  0.1607
19763SOL    HW160730   2.755   4.907   9.170  0.6817 -0.4297  0.4149
19763SOL    HW260731   2.701   4.955   9.303 -2.5181 -0.1040 -0.9085
19764SOL     OW60732   6.566   5.534   4.437  0.0363  0.1048 -0.7962
19764SOL    HW160733   6.648   5.496   4.405  0.2658  0.7628 -1.0089
19764SOL    HW260734   6.504   5.461   4.438  1.1114 -0.8412  1.1775
19765SOL     OW60735   5.853   6.348   0.887  0.3315 -0.3055  0.2312
19765SOL    HW160736   5.924   6.356   0.823  0.7991  0.8312  0.8587
19765SOL    HW260737   5.856   6.256   0.914  2.1499 -0.1057  0.8758
19766SOL     OW60738   6.152   3.487  11.977 -0.1442 -0.8220  0.5236
19766SOL    HW160739   6.224   3.536  11.938 -0.4661  0.4972  1.5226
19766SOL    HW260740   6.181   3.470  12.067 -0.7287 -1.0213  0.6790
19767SOL     OW60741   2.911   6.941  11.717 -0.1523  0.3049  0.1162
19767SOL    HW160742   2.822   6.976  11.711 -0.3558  0.2330  2.1413
19767SOL    HW260743   2.901   6.846  11.703 -0.4827  0.2151  0.9514
19768SOL     OW60744   0.217   1.015   3.918  0.0779 -0.3360  0.2099
19768SOL    HW160745   0.165   1.054   3.848 -0.5797 -0.9941  0.3215
19768SOL    HW260746   0.287   1.079   3.934 -0.2052  0.1725 -0.5151
19769SOL     OW60747   1.724   3.682  10.607  0.1217  0.2340  0.0170
19769SOL    HW160748   1.679   3.756  10.565  0.5824  0.5744  0.1151
19769SOL    HW260749   1.806   3.673  10.559  1.9408  2.3472  2.4025
19770SOL     OW60750   4.200   2.972   4.471 -0.2542  0.3693  0.2233
19770SOL    HW160751   4.189   2.882   4.502 -0.8436  0.7312  1.0927
19770SOL    HW260752   4.294   2.979   4.452 -0.0428 -0.1607  1.0130
19771SOL     OW60753   0.264   0.991   9.670 -0.0206 -0.4557 -0.2216
19771SOL    HW160754   0.282   1.078   9.635  0.0131 -0.4310 -0.1428
19771SOL    HW260755   0.168   0.985   9.672 -0.2205  1.1372  3.5277
19772SOL     OW60756   0.166   3.894   0.158 -0.2164  0.4457 -0.3306
19772SOL    HW160757   0.149   3.888   0.252  0.8994  1.8785  0.0053
19772SOL    HW260758   0.156   3.805   0.126  0.6122 -0.3087  1.3739
19773SOL     OW60759   5.979   1.157   4.185 -0.1496  0.7820 -0.1349
19773SOL    HW160760   5.887   1.177   4.174 -0.5164 -0.6977 -0.0686
19773SOL    HW260761   5.991   1.152   4.280  0.1006  1.4005 -0.1339
19774SOL     OW60762   6.663   5.911   6.058 -0.1750 -0.1149  0.4012
19774SOL    HW160763   6.753   5.920   6.028 -0.0471  1.3421  1.1509
19774SOL    HW260764   6.663   5.829   6.109  0.9899  0.3855  1.2437
19775SOL     OW60765   3.180   2.630  11.292  0.2306  0.1142 -0.5571
19775SOL    HW160766   3.243   2.655  11.224  0.1661  0.9713 -0.3197
19775SOL    HW260767   3.211   2.545  11.324  1.5179  0.7157 -0.1395
19776SOL     OW60768   3.155   2.257   5.917  0.0943 -0.4950  0.4198
19776SOL    HW160769   3.181   2.349   5.917 -3.9282  0.8653  1.4127
19776SOL    HW260770   3.100   2.248   5.840 -0.0451 -1.8944  0.6577
19777SOL     OW60771   3.377   5.167  10.145 -0.1396  0.5325 -0.0423
19777SOL    HW160772   3.319   5.226  10.193 -0.6515  0.3349 -0.4144
19777SOL    HW260773   3.388   5.092  10.203 -3.2330 -1.1424 -1.3918
19778SOL     OW60774   2.863   2.872  12.392 -0.1693  0.2088  0.0549
19778SOL    HW160775   2.867   2.815  12.315  0.8659  1.1784 -0.6398
19778SOL    HW260776   2.772   2.868  12.420 -0.0422 -2.1134  0.2930
19779SOL     OW60777   1.802   0.789   0.210  0.0763  0.2127  0.9306
19779SOL    HW160778   1.727   0.838   0.244 -0.4997  0.0036 -0.0153
19779SOL    HW260779   1.852   0.853   0.160  0.6868  0.4119  1.7586
19780SOL     OW60780   5.183   3.367  10.370 -0.0054  0.4875  0.1330
19780SOL    HW160781   5.215   3.277  10.378 -0.6754  0.1832 -0.4546
19780SOL    HW260782   5.239   3.407  10.304 -0.2200  0.2458 -0.1999
19781SOL     OW60783   2.961   4.426   2.854 -0.3183 -0.0627  0.3643
19781SOL    HW160784   3.052   4.396   2.843  0.4555  2.1598  0.1283
19781SOL    HW260785   2.927   4.432   2.765  0.3686  2.0003  0.1922
19782SOL     OW60786   7.886   1.213   7.837  0.3972  0.0039  0.3163
19782SOL    HW160787   7.955   1.240   7.898  0.4204  0.1707  0.2163
19782SOL    HW260788   7.932   1.195   7.755  0.5642 -1.6270  0.7372
19783SOL     OW60789   5.906   6.448   9.588  0.6835  0.3161 -0.2031
19783SOL    HW160790   5.950   6.423   9.507 -1.2883 -0.6099 -1.0641
19783SOL    HW260791   5.976   6.476   9.646  2.1264  1.4372 -2.3706
19784SOL     OW60792   6.623   5.091   7.832  0.3945 -0.4016  0.1674
19784SOL    HW160793   6.641   5.100   7.738 -2.4355  1.2259 -0.3383
19784SOL    HW260794   6.590   5.001   7.842 -1.9456  0.2459 -1.0102
19785SOL     OW60795   6.759   6.832   9.483 -0.0241  0.7030  0.0098
19785SOL    HW160796   6.771   6.757   9.541 -0.5173  1.0428  0.5664
19785SOL    HW260797   6.823   6.896   9.512  2.4370 -0.5192 -2.3036
19786SOL     OW60798   5.765   7.713   8.908 -0.2713  0.2567 -0.7220
19786SOL    HW160799   5.797   7.804   8.907  0.4701  0.0981  1.8280
19786SOL    HW260800   5.670   7.722   8.908 -0.2165  1.1125  0.0809
19787SOL     OW60801   6.274   1.874   1.972  0.0291  0.7198  0.4723
19787SOL    HW160802   6.265   1.838   1.884 -0.7498  2.0034 -0.0087
19787SOL    HW260803   6.343   1.940   1.964  0.1378  0.6578  0.8787
19788SOL     OW60804   5.371   7.410   3.047  0.2880  0.3898 -0.4369
19788SOL    HW160805   5.310   7.349   3.006  0.6337 -0.3811  0.1613
19788SOL    HW260806   5.394   7.368   3.130  1.8669  0.5102 -0.7854
19789SOL     OW60807   1.423   7.505   3.470  0.8230 -0.0317 -0.0240
19789SOL    HW160808   1.466   7.585   3.500  1.5636 -0.6292  0.5289
19789SOL    HW260809   1.461   7.489   3.383 -1.1155  1.5396 -1.2267
19790SOL     OW60810   0.659   6.836   9.781 -0.1958 -0.0796  0.6865
19790SOL    HW160811   0.563   6.839   9.778 -0.3382  2.0531  3.5009
19790SOL    HW260812   0.687   6.911   9.728  0.1057 -1.6226 -1.5029
19791SOL     OW60813   5.872   1.226   1.671 -0.1769 -0.5039 -0.1693
19791SOL    HW160814   5.951   1.248   1.722 -0.7969  0.4513  0.4107
19791SOL    HW260815   5.799   1.245   1.730 -0.8482 -2.2359 -0.3767
19792SOL     OW60816   0.478   4.581   7.335  0.3567  1.0486  0.1345
19792SOL    HW160817   0.408   4.632   7.375 -0.7553  1.1722 -1.8582
19792SOL    HW260818   0.469   4.597   7.241  0.8960 -1.6372 -0.4599
19793SOL     OW60819   6.825   5.559   4.571  0.1426  0.4577 -0.5975
19793SOL    HW160820   6.818   5.654   4.569  0.8945  0.7187  2.5907
19793SOL    HW260821   6.760   5.531   4.636  1.4167 -0.9159  0.1721
19794SOL     OW60822   7.050   3.507   5.621  0.0618 -0.1841  0.3758
19794SOL    HW160823   7.062   3.425   5.670 -1.2477 -0.3258  0.4814
19794SOL    HW260824   7.139   3.532   5.596  1.0753  0.7677  4.2251
19795SOL     OW60825   0.261   3.014   3.931  0.1823  0.1183  0.2875
19795SOL    HW160826   0.206   3.037   4.006  1.5318 -1.8399  1.9776
19795SOL    HW260827   0.201   2.975   3.868 -0.8611  1.0820  0.6544
19796SOL     OW60828   7.589   1.569   6.917 -0.5229  0.1101  0.2747
19796SOL    HW160829   7.650   1.557   6.989 -1.2458 -0.6815  0.7758
19796SOL    HW260830   7.552   1.656   6.932  1.4025  1.1861 -0.7855
19797SOL     OW60831   6.625   3.354   6.008 -0.6209 -0.0930  0.5577
19797SOL    HW160832   6.705   3.303   6.022 -0.3126 -0.1228 -1.0767
19797SOL    HW260833   6.607   3.394   6.092  1.3746  0.2597  0.8736
19798SOL     OW60834   7.977   6.446   2.405 -0.5360  0.6193  0.0674
19798SOL    HW160835   8.019   6.516   2.454 -1.1771  0.0346  1.5137
19798SOL    HW260836   8.000   6.366   2.452  0.9974 -0.3168 -2.0898
19799SOL     OW60837   5.392   3.844   7.623 -0.0705 -0.3652 -0.6882
19799SOL    HW160838   5.474   3.870   7.580  0.1822  0.3322  0.1788
19799SOL    HW260839   5.415   3.765   7.672  0.3061  0.2437  0.1580
19800SOL     OW60840   5.832   7.356   2.876  0.0152 -0.0888 -0.9360
19800SOL    HW160841   5.848   7.421   2.944  0.6931 -1.9844  0.8395
19800SOL    HW260842   5.738   7.344   2.875 -0.1250  0.9524 -1.3526
19801SOL     OW60843   4.296   6.467   0.801 -0.7288  0.2959 -0.6760
19801SOL    HW160844   4.213   6.510   0.823 -0.4545  0.0391  1.0211
19801SOL    HW260845   4.279   6.374   0.815  0.7206  0.4465  3.2217
19802SOL     OW60846   6.778   3.405  11.578 -0.0367 -0.7744 -0.7053
19802SOL    HW160847   6.692   3.446  11.590  0.1514 -0.8299  1.0103
19802SOL    HW260848   6.839   3.462  11.624  0.8767 -0.7301 -1.9215
19803SOL     OW60849   1.572   2.696   4.059  0.2593  0.2960  0.5320
19803SOL    HW160850   1.492   2.661   4.099  1.5686 -2.3802  1.0839
19803SOL    HW260851   1.641   2.675   4.122  1.6544  0.8670 -0.7525
19804SOL     OW60852   2.884   2.908   0.870 -0.0782  0.2633  0.0175
19804SOL    HW160853   2.909   2.971   0.802  0.5936 -0.5087 -0.4630
19804SOL    HW260854   2.918   2.824   0.840  1.1663  0.0651  1.8052
19805SOL     OW60855   4.506   7.001   9.933 -0.0660 -0.4213  0.0581
19805SOL    HW160856   4.469   7.087   9.953 -0.6350 -0.7809  0.5877
19805SOL    HW260857   4.559   6.979  10.010 -0.5520 -0.8818  0.2690
19806SOL     OW60858   5.371   6.597   6.811  0.3069 -0.7363  0.0344
19806SOL    HW160859   5.411   6.661   6.752  0.9246 -0.3400  0.8611
19806SOL    HW260860   5.329   6.650   6.879  0.9317 -1.1884  0.8014
19807SOL     OW60861   2.246   1.584   7.059  0.0329  0.3721 -0.1407
19807SOL    HW160862   2.233   1.503   7.011 -0.1555  1.5182 -2.1564
19807SOL    HW260863   2.316   1.565   7.121  1.3730 -0.8103 -1.9268
19808SOL     OW60864   4.512   0.775   6.377  0.0413 -0.2997 -0.4074
19808SOL    HW160865   4.463   0.699   6.410  1.1198 -0.5219  0.7309
19808SOL    HW260866   4.487   0.847   6.435 -0.2479 -0.0007 -0.8959
19809SOL     OW60867   5.559   4.989   8.287 -0.0607  0.3390  0.0798
19809SOL    HW160868   5.626   5.028   8.231  1.1770  3.0019  3.1023
19809SOL    HW260869   5.477   5.031   8.260  0.4335  1.2383 -0.0419
19810SOL     OW60870   3.275   1.621   8.301 -0.5239 -0.1879 -0.2192
19810SOL    HW160871   3.191   1.642   8.260  0.0315  0.9453 -0.8364
19810SOL    HW260872   3.332   1.599   8.227  0.8222  3.0045 -0.3089
19811SOL     OW60873   0.930   5.686   9.399  0.0920 -0.0494 -0.3238
19811SOL    HW160874   0.998   5.632   9.356  1.1874 -0.0314  1.3036
19811SOL    HW260875   0.979   5.745   9.456 -1.2345  1.0676 -0.2938
19812SOL     OW60876   7.811   6.909   0.699  0.1477 -0.0790  0.8986
19812SOL    HW160877   7.893   6.918   0.747 -0.7509  1.2503  2.3052
19812SOL    HW260878   7.787   6.817   0.707  1.9469 -0.7136 -0.3879
19813SOL     OW60879   7.975   3.874   5.535  0.7251  0.4246 -0.6114
19813SOL    HW160880   7.943   3.860   5.624 -0.0822 -1.5289 -1.1494
19813SOL    HW260881   7.904   3.920   5.491 -0.3828 -1.5876 -1.0894
19814SOL     OW60882   7.575   1.860   0.867  0.0340 -0.1338 -0.0276
19814SOL    HW160883   7.583   1.773   0.906  1.2649 -0.0502 -0.0349
19814SOL    HW260884   7.484   1.866   0.838 -0.5816 -0.6528  1.7271
19815SOL     OW60885   0.218   7.742   7.125  0.5483 -0.0012  0.5146
19815SOL    HW160886   0.252   7.697   7.048 -0.2231  0.7040 -0.2484
19815SOL    HW260887   0.178   7.822   7.091 -2.0141 -0.8546  1.3359
19816SOL     OW60888   2.899   3.873   3.780 -0.3248 -0.4164 -0.1340
19816SOL    HW160889   2.979   3.887   3.731 -1.1239 -0.5724 -1.5356
19816SOL    HW260890   2.911   3.787   3.821 -0.3562 -1.1534 -1.5868
19817SOL     OW60891   4.160   7.149   3.632 -0.0359  0.1516 -0.2606
19817SOL    HW160892   4.078   7.157   3.582  0.5451  3.7342 -0.9022
19817SOL    HW260893   4.220   7.102   3.573 -0.2663  1.6621 -1.7513
19818SOL     OW60894   5.850   2.603   5.538  0.0986 -0.5717 -0.6756
19818SOL    HW160895   5.892   2.595   5.452 -0.2855 -1.2293 -0.8103
19818SOL    HW260896   5.770   2.652   5.521  0.0153 -0.7149 -0.6959
19819SOL     OW60897   4.517   5.828   2.107 -0.1255  0.5220  0.3117
19819SOL    HW160898   4.506   5.886   2.031  0.0253  0.0941 -0.0430
19819SOL    HW260899   4.434   5.781   2.113 -0.4775  1.2113  0.9779
19820SOL     OW60900   0.465   2.869   4.957  0.0207 -0.1459 -0.5758
19820SOL    HW160901   0.500   2.874   4.868  1.5292 -0.7373 -0.0312
19820SOL    HW260902   0.375   2.838   4.945  0.6367 -1.5518 -1.8183
19821SOL     OW60903   6.238   4.068  10.995 -0.1723  0.2239 -0.2369
19821SOL    HW160904   6.227   4.118  11.076  0.1944 -0.7057  0.4141
19821SOL    HW260905   6.288   4.126  10.937  2.8380 -0.3662  1.5392
19822SOL     OW60906   6.225   1.988   4.822  0.3619 -0.7425  0.7325
19822SOL    HW160907   6.263   2.073   4.798 -0.1313 -0.5620  0.5920
19822SOL    HW260908   6.223   1.939   4.740 -2.4968  0.3191  0.0686
19823SOL     OW60909   0.961   0.906   8.480 -0.3506  0.0309  0.0762
19823SOL    HW160910   0.971   0.935   8.389 -1.7202 -0.7718 -0.3687
19823SOL    HW260911   0.991   0.815   8.479  1.5673  0.6225  0.9044
19824SOL     OW60912   5.074   6.003  10.376  0.0392  0.7337  0.3786
19824SOL    HW160913   5.108   6.002  10.287 -1.2152  1.2098 -0.1401
19824SOL    HW260914   5.113   5.927  10.419  1.2909  0.9681 -0.3231
19825SOL     OW60915   5.291   3.468   3.273  0.0835  0.2964  0.1866
19825SOL    HW160916   5.368   3.417   3.297  1.2334  1.5919 -0.6310
19825SOL    HW260917   5.234   3.462   3.350  0.6959 -1.2040  0.5644
19826SOL     OW60918   1.013   4.990   4.482  0.3881  0.5061 -0.1103
19826SOL    HW160919   0.955   5.056   4.444  1.1439  1.0344 -0.3514
19826SOL    HW260920   0.959   4.948   4.550 -1.2301 -0.9012 -2.1172
19827SOL     OW60921   7.960   5.295   3.894  0.1262  0.4156  0.0431
19827SOL    HW160922   7.999   5.221   3.847  1.4607  0.3195  1.2627
19827SOL    HW260923   8.004   5.296   3.979 -0.6383  1.9690  0.4530
19828SOL     OW60924   7.859   0.351   6.991 -0.5861  0.0453 -0.3491
19828SOL    HW160925   7.828   0.351   6.900 -0.6175 -1.3725 -0.3662
19828SOL    HW260926   7.941   0.400   6.988  0.3871 -1.5216 -1.5447
19829SOL     OW60927   3.839   0.543   1.068  0.4365  0.5676  0.4156
19829SOL    HW160928   3.826   0.461   1.115 -0.0767 -0.5514 -1.5552
19829SOL    HW260929   3.827   0.611   1.134 -1.8692 -0.8579  1.6066
19830SOL     OW60930   6.061   7.298   9.076  0.1167  0.0448  0.4473
19830SOL    HW160931   6.078   7.376   9.128  1.1545 -0.6892  1.2493
19830SOL    HW260932   5.997   7.326   9.011  1.4256  1.9109 -0.1158
19831SOL     OW60933   5.161   0.086   5.948  0.4984  0.1514  0.1412
19831SOL    HW160934   5.192   0.151   6.012  2.1128 -1.7399  1.4260
19831SOL    HW260935   5.209   0.006   5.971 -0.3160 -1.1244 -2.2834
19832SOL     OW60936   1.230   2.220  10.358 -0.2934 -0.0073 -0.4102
19832SOL    HW160937   1.165   2.279  10.320 -1.5585 -0.5292  0.8339
19832SOL    HW260938   1.205   2.133  10.328  0.4745 -0.1150 -0.7667
19833SOL     OW60939   6.166   1.625  11.696  0.3531  0.1702  0.0112
19833SOL    HW160940   6.104   1.694  11.672 -1.0077 -0.4232  1.6359
19833SOL    HW260941   6.202   1.654  11.780 -0.4090 -1.1565  0.8333
19834SOL     OW60942   0.989   7.163   0.887  0.1834  0.5318  0.3782
19834SOL    HW160943   1.059   7.101   0.868  0.3551  0.6392  0.6454
19834SOL    HW260944   0.920   7.110   0.927 -0.3604  0.2288 -0.9098
19835SOL     OW60945   5.476   6.313   3.482  0.8990 -0.2634 -0.0077
19835SOL    HW160946   5.491   6.259   3.560 -0.6174 -0.8192 -0.0843
19835SOL    HW260947   5.409   6.266   3.433 -0.7600  1.8518  0.1049
19836SOL     OW60948   7.683   0.426  11.980 -0.6979  0.8977  0.3916
19836SOL    HW160949   7.600   0.410  11.935  0.2624 -0.8034 -0.8887
19836SOL    HW260950   7.661   0.487  12.050 -2.9871  0.5898  0.0097
19837SOL     OW60951   3.443   0.402   9.879 -0.0039  0.4724 -0.2359
19837SOL    HW160952   3.393   0.323   9.859 -1.4177  1.5131 -1.0175
19837SOL    HW260953   3.385   0.453   9.936  0.9464  0.8929  0.3744
19838SOL     OW60954   6.010   3.226   2.044 -0.1259 -0.3236  0.2877
19838SOL    HW160955   5.947   3.292   2.071  1.2935  1.4061 -0.4860
19838SOL    HW260956   5.983   3.202   1.955 -0.2842 -0.3463  0.3409
19839SOL     OW60957   6.145   7.366  12.107  0.5399  0.1946 -0.0611
19839SOL    HW160958   6.166   7.274  12.125 -0.3992  0.2354  1.4621
19839SOL    HW260959   6.204   7.415  12.164 -0.7714  0.4259  1.1482
19840SOL     OW60960   5.813   1.702   1.952 -0.3995 -0.4840  0.8409
19840SOL    HW160961   5.810   1.743   1.865 -1.2483 -0.1063  1.0375
19840SOL    HW260962   5.752   1.628   1.945  0.7341 -1.4285  0.6449
19841SOL     OW60963   0.792   2.614   5.821  0.0260  0.3377 -0.0133
19841SOL    HW160964   0.700   2.587   5.824  0.3440 -0.7803  2.3138
19841SOL    HW260965   0.800   2.678   5.891  1.4683 -1.3916  1.5171
19842SOL     OW60966   0.470   4.445   8.839  0.2687  0.0901  0.7744
19842SOL    HW160967   0.440   4.356   8.858  0.8012  0.0073  1.2594
19842SOL    HW260968   0.403   4.501   8.877 -2.0038 -0.0486 -2.6431
19843SOL     OW60969   1.815   4.098   6.706  0.3563  0.2103 -0.0109
19843SOL    HW160970   1.788   4.009   6.686  0.1949 -0.0900  1.4170
19843SOL    HW260971   1.815   4.102   6.802  2.2800  1.1470  0.0062
19844SOL     OW60972   0.642   7.077   7.406  0.4550 -0.0586  0.5386
19844SOL    HW160973   0.695   7.057   7.482  0.8092 -1.1884  0.0074
19844SOL    HW260974   0.697   7.135   7.353  1.1839 -1.2243 -0.0098
19845SOL     OW60975   6.727   5.694   1.818  0.4568 -0.3182  0.4517
19845SOL    HW160976   6.733   5.639   1.740 -0.3880 -0.0062  0.1522
19845SOL    HW260977   6.643   5.739   1.809  0.4702 -0.0780  1.4138
19846SOL     OW60978   0.210   7.282   9.623  0.0507  0.4102 -0.2353
19846SOL    HW160979   0.165   7.357   9.660 -1.4797  0.1222 -1.4013
19846SOL    HW260980   0.144   7.239   9.568  1.6054 -0.3094 -1.6348
19847SOL     OW60981   1.364   4.366   1.989  0.1960 -0.9343  0.5262
19847SOL    HW160982   1.283   4.331   2.026 -0.4283 -2.0008 -1.6531
19847SOL    HW260983   1.411   4.289   1.956  0.2307 -0.0520 -1.6690
19848SOL     OW60984   3.587   7.844   9.543  0.1064 -0.7190 -0.1267
19848SOL    HW160985   3.496   7.861   9.564  0.3400 -1.5849  1.8174
19848SOL    HW260986   3.587   7.760   9.498 -0.0260 -0.9347  0.2727
19849SOL     OW60987   2.176   4.564   1.142 -0.1323  0.0603 -0.4315
19849SOL    HW160988   2.120   4.526   1.075  0.7930 -0.5896 -0.8565
19849SOL    HW260989   2.156   4.658   1.141 -0.1354  0.0561 -1.6193
19850SOL     OW60990   1.526   5.865   0.458 -0.0151 -0.3797 -0.2317
19850SOL    HW160991   1.449   5.902   0.415  0.0187 -0.6169 -0.4945
19850SOL    HW260992   1.592   5.859   0.389  0.7295  1.1817  0.2830
19851SOL     OW60993   0.677   6.250   3.246  0.2689  0.0314  0.4657
19851SOL    HW160994   0.761   6.256   3.199 -0.5161  1.0095 -0.8726
19851SOL    HW260995   0.701   6.267   3.337  1.6840 -0.8756  0.3104
19852SOL     OW60996   7.633   4.609   3.188  0.1287 -0.2645 -0.3003
19852SOL    HW160997   7.646   4.577   3.278  0.3997 -0.1795 -0.3099
19852SOL    HW260998   7.573   4.545   3.149  0.6002 -0.7283 -0.2910
19853SOL     OW60999   1.827   4.001  11.287  0.5136  0.2475  0.0643
19853SOL    HW161000   1.788   3.924  11.328 -4.3104  3.4919  2.7066
19853SOL    HW261001   1.852   4.057  11.360 -0.6477  3.0185 -1.5041
19854SOL     OW61002   7.389   3.647   2.420  0.2380  0.1939 -0.1123
19854SOL    HW161003   7.303   3.667   2.457  0.2613 -0.9522  0.5834
19854SOL    HW261004   7.374   3.568   2.367  0.8138  0.1280 -0.1751
19855SOL     OW61005   4.985   5.802   8.309  0.5622  0.3467  0.1493
19855SOL    HW161006   5.058   5.801   8.371 -0.3258 -1.3525  1.2421
19855SOL    HW261007   4.942   5.886   8.324  0.5008  0.0695  1.7246
19856SOL     OW61008   6.815   6.776   3.624  0.1408  1.0768 -0.7588
19856SOL    HW161009   6.731   6.817   3.642 -0.1629  0.9528 -1.8176
19856SOL    HW261010   6.820   6.771   3.529  1.4394  1.2717 -0.7257
19857SOL     OW61011   0.820   5.180  12.161  0.5172  0.6789 -0.4298
19857SOL    HW161012   0.910   5.185  12.192  0.4356  1.9226 -0.3315
19857SOL    HW261013   0.768   5.220  12.231 -0.2585 -0.9940  0.0077
19858SOL     OW61014   5.681   5.535   1.208 -1.0182  0.5693  0.1400
19858SOL    HW161015   5.769   5.571   1.206 -0.3135 -0.9501  1.2684
19858SOL    HW261016   5.647   5.559   1.294 -0.9055 -0.5779  0.5190
19859SOL     OW61017   0.649   1.670   5.624 -0.1727 -0.0257  0.0324
19859SOL    HW161018   0.652   1.586   5.670 -0.6651  0.7902  1.6192
19859SOL    HW261019   0.571   1.714   5.659  0.0812  1.0947 -0.7587
19860SOL     OW61020   3.693   2.892   9.018  0.2317  0.3145  0.5809
19860SOL    HW161021   3.718   2.802   9.040 -2.5045 -0.4162  1.0868
19860SOL    HW261022   3.606   2.884   8.980  0.6475  2.6295 -1.0421
19861SOL     OW61023   7.378   0.990   9.870  0.5449  0.0741  0.8840
19861SOL    HW161024   7.292   1.004   9.829  0.6945  0.3436  0.6589
19861SOL    HW261025   7.358   0.955   9.957  0.2142 -0.2547  0.6822
19862SOL     OW61026   3.196   1.463  10.922 -0.6648  0.4942  0.3846
19862SOL    HW161027   3.161   1.526  10.860 -0.9536  0.3874  0.4368
19862SOL    HW261028   3.173   1.497  11.008 -2.4992 -0.6271  0.3768
19863SOL     OW61029   1.434   0.580   4.181 -0.4595 -0.9132  0.9258
19863SOL    HW161030   1.343   0.554   4.170 -0.1193 -2.9467  2.3997
19863SOL    HW261031   1.484   0.501   4.161  0.9693  0.0900  0.4270
19864SOL     OW61032   6.269   6.657  10.309 -0.5992  0.1683  0.6528
19864SOL    HW161033   6.350   6.621  10.271 -0.7294  1.2668 -0.7264
19864SOL    HW261034   6.281   6.646  10.403 -0.0319 -2.1770  0.3909
19865SOL     OW61035   3.960   4.915   0.797 -0.0945 -0.2683 -0.1796
19865SOL    HW161036   4.032   4.893   0.738  0.5347  0.7947  0.1739
19865SOL    HW261037   3.881   4.904   0.744  0.3927 -0.3684 -0.8978
19866SOL     OW61038   5.006   0.711   0.965 -0.1536 -0.5900 -0.4151
19866SOL    HW161039   4.989   0.794   0.920  0.9874 -0.7417 -1.1711
19866SOL    HW261040   5.006   0.734   1.058 -0.9638  0.0313 -0.5510
19867SOL     OW61041   3.056   6.296  11.606 -0.1120 -0.3476 -0.4328
19867SOL    HW161042   3.057   6.230  11.675 -1.3984 -0.9769 -0.9881
19867SOL    HW261043   3.048   6.246  11.525 -1.5277  0.4756 -0.8385
19868SOL     OW61044   6.823   6.377   7.911 -0.4775  0.5706  0.4934
19868SOL    HW161045   6.777   6.332   7.840  0.3886 -0.0675  0.3089
19868SOL    HW261046   6.887   6.433   7.866  0.7784 -0.6032  0.7386
19869SOL     OW61047   1.172   1.971   5.723 -0.1207  0.0072  0.1560
19869SOL    HW161048   1.127   2.052   5.747  0.3919  0.0693  0.9165
19869SOL    HW261049   1.134   1.905   5.780 -0.1114 -0.1726 -0.0476
19870SOL     OW61050   5.029   4.704  11.956 -0.2272 -0.3426  0.2271
19870SOL    HW161051   5.087   4.712  12.032 -0.3579  0.5717  0.2368
19870SOL    HW261052   5.087   4.710  11.881  0.3564 -4.2266  0.1493
19871SOL     OW61053   6.528   7.873   6.380 -0.4316  0.1626 -0.4032
19871SOL    HW161054   6.459   7.936   6.400 -1.9181 -1.4887 -0.0859
19871SOL    HW261055   6.555   7.840   6.466  0.5736  0.5681 -0.5471
19872SOL     OW61056   1.558   5.567   4.525 -0.4205  0.1391  0.4838
19872SOL    HW161057   1.539   5.475   4.540  0.4807  0.0400  1.1469
19872SOL    HW261058   1.559   5.577   4.430  2.0925 -1.1503  0.3042
19873SOL     OW61059   4.004   5.499   3.378  0.0477 -0.3064 -0.0283
19873SOL    HW161060   4.041   5.495   3.290  0.8819  0.0629  0.3010
19873SOL    HW261061   3.952   5.580   3.379 -1.0568 -0.9883 -0.5905
19874SOL     OW61062   6.478   7.299  11.137  0.0120 -0.6299 -0.2546
19874SOL    HW161063   6.386   7.324  11.125  0.2699  0.5767  0.0747
19874SOL    HW261064   6.484   7.210  11.103 -1.0884 -0.3998 -1.1163
19875SOL     OW61065   4.496   6.379   7.023 -0.1687  0.1825 -0.4389
19875SOL    HW161066   4.464   6.464   6.993  0.5612 -0.0738 -2.0410
19875SOL    HW261067   4.563   6.400   7.088 -0.0955  0.8231 -0.7207
19876SOL     OW61068   7.494   4.778   2.987  0.3812 -0.1336  0.2223
19876SOL    HW161069   7.580   4.817   2.973  0.2928 -0.4976 -1.5475
19876SOL    HW261070   7.513   4.691   3.022  0.6884  0.1262  0.7177
19877SOL     OW61071   5.705   2.406  11.475  0.2526 -0.4135  0.2003
19877SOL    HW161072   5.657   2.381  11.395  0.3452  2.3318 -0.8220
19877SOL    HW261073   5.654   2.367  11.546 -2.4318  0.6881 -0.9733
19878SOL     OW61074   2.264   2.420   2.633 -0.0587 -0.6023  0.4170
19878SOL    HW161075   2.274   2.333   2.671  0.8067 -0.8434 -0.3330
19878SOL    HW261076   2.328   2.473   2.679 -1.4119 -0.0319  1.7434
19879SOL     OW61077   3.584   3.672   5.416  0.5284 -0.0978  0.2493
19879SOL    HW161078   3.558   3.586   5.384  0.0029  0.2592 -0.3133
19879SOL    HW261079   3.679   3.674   5.407  0.7534 -1.2977  1.9933
19880SOL     OW61080   6.047   0.840   8.229  0.1586 -0.4209 -0.2765
19880SOL    HW161081   6.066   0.762   8.281  1.6649  1.0779  1.5756
19880SOL    HW261082   6.124   0.851   8.173  0.0141 -0.1790 -0.4313
19881SOL     OW61083   1.387   0.797  10.049  0.5806 -0.0650  0.0779
19881SOL    HW161084   1.424   0.785   9.961  2.0387 -0.3945  0.7102
19881SOL    HW261085   1.462   0.821  10.103 -0.5743  2.0201  0.8947
19882SOL     OW61086   3.806   0.496   0.769 -0.1641 -0.3969 -0.1245
19882SOL    HW161087   3.896   0.526   0.755  0.0720 -0.9491  0.1703
19882SOL    HW261088   3.797   0.492   0.864 -0.8625  0.6981 -0.1202
19883SOL     OW61089   4.088   7.114   6.422  0.0115 -0.3876 -0.1431
19883SOL    HW161090   4.046   7.180   6.478 -0.3335 -1.3861  0.8028
19883SOL    HW261091   4.023   7.098   6.353  1.2087  2.2916 -2.1007
19884SOL     OW61092   0.658   4.436   8.071 -0.4408  0.2169 -0.0624
19884SOL    HW161093   0.705   4.387   8.138 -0.6070  0.8860  0.5556
19884SOL    HW261094   0.727   4.469   8.013 -0.3660 -1.2295 -0.8426
19885SOL     OW61095   7.627   5.914   7.111 -0.0724  0.6178  0.6550
19885SOL    HW161096   7.649   5.849   7.177  0.0198  0.4269  0.4352
19885SOL    HW261097   7.634   5.868   7.028  1.0811  1.1877  0.4172
19886SOL     OW61098   0.184   5.430   1.643  0.2481 -0.0543 -0.2272
19886SOL    HW161099   0.154   5.342   1.667  1.0036  0.0268  1.1081
19886SOL    HW261100   0.215   5.468   1.725  0.7029  1.1621 -0.9355
19887SOL     OW61101   3.914   1.748   9.034 -0.4349 -0.4401  0.1958
19887SOL    HW161102   3.945   1.839   9.035  1.6200 -1.0606 -0.7263
19887SOL    HW261103   3.822   1.753   9.058 -0.3380  1.8745  0.2607
19888SOL     OW61104   2.577   5.953  12.368  0.5696 -0.3691  0.3771
19888SOL    HW161105   2.487   5.937  12.396  0.9621 -1.6339  0.9899
19888SOL    HW261106   2.576   5.936  12.274 -0.0460  0.6782  0.1752
19889SOL     OW61107   5.279   3.281   5.101  0.3500  0.1463  0.1225
19889SOL    HW161108   5.263   3.244   5.014  1.9152  2.2911 -1.1571
19889SOL    HW261109   5.295   3.205   5.156 -2.4495 -1.4115 -0.9654
19890SOL     OW61110   2.616   4.049  10.173 -0.3336  0.2989  0.3963
19890SOL    HW161111   2.580   3.982  10.116  1.8848 -2.3613  1.8596
19890SOL    HW261112   2.584   4.028  10.260 -0.0793  1.5288  0.8187
19891SOL     OW61113   4.741   3.690   4.487  0.7820 -0.0705 -0.3100
19891SOL    HW161114   4.754   3.769   4.539 -4.0438  0.8113  0.0778
19891SOL    HW261115   4.736   3.722   4.397  1.5745 -0.3855 -0.4668
19892SOL     OW61116   1.890   3.932  11.628 -0.5047  0.3468 -0.5275
19892SOL    HW161117   1.838   3.900  11.702  0.1197  0.9573  0.1829
19892SOL    HW261118   1.833   3.997  11.586 -0.7600  0.1818 -0.4431
19893SOL     OW61119   6.225   4.127   6.256  0.6568 -0.3730  0.1387
19893SOL    HW161120   6.223   4.220   6.278  0.7312 -0.1922 -0.5946
19893SOL    HW261121   6.282   4.088   6.322  1.0915  0.2001  0.1086
19894SOL     OW61122   6.796   3.036  12.144 -0.1217 -0.4326 -0.4105
19894SOL    HW161123   6.746   3.052  12.064  0.5328  2.1986 -0.3712
19894SOL    HW261124   6.739   3.066  12.214  0.2971 -0.3547 -0.1011
19895SOL     OW61125   2.144   7.610   8.517 -0.0539 -0.5800  0.1305
19895SOL    HW161126   2.069   7.557   8.545  0.6001 -0.2304  2.7295
19895SOL    HW261127   2.220   7.560   8.545  0.5930  1.2049  1.7037
19896SOL     OW61128   4.600   7.264   2.324  0.3040 -0.6652 -0.1830
19896SOL    HW161129   4.665   7.226   2.384  1.4006 -0.3721 -1.1537
19896SOL    HW261130   4.650   7.326   2.271 -1.0054  0.4441 -0.1830
19897SOL     OW61131   4.112   1.283  11.464 -0.2512  0.4685  0.4911
19897SOL    HW161132   4.064   1.241  11.536  0.1917 -0.1513  0.4296
19897SOL    HW261133   4.065   1.257  11.385 -0.7713  1.1953  0.5523
19898SOL     OW61134   2.892   3.671   0.829  0.7951 -0.2882 -0.0453
19898SOL    HW161135   2.942   3.752   0.837  1.1900 -0.1283 -2.9937
19898SOL    HW261136   2.817   3.695   0.774 -0.2085 -1.4918  0.7537
19899SOL     OW61137   6.539   3.789   9.821 -0.3964  0.3479 -0.2972
19899SOL    HW161138   6.534   3.814   9.913 -0.3685  1.0686 -0.4825
19899SOL    HW261139   6.598   3.853   9.782  0.8446 -0.8963 -0.5155
19900SOL     OW61140   4.196   1.133   0.787 -0.5425  0.5990  0.1963
19900SOL    HW161141   4.193   1.198   0.717 -3.0263 -0.8529 -1.1864
19900SOL    HW261142   4.104   1.113   0.805  0.0759 -0.2195  2.8424
19901SOL     OW61143   7.383   5.953  11.978 -0.4337  0.1486 -0.4145
19901SOL    HW161144   7.417   5.920  12.061 -0.5178  0.1255 -0.3897
19901SOL    HW261145   7.335   6.033  12.002 -0.5264  0.0979 -0.4312
19902SOL     OW61146   7.348   0.914   7.765  0.0409 -0.0211  0.3227
19902SOL    HW161147   7.296   0.937   7.842  1.4467  2.5322  0.6259
19902SOL    HW261148   7.385   0.997   7.736  1.4180 -1.2724 -1.7401
19903SOL     OW61149   2.048   2.391  10.716 -0.2736 -0.0474  0.1347
19903SOL    HW161150   2.133   2.435  10.714  0.1260 -0.7639  1.0261
19903SOL    HW261151   1.988   2.455  10.754  0.0007  0.2219  0.1118
19904SOL     OW61152   0.308   1.945   7.073 -0.3491  0.3284 -0.1067
19904SOL    HW161153   0.382   1.979   7.123  0.1843 -0.2928 -0.4554
19904SOL    HW261154   0.232   1.956   7.132  0.3569 -0.9364  1.1020
19905SOL     OW61155   7.777   1.683   7.705  0.1862  0.6521 -0.1969
19905SOL    HW161156   7.865   1.712   7.728 -0.0929  0.6750  0.9126
19905SOL    HW261157   7.778   1.588   7.718 -0.1691  0.7503  0.6252
19906SOL     OW61158   5.809   4.351   0.722 -0.3156  0.3185  0.1679
19906SOL    HW161159   5.901   4.326   0.729 -0.4350 -0.4516 -0.7965
19906SOL    HW261160   5.789   4.391   0.806 -0.0910 -2.7798  1.8508
19907SOL     OW61161   1.668   0.821   5.529 -0.5504 -1.1758  0.0853
19907SOL    HW161162   1.620   0.847   5.608  0.0958 -0.5415  0.2800
19907SOL    HW261163   1.688   0.728   5.543  1.9258 -0.4867  1.9970
19908SOL     OW61164   0.642   2.000   9.644 -0.1463  0.0951  0.4435
19908SOL    HW161165   0.656   1.955   9.728  2.0806 -0.1057  0.0225
19908SOL    HW261166   0.548   1.989   9.627 -0.3838 -1.1010  2.1976
19909SOL     OW61167   6.055   7.888   5.704  0.1268 -0.4118 -0.4882
19909SOL    HW161168   6.106   7.963   5.733 -1.4954  0.2051  0.9643
19909SOL    HW261169   6.090   7.814   5.755  1.3048 -0.5505 -1.4605
19910SOL     OW61170   3.101   1.604   7.088  0.0681 -0.7311  0.2756
19910SOL    HW161171   3.102   1.658   7.167 -0.7374  0.4699 -0.5053
19910SOL    HW261172   3.088   1.666   7.016 -1.0361 -1.9648 -0.6453
19911SOL     OW61173   1.334   5.430   1.981 -0.2872 -0.2911 -0.6087
19911SOL    HW161174   1.287   5.471   2.053 -0.2306 -0.3583 -0.5324
19911SOL    HW261175   1.376   5.503   1.935  0.4247 -0.3239 -0.0334
19912SOL     OW61176   4.815   7.537   0.629  0.5852  0.2020  0.1441
19912SOL    HW161177   4.898   7.522   0.675  0.9058 -1.3289 -0.8932
19912SOL    HW261178   4.789   7.451   0.596 -1.5359  0.6031  0.5949
19913SOL     OW61179   1.294   6.249   5.655 -0.1149 -0.2384  0.3586
19913SOL    HW161180   1.257   6.187   5.717  0.7129  1.5046  2.7373
19913SOL    HW261181   1.356   6.196   5.603 -1.2391 -1.8491  0.5639
19914SOL     OW61182   7.020   4.785   4.781 -0.7383 -0.0981  0.1504
19914SOL    HW161183   6.964   4.792   4.704  0.7846  1.3128 -0.8647
19914SOL    HW261184   6.958   4.784   4.855 -2.2411 -1.7907 -1.0256
19915SOL     OW61185   1.754   0.749   4.695 -0.6654  0.1540 -0.5263
19915SOL    HW161186   1.821   0.786   4.752  0.2310  0.9114 -2.0155
19915SOL    HW261187   1.704   0.824   4.665 -0.0941 -0.0117 -1.9921
19916SOL     OW61188   4.049   6.695   0.452 -0.2103  0.0621 -0.0139
19916SOL    HW161189   4.120   6.695   0.388  0.7898 -0.9959  1.0579
19916SOL    HW261190   3.975   6.734   0.405  0.9787  0.9461 -1.2447
19917SOL     OW61191   1.878   5.563   1.159  0.3098 -0.2877 -0.1031
19917SOL    HW161192   1.818   5.503   1.204  1.2734 -0.4957  0.9484
19917SOL    HW261193   1.865   5.647   1.202 -0.9994  0.2884 -1.5402
19918SOL     OW61194   2.128   2.543   1.102 -0.4572 -0.5421 -0.0898
19918SOL    HW161195   2.101   2.583   1.020  0.2176  0.0367 -0.0403
19918SOL    HW261196   2.222   2.528   1.092 -0.4636 -0.9224  0.3867
19919SOL     OW61197   3.128   1.828   3.094 -0.0214  0.5080  0.1396
19919SOL    HW161198   3.133   1.732   3.093  0.3602  0.5171  0.7669
19919SOL    HW261199   3.165   1.853   3.009 -1.4299  0.0636 -0.6355
19920SOL     OW61200   6.570   7.323   8.764 -0.2450 -0.5379  0.1173
19920SOL    HW161201   6.593   7.344   8.854  1.5820  0.0168 -0.4447
19920SOL    HW261202   6.548   7.408   8.725 -1.0111 -0.7740  0.0134
19921SOL     OW61203   4.749   0.356   8.721 -0.2452 -0.1627 -0.1620
19921SOL    HW161204   4.693   0.429   8.745  1.1033  0.9843 -0.3869
19921SOL    HW261205   4.716   0.328   8.635 -2.9198 -2.0969  1.3492
19922SOL     OW61206   3.212   4.086   5.800 -0.1281 -0.1314  0.1547
19922SOL    HW161207   3.263   4.138   5.738 -0.4429 -0.4320 -0.3628
19922SOL    HW261208   3.121   4.112   5.785 -0.2375 -0.4495  0.2586
19923SOL     OW61209   2.460   6.907   2.721 -0.3599 -0.6116 -0.0506
19923SOL    HW161210   2.441   6.859   2.640 -0.7982  0.3295 -0.5260
19923SOL    HW261211   2.399   6.872   2.785  0.6202 -2.0301  0.1546
19924SOL     OW61212   3.039   1.517   9.166  0.0961 -0.0028  0.1211
19924SOL    HW161213   3.065   1.440   9.217  1.6464 -0.5967 -1.4551
19924SOL    HW261214   2.963   1.552   9.213 -0.1760 -2.0244  1.3314
19925SOL     OW61215   3.856   1.028   5.188  0.3356 -0.5893 -0.0077
19925SOL    HW161216   3.799   1.033   5.111  1.4905  0.6269 -0.8433
19925SOL    HW261217   3.943   1.048   5.154  1.1617 -1.7259  1.3466
19926SOL     OW61218   6.955   2.338   3.374 -0.2516  0.0283  0.3437
19926SOL    HW161219   6.910   2.421   3.359 -0.0102  0.1678  0.3899
19926SOL    HW261220   6.903   2.294   3.442 -1.6680 -0.8373 -1.2117
19927SOL     OW61221   6.250   7.881   1.058  0.4687  0.2306  0.0977
19927SOL    HW161222   6.332   7.855   1.099  0.5412 -0.1443 -0.2740
19927SOL    HW261223   6.186   7.817   1.088  0.2741  0.6097  0.5064
19928SOL     OW61224   7.049   7.018   9.412 -0.0828  0.0307 -0.6301
19928SOL    HW161225   7.126   7.049   9.364  0.1729  1.0892  0.4297
19928SOL    HW261226   6.986   7.091   9.405 -0.1241  0.1071  0.4366
19929SOL     OW61227   4.514   0.812   6.063 -0.4312  0.0553  0.4780
19929SOL    HW161228   4.461   0.796   5.986 -0.1883  1.7376 -0.0773
19929SOL    HW261229   4.483   0.896   6.097  1.5493  0.9090  0.3523
19930SOL     OW61230   6.984   3.258   9.983 -0.6534  0.0282 -0.7619
19930SOL    HW161231   6.912   3.315   9.958 -0.7491  0.4152  0.3215
19930SOL    HW261232   6.960   3.225  10.070  0.2090 -0.2792 -0.6218
19931SOL     OW61233   6.539   1.640   7.382 -0.4129  0.1095 -0.3819
19931SOL    HW161234   6.497   1.639   7.297  1.5947 -0.7767 -1.4446
19931SOL    HW261235   6.627   1.605   7.366 -0.4894 -1.6187  2.3295
19932SOL     OW61236   5.015   2.236   4.093  0.0920 -0.1726 -0.0075
19932SOL    HW161237   4.990   2.168   4.030 -0.2448 -0.0422 -0.0130
19932SOL    HW261238   5.111   2.234   4.093  0.0896 -1.3388  0.7270
19933SOL     OW61239   5.375   6.147   4.707  0.7045  0.0102  0.2757
19933SOL    HW161240   5.415   6.173   4.623 -0.2368  1.4306  0.2438
19933SOL    HW261241   5.414   6.061   4.726  0.3722 -0.7153 -1.9965
19934SOL     OW61242   6.227   2.660   4.498  0.0921  0.2308 -0.4038
19934SOL    HW161243   6.158   2.668   4.563 -0.1117  2.6448 -0.8144
19934SOL    HW261244   6.308   2.656   4.549 -0.1358  1.0516  0.0407
19935SOL     OW61245   4.141   1.522   0.163 -0.1274 -0.6199  0.9544
19935SOL    HW161246   4.208   1.463   0.196  0.7211 -0.9208 -1.1419
19935SOL    HW261247   4.186   1.576   0.097 -1.8604 -0.7260 -0.4161
19936SOL     OW61248   5.754   1.924   2.113  0.1905 -0.5520 -0.0246
19936SOL    HW161249   5.771   1.839   2.073  0.9525 -0.0696 -0.7507
19936SOL    HW261250   5.779   1.988   2.047 -4.2980  0.3334 -1.2446
19937SOL     OW61251   0.417   6.128  11.847 -0.4854 -0.0911  0.6575
19937SOL    HW161252   0.457   6.193  11.904  1.4097 -0.2610 -0.4219
19937SOL    HW261253   0.392   6.177  11.769  0.1376 -0.5001  0.2026
19938SOL     OW61254   5.796   3.026   3.257  0.6166 -0.0397  0.0678
19938SOL    HW161255   5.815   3.118   3.274 -1.7306  0.4612  0.2580
19938SOL    HW261256   5.708   3.013   3.291  0.1640 -1.8883 -1.6506
19939SOL     OW61257   1.266   5.829   2.533  0.2224 -0.3423 -0.1343
19939SOL    HW161258   1.196   5.764   2.534 -0.2784  0.1761 -0.6719
19939SOL    HW261259   1.252   5.880   2.613  0.6596 -0.9155  0.3276
19940SOL     OW61260   6.961   0.399   0.954  0.5481  0.5893 -0.7103
19940SOL    HW161261   7.046   0.395   0.910  0.6283  1.2983 -0.6231
19940SOL    HW261262   6.970   0.469   1.019 -0.7357  2.1082 -2.0914
19941SOL     OW61263   4.303   3.921   5.946  0.5472 -0.3137  0.1925
19941SOL    HW161264   4.211   3.897   5.960  0.3603  0.8773  1.2416
19941SOL    HW261265   4.302   3.975   5.867  0.0515  1.0850  1.1130
19942SOL     OW61266   1.476   4.824   9.487  0.6266 -0.1198  0.1852
19942SOL    HW161267   1.480   4.769   9.565  1.9739 -0.7280 -0.2826
19942SOL    HW261268   1.407   4.888   9.507  0.2351 -0.8875  1.4451
19943SOL     OW61269   3.485   7.615   2.061 -0.0947 -0.4768  0.2556
19943SOL    HW161270   3.580   7.618   2.070  0.1208 -0.8130 -1.5236
19943SOL    HW261271   3.462   7.525   2.084  0.2879 -0.9721 -1.1643
19944SOL     OW61272   2.481   4.106   9.159 -0.1970  0.8408  0.4371
19944SOL    HW161273   2.437   4.032   9.118 -0.4086  1.9397 -1.4424
19944SOL    HW261274   2.566   4.073   9.185 -0.7512 -0.3659  0.7842
19945SOL     OW61275   1.656   6.361   7.622  0.5099 -0.1423  0.5363
19945SOL    HW161276   1.603   6.439   7.603 -0.0460 -0.3040  1.3562
19945SOL    HW261277   1.744   6.385   7.594  0.1193  0.3442 -0.3302
19946SOL     OW61278   3.989   6.974   1.426  0.5461 -0.2700  0.1811
19946SOL    HW161279   3.915   6.917   1.446  0.4287 -0.2918 -0.3048
19946SOL    HW261280   4.049   6.919   1.376 -0.3589  0.4803 -1.8408
19947SOL     OW61281   1.472   1.646   3.634  0.0944 -0.0302  0.2163
19947SOL    HW161282   1.413   1.571   3.644 -0.8336  0.4888 -1.1245
19947SOL    HW261283   1.509   1.636   3.546  1.0387  0.3431  0.5582
19948SOL     OW61284   5.554   7.626   3.055  0.2292 -0.1808 -0.1208
19948SOL    HW161285   5.545   7.641   2.961 -0.2732 -0.6523 -0.1583
19948SOL    HW261286   5.472   7.583   3.080  0.2284  0.2134  0.5909
19949SOL     OW61287   0.808   5.526   4.546 -0.3677 -0.0505 -0.1810
19949SOL    HW161288   0.835   5.480   4.466  0.8342  1.5245 -0.7364
19949SOL    HW261289   0.889   5.533   4.597 -0.9779 -0.3927  0.8565
19950SOL     OW61290   5.369   4.560   8.771  0.4974 -0.0976  0.2967
19950SOL    HW161291   5.454   4.524   8.748 -0.1620 -0.3136 -2.0678
19950SOL    HW261292   5.331   4.495   8.831  0.8532 -1.4641 -0.8998
19951SOL     OW61293   3.315   0.416   0.243  0.0392 -0.7972  0.4454
19951SOL    HW161294   3.401   0.425   0.284  0.1130 -2.6158  0.7550
19951SOL    HW261295   3.330   0.435   0.150  0.3004  1.1398  0.8390
19952SOL     OW61296   3.454   6.383  12.304 -0.4400 -0.5723 -0.0278
19952SOL    HW161297   3.489   6.412  12.220  0.0478 -1.1301 -0.0315
19952SOL    HW261298   3.478   6.452  12.366 -2.0503  0.5329 -0.5918
19953SOL     OW61299   1.862   2.137   0.871  0.3589 -0.1279  0.4673
19953SOL    HW161300   1.778   2.183   0.869 -0.0305 -0.8308 -0.6373
19953SOL    HW261301   1.910   2.177   0.943 -0.6058  0.8480  0.5929
19954SOL     OW61302   2.545   1.540   8.721  0.2257  0.0654 -0.1568
19954SOL    HW161303   2.540   1.565   8.629  0.8208  0.8850  0.0226
19954SOL    HW261304   2.497   1.457   8.726 -2.3482  1.4233 -0.6684
19955SOL     OW61305   6.796   7.051  11.096  0.0254 -0.2946 -1.0488
19955SOL    HW161306   6.873   6.994  11.101  0.5732  0.3453 -1.8285
19955SOL    HW261307   6.805   7.111  11.170 -0.1553 -0.7342 -0.6680
19956SOL     OW61308   5.825   0.310   3.924 -0.1275 -0.2065 -0.1984
19956SOL    HW161309   5.779   0.244   3.975 -0.1537 -0.9231 -1.1326
19956SOL    HW261310   5.762   0.382   3.916 -0.0427  0.0063  0.9481
19957SOL     OW61311   2.208   2.379  11.877 -0.1460  0.3496  0.2661
19957SOL    HW161312   2.200   2.337  11.962  0.7927  1.9919  1.2029
19957SOL    HW261313   2.120   2.412  11.858 -0.0550  1.2051  1.2707
19958SOL     OW61314   6.193   6.028   7.424  0.1312 -0.1488  0.0456
19958SOL    HW161315   6.265   6.034   7.361 -0.1267  2.3358 -0.1060
19958SOL    HW261316   6.229   6.063   7.505 -0.4135 -0.4857  0.4376
19959SOL     OW61317   3.941   3.674   8.403 -0.5093  0.0482 -0.1037
19959SOL    HW161318   4.025   3.635   8.380 -0.7374 -0.3106 -0.3614
19959SOL    HW261319   3.960   3.733   8.476  0.3155  1.4867 -1.4084
19960SOL     OW61320   1.200   6.081   1.254 -1.1921 -0.3810 -0.7044
19960SOL    HW161321   1.267   6.031   1.206  1.4626  1.8762  0.3947
19960SOL    HW261322   1.166   6.143   1.191  0.0896  0.5355 -0.5445
19961SOL     OW61323   3.357   3.131   3.498 -0.0649 -0.3500  0.2651
19961SOL    HW161324   3.432   3.189   3.506 -0.6477  0.7765 -1.8750
19961SOL    HW261325   3.385   3.064   3.436 -0.7112 -0.1158 -0.2817
19962SOL     OW61326   6.425   3.788   9.040 -0.0105 -0.7158  0.2315
19962SOL    HW161327   6.505   3.800   9.090 -0.0543 -0.1741  0.1773
19962SOL    HW261328   6.356   3.785   9.107  0.1844 -2.6936  0.3965
19963SOL     OW61329   6.289   1.234   4.357  0.0547  0.1914 -0.5532
19963SOL    HW161330   6.355   1.234   4.287 -0.8186 -0.1536 -1.4080
19963SOL    HW261331   6.284   1.142   4.384  0.5253  0.3549  0.1050
19964SOL     OW61332   6.952   6.529  11.892 -0.2978  0.0606  0.2228
19964SOL    HW161333   6.871   6.573  11.919  1.3849  1.5152  3.4901
19964SOL    HW261334   6.975   6.570  11.809 -1.6794  1.3386  0.4185
19965SOL     OW61335   4.578   2.396   3.101 -0.3549 -0.1648 -0.1934
19965SOL    HW161336   4.625   2.427   3.178 -0.4510  1.8828 -0.8930
19965SOL    HW261337   4.509   2.339   3.136  0.1936 -0.0323  1.1452
19966SOL     OW61338   0.713   1.208  11.707 -0.4061 -0.1739  0.8812
19966SOL    HW161339   0.789   1.158  11.678  1.5179  2.4900  0.8547
19966SOL    HW261340   0.726   1.218  11.802  0.9943  2.6242  0.5257
19967SOL     OW61341   5.669   7.543  10.664 -0.3218  0.4179 -0.1190
19967SOL    HW161342   5.604   7.492  10.615 -0.8092  1.3307 -0.4639
19967SOL    HW261343   5.622   7.571  10.743  0.2675 -0.5219  0.5864
19968SOL     OW61344   6.670   1.526   5.055 -0.3132  0.2411  0.0908
19968SOL    HW161345   6.696   1.595   4.994  0.3859 -1.1206 -1.2130
19968SOL    HW261346   6.741   1.522   5.120  0.9487 -0.8913 -1.2775
19969SOL     OW61347   7.257   2.094   9.525  0.1599 -0.3631 -0.1514
19969SOL    HW161348   7.223   2.102   9.436 -0.5689 -2.4363 -0.1169
19969SOL    HW261349   7.341   2.140   9.523 -0.9036  1.6709 -1.2373
19970SOL     OW61350   1.718   0.079  11.047 -0.3192  0.4165  0.1793
19970SOL    HW161351   1.685   0.153  10.997  0.6638  0.5333 -0.3327
19970SOL    HW261352   1.685   0.002  11.001 -2.2521  0.4895  1.3307
19971SOL     OW61353   4.656   4.812   8.515 -0.6308  0.0131 -0.0853
19971SOL    HW161354   4.723   4.777   8.573 -0.1033 -0.3861 -0.9147
19971SOL    HW261355   4.576   4.809   8.567  0.0625  0.9427  1.0827
19972SOL     OW61356   1.964   3.097  10.147 -0.2995  0.8506 -0.3024
19972SOL    HW161357   1.899   3.167  10.138  0.5173  1.6039 -0.3926
19972SOL    HW261358   1.939   3.052  10.228  0.8483  3.0538  1.3683
19973SOL     OW61359   7.049   7.498   2.956  0.2272 -0.0735  0.1775
19973SOL    HW161360   6.992   7.573   2.938 -0.9758 -1.1253 -0.6134
19973SOL    HW261361   7.137   7.535   2.960 -0.2975  1.3358 -0.5234
19974SOL     OW61362   2.309   6.097  12.236 -0.0925  0.1201  0.0206
19974SOL    HW161363   2.286   6.127  12.148 -0.5343  1.5431  0.5981
19974SOL    HW261364   2.383   6.152  12.261  2.4505 -2.6393 -0.7972
19975SOL     OW61365   7.370   4.536   9.014 -0.5570 -0.1203 -0.2905
19975SOL    HW161366   7.371   4.458   9.070 -2.2158  0.0667  0.0435
19975SOL    HW261367   7.288   4.580   9.035 -0.9427  0.3045 -2.3990
19976SOL     OW61368   5.970   2.004   9.443  0.4385 -0.4804 -0.1058
19976SOL    HW161369   6.020   2.013   9.362  0.7863 -1.7837 -0.0539
19976SOL    HW261370   6.008   2.069   9.502 -0.2925  0.9858 -1.1834
19977SOL     OW61371   6.828   0.647  11.406 -0.0708  0.1860  0.2171
19977SOL    HW161372   6.781   0.712  11.353  0.1514  1.2968  1.3322
19977SOL    HW261373   6.919   0.676  11.403  0.3379 -1.1196 -0.7320
19978SOL     OW61374   2.218   2.554   8.584  0.1365  0.0940  0.0602
19978SOL    HW161375   2.277   2.478   8.587 -0.3871 -0.4082 -1.2197
19978SOL    HW261376   2.172   2.552   8.668  1.5773  0.2115  0.8788
19979SOL     OW61377   5.925   1.935   5.244 -0.0847  0.2295  0.1153
19979SOL    HW161378   5.910   2.009   5.185 -2.1892  0.2939  0.6388
19979SOL    HW261379   5.985   1.878   5.196 -0.7637  0.8767 -1.5917
19980SOL     OW61380   7.611   4.906   4.434 -0.2322 -0.1938 -0.3977
19980SOL    HW161381   7.647   4.879   4.519  2.6072  0.7177 -1.1774
19980SOL    HW261382   7.678   4.965   4.398 -2.3814  1.2417 -2.3081
19981SOL     OW61383   1.404   3.494   6.009 -0.2600  0.1262  0.2989
19981SOL    HW161384   1.348   3.423   5.980 -0.4096  0.5346 -0.4445
19981SOL    HW261385   1.480   3.491   5.951 -0.0427  0.2752  0.5692
19982SOL     OW61386   5.482   7.187   0.689  0.0679 -0.1493 -0.1960
19982SOL    HW161387   5.454   7.238   0.765 -0.7506 -2.1346  0.8959
19982SOL    HW261388   5.541   7.121   0.725  2.0341  0.6548 -1.7435
19983SOL     OW61389   0.834   7.196  10.469  0.0125 -0.1897  0.1973
19983SOL    HW161390   0.809   7.110  10.502 -0.5170  0.2211  0.8856
19983SOL    HW261391   0.928   7.202  10.488 -0.1302 -0.2604  0.9650
19984SOL     OW61392   7.453   3.048   2.754 -0.0092  0.0224 -0.8690
19984SOL    HW161393   7.538   3.079   2.723  0.6584  0.1017  0.9509
19984SOL    HW261394   7.390   3.107   2.713  0.9470  1.1452 -0.7885
19985SOL     OW61395   5.035   5.618   8.061  0.0295  0.5237 -0.2222
19985SOL    HW161396   5.121   5.660   8.060 -0.5817  1.8558 -0.2242
19985SOL    HW261397   5.042   5.548   7.996  1.0965  0.6306 -0.2474
19986SOL     OW61398   4.657   0.452   2.313 -0.2005 -0.1912 -0.2487
19986SOL    HW161399   4.661   0.453   2.409  0.0711 -0.6236 -0.2517
19986SOL    HW261400   4.638   0.543   2.289 -1.2687 -0.2682  0.2514
19987SOL     OW61401   5.659   2.725  10.819 -0.6070 -0.2484 -0.2872
19987SOL    HW161402   5.727   2.657  10.820 -0.6953 -0.3356  0.5254
19987SOL    HW261403   5.687   2.786  10.751 -0.8834 -1.4507 -1.5450
19988SOL     OW61404   4.886   2.965   3.529 -0.0603  0.1077  0.0766
19988SOL    HW161405   4.927   2.931   3.450 -1.3004 -0.7236 -0.2445
19988SOL    HW261406   4.810   3.014   3.497  0.0717  0.7303  0.6970
19989SOL     OW61407   7.389   7.598  11.174 -0.1817  0.3671  0.0934
19989SOL    HW161408   7.307   7.647  11.183  0.8938  2.4597 -0.5672
19989SOL    HW261409   7.451   7.647  11.227  1.1549  0.1979 -1.2506
19990SOL     OW61410   2.514   3.092  10.064 -0.3485  0.3130  0.4473
19990SOL    HW161411   2.543   3.139  10.142 -0.4729  1.2675 -0.0568
19990SOL    HW261412   2.419   3.099  10.066 -0.4629 -1.1466  1.0929
19991SOL     OW61413   0.169   0.772   4.059  0.6621 -0.7220  0.7640
19991SOL    HW161414   0.132   0.720   3.988  1.0199 -0.0865  0.0910
19991SOL    HW261415   0.185   0.858   4.020 -2.4609  0.8210  2.5244
19992SOL     OW61416   7.123   0.185   2.574  0.6461  0.7374 -0.3101
19992SOL    HW161417   7.034   0.216   2.562 -0.5212 -1.8516  0.8160
19992SOL    HW261418   7.139   0.191   2.668  0.8045 -0.7520 -0.2058
19993SOL     OW61419   4.686   5.101   2.040 -0.3256 -0.2141  0.3733
19993SOL    HW161420   4.612   5.108   1.980 -0.3156  1.0161  0.4959
19993SOL    HW261421   4.748   5.168   2.011 -1.1676  1.8106  2.8989
19994SOL     OW61422   3.716   3.349   1.544 -0.0272  0.5716  0.0886
19994SOL    HW161423   3.800   3.342   1.499  0.7356  1.1380  1.3605
19994SOL    HW261424   3.731   3.413   1.614 -1.1048 -0.3920  1.2593
19995SOL     OW61425   3.736   5.053   1.470  0.0311  0.4356  0.0518
19995SOL    HW161426   3.719   4.959   1.460 -0.4698  0.4558  0.6618
19995SOL    HW261427   3.797   5.074   1.399 -1.1529  0.0003 -1.1443
19996SOL     OW61428   2.916   4.917   3.186  0.0693 -0.1124 -0.0094
19996SOL    HW161429   2.941   4.933   3.094  0.2178 -2.0510 -0.3422
19996SOL    HW261430   2.988   4.954   3.237 -0.2347  1.4144 -0.6223
19997SOL     OW61431   6.574   5.665  12.001 -0.0855 -0.7762  0.2231
19997SOL    HW161432   6.631   5.592  11.975  1.2831  0.4703 -0.4336
19997SOL    HW261433   6.530   5.691  11.920  0.6436  0.1185  0.0921
19998SOL     OW61434   7.869   2.147   7.194  0.0162  0.5142  0.2359
19998SOL    HW161435   7.793   2.199   7.221  0.0826  0.4640  0.5145
19998SOL    HW261436   7.832   2.076   7.142 -0.0305  1.1862 -0.6888
19999SOL     OW61437   2.357   3.431   8.754  0.3490  0.0031 -0.4305
19999SOL    HW161438   2.389   3.398   8.837 -0.3486 -0.9753 -0.5264
19999SOL    HW261439   2.385   3.522   8.751  1.1407 -0.2038  0.4712
20000SOL     OW61440   0.168   2.147   6.226  0.1701 -0.3704  0.1388
20000SOL    HW161441   0.173   2.189   6.312 -2.6612 -1.9649  1.2180
20000SOL    HW261442   0.079   2.114   6.221  0.1113 -0.0473 -3.6267
20001SOL     OW61443   5.671   5.914   1.742 -0.1168  0.2618  1.1098
20001SOL    HW161444   5.756   5.954   1.763 -1.2691  3.3600  0.4832
20001SOL    HW261445   5.676   5.895   1.649 -0.3586  1.2216  0.8902
20002SOL     OW61446   2.394   6.903  10.889 -0.0232 -0.2530 -0.7241
20002SOL    HW161447   2.375   6.930  10.979  0.5439 -0.7165 -0.4530
20002SOL    HW261448   2.352   6.817  10.881  1.2464 -0.9325 -0.3722
20003SOL     OW61449   1.812   6.443   9.567  0.4033 -0.2239 -0.1633
20003SOL    HW161450   1.871   6.409   9.499  1.6560  2.7799 -0.7219
20003SOL    HW261451   1.739   6.480   9.519  0.3374  0.1691  0.2303
20004SOL     OW61452   7.033   4.694   1.050  0.3192  0.1033 -0.2760
20004SOL    HW161453   6.943   4.709   1.022  0.3795 -0.1108 -0.5905
20004SOL    HW261454   7.027   4.626   1.116  0.1791  0.5855  0.2201
20005SOL     OW61455   2.515   0.601   8.988  0.3263  0.0373 -0.5166
20005SOL    HW161456   2.500   0.652   9.067 -0.1913 -1.7567  0.5978
20005SOL    HW261457   2.438   0.544   8.981  0.9813 -0.7540 -1.5645
20006SOL     OW61458   3.333   6.904   7.678  0.1700  0.0663  0.0271
20006SOL    HW161459   3.316   6.810   7.689  1.5505 -0.1042  0.8968
20006SOL    HW261460   3.419   6.907   7.636 -0.4116  0.9454 -1.1671
20007SOL     OW61461   3.771   3.943   3.157 -0.1425 -0.2294 -0.1773
20007SOL    HW161462   3.682   3.942   3.122  0.3996 -0.3027 -1.6178
20007SOL    HW261463   3.823   3.984   3.088  0.5662  2.0771  1.6019
20008SOL     OW61464   7.210   1.079   1.406  0.7494 -0.3671  0.1237
20008SOL    HW161465   7.177   0.998   1.444 -2.2735  0.2614 -0.8753
20008SOL    HW261466   7.234   1.055   1.316  0.5322 -0.3038  0.0483
20009SOL     OW61467   2.089   3.709   9.863 -0.4076  0.0871  0.4590
20009SOL    HW161468   2.106   3.653   9.788  0.4241  0.5275  0.3181
20009SOL    HW261469   2.125   3.661   9.938  2.3250  1.3537  0.0714
20010SOL     OW61470   2.071   1.859  11.278  0.1036  0.0226 -0.0514
20010SOL    HW161471   2.009   1.810  11.224  2.1369 -2.9459  0.0251
20010SOL    HW261472   2.157   1.834  11.244  1.3991  4.1055 -0.2927
20011SOL     OW61473   5.671   4.112   0.791  0.1834  0.7526  0.1200
20011SOL    HW161474   5.727   4.174   0.745  2.5190  0.0898  1.8861
20011SOL    HW261475   5.714   4.099   0.876 -0.0961 -3.3146 -0.1653
20012SOL     OW61476   1.920   0.175   7.051 -0.0259 -0.2682  0.3360
20012SOL    HW161477   1.886   0.265   7.052  0.4711 -0.0610 -0.4649
20012SOL    HW261478   1.848   0.123   7.015 -0.4560 -0.2633  1.1579
20013SOL     OW61479   2.574   4.763   7.371  0.2964 -0.1608 -0.0749
20013SOL    HW161480   2.665   4.734   7.379 -0.3039 -1.8955  0.9457
20013SOL    HW261481   2.545   4.731   7.286  0.1588 -1.0808  0.3091
20014SOL     OW61482   4.940   2.482   8.580 -0.7339 -0.3163 -0.1800
20014SOL    HW161483   4.927   2.576   8.594 -2.3070 -0.5112 -0.0784
20014SOL    HW261484   5.035   2.471   8.577 -0.5166  1.2819 -0.2672
20015SOL     OW61485   7.767   7.689  12.135  0.3303 -0.3237 -0.2389
20015SOL    HW161486   7.834   7.757  12.139 -0.0344  0.0213  0.1977
20015SOL    HW261487   7.810   7.612  12.172 -0.4949  0.7656  3.4375
20016SOL     OW61488   7.508   0.202   7.825  0.3339 -0.1703  0.5842
20016SOL    HW161489   7.565   0.163   7.759  0.3807 -0.3691  0.7418
20016SOL    HW261490   7.458   0.129   7.861  0.1534 -0.0310  0.6173
20017SOL     OW61491   5.278   4.623   0.416  0.2206 -0.0444 -0.4095
20017SOL    HW161492   5.352   4.566   0.396  0.3260  0.5009 -1.6658
20017SOL    HW261493   5.207   4.590   0.361 -0.1450  0.1261 -0.0407
20018SOL     OW61494   4.008   0.390   6.625  0.3371  0.3846  0.4228
20018SOL    HW161495   3.969   0.469   6.587  0.5553  0.7070  0.8584
20018SOL    HW261496   4.062   0.354   6.555 -0.2869  0.2462 -0.0004
20019SOL     OW61497   7.411   5.658   2.232  0.4601  0.3222  0.0602
20019SOL    HW161498   7.353   5.678   2.305 -0.0130  1.2752 -0.5624
20019SOL    HW261499   7.443   5.570   2.250 -1.0825 -0.1776  0.4746
20020SOL     OW61500   7.900   7.445   2.884 -0.0250 -0.0895 -0.2467
20020SOL    HW161501   7.924   7.353   2.875  0.8250  0.1092 -0.0834
20020SOL    HW261502   7.982   7.493   2.877 -0.4211  0.6434 -0.0643
20021SOL     OW61503   7.236   2.454   6.073  0.1367  0.6262 -0.1433
20021SOL    HW161504   7.210   2.371   6.033  0.6613  1.1706 -1.7006
20021SOL    HW261505   7.159   2.483   6.121 -0.8264  0.3255 -1.4517
20022SOL     OW61506   0.520   6.349   1.798 -0.0356 -0.2314  0.0418
20022SOL    HW161507   0.597   6.389   1.758  0.7084 -1.0273  0.6535
20022SOL    HW261508   0.497   6.408   1.869 -0.0867  0.0872 -0.2353
20023SOL     OW61509   6.546   0.811   9.626 -0.2636 -0.5243 -0.2662
20023SOL    HW161510   6.470   0.859   9.659 -0.4969 -2.1730  1.8600
20023SOL    HW261511   6.564   0.745   9.694  2.1280 -1.1888 -1.4242
20024SOL     OW61512   5.367   0.827  10.900  0.2860  0.3713  0.4003
20024SOL    HW161513   5.318   0.853  10.823  1.0713 -2.2953 -1.1184
20024SOL    HW261514   5.455   0.864  10.886 -0.1060  1.6691  1.1274
20025SOL     OW61515   1.566   6.814  10.956  0.3871 -0.5582  0.3663
20025SOL    HW161516   1.626   6.853  10.893 -1.3262  0.2880 -0.8351
20025SOL    HW261517   1.542   6.729  10.918  1.2163 -1.1496  1.1210
20026SOL     OW61518   0.664   3.274   1.529  0.3434 -0.2829  0.1360
20026SOL    HW161519   0.638   3.275   1.621 -0.7956  0.5776 -0.1783
20026SOL    HW261520   0.602   3.331   1.485  0.1298 -1.5900 -1.3761
20027SOL     OW61521   7.722   4.125   5.764 -0.7404 -0.1643  0.1179
20027SOL    HW161522   7.750   4.079   5.685 -1.5237 -1.2546  0.4572
20027SOL    HW261523   7.755   4.070   5.836  0.4742  1.1144  0.5792
20028SOL     OW61524   6.189   6.341  12.453  0.3338 -0.3671  0.4226
20028SOL    HW161525   6.166   6.268  12.395 -0.2576  0.0764  0.0946
20028SOL    HW261526   6.152   6.418  12.411  1.7622  0.2725  0.2827
20029SOL     OW61527   0.306   6.136   6.496  0.6238  0.6809 -0.0730
20029SOL    HW161528   0.391   6.103   6.526 -0.4550 -0.9876  1.3218
20029SOL    HW261529   0.294   6.096   6.410  0.6301 -0.2792  0.3577
20030SOL     OW61530   6.558   3.091   8.764  0.1722  0.1766 -0.1860
20030SOL    HW161531   6.548   3.184   8.784  1.9670  0.0446  1.5944
20030SOL    HW261532   6.504   3.047   8.829  1.3934 -0.0765  0.6884
20031SOL     OW61533   7.582   7.915  11.081  0.0944  0.3193  0.4617
20031SOL    HW161534   7.598   8.008  11.097 -1.1313  0.2852  2.2417
20031SOL    HW261535   7.656   7.871  11.123  1.4115  0.4859 -1.5739
20032SOL     OW61536   6.898   6.583   8.565 -0.1625 -0.0815 -0.3720
20032SOL    HW161537   6.896   6.539   8.480  0.4909  0.5818 -0.7362
20032SOL    HW261538   6.806   6.607   8.582 -0.4689 -1.2206 -0.3435
20033SOL     OW61539   4.615   5.102   8.526 -0.1985  0.2994 -0.4143
20033SOL    HW161540   4.533   5.053   8.521 -0.1332  0.0641  0.5608
20033SOL    HW261541   4.667   5.054   8.591  0.2927  1.0546 -0.2363
20034SOL     OW61542   7.104   1.430   9.368 -0.1524 -0.0948 -0.4150
20034SOL    HW161543   7.013   1.436   9.338 -1.1495 -1.9311  1.9355
20034SOL    HW261544   7.118   1.336   9.383  1.3271  0.3663  1.4527
20035SOL     OW61545   3.438   2.050   8.805  0.4628  0.0904  0.8317
20035SOL    HW161546   3.342   2.056   8.806  0.4756  0.5211  2.0760
20035SOL    HW261547   3.460   2.017   8.718 -0.7353  1.3459  0.0099
20036SOL     OW61548   1.322   1.616  11.127  0.2127  0.5852 -0.6590
20036SOL    HW161549   1.345   1.587  11.039 -0.4433 -1.0142 -0.3294
20036SOL    HW261550   1.328   1.712  11.122  0.6331  0.5128 -2.3025
20037SOL     OW61551   2.297   3.204   7.786  0.4064 -0.1912 -0.1342
20037SOL    HW161552   2.362   3.193   7.856  1.4783  0.1456 -1.0540
20037SOL    HW261553   2.327   3.146   7.716 -1.4825 -1.6898  0.2130
20038SOL     OW61554   3.046   4.806   9.548 -0.5511  0.0221  0.0148
20038SOL    HW161555   2.997   4.728   9.573 -0.8023 -0.0839 -0.7646
20038SOL    HW261556   3.106   4.821   9.621 -0.8496 -0.6017  0.4009
20039SOL     OW61557   7.252   0.164   8.457 -0.8864 -0.0322 -0.1398
20039SOL    HW161558   7.230   0.148   8.548  1.3281 -0.6379  0.3570
20039SOL    HW261559   7.249   0.077   8.416  1.3393 -0.3345  0.1960
20040SOL     OW61560   4.750   3.124   6.297  0.3901 -0.5403  0.2412
20040SOL    HW161561   4.778   3.078   6.375  0.0012  0.3578  0.9322
20040SOL    HW261562   4.786   3.212   6.307  0.0334 -0.3139 -0.4158
20041SOL     OW61563   1.114   2.583   2.425 -0.2730 -0.3310  0.0314
20041SOL    HW161564   1.104   2.488   2.432 -0.4532 -0.3746 -0.7430
20041SOL    HW261565   1.161   2.596   2.343 -1.4024  0.3134 -0.5325
20042SOL     OW61566   5.092   2.216   9.940 -0.1100 -0.2056 -0.1733
20042SOL    HW161567   5.111   2.302   9.978  1.1941 -0.6551  0.2253
20042SOL    HW261568   5.038   2.236   9.863 -0.1282  0.9422  0.1100
20043SOL     OW61569   5.514   1.215   8.170 -0.2270 -0.3104 -0.1196
20043SOL    HW161570   5.605   1.217   8.200 -0.1302 -0.1356 -0.4199
20043SOL    HW261571   5.478   1.135   8.208  0.0693 -0.4140 -0.0531
20044SOL     OW61572   2.043   0.363   1.319  0.1113  0.2838  0.2611
20044SOL    HW161573   2.034   0.450   1.357  1.5036  1.2227 -1.4065
20044SOL    HW261574   2.108   0.320   1.375 -0.7881  0.1766  1.2568
20045SOL     OW61575   6.429   6.104   6.076 -0.0086 -0.4900  0.0169
20045SOL    HW161576   6.509   6.051   6.074  0.0352 -0.4691  0.9099
20045SOL    HW261577   6.444   6.173   6.011 -0.2679 -1.8422 -1.5424
20046SOL     OW61578   5.382   4.901   7.246  0.1828  0.1577 -0.5248
20046SOL    HW161579   5.393   4.822   7.193 -2.2038 -0.6906  0.1127
20046SOL    HW261580   5.347   4.870   7.329  0.1545  1.7986  0.1081
20047SOL     OW61581   7.119   7.485   5.681  0.4981 -0.0440 -0.1209
20047SOL    HW161582   7.137   7.575   5.709 -0.8068  0.4953 -0.9258
20047SOL    HW261583   7.123   7.488   5.586  2.5203 -1.3386 -0.1408
20048SOL     OW61584   2.011   4.836   3.697 -0.2797  0.2076  0.2677
20048SOL    HW161585   2.087   4.890   3.718  1.4672 -1.0041 -2.3478
20048SOL    HW261586   2.039   4.784   3.622 -2.9569 -1.9990  0.6484
20049SOL     OW61587   7.012   3.687   5.978  0.2085 -0.3013  0.4947
20049SOL    HW161588   7.085   3.625   5.973  1.5063  1.1035  1.1710
20049SOL    HW261589   6.964   3.661   6.057 -0.0367 -1.2316  0.0525
20050SOL     OW61590   0.768   5.251   8.715  0.1699  0.2726 -0.1717
20050SOL    HW161591   0.796   5.213   8.631  2.1058  1.9343 -0.3673
20050SOL    HW261592   0.760   5.176   8.773  0.7126 -0.7502 -1.3494
20051SOL     OW61593   1.928   6.979   9.163 -0.0669  0.1238 -0.1937
20051SOL    HW161594   1.853   6.990   9.221 -1.1038  0.3763 -1.5268
20051SOL    HW261595   1.908   6.902   9.111  1.0475 -0.3597  0.0537
20052SOL     OW61596   4.791   6.048   0.570 -0.3058 -0.1315  0.4178
20052SOL    HW161597   4.837   6.121   0.611  0.8246 -1.5590  1.8037
20052SOL    HW261598   4.827   6.045   0.481 -0.1102  0.7590  0.4493
20053SOL     OW61599   3.106   4.202  10.906 -0.4219  0.0837  0.1196
20053SOL    HW161600   3.132   4.293  10.893 -0.6591  0.5187  2.3126
20053SOL    HW261601   3.043   4.184  10.836  0.1769  1.3527 -0.7806
20054SOL     OW61602   7.547   3.101   3.539  0.1571 -0.7306 -0.0266
20054SOL    HW161603   7.577   3.011   3.542 -0.5374 -1.0024 -0.7695
20054SOL    HW261604   7.452   3.095   3.553 -0.1787 -0.3141 -1.9107
20055SOL     OW61605   4.946   7.213   6.359  0.3044  0.1844 -1.3664
20055SOL    HW161606   4.926   7.162   6.280 -2.0506 -1.5039  0.2220
20055SOL    HW261607   4.995   7.153   6.415  1.6466  1.2604 -1.3158
20056SOL     OW61608   3.710   0.857   8.327  0.0866  0.0502  0.4702
20056SOL    HW161609   3.639   0.910   8.290  1.6771  1.6927 -0.4074
20056SOL    HW261610   3.769   0.842   8.253  2.0703  1.1878  1.7348
20057SOL     OW61611   7.828   0.776   3.713 -0.1792 -0.5677 -0.2900
20057SOL    HW161612   7.800   0.753   3.801 -1.8797  0.1733 -0.5890
20057SOL    HW261613   7.769   0.728   3.655  3.0400 -3.8282 -1.2488
20058SOL     OW61614   3.239   3.783   1.692 -0.0324 -0.3481 -0.2102
20058SOL    HW161615   3.299   3.795   1.618  2.4866 -0.0880  1.7373
20058SOL    HW261616   3.261   3.697   1.727 -1.8928 -0.9081 -0.2904
20059SOL     OW61617   2.764   3.096   3.546  0.2068  0.3763  0.2086
20059SOL    HW161618   2.784   3.012   3.503 -2.0358  1.2168 -2.8808
20059SOL    HW261619   2.846   3.145   3.539  0.8929 -0.7440 -0.0624
20060SOL     OW61620   6.819   7.008   8.090  0.4219  0.3427 -0.4795
20060SOL    HW161621   6.912   6.987   8.088  0.2820 -0.2380 -1.0818
20060SOL    HW261622   6.800   7.043   8.003 -0.5620 -2.4343 -1.4804
20061SOL     OW61623   3.557   3.408   3.538 -0.0549 -0.1814 -0.0582
20061SOL    HW161624   3.650   3.384   3.540 -0.2536 -1.0460 -0.8247
20061SOL    HW261625   3.544   3.457   3.619  0.8841 -0.7508  0.4602
20062SOL     OW61626   2.432   1.041   2.528 -0.1985  0.4974  0.3386
20062SOL    HW161627   2.421   1.105   2.457 -0.5505  0.1508  0.0730
20062SOL    HW261628   2.344   1.005   2.542  0.3071 -1.4409 -0.9710
20063SOL     OW61629   2.993   4.815  12.404 -0.0734 -0.1557  0.3792
20063SOL    HW161630   3.058   4.786  12.340 -0.6323  0.4107 -0.4505
20063SOL    HW261631   2.964   4.900  12.373  0.5413  0.7335  2.0526
20064SOL     OW61632   4.303   5.865   2.336  0.4710 -0.6113 -0.2327
20064SOL    HW161633   4.393   5.900   2.331  0.2694 -0.0575 -0.0508
20064SOL    HW261634   4.249   5.934   2.299 -0.1283  0.0021  1.6935
20065SOL     OW61635   1.325   7.768  11.662 -0.3394  0.5853 -0.1910
20065SOL    HW161636   1.274   7.840  11.699 -0.7970  0.7303 -1.0753
20065SOL    HW261637   1.364   7.805  11.583  2.0208  0.8065  0.9732
20066SOL     OW61638   1.402   4.543   2.626  0.0914  0.0643 -0.1052
20066SOL    HW161639   1.327   4.597   2.650  0.2470 -0.1535  0.9216
20066SOL    HW261640   1.478   4.594   2.654  0.3550  0.3908 -1.3537
20067SOL     OW61641   0.033   5.938   7.645  0.1149  0.6805 -0.5501
20067SOL    HW161642   0.016   5.852   7.684  3.6890  0.4173  0.8441
20067SOL    HW261643   0.044   5.920   7.552 -0.0246 -0.2452 -0.3987
20068SOL     OW61644   2.394   5.928   4.800  0.0122 -0.5294  0.1889
20068SOL    HW161645   2.487   5.922   4.822 -0.3851 -1.4250  1.8149
20068SOL    HW261646   2.379   6.021   4.783  0.7310  0.0139  2.2601
20069SOL     OW61647   7.754   6.580   2.919  0.1203  0.6622 -0.0467
20069SOL    HW161648   7.788   6.530   2.845  1.8929  1.0262  0.4594
20069SOL    HW261649   7.830   6.591   2.977 -1.0039  1.1537  1.3910
20070SOL     OW61650   7.402   5.552   4.088  0.4287  1.0575 -0.0159
20070SOL    HW161651   7.317   5.580   4.122  0.5306  1.4067 -0.0413
20070SOL    HW261652   7.397   5.456   4.085 -0.9237  1.1220 -2.4894
20071SOL     OW61653   6.067   6.091   2.955 -0.3189  0.2792 -0.1532
20071SOL    HW161654   5.977   6.081   2.924  0.2445  1.6515 -2.4382
20071SOL    HW261655   6.121   6.072   2.878  1.3239  0.4394  0.9185
20072SOL     OW61656   4.081   1.511   5.614  0.0221 -0.2924  0.4161
20072SOL    HW161657   3.992   1.538   5.640 -0.3087 -0.8869 -0.0827
20072SOL    HW261658   4.113   1.584   5.561 -0.0148  0.0990  0.9244
20073SOL     OW61659   5.470   4.338   5.966  0.1132  0.0521  0.2888
20073SOL    HW161660   5.485   4.248   5.993 -0.4912 -0.1030  0.1294
20073SOL    HW261661   5.397   4.368   6.020 -1.7469 -0.5721 -1.7436
20074SOL     OW61662   5.199   6.920   8.909  0.0042  0.6285 -0.7539
20074SOL    HW161663   5.251   6.975   8.968  0.8983  0.2626 -1.1980
20074SOL    HW261664   5.252   6.842   8.895 -0.9515 -0.0407 -0.6997
20075SOL     OW61665   2.136   3.795   4.717  0.0823  0.3924 -0.7886
20075SOL    HW161666   2.046   3.777   4.745  0.7224 -0.3860  0.8776
20075SOL    HW261667   2.190   3.736   4.770  1.5053 -0.0963 -2.6558
20076SOL     OW61668   1.457   0.492   7.976  0.2025 -0.1368 -0.5973
20076SOL    HW161669   1.425   0.581   7.988  1.8709  0.5112 -0.6696
20076SOL    HW261670   1.461   0.456   8.064  3.2174  1.2702 -0.0194
20077SOL     OW61671   2.256   6.725   9.338  0.1125  0.7345 -0.4544
20077SOL    HW161672   2.239   6.791   9.406 -1.4334  1.0391 -1.0981
20077SOL    HW261673   2.352   6.719   9.334  0.2941  0.0270  2.3772
20078SOL     OW61674   6.314   2.476   9.334 -0.4376  0.0058  0.0964
20078SOL    HW161675   6.232   2.465   9.287  0.1230  1.8740 -1.4325
20078SOL    HW261676   6.342   2.387   9.355 -1.3931 -0.8399 -1.9639
20079SOL     OW61677   1.783   2.200   7.806 -0.4406 -0.2376  0.0226
20079SOL    HW161678   1.761   2.260   7.735 -0.4279 -1.1044 -0.7391
20079SOL    HW261679   1.878   2.206   7.813 -0.3845 -0.5607 -0.4188
20080SOL     OW61680   4.056   1.620   2.713 -0.2645  0.2609  0.0239
20080SOL    HW161681   4.056   1.529   2.743  0.9155  0.6021  1.1387
20080SOL    HW261682   4.017   1.669   2.786 -1.2157  0.6153 -0.7119
20081SOL     OW61683   6.575   6.142   5.393  0.2803  0.0273  0.1616
20081SOL    HW161684   6.542   6.090   5.467 -1.6293 -1.3136 -1.5096
20081SOL    HW261685   6.571   6.233   5.423  0.8451 -0.5639  2.1356
20082SOL     OW61686   3.915   2.749   9.962  0.7201  0.1419 -0.7483
20082SOL    HW161687   4.011   2.746   9.960  0.7010 -0.4995 -0.8398
20082SOL    HW261688   3.888   2.710   9.879  0.3707 -0.5352 -0.3231
20083SOL     OW61689   6.097   1.360  11.803 -0.1511 -0.1467 -0.8715
20083SOL    HW161690   6.115   1.444  11.760 -2.6030  0.8559 -0.0739
20083SOL    HW261691   6.002   1.356  11.810  0.0102 -1.8748  1.3671
20084SOL     OW61692   5.823   2.176  10.355  0.3484 -0.1850 -0.2301
20084SOL    HW161693   5.822   2.255  10.409  1.6049 -1.2045  1.3625
20084SOL    HW261694   5.773   2.200  10.277 -0.1942  1.8366  0.6774
20085SOL     OW61695   7.233   6.981   4.688 -0.6988  0.3696 -0.1766
20085SOL    HW161696   7.204   7.050   4.748 -0.5831 -0.7270  1.1791
20085SOL    HW261697   7.297   7.025   4.631  0.0959  1.1745  1.2708
20086SOL     OW61698   6.819   3.963   7.999 -0.3901  0.5454  0.3248
20086SOL    HW161699   6.866   3.880   7.995  0.7736  1.1928  0.2659
20086SOL    HW261700   6.808   3.979   8.093  0.2710  0.8201  0.3533
20087SOL     OW61701   3.615   6.579   4.535 -0.2635 -0.3191  0.5502
20087SOL    HW161702   3.645   6.630   4.460 -1.7319 -1.8080 -1.1292
20087SOL    HW261703   3.696   6.548   4.577  0.5968 -0.2976 -1.0279
20088SOL     OW61704   3.977   6.212   1.236  0.0442  0.0648 -0.0586
20088SOL    HW161705   3.907   6.148   1.237  0.8930 -0.9097 -0.7829
20088SOL    HW261706   3.951   6.276   1.170  0.0877 -0.6050 -0.7386
20089SOL     OW61707   0.713   0.694   3.255  0.1106  0.3708  0.1525
20089SOL    HW161708   0.744   0.615   3.299  0.8260  0.4168 -0.2437
20089SOL    HW261709   0.762   0.765   3.297  0.1756  0.4984 -0.1343
20090SOL     OW61710   4.574   1.084   8.610 -0.0935 -0.6722  0.3823
20090SOL    HW161711   4.574   1.064   8.517 -0.4767  0.9419  0.0109
20090SOL    HW261712   4.660   1.057   8.641  0.9823  1.0420 -0.9775
20091SOL     OW61713   2.182   5.042  11.094  0.1828 -0.3607 -0.3306
20091SOL    HW161714   2.117   5.051  11.025  0.0978 -0.0612 -0.2160
20091SOL    HW261715   2.266   5.046  11.049  0.1242 -0.9354 -0.5001
20092SOL     OW61716   6.045   3.362   4.907 -0.1980 -0.1127 -0.1901
20092SOL    HW161717   6.025   3.272   4.879 -0.8936  0.1122 -0.4440
20092SOL    HW261718   5.991   3.417   4.851 -0.7943  0.4039  0.8547
20093SOL     OW61719   4.044   4.465   8.037 -0.1890  0.3119 -0.4109
20093SOL    HW161720   3.963   4.488   7.991  0.7106  2.1706 -1.1622
20093SOL    HW261721   4.055   4.533   8.103  0.6599 -0.0217 -0.1957
20094SOL     OW61722   5.771   3.385   7.983 -0.2430  0.1996 -0.5810
20094SOL    HW161723   5.860   3.352   7.976 -0.0751  0.7570 -1.1841
20094SOL    HW261724   5.749   3.376   8.076 -0.0326 -1.1136 -0.6520
20095SOL     OW61725   0.016   5.979   5.870  0.9652 -0.3747  0.3623
20095SOL    HW161726   0.030   5.897   5.823 -1.5726  1.1933 -3.8063
20095SOL    HW261727   0.100   6.024   5.867  1.5336 -1.4581 -0.3802
20096SOL     OW61728   7.315   2.600   9.300  0.6407 -0.7852 -0.4161
20096SOL    HW161729   7.331   2.665   9.369  3.3269 -0.8293 -0.9092
20096SOL    HW261730   7.308   2.652   9.220 -0.0959 -0.9243 -0.4520
20097SOL     OW61731   0.206   0.815   9.136 -0.2557 -0.3123  0.0610
20097SOL    HW161732   0.157   0.739   9.106 -0.8555  0.8901 -2.2368
20097SOL    HW261733   0.226   0.864   9.057  0.9815  1.4321  1.3639
20098SOL     OW61734   3.462   5.573  11.469 -0.5085  0.1136  0.5348
20098SOL    HW161735   3.503   5.559  11.383 -0.7105  1.4290  0.2021
20098SOL    HW261736   3.368   5.567  11.451 -0.5647  0.7833  0.5703
20099SOL     OW61737   6.315   4.100   0.729 -0.1764 -0.4767  0.2791
20099SOL    HW161738   6.280   4.130   0.813  0.6363 -0.1447  0.5173
20099SOL    HW261739   6.342   4.180   0.685  0.3641 -0.7247  0.1494
20100SOL     OW61740   0.022   1.665   1.100  0.7344  0.0835  0.0101
20100SOL    HW161741  -0.011   1.747   1.136  0.4222  0.0039 -0.0930
20100SOL    HW261742   0.117   1.673   1.105  0.7011  0.3405  0.2496
20101SOL     OW61743   4.509   5.010   2.388  0.3890 -0.3909 -0.4465
20101SOL    HW161744   4.487   4.972   2.303  1.1697 -0.9440 -0.4115
20101SOL    HW261745   4.604   5.014   2.388  0.3903 -0.3285  0.3774
20102SOL     OW61746   1.802   6.665   0.237  0.0135 -0.2267  0.1908
20102SOL    HW161747   1.730   6.726   0.227 -1.3999 -1.8502 -0.0911
20102SOL    HW261748   1.863   6.687   0.166 -0.5772  0.6685 -0.0458
20103SOL     OW61749   7.803   2.790   5.484 -0.0767 -0.0312  0.3609
20103SOL    HW161750   7.793   2.759   5.574 -0.6206  1.2245  0.7604
20103SOL    HW261751   7.882   2.844   5.485 -1.1594  1.6220  0.6001
20104SOL     OW61752   2.061   3.599   6.546 -0.3587 -0.4507  0.9002
20104SOL    HW161753   2.075   3.516   6.500  0.9341  0.2754 -0.0833
20104SOL    HW261754   1.975   3.628   6.518  0.1507 -0.3314 -0.6190
20105SOL     OW61755   3.899   6.231   0.457 -0.7320  0.3608 -0.3588
20105SOL    HW161756   3.961   6.162   0.480  0.5060  1.0793 -1.3687
20105SOL    HW261757   3.949   6.312   0.468 -1.7420  1.0217 -0.4681
20106SOL     OW61758   5.746   4.348   6.225  0.3141 -0.4740  0.2665
20106SOL    HW161759   5.664   4.384   6.258  0.2700  1.8541 -2.0969
20106SOL    HW261760   5.763   4.272   6.280 -3.4272 -1.0570  0.8121
20107SOL     OW61761   0.873   6.174  11.380  0.6014  0.3619 -0.1700
20107SOL    HW161762   0.940   6.142  11.320  0.6266  1.0211 -0.5018
20107SOL    HW261763   0.801   6.201  11.323  0.0692 -0.2892  0.1814
20108SOL     OW61764   3.689   0.476   2.273  0.1200 -0.4078  0.2796
20108SOL    HW161765   3.707   0.419   2.348 -0.5770  0.3531  1.0414
20108SOL    HW261766   3.603   0.449   2.242 -1.5941  2.0477  2.4566
20109SOL     OW61767   4.447   7.251   0.953  0.0743 -0.3839  0.1833
20109SOL    HW161768   4.449   7.284   0.863 -1.6229  0.5207  0.4356
20109SOL    HW261769   4.485   7.321   1.005 -3.3691  1.2996  0.6976
20110SOL     OW61770   7.911   6.569   5.852  0.1126  0.2729 -0.2990
20110SOL    HW161771   7.871   6.580   5.938  0.8454  1.7514 -0.1240
20110SOL    HW261772   7.852   6.508   5.807 -0.2795 -0.5389  1.2270
20111SOL     OW61773   6.414   1.911   2.758  0.1217  0.1038  0.2430
20111SOL    HW161774   6.400   1.997   2.719  0.4528  0.5235  1.0259
20111SOL    HW261775   6.486   1.924   2.819 -1.1780 -0.2421  1.9058
20112SOL     OW61776   7.025   1.437   5.679  0.5834 -0.0971  0.3933
20112SOL    HW161777   7.066   1.359   5.642  0.3353  0.8582 -2.0849
20112SOL    HW261778   7.095   1.478   5.730  1.2451 -1.0356  0.2795
20113SOL     OW61779   3.840   1.376   9.224  0.0102  0.2825  0.3977
20113SOL    HW161780   3.917   1.394   9.171 -0.7293  1.4675 -0.3194
20113SOL    HW261781   3.788   1.315   9.172  0.2718 -0.1902  0.6927
20114SOL     OW61782   7.458   6.340   9.068 -0.3556 -0.1465  0.1280
20114SOL    HW161783   7.468   6.348   8.973  4.6586  1.6930  0.4776
20114SOL    HW261784   7.370   6.374   9.086 -1.6729 -0.9641 -3.7756
20115SOL     OW61785   7.090   2.216   6.036 -0.1826  0.0609  0.1895
20115SOL    HW161786   7.009   2.170   6.055  0.1424 -0.2282  0.9167
20115SOL    HW261787   7.147   2.150   5.997 -0.7862  0.6098 -1.7418
20116SOL     OW61788   4.524   3.003   5.975  0.3983  0.5962  0.2498
20116SOL    HW161789   4.430   3.010   5.988  0.3553 -1.2832  1.2070
20116SOL    HW261790   4.544   3.069   5.908 -1.7471  0.2710 -0.7710
20117SOL     OW61791   0.226   6.494   7.593  0.4815 -0.2629 -0.3683
20117SOL    HW161792   0.291   6.447   7.646  0.5414 -3.4193 -2.9680
20117SOL    HW261793   0.268   6.578   7.574  1.4848 -0.0247  2.3621
20118SOL     OW61794   7.387   4.359   6.557 -0.2672 -0.1482 -0.0965
20118SOL    HW161795   7.301   4.319   6.540 -1.6867  2.8846 -0.8634
20118SOL    HW261796   7.448   4.307   6.504 -1.3195 -3.1678  1.4197
20119SOL     OW61797   7.087   6.321   1.743 -0.2456 -0.1353  0.3911
20119SOL    HW161798   7.096   6.239   1.694 -2.7479  0.0195 -0.4892
20119SOL    HW261799   7.086   6.295   1.835  1.8899 -0.7153  0.3155
20120SOL     OW61800   5.761   3.530   7.582  0.1204  0.0366  0.6018
20120SOL    HW161801   5.696   3.461   7.572  0.9947 -0.6652 -0.4319
20120SOL    HW261802   5.710   3.609   7.604 -0.9782 -0.6813  0.6842
20121SOL     OW61803   1.143   7.885  11.387  0.2545 -0.0913  0.5372
20121SOL    HW161804   1.070   7.929  11.344  2.0673  3.5084  0.7759
20121SOL    HW261805   1.121   7.887  11.480  0.4159  0.4780  0.5620
20122SOL     OW61806   7.926   4.316  11.837 -0.2197 -0.1328 -0.1046
20122SOL    HW161807   7.842   4.283  11.869 -0.4110 -0.5132 -0.9816
20122SOL    HW261808   7.985   4.307  11.912 -1.0248  0.4190  0.6147
20123SOL     OW61809   5.337   3.922  10.494 -0.2360 -0.0392  0.2568
20123SOL    HW161810   5.254   3.936  10.540  0.2851  0.1945  1.1638
20123SOL    HW261811   5.391   3.872  10.556  0.1760 -0.5269 -0.4678
20124SOL     OW61812   2.505   7.150   2.537  0.2860 -0.0242 -0.0296
20124SOL    HW161813   2.590   7.177   2.501  0.2730 -0.8546 -0.7280
20124SOL    HW261814   2.506   7.054   2.531 -1.6567 -0.0097 -2.4246
20125SOL     OW61815   3.293   2.838   4.418 -0.1969 -0.0398 -0.2155
20125SOL    HW161816   3.231   2.842   4.345 -0.5343 -0.1157  0.0604
20125SOL    HW261817   3.241   2.866   4.494  0.0718 -0.2362  0.0408
20126SOL     OW61818   4.509   5.103   5.055  0.3563 -0.6186  0.0502
20126SOL    HW161819   4.586   5.095   4.998  1.7514  1.1589  1.5675
20126SOL    HW261820   4.545   5.120   5.142 -1.7505  1.0172  0.6836
20127SOL     OW61821   4.403   2.834  10.436  0.2682  0.0837  0.3732
20127SOL    HW161822   4.406   2.745  10.469 -0.1112 -0.1637 -0.2336
20127SOL    HW261823   4.452   2.886  10.500  0.7774 -0.6116  0.5541
20128SOL     OW61824   6.409   5.772   2.714 -0.7068 -0.1478 -0.1831
20128SOL    HW161825   6.439   5.722   2.791 -1.9311 -0.7569 -0.0710
20128SOL    HW261826   6.349   5.713   2.669 -1.6083  0.9513 -0.4752
20129SOL     OW61827   5.310   5.445   6.378 -0.8649  0.2878  0.1838
20129SOL    HW161828   5.249   5.451   6.452 -0.2136  0.1268  0.7349
20129SOL    HW261829   5.397   5.445   6.417 -0.4945  0.5740 -0.6049
20130SOL     OW61830   0.408   7.426   9.463 -0.3769 -0.8679 -0.4180
20130SOL    HW161831   0.458   7.362   9.412  2.0737 -0.3167  1.1402
20130SOL    HW261832   0.373   7.376   9.537  1.8504 -0.4890  1.0065
20131SOL     OW61833   7.609   4.101   9.381  0.1602 -0.3683  0.3853
20131SOL    HW161834   7.534   4.076   9.435  0.2032  0.0280  0.6250
20131SOL    HW261835   7.621   4.026   9.322 -0.5344 -0.3590  0.2235
20132SOL     OW61836   6.152   2.598   8.410 -0.0413  0.1848 -0.3175
20132SOL    HW161837   6.086   2.667   8.419 -1.0227 -0.6882 -0.6713
20132SOL    HW261838   6.211   2.631   8.342 -0.8915  0.3925 -0.9787
20133SOL     OW61839   7.173   6.436   4.187 -0.2895  0.2752 -0.3818
20133SOL    HW161840   7.097   6.422   4.131 -0.3815  0.9834 -0.4470
20133SOL    HW261841   7.149   6.511   4.242 -0.7058 -1.1399  1.4901
20134SOL     OW61842   5.710   0.939  12.080  0.6462  0.0416  0.6246
20134SOL    HW161843   5.705   0.937  12.175 -1.1823  2.2374  0.6559
20134SOL    HW261844   5.755   1.021  12.060 -0.2806  0.3305 -0.3839
20135SOL     OW61845   5.868   4.695   8.521 -0.3356 -0.0274  0.2664
20135SOL    HW161846   5.938   4.707   8.456 -0.0600 -0.8250  0.4094
20135SOL    HW261847   5.850   4.784   8.553  0.2932  0.2405 -0.1010
20136SOL     OW61848   7.341   6.434   2.124  0.3709  0.4662  0.3810
20136SOL    HW161849   7.268   6.452   2.183  1.7651  0.6332  2.1234
20136SOL    HW261850   7.305   6.373   2.060 -0.7445 -1.2286  2.4833
20137SOL     OW61851   5.435   0.137   0.248 -0.2101  0.2435  0.2009
20137SOL    HW161852   5.417   0.121   0.155  0.4837 -2.1043  0.4116
20137SOL    HW261853   5.378   0.076   0.294  0.1807  0.6847  1.2997
20138SOL     OW61854   0.293   0.002   2.204  0.3428  0.8401  0.4495
20138SOL    HW161855   0.228  -0.029   2.140 -0.4204  0.2017  1.5134
20138SOL    HW261856   0.351   0.058   2.153 -1.4499  2.0209 -0.3952
20139SOL     OW61857   4.450   2.859   7.655  0.8231  0.5489  0.1985
20139SOL    HW161858   4.494   2.869   7.740 -0.1568 -0.2524  0.8203
20139SOL    HW261859   4.402   2.777   7.662 -0.7446  1.3750 -0.4624
20140SOL     OW61860   4.225   7.428   9.440  0.6301 -0.3920 -0.2267
20140SOL    HW161861   4.162   7.470   9.382  1.3989 -0.6563 -1.2821
20140SOL    HW261862   4.308   7.473   9.422  0.8690 -0.4254  0.7327
20141SOL     OW61863   3.013   2.221   1.740 -0.0630 -0.0564 -0.2061
20141SOL    HW161864   3.104   2.222   1.769  0.5241  0.5154 -1.9748
20141SOL    HW261865   2.978   2.307   1.767 -0.3017 -0.5323  1.0619
20142SOL     OW61866   5.999   3.108   4.841  0.2183  0.7024 -0.0935
20142SOL    HW161867   6.008   3.062   4.925 -3.2074  1.5306  0.8519
20142SOL    HW261868   5.985   3.039   4.777  2.0270  0.1213  0.0572
20143SOL     OW61869   3.607   4.184  12.282 -0.8038  0.7764 -0.0898
20143SOL    HW161870   3.683   4.148  12.235 -0.6540  0.5712  0.3081
20143SOL    HW261871   3.573   4.110  12.332 -1.5260  0.7594 -0.5940
20144SOL     OW61872   5.834   3.074   8.051 -0.1296  0.5023  0.0849
20144SOL    HW161873   5.903   3.008   8.043  0.4859  1.0148  0.9934
20144SOL    HW261874   5.795   3.057   8.137  0.8075  2.0263  0.8573
20145SOL     OW61875   4.982   5.979   2.947 -0.2051  0.2762  0.2378
20145SOL    HW161876   5.002   6.047   2.883 -2.3263  1.9380  1.2263
20145SOL    HW261877   4.945   5.907   2.895  3.2905 -0.8240 -0.9841
20146SOL     OW61878   0.314   0.963   6.297 -0.3804 -0.0218  0.2972
20146SOL    HW161879   0.360   1.020   6.359  0.3091  0.1324 -0.3348
20146SOL    HW261880   0.368   0.965   6.219 -1.4063  0.0555 -0.4349
20147SOL     OW61881   5.414   4.990   2.567 -0.1456  0.6106 -0.7106
20147SOL    HW161882   5.351   4.994   2.495 -1.4479  0.3417  0.3787
20147SOL    HW261883   5.382   4.919   2.623  0.8998  0.7510  0.0943
20148SOL     OW61884   5.281   7.206   1.357 -0.2897 -1.1922 -0.0039
20148SOL    HW161885   5.339   7.132   1.375 -0.5691 -0.8707  2.5963
20148SOL    HW261886   5.214   7.201   1.425 -1.7501  0.0486 -1.2783
20149SOL     OW61887   7.430   2.937   1.994  0.1511 -0.0054  0.1946
20149SOL    HW161888   7.348   2.927   1.945 -0.2722  2.5899  0.1855
20149SOL    HW261889   7.401   2.950   2.085  0.5937  0.1457  0.3153
20150SOL     OW61890   6.687   1.539   1.254 -0.2441  0.4781  0.5958
20150SOL    HW161891   6.702   1.595   1.178  1.6358  0.3421  0.8047
20150SOL    HW261892   6.722   1.454   1.229 -3.1714 -0.7379  0.2473
20151SOL     OW61893   7.376   3.883   4.803  0.3979 -0.0262 -0.7523
20151SOL    HW161894   7.382   3.874   4.898  0.1100  0.3646 -0.6972
20151SOL    HW261895   7.467   3.896   4.775  0.3743  0.9390 -0.4183
20152SOL     OW61896   1.745   7.630  11.474 -0.1348  0.1796  0.1729
20152SOL    HW161897   1.814   7.603  11.413 -0.2381  0.2452  0.0258
20152SOL    HW261898   1.705   7.548  11.503  1.5025 -0.0253  2.0495
20153SOL     OW61899   1.372   5.046   1.050 -0.4368  0.4274 -0.2298
20153SOL    HW161900   1.340   4.957   1.040 -0.6777  0.5970 -1.0414
20153SOL    HW261901   1.393   5.054   1.143 -2.0876  0.0806  0.1969
20154SOL     OW61902   5.429   4.471   8.008 -0.1694 -1.0236 -0.4270
20154SOL    HW161903   5.375   4.396   7.984  1.0839 -1.6558 -1.3635
20154SOL    HW261904   5.469   4.447   8.091 -0.1906 -1.1710 -0.4591
20155SOL     OW61905   1.327   5.102   0.770 -0.0918 -0.2533 -0.0060
20155SOL    HW161906   1.367   5.187   0.752 -1.3641  0.4367  0.2934
20155SOL    HW261907   1.367   5.074   0.853  0.7590 -0.2309 -0.3987
20156SOL     OW61908   2.603   5.822   7.768 -0.2558  0.1121  0.3229
20156SOL    HW161909   2.533   5.802   7.706  1.8970 -0.0617 -2.2225
20156SOL    HW261910   2.636   5.737   7.796 -1.6111  0.1723  2.3406
20157SOL     OW61911   5.698   0.185   9.362  0.2265 -0.0168 -0.1297
20157SOL    HW161912   5.746   0.258   9.323 -1.8243  0.5825 -1.7060
20157SOL    HW261913   5.640   0.154   9.292  0.6709 -2.8801  0.6381
20158SOL     OW61914   7.758   5.497  10.343 -0.5607  0.3377 -0.2514
20158SOL    HW161915   7.836   5.460  10.385 -1.3512  0.3363  1.2992
20158SOL    HW261916   7.732   5.431  10.278  0.5257  0.1962 -0.5676
20159SOL     OW61917   4.053   7.651   0.115 -1.0578 -0.1935  0.6104
20159SOL    HW161918   4.010   7.735   0.131  0.2259  0.5926  0.0718
20159SOL    HW261919   4.130   7.652   0.173 -0.8034 -0.8182  0.2934
20160SOL     OW61920   5.537   5.551  10.560  0.0479 -0.1451  0.3679
20160SOL    HW161921   5.627   5.555  10.593  0.3541 -1.0572 -0.2955
20160SOL    HW261922   5.483   5.540  10.638  0.7767 -2.5151  0.6117
20161SOL     OW61923   7.824   0.934  11.827 -0.3008  0.1170 -0.1650
20161SOL    HW161924   7.770   0.891  11.893 -1.4894 -0.9134 -1.7309
20161SOL    HW261925   7.806   1.027  11.838 -1.6350 -0.1405  0.0166
20162SOL     OW61926   6.026   4.294   2.357  0.0159  0.4652  0.4821
20162SOL    HW161927   6.028   4.387   2.378 -1.9893  0.8412 -0.7524
20162SOL    HW261928   5.957   4.258   2.412 -0.8968  0.2164 -0.7922
20163SOL     OW61929   2.940   6.627   1.822 -0.1431 -0.5694 -0.6227
20163SOL    HW161930   2.988   6.709   1.817 -0.0461 -0.6112 -0.3800
20163SOL    HW261931   3.000   6.561   1.787  0.0538 -0.6527 -0.1409
20164SOL     OW61932   4.403   2.014   4.134 -0.1943 -0.2775 -0.5976
20164SOL    HW161933   4.451   1.946   4.181  2.7388  1.0802 -1.4214
20164SOL    HW261934   4.339   2.046   4.198  1.3386 -0.8336  1.3228
20165SOL     OW61935   2.939   0.677  12.432 -0.1879  0.8036 -0.1851
20165SOL    HW161936   2.942   0.630  12.515 -1.3578 -1.3321 -1.2404
20165SOL    HW261937   3.012   0.640  12.382  0.3619  1.8989 -0.2160
20166SOL     OW61938   4.425   7.621  10.256  0.0591  0.0052 -0.2766
20166SOL    HW161939   4.470   7.674  10.321 -0.4676  0.0357  0.0710
20166SOL    HW261940   4.386   7.550  10.306  1.2701 -1.0791 -0.8095
20167SOL     OW61941   6.168   5.580   1.871 -0.3072 -0.5607  0.0468
20167SOL    HW161942   6.128   5.649   1.924  0.1335  0.8852 -1.4280
20167SOL    HW261943   6.230   5.537   1.930 -1.7840 -0.8284  1.4702
20168SOL     OW61944   7.359   2.425   2.642 -0.3080 -0.1822 -0.2095
20168SOL    HW161945   7.349   2.483   2.567 -0.4827 -0.7009 -0.5907
20168SOL    HW261946   7.375   2.339   2.604 -1.5532 -0.6721  0.3270
20169SOL     OW61947   6.882   2.102   0.138 -0.0363  0.0340 -0.2316
20169SOL    HW161948   6.880   2.190   0.101 -1.8613 -0.1853 -0.7438
20169SOL    HW261949   6.815   2.103   0.207  2.5392  0.1137  2.4723
20170SOL     OW61950   4.832   5.820   6.375 -0.1353  0.6078 -0.4418
20170SOL    HW161951   4.827   5.892   6.439  1.7542 -0.2702  0.8239
20170SOL    HW261952   4.845   5.742   6.429 -0.0491 -0.3888 -1.8565
20171SOL     OW61953   0.393   3.965   8.697 -0.3926 -0.6133  0.2744
20171SOL    HW161954   0.319   3.995   8.643 -0.1016 -2.0039 -0.9668
20171SOL    HW261955   0.448   3.916   8.636  0.6840 -1.0420  1.5605
20172SOL     OW61956   2.523   5.244   7.569 -0.4110 -0.0752 -0.4199
20172SOL    HW161957   2.568   5.327   7.554  1.6463 -1.1831 -0.8335
20172SOL    HW261958   2.435   5.257   7.534 -0.2862  2.0530 -0.0450
20173SOL     OW61959   2.440   1.820   8.117  0.3234  0.3308  0.2536
20173SOL    HW161960   2.471   1.766   8.188  2.5328 -2.0127 -2.2747
20173SOL    HW261961   2.483   1.905   8.130 -0.3217  0.4036  2.2801
20174SOL     OW61962   2.270   2.845  12.127  0.5645  0.6030  0.2485
20174SOL    HW161963   2.182   2.861  12.092 -0.3257 -1.1608  1.4509
20174SOL    HW261964   2.327   2.843  12.051 -1.0810 -1.9226 -1.0484
20175SOL     OW61965   6.117   4.016   1.973 -0.1608  0.3084  0.1633
20175SOL    HW161966   6.039   3.963   1.962  0.3557 -0.5397  0.4876
20175SOL    HW261967   6.144   4.002   2.064  0.7890 -0.0150 -0.1489
20176SOL     OW61968   7.525   1.146   4.347 -0.4101 -0.2845  0.0304
20176SOL    HW161969   7.542   1.198   4.426 -2.2692 -0.9251  0.9140
20176SOL    HW261970   7.507   1.211   4.279  1.6968  0.2890 -0.0403
20177SOL     OW61971   1.860   5.867   0.116  0.2200  0.3502 -0.3899
20177SOL    HW161972   1.921   5.794   0.127  1.6399  1.5750  0.1928
20177SOL    HW261973   1.913   5.938   0.080 -0.2838  2.1337  2.0692
20178SOL     OW61974   2.273   3.438   1.654 -0.3769  0.1672  0.6853
20178SOL    HW161975   2.314   3.492   1.586  0.0063 -0.5162  0.3530
20178SOL    HW261976   2.324   3.456   1.733 -0.3466  0.3997  0.6141
20179SOL     OW61977   1.464   7.919   4.438  0.1120 -0.7625 -0.1465
20179SOL    HW161978   1.489   7.988   4.377  0.3392 -1.1134 -0.4489
20179SOL    HW261979   1.435   7.847   4.383 -0.3224 -0.8373  0.1719
20180SOL     OW61980   5.642   4.589  10.133 -0.5123 -0.0178 -0.2544
20180SOL    HW161981   5.556   4.555  10.108 -0.5726  1.7316 -2.7586
20180SOL    HW261982   5.676   4.628  10.053  3.0040 -1.3069  0.4566
20181SOL     OW61983   5.742   6.337   1.743 -0.1438  0.1197  0.3592
20181SOL    HW161984   5.735   6.416   1.797  0.1736  0.2200  0.2574
20181SOL    HW261985   5.787   6.274   1.799  0.9628  0.4978 -0.0683
20182SOL     OW61986   5.549   1.611   0.763 -0.2477  0.0514  0.3961
20182SOL    HW161987   5.477   1.662   0.725  1.2353  1.9005 -0.0960
20182SOL    HW261988   5.548   1.635   0.856  1.0514  1.8581 -0.0042
20183SOL     OW61989   3.212   6.542   4.766 -0.4419 -0.2963  0.2521
20183SOL    HW161990   3.173   6.469   4.815 -0.6632  0.2543  0.9018
20183SOL    HW261991   3.304   6.518   4.757 -0.6158 -0.8975  0.0135
20184SOL     OW61992   3.414   0.413   5.007 -0.0809 -0.2225 -0.7139
20184SOL    HW161993   3.477   0.473   5.048 -2.3165  0.9174  1.3204
20184SOL    HW261994   3.394   0.454   4.923 -0.4163  1.1107 -0.0165
20185SOL     OW61995   4.092   6.335   9.741  0.1972 -0.2270 -0.6460
20185SOL    HW161996   4.047   6.267   9.692 -0.7868  0.7711 -1.1825
20185SOL    HW261997   4.069   6.416   9.696 -0.1789  0.6676  1.0652
20186SOL     OW61998   5.065   6.771   3.936  0.1656  0.1908 -0.0632
20186SOL    HW161999   5.083   6.850   3.886  0.4915  2.0039  2.7197
20186SOL    HW262000   5.151   6.733   3.953  0.2005  0.4797  0.4372
20187SOL     OW62001   6.131   2.132   4.205  0.7706 -0.2284 -0.1933
20187SOL    HW162002   6.221   2.103   4.204  0.1694 -2.2005 -0.4495
20187SOL    HW262003   6.111   2.152   4.113  1.6230  2.6356  0.1539
20188SOL     OW62004   2.143   5.444   1.202 -0.1101 -0.5286  0.2586
20188SOL    HW162005   2.053   5.474   1.187  0.2818  0.5005 -0.1175
20188SOL    HW262006   2.182   5.512   1.256  0.5634 -0.7750  0.0926
20189SOL     OW62007   2.300   5.267  10.099  0.1022 -0.0207  0.1384
20189SOL    HW162008   2.285   5.340  10.040 -1.0835 -1.0319 -0.8777
20189SOL    HW262009   2.301   5.306  10.187 -1.6310  1.0905 -0.2903
20190SOL     OW62010   5.930   5.246   4.943  0.1638  0.6392  0.3721
20190SOL    HW162011   5.988   5.320   4.964  0.7932  0.2725 -0.0654
20190SOL    HW262012   5.982   5.169   4.963  0.0236  0.2977 -0.5719
20191SOL     OW62013   0.179   7.699   3.772  0.4737 -0.4693 -0.1136
20191SOL    HW162014   0.200   7.676   3.863  1.3598  1.5990  0.2500
20191SOL    HW262015   0.241   7.648   3.720  0.9648 -0.5473  0.5315
20192SOL     OW62016   2.087   6.819   7.413  0.1079  0.2956 -0.2654
20192SOL    HW162017   2.146   6.782   7.479 -0.9793 -0.3723  0.3665
20192SOL    HW262018   2.072   6.909   7.442  0.2801  0.2559 -0.0505
20193SOL     OW62019   6.653   1.959   2.170  0.1758  0.2441 -0.3036
20193SOL    HW162020   6.569   1.971   2.213  0.9628  0.6352  1.2131
20193SOL    HW262021   6.717   1.967   2.240  1.4252 -1.2873 -1.1937
20194SOL     OW62022   4.523   7.880   5.318 -0.2069 -0.2518  0.2409
20194SOL    HW162023   4.578   7.957   5.301 -2.3515  0.9310 -1.9157
20194SOL    HW262024   4.456   7.912   5.379 -1.4446 -0.1943 -1.1065
20195SOL     OW62025   4.502   2.109   2.709 -0.0017 -0.1904 -0.3229
20195SOL    HW162026   4.478   2.085   2.619 -0.4889  1.2265 -0.5924
20195SOL    HW262027   4.579   2.164   2.699 -0.9306  1.2085 -0.0095
20196SOL     OW62028   6.613   0.578   8.280 -0.0658 -0.1501  0.0074
20196SOL    HW162029   6.598   0.616   8.193 -1.7628 -2.3554 -0.7503
20196SOL    HW262030   6.620   0.484   8.264  2.0666 -0.4172  2.0180
20197SOL     OW62031   2.972   5.452   1.951  0.3129 -0.6536  0.5242
20197SOL    HW162032   3.028   5.406   2.013  2.5439 -1.1881 -1.7405
20197SOL    HW262033   2.984   5.406   1.869 -2.0328  0.4104 -0.5096
20198SOL     OW62034   4.417   0.413   3.818  0.2010 -0.3731 -0.2166
20198SOL    HW162035   4.500   0.446   3.851 -1.0153  0.7497  1.9400
20198SOL    HW262036   4.360   0.408   3.895 -1.6165 -1.4746 -1.5463
20199SOL     OW62037   7.006   2.129   3.831  0.3115  0.3814 -0.1475
20199SOL    HW162038   6.922   2.105   3.792 -0.7898  2.4876  0.7446
20199SOL    HW262039   7.045   2.046   3.857 -0.1756 -0.8627 -3.0721
20200SOL     OW62040   5.074   0.790   5.547 -0.2061 -0.6077  0.2935
20200SOL    HW162041   5.131   0.867   5.550  0.3641 -0.9925 -0.1875
20200SOL    HW262042   5.120   0.730   5.487  0.4495 -2.1776  2.2725
20201SOL     OW62043   4.162   5.665   9.233 -0.5442 -0.4129  0.4736
20201SOL    HW162044   4.250   5.702   9.239 -0.4750 -0.4370 -0.2486
20201SOL    HW262045   4.106   5.728   9.278 -0.2779  0.0556  0.1584
20202SOL     OW62046   6.194   1.043   2.404 -0.4628  0.0388  0.5425
20202SOL    HW162047   6.115   1.026   2.455 -1.7152  0.9562 -1.0231
20202SOL    HW262048   6.252   0.970   2.425 -1.3702 -0.2070  2.3703
20203SOL     OW62049   6.751   7.572  10.652 -0.6604  0.4420 -0.0253
20203SOL    HW162050   6.841   7.596  10.677 -1.1846  1.9304  0.5170
20203SOL    HW262051   6.763   7.504  10.586  0.8292 -1.4271  2.0187
20204SOL     OW62052   4.210   4.990   4.673  0.2830  0.0397  0.1126
20204SOL    HW162053   4.186   4.931   4.745 -0.2606 -0.9173 -0.8115
20204SOL    HW262054   4.300   5.016   4.692 -0.2161  0.7105  1.7086
20205SOL     OW62055   3.499   2.137   3.608  0.5544 -0.1868  0.4346
20205SOL    HW162056   3.569   2.080   3.577 -0.5219 -0.8511 -0.9031
20205SOL    HW262057   3.449   2.157   3.529 -0.1441  1.1418  1.1914
20206SOL     OW62058   0.303   1.457   9.987 -0.3766 -0.4054  0.2855
20206SOL    HW162059   0.353   1.434  10.066 -1.3628 -0.2475  0.9630
20206SOL    HW262060   0.362   1.434   9.915  0.8238  0.0901  1.0626
20207SOL     OW62061   0.276   0.234   9.132 -0.3525 -0.1095  0.3089
20207SOL    HW162062   0.353   0.179   9.123 -0.2252  0.0959  0.1214
20207SOL    HW262063   0.244   0.217   9.221 -0.2830 -0.4409  0.2691
20208SOL     OW62064   6.938   3.678   0.287  0.5493  0.5604 -0.2542
20208SOL    HW162065   6.911   3.755   0.237  1.1706  0.4376 -0.7915
20208SOL    HW262066   6.935   3.606   0.225  0.3124  0.2140  0.1564
20209SOL     OW62067   7.964   3.955   7.533 -0.0398  0.1432  0.0934
20209SOL    HW162068   7.936   4.002   7.455 -0.2470  0.5082  0.3887
20209SOL    HW262069   7.998   3.872   7.500  0.0994  0.3968 -0.4057
20210SOL     OW62070   5.553   4.004   1.586 -0.1367 -0.2246  0.5848
20210SOL    HW162071   5.553   3.925   1.532  0.6210  0.3409 -0.2679
20210SOL    HW262072   5.645   4.015   1.611 -0.3480  0.0058  1.2854
20211SOL     OW62073   6.421   2.774  12.252 -0.3912  0.3848  0.0333
20211SOL    HW162074   6.491   2.774  12.318  0.4854 -3.2944 -0.6508
20211SOL    HW262075   6.361   2.705  12.281 -1.7067  0.8796 -1.3826
20212SOL     OW62076   6.466   0.221   1.931  1.0115  0.1054 -0.1467
20212SOL    HW162077   6.543   0.175   1.964 -0.1457 -2.8010 -1.0715
20212SOL    HW262078   6.416   0.152   1.886 -1.6124  2.0741 -0.4585
20213SOL     OW62079   6.086   2.472   0.219 -0.1213 -0.6849 -0.2313
20213SOL    HW162080   6.054   2.465   0.128  2.2554  1.6381 -1.3732
20213SOL    HW262081   6.020   2.525   0.263 -0.1071  0.3257 -1.3475
20214SOL     OW62082   1.297   5.322  10.139  0.5751  0.6909  0.6726
20214SOL    HW162083   1.390   5.340  10.125  0.4637  2.4477  1.9366
20214SOL    HW262084   1.296   5.239  10.186  1.3725 -0.3201 -0.9692
20215SOL     OW62085   4.588   4.218   3.315  0.8682 -0.4316  0.0701
20215SOL    HW162086   4.501   4.180   3.305  0.7032 -0.0534  0.0820
20215SOL    HW262087   4.598   4.231   3.409  0.9937 -0.6072  0.0812
20216SOL     OW62088   4.684   5.448   8.021 -0.3651 -0.0558  0.3686
20216SOL    HW162089   4.655   5.371   7.972  0.4080  1.1420 -2.1807
20216SOL    HW262090   4.780   5.440   8.022 -0.2466  1.0588 -0.3503
20217SOL     OW62091   5.069   6.614   9.818 -0.6347 -0.2151  0.3801
20217SOL    HW162092   5.087   6.690   9.764 -0.9401 -0.5053 -0.1358
20217SOL    HW262093   5.122   6.627   9.896 -0.6940  0.5294  0.3018
20218SOL     OW62094   3.398   6.000  11.645 -0.1428 -0.0390  0.3628
20218SOL    HW162095   3.434   5.995  11.734  0.9932  1.7959  0.0730
20218SOL    HW262096   3.419   6.089  11.617 -2.4894  0.1745 -0.9221
20219SOL     OW62097   7.869   3.813   8.868 -0.2370  0.0307  0.3036
20219SOL    HW162098   7.957   3.820   8.905 -0.1428  0.8397 -0.0506
20219SOL    HW262099   7.853   3.899   8.829 -1.5170  0.1670  1.0832
20220SOL     OW62100   3.220   2.162   5.484 -0.1382  0.4268 -0.1869
20220SOL    HW162101   3.312   2.187   5.484  0.2095 -0.7955 -0.6577
20220SOL    HW262102   3.193   2.167   5.392 -0.7824  1.5818  0.0471
20221SOL     OW62103   3.984   5.309  10.503 -0.0801  0.2341 -0.6678
20221SOL    HW162104   3.978   5.248  10.429 -0.3851 -0.2211 -0.2713
20221SOL    HW262105   3.893   5.332  10.523 -0.0273 -0.0115 -0.1305
20222SOL     OW62106   1.509   5.193   2.841  0.1863 -0.0699 -0.0003
20222SOL    HW162107   1.425   5.232   2.867 -0.0126 -0.7317  0.3869
20222SOL    HW262108   1.572   5.227   2.904  0.0954 -0.0389  0.0737
20223SOL     OW62109   6.295   5.188   8.305 -0.2999  0.2674  0.3968
20223SOL    HW162110   6.334   5.275   8.302 -0.8650  0.5582  1.0790
20223SOL    HW262111   6.209   5.199   8.264 -0.5694  0.1475  0.9178
20224SOL     OW62112   2.067   1.728   7.287  0.5384  0.5300  0.2255
20224SOL    HW162113   2.149   1.697   7.248  0.3973  0.6057 -0.1294
20224SOL    HW262114   2.059   1.819   7.259 -0.6812 -0.0522 -1.4268
20225SOL     OW62115   7.106   0.420   6.946  0.2355  1.0692 -0.4231
20225SOL    HW162116   7.128   0.507   6.914 -0.4570  0.7116 -1.9518
20225SOL    HW262117   7.039   0.435   7.012  1.5620  1.8085  0.8055
20226SOL     OW62118   3.902   7.720  11.984 -0.0274 -0.0658  0.2464
20226SOL    HW162119   3.917   7.790  12.047  0.7997 -1.0759  1.2316
20226SOL    HW262120   3.808   7.703  11.988  0.0935 -0.5483  1.7474
20227SOL     OW62121   3.275   0.795  11.697  0.3738 -0.0610 -0.7774
20227SOL    HW162122   3.215   0.755  11.635  0.3648 -0.2683 -0.6350
20227SOL    HW262123   3.279   0.887  11.670  0.4293 -0.1655 -1.1281
20228SOL     OW62124   1.075   0.019  10.917 -0.4131  0.4835 -0.4260
20228SOL    HW162125   1.017  -0.008  10.989 -0.7792  0.3205 -0.7789
20228SOL    HW262126   1.084   0.114  10.928  0.0375  0.3681  0.2051
20229SOL     OW62127   1.450   1.508   1.846 -0.0914 -0.3923  0.4295
20229SOL    HW162128   1.515   1.488   1.914 -0.1151  0.3205  0.6625
20229SOL    HW262129   1.392   1.432   1.845  0.2687 -0.6732  0.7811
20230SOL     OW62130   5.004   7.977   7.072  0.4419 -0.0907  0.1478
20230SOL    HW162131   5.075   7.996   7.133 -0.5755  0.1943  1.2817
20230SOL    HW262132   4.937   7.935   7.126 -0.1086 -0.6813 -0.9724
20231SOL     OW62133   1.823   6.606   1.436 -0.0977  0.0490  0.1618
20231SOL    HW162134   1.822   6.520   1.393  0.4620  0.2821 -0.3243
20231SOL    HW262135   1.861   6.665   1.371 -1.5131  0.9031  0.0663
20232SOL     OW62136   3.002   1.250  10.797  0.2878 -0.5594  0.3329
20232SOL    HW162137   3.088   1.270  10.834  0.7995 -1.8265 -0.1385
20232SOL    HW262138   2.994   1.155  10.803 -1.3138 -0.4231  0.8447
20233SOL     OW62139   2.246   1.119  10.273  0.2600 -0.3795  0.1112
20233SOL    HW162140   2.269   1.027  10.289  1.8546  0.2376  1.6664
20233SOL    HW262141   2.318   1.169  10.312 -0.7381  1.5569 -0.4111
20234SOL     OW62142   0.984   5.211   5.908 -0.1476 -0.2434  0.1071
20234SOL    HW162143   0.895   5.181   5.927  0.1291 -2.0112 -1.1964
20234SOL    HW262144   1.040   5.155   5.961  0.2180  1.3226  1.4613
20235SOL     OW62145   7.133   4.856  11.958  1.3123 -0.3580 -0.1736
20235SOL    HW162146   7.139   4.760  11.954  2.1410 -0.3580  0.7745
20235SOL    HW262147   7.147   4.885  11.868  1.1508 -1.1174 -0.4521
20236SOL     OW62148   1.634   5.182   1.389 -0.8202 -0.1607 -0.3938
20236SOL    HW162149   1.682   5.120   1.444 -0.8028 -0.9749 -1.3000
20236SOL    HW262150   1.637   5.264   1.438  2.0032 -0.0070 -0.6496
20237SOL     OW62151   3.963   1.078  12.173  0.1695 -0.2285  0.1655
20237SOL    HW162152   4.033   1.053  12.113 -1.2824 -1.6308 -1.0390
20237SOL    HW262153   3.891   1.104  12.115 -0.6059  0.3412  1.3487
20238SOL     OW62154   2.833   3.869   7.744 -0.0506 -0.2197 -0.0887
20238SOL    HW162155   2.851   3.929   7.672  1.1618 -1.6780 -1.0702
20238SOL    HW262156   2.746   3.833   7.723 -0.3617  0.4580  0.0000
20239SOL     OW62157   2.383   5.858   9.096  0.4734 -0.0214 -0.7956
20239SOL    HW162158   2.324   5.806   9.042  0.7273 -1.0572 -0.0920
20239SOL    HW262159   2.331   5.883   9.172  1.1783 -1.8303  0.3536
20240SOL     OW62160   7.001   1.648   8.955 -0.0446 -0.2137  0.5012
20240SOL    HW162161   7.042   1.563   8.941  3.3393  1.0987  1.5425
20240SOL    HW262162   6.987   1.653   9.050 -0.0264  0.4592  0.4766
20241SOL     OW62163   0.594   0.222   3.744 -0.1590 -0.0744 -0.7755
20241SOL    HW162164   0.662   0.268   3.695  0.5350 -1.2837 -1.0175
20241SOL    HW262165   0.606   0.252   3.835  0.8324 -0.3861 -0.7840
20242SOL     OW62166   6.654   6.618  12.476 -0.2129  0.2946  0.0860
20242SOL    HW162167   6.602   6.610  12.556  0.7354 -0.0830  0.6870
20242SOL    HW262168   6.618   6.552  12.416 -1.2339  0.9037  0.0162
20243SOL     OW62169   3.787   2.561   8.212 -0.4905  0.0624 -0.2518
20243SOL    HW162170   3.819   2.652   8.209  3.4341 -1.1657 -2.0371
20243SOL    HW262171   3.787   2.533   8.120 -0.2599 -2.1329  0.3739
20244SOL     OW62172   4.454   6.535   4.482  0.4923  0.1246  0.2605
20244SOL    HW162173   4.498   6.494   4.408 -2.0693 -0.8040 -0.8459
20244SOL    HW262174   4.461   6.471   4.553 -1.7856 -1.5102 -0.8822
20245SOL     OW62175   7.601   1.775   1.282  0.1785 -0.1552 -0.7478
20245SOL    HW162176   7.632   1.864   1.266 -2.0742  0.9505  0.5072
20245SOL    HW262177   7.627   1.756   1.372  1.4742 -1.1793 -1.3115
20246SOL     OW62178   1.466   0.860   1.134  0.5639 -0.1743  0.2857
20246SOL    HW162179   1.371   0.848   1.134  0.7149 -1.5604  0.2354
20246SOL    HW262180   1.500   0.777   1.168  1.7643  0.2396  0.1256
20247SOL     OW62181   1.619   3.536   4.421  0.3046 -0.4326  0.1666
20247SOL    HW162182   1.643   3.479   4.347  1.5622 -2.9102  2.3341
20247SOL    HW262183   1.634   3.482   4.499 -0.2483  2.3018  2.3140
20248SOL     OW62184   1.599   5.339   1.788 -0.4331  0.5814  0.1600
20248SOL    HW162185   1.562   5.305   1.870 -0.4879  0.0893 -0.0619
20248SOL    HW262186   1.693   5.343   1.804 -0.6029  2.5281  0.9784
20249SOL     OW62187   3.812   3.065   2.914 -0.1288  0.0095  0.0096
20249SOL    HW162188   3.806   3.061   3.010 -0.7921 -0.2799 -0.0420
20249SOL    HW262189   3.852   3.151   2.897 -0.5650  0.3269  0.5275
20250SOL     OW62190   3.778   6.484   9.538 -0.2579  0.1151 -0.1467
20250SOL    HW162191   3.809   6.568   9.571  1.3801 -0.6215  0.2894
20250SOL    HW262192   3.705   6.462   9.596  1.1110 -0.0615  1.5925
20251SOL     OW62193   3.251   2.241  10.636 -0.6893 -0.3640  0.3481
20251SOL    HW162194   3.200   2.308  10.683  0.5536 -0.3500  1.7337
20251SOL    HW262195   3.220   2.158  10.673 -0.4631 -0.4147  0.4216
20252SOL     OW62196   3.631   3.859   0.256  0.4589  0.1729 -0.8672
20252SOL    HW162197   3.690   3.925   0.293  2.3594 -1.3692 -1.0371
20252SOL    HW262198   3.603   3.807   0.331  0.5997 -0.0871 -0.9954
20253SOL     OW62199   5.446   7.810   2.185 -0.1195  0.2660 -0.1860
20253SOL    HW162200   5.498   7.874   2.233 -1.9867  2.2843 -0.6976
20253SOL    HW262201   5.371   7.859   2.153 -1.7023 -2.2256 -0.5596
20254SOL     OW62202   3.653   0.975   4.985 -0.2183  0.0351  0.0776
20254SOL    HW162203   3.634   0.889   5.023 -0.5629 -0.0372 -0.2578
20254SOL    HW262204   3.583   0.990   4.922 -0.9068  1.1375  1.0666
20255SOL     OW62205   7.096   6.490   5.038 -0.2900  0.1503  0.6764
20255SOL    HW162206   7.001   6.478   5.044 -0.2261 -0.5851  0.4263
20255SOL    HW262207   7.125   6.502   5.128 -0.4028 -1.5528  0.9741
20256SOL     OW62208   3.323   4.651   0.816  0.7078 -0.2173 -0.4769
20256SOL    HW162209   3.295   4.663   0.726 -1.6508 -1.7923 -0.0464
20256SOL    HW262210   3.263   4.705   0.867  2.2078  0.8997  0.1784
20257SOL     OW62211   0.409   3.829   6.150 -0.7311  0.1211  0.4718
20257SOL    HW162212   0.427   3.739   6.123 -3.3250  0.0653 -1.4720
20257SOL    HW262213   0.451   3.837   6.236  1.5451 -2.1476 -0.3052
20258SOL     OW62214   6.029   1.245   7.280 -0.4277  0.0973  0.5002
20258SOL    HW162215   5.979   1.326   7.272 -0.8407  0.2383  3.3249
20258SOL    HW262216   6.121   1.273   7.277 -0.4879  0.1921 -1.8413
20259SOL     OW62217   3.984   5.312   4.346 -0.1437  0.0687 -0.4307
20259SOL    HW162218   3.945   5.265   4.273 -0.3297  0.9304 -0.9077
20259SOL    HW262219   4.050   5.252   4.381 -1.4140 -1.1399 -0.0358
20260SOL     OW62220   4.132   3.457   4.874  0.4741 -0.8509 -0.0900
20260SOL    HW162221   4.165   3.531   4.925 -0.8329 -0.4688  0.2405
20260SOL    HW262222   4.187   3.454   4.796  0.4188  0.6095 -0.2010
20261SOL     OW62223   2.471   2.315   3.714  0.3792 -0.0540 -0.8838
20261SOL    HW162224   2.485   2.380   3.782  0.4800  0.1594 -1.1080
20261SOL    HW262225   2.387   2.339   3.674 -0.5933 -1.2189  0.3330
20262SOL     OW62226   5.394   1.505   1.768  0.0887  0.9808 -0.0200
20262SOL    HW162227   5.309   1.541   1.741 -0.7760  1.1178  2.5910
20262SOL    HW262228   5.377   1.412   1.782  0.0105  1.2161  1.6342
20263SOL     OW62229   1.911   2.149   8.459 -0.6999  0.6312 -0.0270
20263SOL    HW162230   1.977   2.217   8.467  0.2181 -0.2592  0.1509
20263SOL    HW262231   1.902   2.136   8.365  1.3211 -1.0367 -0.0641
20264SOL     OW62232   2.748   3.821   8.001 -0.3596 -0.5325 -0.6156
20264SOL    HW162233   2.805   3.855   7.932  1.2079 -0.2818  0.7446
20264SOL    HW262234   2.702   3.898   8.034 -2.4389 -0.8895 -2.4718
20265SOL     OW62235   6.995   2.742   8.912  0.3252  0.5246 -0.5434
20265SOL    HW162236   6.961   2.832   8.912 -1.2113 -0.0254 -1.1602
20265SOL    HW262237   6.947   2.699   8.842  2.7194 -0.1921 -1.8477
20266SOL     OW62238   2.838   7.546  10.188  0.1897  0.6000  0.3095
20266SOL    HW162239   2.872   7.591  10.110 -0.8927  1.0003  0.0525
20266SOL    HW262240   2.901   7.476  10.204  0.9947  1.1604 -0.2997
20267SOL     OW62241   3.789   4.686   2.379 -0.4841  0.0139  0.4427
20267SOL    HW162242   3.878   4.657   2.397 -0.5535 -1.0342 -0.8099
20267SOL    HW262243   3.766   4.740   2.455  1.2415  0.3985  0.7411
20268SOL     OW62244   5.226   3.265   7.587  0.1493  0.3387  0.0426
20268SOL    HW162245   5.229   3.228   7.675 -0.6825 -1.0889 -0.4823
20268SOL    HW262246   5.135   3.290   7.574  0.3141  0.7681 -0.3229
20269SOL     OW62247   3.348   6.863   3.816  0.4054 -0.3576  0.1551
20269SOL    HW162248   3.420   6.884   3.756 -1.9162  2.1866 -2.0035
20269SOL    HW262249   3.341   6.939   3.874 -0.6036 -0.4963  0.2433
20270SOL     OW62250   1.167   7.094   7.901 -0.6504 -0.5135 -0.0916
20270SOL    HW162251   1.123   7.030   7.846 -0.9014 -1.2863  0.9899
20270SOL    HW262252   1.217   7.042   7.965 -0.4991  0.3564  0.5233
20271SOL     OW62253   4.873   6.431  10.954 -0.1216  0.2536 -0.0473
20271SOL    HW162254   4.828   6.373  11.015  1.7754 -1.9986 -0.6586
20271SOL    HW262255   4.966   6.422  10.975  0.7919 -1.7309 -4.0102
20272SOL     OW62256   1.386   1.526   9.114  0.0325  0.1944 -0.0386
20272SOL    HW162257   1.481   1.518   9.122  0.1737  0.7650 -1.0556
20272SOL    HW262258   1.360   1.585   9.185  0.7567  2.0018 -1.2158
20273SOL     OW62259   2.865   6.558   2.928  0.7313  0.2366  0.9703
20273SOL    HW162260   2.821   6.507   2.860 -1.7703 -0.1446  2.7266
20273SOL    HW262261   2.868   6.647   2.892  0.0558 -0.0752  0.0908
20274SOL     OW62262   4.213   2.899   2.480  0.5119 -0.2402  0.3532
20274SOL    HW162263   4.130   2.940   2.503  0.6100  0.2912 -0.2259
20274SOL    HW262264   4.269   2.971   2.450  1.0211 -0.6537  0.2862
20275SOL     OW62265   6.201   2.834  10.933 -0.0691  0.1983 -0.5140
20275SOL    HW162266   6.217   2.904  10.997 -0.0225 -0.8568  0.6600
20275SOL    HW262267   6.267   2.848  10.865  0.5542  0.7317  0.1843
20276SOL     OW62268   0.621   1.021   1.160 -0.4091 -0.2741 -0.5020
20276SOL    HW162269   0.640   0.947   1.102  1.0391  0.4039 -0.9463
20276SOL    HW262270   0.528   1.039   1.147 -0.7813 -1.9290 -0.4559
20277SOL     OW62271   0.842   6.121   1.129 -0.2453  0.6629  0.8863
20277SOL    HW162272   0.903   6.194   1.134 -0.3524  0.6780  2.2844
20277SOL    HW262273   0.769   6.154   1.078  1.1307  0.4481 -1.3828
20278SOL     OW62274   0.180   6.760   7.326  0.0204  0.2360  0.1524
20278SOL    HW162275   0.212   6.837   7.374 -1.4391  0.8099  0.2612
20278SOL    HW262276   0.181   6.787   7.235  1.0387 -0.2071  0.0177
20279SOL     OW62277   3.733   4.146   8.881  0.0901 -0.5074 -0.0612
20279SOL    HW162278   3.700   4.215   8.939 -1.8186 -1.4118 -0.0141
20279SOL    HW262279   3.797   4.191   8.824  2.1064  0.3902  2.7002
20280SOL     OW62280   5.034   5.678  11.918 -0.1044 -0.3496  0.7853
20280SOL    HW162281   5.123   5.701  11.892 -0.1097  0.9091  1.7692
20280SOL    HW262282   4.983   5.682  11.836  0.3177  1.1841  0.5630
20281SOL     OW62283   5.283   3.340   1.772 -0.1149  0.2645  0.2775
20281SOL    HW162284   5.310   3.308   1.686  0.4381 -0.4326  0.6971
20281SOL    HW262285   5.255   3.430   1.756 -2.6056 -0.6758 -1.1080
20282SOL     OW62286   1.351   1.059   1.705 -0.2801 -0.0857  0.1828
20282SOL    HW162287   1.330   0.982   1.651 -0.1019  1.5201 -2.3478
20282SOL    HW262288   1.288   1.056   1.777 -1.8534 -1.3101 -1.1633
20283SOL     OW62289   7.876   4.581   4.797 -0.2084  0.1929 -0.1582
20283SOL    HW162290   7.947   4.643   4.812  1.4681 -1.4106 -1.0969
20283SOL    HW262291   7.891   4.511   4.861 -1.7670  0.4698  0.5532
20284SOL     OW62292   5.888   1.819   8.411 -1.0936 -0.3758 -0.3215
20284SOL    HW162293   5.803   1.863   8.416 -1.2307 -0.7062  0.5368
20284SOL    HW262294   5.875   1.737   8.459 -0.3933 -0.6029 -0.5144
20285SOL     OW62295   2.436   1.895   0.049  0.6106  0.4817 -0.4234
20285SOL    HW162296   2.369   1.935  -0.005  1.2851  0.2888 -1.4369
20285SOL    HW262297   2.507   1.959   0.050  1.2875 -0.2295 -1.2168
20286SOL     OW62298   6.498   6.953   0.196 -0.5431 -0.3125 -0.5356
20286SOL    HW162299   6.402   6.952   0.192 -0.6962  0.7193  1.4519
20286SOL    HW262300   6.518   6.942   0.289  1.1802  1.8920 -0.5758
20287SOL     OW62301   1.757   0.407   7.113 -0.6511  0.1571 -0.4181
20287SOL    HW162302   1.671   0.369   7.130 -0.2787 -0.1189  0.9578
20287SOL    HW262303   1.750   0.445   7.025 -2.5503  1.1827  0.1352
20288SOL     OW62304   3.318   4.033  10.792  0.1210 -0.1890  0.2239
20288SOL    HW162305   3.246   4.095  10.798 -0.1323 -0.4592 -0.0182
20288SOL    HW262306   3.381   4.062  10.858 -0.7847 -0.7124  1.3455
20289SOL     OW62307   2.243   7.054  10.698 -0.3803 -0.2540  0.1345
20289SOL    HW162308   2.160   7.012  10.723  0.2249 -1.0766  0.8098
20289SOL    HW262309   2.308   7.017  10.758  0.6598 -0.3353 -1.0015
20290SOL     OW62310   5.136   3.367   2.884  0.2827  0.0973  0.2431
20290SOL    HW162311   5.092   3.424   2.822  2.2874  0.9458 -0.5041
20290SOL    HW262312   5.143   3.419   2.964 -0.2741 -0.1243  0.4354
20291SOL     OW62313   0.014   2.238  10.232  0.9950 -0.3009  0.3253
20291SOL    HW162314  -0.057   2.297  10.205  1.8088  0.8328  0.5963
20291SOL    HW262315  -0.031   2.163  10.270 -0.0784  1.0207  1.8324
20292SOL     OW62316   0.311   2.362   2.814  0.1271 -0.1206  0.1064
20292SOL    HW162317   0.244   2.378   2.881  0.4788  0.1361  0.4035
20292SOL    HW262318   0.385   2.326   2.863 -0.9847 -3.9177 -0.6415
20293SOL     OW62319   1.027   6.773   2.703  0.2803  0.0780  0.4593
20293SOL    HW162320   1.065   6.776   2.790  1.5438  0.9219 -0.0883
20293SOL    HW262321   1.095   6.808   2.646 -0.3322 -0.9049 -0.9392
20294SOL     OW62322   2.442   5.713   0.202 -0.1196 -0.4268 -0.2606
20294SOL    HW162323   2.517   5.686   0.256 -0.2395  0.0143  0.1300
20294SOL    HW262324   2.466   5.685   0.114 -0.3470 -2.0204  0.1610
20295SOL     OW62325   2.781   6.738   6.309 -0.2094 -0.3556 -0.2362
20295SOL    HW162326   2.865   6.744   6.263 -0.6976  1.5518 -0.9694
20295SOL    HW262327   2.782   6.811   6.371 -1.0900 -0.6939  0.1982
20296SOL     OW62328   5.159   3.364   8.130  0.1590  0.1213 -0.6066
20296SOL    HW162329   5.186   3.420   8.203 -0.5369  0.1389 -0.3603
20296SOL    HW262330   5.123   3.425   8.065  0.0774  0.0294 -0.6471
20297SOL     OW62331   2.940   3.167   0.753  0.3411 -0.3558 -0.2275
20297SOL    HW162332   2.995   3.246   0.750 -2.3435  1.6831 -3.7251
20297SOL    HW262333   2.891   3.174   0.834  0.9896  0.9549  0.0745
20298SOL     OW62334   0.512   7.548   3.957  0.1978  0.1271 -0.4779
20298SOL    HW162335   0.499   7.533   3.863 -1.3624  0.2013 -0.2933
20298SOL    HW262336   0.577   7.481   3.982 -1.1505 -1.5080 -1.1433
20299SOL     OW62337   5.448   5.887   4.744 -0.0119 -0.0264 -0.0648
20299SOL    HW162338   5.397   5.834   4.805  1.2216 -0.2864  0.7908
20299SOL    HW262339   5.492   5.824   4.688  1.4420  0.0439  0.9421
20300SOL     OW62340   3.842   1.589   7.538  0.3051 -0.3920  0.0575
20300SOL    HW162341   3.908   1.622   7.477 -0.9052  0.8316 -0.6457
20300SOL    HW262342   3.876   1.504   7.567  2.4063  0.4204  0.1206
20301SOL     OW62343   6.753   1.341  11.201  0.2773  0.0485  0.2454
20301SOL    HW162344   6.680   1.355  11.260  0.4914  1.1841  0.2569
20301SOL    HW262345   6.791   1.428  11.188  0.3242 -0.1848 -1.4301
20302SOL     OW62346   2.267   0.350   4.332 -0.1841 -0.3518  0.1596
20302SOL    HW162347   2.292   0.298   4.408  0.2622 -0.1392  0.1687
20302SOL    HW262348   2.259   0.287   4.261  2.6212 -0.2576 -0.3888
20303SOL     OW62349   3.200   3.855   8.529 -0.3514 -0.3547 -0.3777
20303SOL    HW162350   3.246   3.800   8.466 -1.1048  0.5836 -1.8092
20303SOL    HW262351   3.111   3.820   8.531 -0.0713 -1.0931  1.0837
20304SOL     OW62352   3.874   0.968   8.604  0.0580 -0.0231 -0.6015
20304SOL    HW162353   3.960   0.935   8.579 -0.0949  0.3029 -1.5633
20304SOL    HW262354   3.854   1.037   8.541 -0.9426 -0.1416 -0.4417
20305SOL     OW62355   3.710   4.639   6.400  0.3693  0.4985  0.8041
20305SOL    HW162356   3.714   4.683   6.484 -1.2853  0.5632  0.8739
20305SOL    HW262357   3.735   4.706   6.336 -0.6217  1.1210  1.0504
20306SOL     OW62358   5.506   3.787   8.998 -0.4370  0.4115 -0.1571
20306SOL    HW162359   5.513   3.833   8.914 -0.6691  4.0013  1.5923
20306SOL    HW262360   5.587   3.808   9.043 -1.7303  1.5639  1.7842
20307SOL     OW62361   5.385   4.863   4.369  0.0540  0.2636 -0.0653
20307SOL    HW162362   5.409   4.825   4.453 -0.7954  1.2601  0.6557
20307SOL    HW262363   5.469   4.892   4.331  0.4779 -0.4863  0.2722
20308SOL     OW62364   0.965   1.995  11.256  0.5541 -0.3725  0.3030
20308SOL    HW162365   0.945   2.020  11.346 -0.2535  0.5444 -0.1217
20308SOL    HW262366   1.028   1.923  11.265  1.6514  0.6896  1.5838
20309SOL     OW62367   4.938   3.471   6.780 -0.2602 -0.0867  0.4055
20309SOL    HW162368   4.934   3.459   6.875 -0.2839  1.4484  0.6165
20309SOL    HW262369   5.014   3.528   6.766 -0.2870 -0.2558 -0.4941
20310SOL     OW62370   7.075   6.955   0.135 -0.0539 -0.0821  0.3757
20310SOL    HW162371   7.157   6.905   0.138  0.4707  0.6384 -1.1839
20310SOL    HW262372   7.010   6.893   0.102  0.0473 -0.4093  0.7816
20311SOL     OW62373   6.323   7.408   7.629 -0.5906  0.6678 -0.3652
20311SOL    HW162374   6.347   7.494   7.666 -0.0397  0.7405 -0.8864
20311SOL    HW262375   6.397   7.385   7.573 -0.9706  0.0827 -0.6251
20312SOL     OW62376   1.200   2.448   3.558 -0.1689  0.0153 -0.0844
20312SOL    HW162377   1.282   2.473   3.516  0.1517  0.7209  0.9237
20312SOL    HW262378   1.213   2.356   3.583  0.5204  0.2725  0.5298
20313SOL     OW62379   4.046   6.091   3.406  0.3728 -0.4830  0.1685
20313SOL    HW162380   4.109   6.091   3.334 -0.3978 -1.3259 -0.5325
20313SOL    HW262381   4.094   6.052   3.479  0.7453 -0.9185 -0.2983
20314SOL     OW62382   3.597   6.950   7.578 -0.8573 -0.6325  0.1429
20314SOL    HW162383   3.666   7.012   7.598  0.1035 -2.1543  1.7490
20314SOL    HW262384   3.636   6.890   7.515 -0.4200 -1.9348  1.6109
20315SOL     OW62385   5.770   2.692   6.808 -0.3238  0.0232 -0.1666
20315SOL    HW162386   5.706   2.638   6.854  0.5134 -1.0536 -0.2449
20315SOL    HW262387   5.842   2.701   6.870 -0.1749  0.5138 -0.4075
20316SOL     OW62388   5.686   1.503   4.905 -0.6607  0.4762 -0.1462
20316SOL    HW162389   5.591   1.489   4.901 -0.6090  0.0531  0.0463
20316SOL    HW262390   5.719   1.465   4.823 -0.7684  1.5986 -0.7281
20317SOL     OW62391   5.185   0.197   1.816 -0.1855  0.0256  0.0431
20317SOL    HW162392   5.166   0.287   1.844  0.1817  0.3709 -0.7917
20317SOL    HW262393   5.260   0.171   1.869 -0.5324  0.0623  0.5656
20318SOL     OW62394   6.347   4.025   9.992 -0.2776  0.7370  0.1182
20318SOL    HW162395   6.418   4.088   9.998  1.2808 -1.0066  1.0608
20318SOL    HW262396   6.296   4.039  10.072  0.5674  0.2657  0.7603
20319SOL     OW62397   4.968   6.758   4.794 -0.2528  0.2466  0.4111
20319SOL    HW162398   4.881   6.794   4.813 -0.0579  0.1258  1.6103
20319SOL    HW262399   5.017   6.769   4.876  1.2889  1.5332 -0.6126
20320SOL     OW62400   6.821   4.483  10.085 -0.3686  0.7371  0.4412
20320SOL    HW162401   6.759   4.432  10.136 -0.0815 -0.4889 -0.3796
20320SOL    HW262402   6.806   4.455   9.994  1.5101  0.2262  0.2465
20321SOL     OW62403   5.883   2.845   4.390 -0.1968 -0.1388  0.7042
20321SOL    HW162404   5.902   2.752   4.405  1.9465  0.1598  0.2493
20321SOL    HW262405   5.887   2.855   4.295  2.7079  0.8897  0.8170
20322SOL     OW62406   2.917   2.253  10.128  0.3488  0.0163  0.4475
20322SOL    HW162407   2.903   2.347  10.138  1.3652  0.2260 -0.0485
20322SOL    HW262408   2.836   2.221  10.087  0.5368  0.8876 -0.6287
20323SOL     OW62409   0.036   2.694   7.556  0.3437  0.1417  0.6041
20323SOL    HW162410   0.030   2.691   7.460 -0.5954 -0.5104  0.6721
20323SOL    HW262411   0.106   2.634   7.578 -0.0838 -0.4448  0.3764
20324SOL     OW62412   7.159   4.590   4.911  0.2830  0.5370  0.2277
20324SOL    HW162413   7.091   4.625   4.855 -1.7535 -0.4685  1.9379
20324SOL    HW262414   7.136   4.619   4.999  1.2926 -0.9455  1.0354
20325SOL     OW62415   1.748   3.516   1.215  0.0539  0.2361 -0.2368
20325SOL    HW162416   1.768   3.607   1.192  1.3252  0.0510  0.0538
20325SOL    HW262417   1.833   3.472   1.212 -0.5369 -0.9188 -0.2581
20326SOL     OW62418   0.725   2.669   4.974  0.0291 -0.1823  0.6457
20326SOL    HW162419   0.742   2.733   4.904 -1.8125  0.7604  0.9958
20326SOL    HW262420   0.690   2.593   4.928 -1.2924  0.4789  0.5013
20327SOL     OW62421   2.872   0.200   7.833 -0.1255 -0.6304  0.7042
20327SOL    HW162422   2.939   0.133   7.822  1.5979  0.8618  1.6129
20327SOL    HW262423   2.829   0.178   7.916  0.8064 -0.3354  1.2808
20328SOL     OW62424   4.298   2.282  10.464 -0.1891  0.4001 -0.1506
20328SOL    HW162425   4.387   2.296  10.496 -0.1479  0.7249 -0.4130
20328SOL    HW262426   4.242   2.302  10.539  0.0297 -1.7683  0.6736
20329SOL     OW62427   7.616   7.067  11.703 -0.4586 -0.3287  0.1628
20329SOL    HW162428   7.533   7.070  11.751 -0.3309  0.1585  0.3622
20329SOL    HW262429   7.604   7.129  11.631 -0.4974 -0.7417 -0.1868
20330SOL     OW62430   1.105   1.402   6.925  0.9177 -0.5284 -0.5111
20330SOL    HW162431   1.051   1.377   6.850 -1.5901 -0.1821  1.0341
20330SOL    HW262432   1.080   1.493   6.943  2.0720 -0.3470  0.2729
20331SOL     OW62433   6.255   0.640   2.613  0.1202 -0.4364  0.5412
20331SOL    HW162434   6.178   0.585   2.599 -0.0924  0.2895 -1.5137
20331SOL    HW262435   6.323   0.579   2.642 -1.1406 -1.1112  2.2815
20332SOL     OW62436   1.713   3.493   0.307 -0.2372 -0.8887 -0.0934
20332SOL    HW162437   1.786   3.486   0.246 -1.1489  0.6151 -1.4240
20332SOL    HW262438   1.754   3.502   0.393  1.0756 -2.6181 -0.4819
20333SOL     OW62439   6.224   6.033   2.729  0.2200 -0.3393 -0.1700
20333SOL    HW162440   6.264   5.948   2.707 -0.7090 -0.2386 -2.5005
20333SOL    HW262441   6.179   6.060   2.649 -1.2816  1.3822  1.1643
20334SOL     OW62442   4.934   1.650   9.344 -0.2574  0.0020 -0.0462
20334SOL    HW162443   4.876   1.722   9.319 -0.3724 -0.3501 -0.8268
20334SOL    HW262444   5.001   1.649   9.276 -0.1138 -0.4576  0.0975
20335SOL     OW62445   2.986   2.622   8.538 -0.5707 -0.3091  0.2490
20335SOL    HW162446   2.906   2.667   8.567 -0.1062  0.4319  0.3981
20335SOL    HW262447   3.032   2.686   8.485  0.0127 -0.6755  0.2978
20336SOL     OW62448   1.151   0.051   4.659 -0.2744 -0.5617 -0.3333
20336SOL    HW162449   1.081   0.093   4.710 -0.3804 -2.7676  1.5419
20336SOL    HW262450   1.231   0.072   4.706 -0.0732 -0.6877 -0.6173
20337SOL     OW62451   1.032   0.932   8.207 -0.4802 -0.0160  0.1581
20337SOL    HW162452   1.091   0.988   8.156  0.0098 -1.3202 -0.7527
20337SOL    HW262453   0.946   0.974   8.199 -0.2967  0.1291 -1.2614
20338SOL     OW62454   6.114   0.757  11.794 -0.2587 -0.2446  0.4488
20338SOL    HW162455   6.192   0.706  11.814  0.2220  0.2338 -0.1707
20338SOL    HW262456   6.049   0.727  11.857 -0.0142 -1.6782  0.0540
20339SOL     OW62457   0.203   6.491   3.250  1.2521 -0.4861 -0.1889
20339SOL    HW162458   0.224   6.577   3.286  0.5812 -0.0802 -0.7365
20339SOL    HW262459   0.282   6.439   3.264  1.1084 -0.2606  1.5834
20340SOL     OW62460   5.909   1.891   7.414  0.1730 -0.7017 -0.3362
20340SOL    HW162461   5.969   1.965   7.414 -0.6813  0.2975 -4.9551
20340SOL    HW262462   5.832   1.922   7.461 -0.3729  1.7460 -2.5943
20341SOL     OW62463   4.735   7.163   3.470 -0.2528  0.3171 -0.3247
20341SOL    HW162464   4.785   7.174   3.389  0.8693 -0.1031  0.2904
20341SOL    HW262465   4.737   7.248   3.512  0.6692  0.0972  0.0930
20342SOL     OW62466   3.279   2.247   1.768  0.1012  0.4346  0.1850
20342SOL    HW162467   3.320   2.169   1.806  0.3944  0.2344 -0.5226
20342SOL    HW262468   3.353   2.304   1.745 -0.1492  1.4054  1.6890
20343SOL     OW62469   3.902   2.067   3.358  0.5211  0.8440 -0.0292
20343SOL    HW162470   3.947   2.151   3.347 -0.5266  1.3043 -1.0122
20343SOL    HW262471   3.871   2.045   3.270 -0.0225 -0.1128  0.3910
20344SOL     OW62472   5.834   5.238   2.237 -0.0624 -0.5869 -0.0767
20344SOL    HW162473   5.907   5.283   2.280 -1.3783 -1.4151  3.3025
20344SOL    HW262474   5.777   5.308   2.206  1.4460  0.0413 -1.5944
20345SOL     OW62475   2.686   2.905   1.482 -0.3458  0.1598  0.0175
20345SOL    HW162476   2.659   2.949   1.401 -1.0930 -1.5743 -0.7212
20345SOL    HW262477   2.770   2.865   1.461  0.4779  1.4019  0.7827
20346SOL     OW62478   7.014   2.335   8.665 -0.1587  0.3124  0.0086
20346SOL    HW162479   7.077   2.275   8.705  1.5333  1.1199 -1.2831
20346SOL    HW262480   7.060   2.419   8.663 -1.9321  1.3551  0.4980
20347SOL     OW62481   2.035   4.119  10.120  0.7620 -0.8677  0.3536
20347SOL    HW162482   2.017   4.025  10.121 -2.0181 -0.5132 -2.3973
20347SOL    HW262483   2.008   4.148  10.033  1.5786  2.5152  1.0826
20348SOL     OW62484   7.526   5.309   2.768 -0.7089 -0.2140 -0.3168
20348SOL    HW162485   7.443   5.274   2.800 -1.2582 -0.0369 -1.5237
20348SOL    HW262486   7.541   5.387   2.822 -0.8326 -0.7672  0.5492
20349SOL     OW62487   7.627   2.806   7.111 -0.3199  0.4092 -0.4432
20349SOL    HW162488   7.569   2.732   7.097  0.0585  0.0025  0.0590
20349SOL    HW262489   7.569   2.880   7.130 -0.6686 -0.1516  0.7808
20350SOL     OW62490   6.792   3.594   8.211  0.2739 -0.3973 -0.1329
20350SOL    HW162491   6.880   3.612   8.244 -0.2730 -0.3184  1.3742
20350SOL    HW262492   6.746   3.555   8.286 -1.1373  0.0792 -0.7140
20351SOL     OW62493   7.308   1.489   2.336 -0.2910 -0.1488  0.0737
20351SOL    HW162494   7.276   1.423   2.274  0.4371 -0.0640 -0.3965
20351SOL    HW262495   7.268   1.571   2.307 -0.0514 -0.1317 -0.2115
20352SOL     OW62496   5.407   4.916   3.668  0.5290  0.3081  0.3655
20352SOL    HW162497   5.439   4.952   3.585  0.2265  1.3439  0.6805
20352SOL    HW262498   5.473   4.942   3.732  2.7980 -3.6525 -0.0152
20353SOL     OW62499   6.029   4.315   7.543 -0.3336 -0.2042 -0.0409
20353SOL    HW162500   6.093   4.244   7.549  1.4363  1.1561 -1.4918
20353SOL    HW262501   5.953   4.275   7.502 -0.8033 -2.0424  2.3406
20354SOL     OW62502   0.654   5.554   5.199 -0.0867  0.3964 -0.1206
20354SOL    HW162503   0.572   5.584   5.238 -1.2525 -0.9812 -1.4209
20354SOL    HW262504   0.712   5.631   5.205 -1.2633  1.2355  1.2882
20355SOL     OW62505   4.948   1.321   4.389 -0.1483  0.5011 -0.0820
20355SOL    HW162506   5.010   1.258   4.427 -1.7744 -0.6977  0.7062
20355SOL    HW262507   4.898   1.353   4.463 -1.6172  0.1374 -0.8778
20356SOL     OW62508   2.461   6.839   2.116 -0.4933  0.5649  0.2496
20356SOL    HW162509   2.388   6.901   2.118 -0.1845  0.9192  0.7582
20356SOL    HW262510   2.436   6.769   2.177  0.0306  1.2047  1.2309
20357SOL     OW62511   6.271   4.019   5.995 -0.4999 -0.4885  0.2610
20357SOL    HW162512   6.239   4.056   6.077 -2.3729  2.3636 -1.5518
20357SOL    HW262513   6.317   4.092   5.953  0.8728 -2.0224 -1.0198
20358SOL     OW62514   3.797   0.840   3.778  0.6777  0.4628 -0.0003
20358SOL    HW162515   3.860   0.886   3.721  1.4024  0.9944  1.1836
20358SOL    HW262516   3.787   0.754   3.737 -1.2886  1.8236 -2.7191
20359SOL     OW62517   5.605   6.758  10.610  0.1549  0.0361  0.1971
20359SOL    HW162518   5.609   6.663  10.627  0.8729 -0.1328 -0.8159
20359SOL    HW262519   5.513   6.781  10.623  0.0980 -0.6622  1.1356
20360SOL     OW62520   3.467   2.967  11.241  0.3102  0.5312  0.5715
20360SOL    HW162521   3.490   3.056  11.215  0.4170  0.7448  1.3616
20360SOL    HW262522   3.381   2.952  11.203  1.3469  0.0145 -1.7689
20361SOL     OW62523   5.806   6.004   5.169 -0.6704 -0.0649  0.2577
20361SOL    HW162524   5.747   5.979   5.097  0.1386  0.1236 -0.4832
20361SOL    HW262525   5.888   5.959   5.149 -0.1267  0.7970  0.5216
20362SOL     OW62526   1.032   3.738   6.289 -0.2517  0.1953  0.3252
20362SOL    HW162527   0.997   3.825   6.270 -2.6871 -0.8790 -0.4836
20362SOL    HW262528   1.122   3.741   6.258 -0.2355  2.4476  0.4318
20363SOL     OW62529   3.397   0.972   1.020 -0.1592  0.3102  0.1572
20363SOL    HW162530   3.456   0.932   0.956  0.3781  0.5941  0.4604
20363SOL    HW262531   3.311   0.971   0.979  0.1601  0.3856 -0.5197
20364SOL     OW62532   1.163   6.840   2.916 -0.3278 -0.0785 -0.4201
20364SOL    HW162533   1.207   6.904   2.972  0.5751 -1.0622  0.0130
20364SOL    HW262534   1.198   6.755   2.943 -0.3827 -0.6452 -2.0082
20365SOL     OW62535   3.873   5.346   8.985  0.3714 -0.4579 -0.3257
20365SOL    HW162536   3.941   5.373   8.924 -0.5883  1.0964 -0.7800
20365SOL    HW262537   3.802   5.409   8.971  0.0974 -0.0367  2.3658
20366SOL     OW62538   6.045   4.331   5.398 -0.1030 -0.2123  0.1327
20366SOL    HW162539   6.039   4.264   5.467 -1.2516 -0.7964 -0.5005
20366SOL    HW262540   6.014   4.287   5.319  1.6745  0.2891 -0.9113
20367SOL     OW62541   0.695   2.669   6.931 -0.1959 -0.3880 -0.1037
20367SOL    HW162542   0.711   2.580   6.901  2.4650 -0.3804  1.0474
20367SOL    HW262543   0.629   2.703   6.870  1.2030 -2.0139 -2.7031
20368SOL     OW62544   2.662   4.271   5.487  0.7040  0.3622 -0.6008
20368SOL    HW162545   2.589   4.252   5.428 -0.4600 -1.3468  1.2537
20368SOL    HW262546   2.676   4.189   5.535  3.4633  0.8401 -0.4517
20369SOL     OW62547   2.105   1.631   9.267 -0.1868 -0.2237 -0.4852
20369SOL    HW162548   2.066   1.603   9.350 -1.0045  0.2167 -0.7071
20369SOL    HW262549   2.080   1.723   9.258 -0.1788 -0.2837 -1.2527
20370SOL     OW62550   3.827   2.066   2.558  0.1559  0.2340  0.0686
20370SOL    HW162551   3.875   2.149   2.550 -0.2358  0.8505  2.9986
20370SOL    HW262552   3.736   2.093   2.574 -0.6342 -0.8788 -2.1455
20371SOL     OW62553   7.413   7.435  10.960  0.3800 -0.5861 -0.0370
20371SOL    HW162554   7.423   7.499  11.030 -0.4099  0.0274 -0.4811
20371SOL    HW262555   7.502   7.400  10.947  0.3326 -1.7681  2.2282
20372SOL     OW62556   6.069   5.876   3.767 -0.0994  0.0198  0.4205
20372SOL    HW162557   6.039   5.838   3.685 -0.1144 -0.4519  0.6390
20372SOL    HW262558   6.031   5.819   3.835  0.2089  0.1917  0.7406
20373SOL     OW62559   1.168   3.716   1.472 -0.1919 -0.0047 -0.5115
20373SOL    HW162560   1.123   3.799   1.456  3.1997  1.8047 -1.7927
20373SOL    HW262561   1.190   3.718   1.565 -1.7134 -0.4387 -0.1064
20374SOL     OW62562   1.539   6.674   3.032 -0.8253  0.2078  0.1827
20374SOL    HW162563   1.470   6.659   2.968 -0.4599 -0.5166 -0.0571
20374SOL    HW262564   1.493   6.710   3.108 -1.4268  0.0098 -0.0760
20375SOL     OW62565   2.704   5.959   0.738 -0.1479  0.2740  0.0093
20375SOL    HW162566   2.778   5.924   0.689 -0.0865 -1.0330  0.9932
20375SOL    HW262567   2.641   5.984   0.670  0.3944 -0.4277 -0.7773
20376SOL     OW62568   3.803   1.536   6.664 -0.5688  0.4079  0.4472
20376SOL    HW162569   3.713   1.519   6.692 -0.7054  2.3753  1.3270
20376SOL    HW262570   3.848   1.564   6.743  1.4381 -2.4842  0.4889
20377SOL     OW62571   2.099   7.629   3.087  0.0356  0.3028 -0.0063
20377SOL    HW162572   2.119   7.572   3.161  0.1591  0.6520  0.2314
20377SOL    HW262573   2.077   7.713   3.126 -1.6126  0.0268 -0.2821
20378SOL     OW62574   0.814   3.115   1.133  0.4130 -0.2021 -0.4579
20378SOL    HW162575   0.844   3.199   1.097 -0.4743 -0.4902 -1.9903
20378SOL    HW262576   0.842   3.116   1.224  0.6165  1.6680 -0.5024
20379SOL     OW62577   0.032   1.233   0.145 -0.2060 -0.0941  0.4682
20379SOL    HW162578  -0.002   1.319   0.121 -2.3318 -1.3710 -1.4534
20379SOL    HW262579  -0.039   1.190   0.192 -0.2303 -1.7454 -0.9622
20380SOL     OW62580   0.436   0.269   6.663 -0.0935 -0.0338  0.4787
20380SOL    HW162581   0.361   0.315   6.625  0.8098  2.2299  1.2401
20380SOL    HW262582   0.398   0.200   6.717 -1.5223 -0.2967 -0.8149
20381SOL     OW62583   4.885   7.936  11.844 -0.0104  0.2611 -0.2977
20381SOL    HW162584   4.817   8.001  11.860  0.5925  1.2957 -1.6740
20381SOL    HW262585   4.886   7.925  11.749  0.0273 -1.6554 -0.1044
20382SOL     OW62586   1.390   7.262   0.661 -0.2114  0.4071  0.2979
20382SOL    HW162587   1.357   7.206   0.592 -1.8791  0.8437  0.6893
20382SOL    HW262588   1.449   7.206   0.712  1.8335  0.3327 -1.9577
20383SOL     OW62589   0.634   2.314   8.183 -0.3239 -0.4392 -0.4342
20383SOL    HW162590   0.666   2.263   8.109  0.2970 -0.0401 -0.4532
20383SOL    HW262591   0.632   2.404   8.150  1.2858 -0.0429  0.4279
20384SOL     OW62592   5.586   2.228   2.688  0.5533 -0.7099  0.1851
20384SOL    HW162593   5.588   2.144   2.733 -2.0235 -1.5191 -1.0038
20384SOL    HW262594   5.643   2.216   2.612  1.4732 -0.8046  0.8782
20385SOL     OW62595   1.743   4.135  11.522 -0.4945 -0.0331  0.0502
20385SOL    HW162596   1.652   4.149  11.495 -1.0402 -0.8958  1.3326
20385SOL    HW262597   1.763   4.212  11.575 -0.5598  0.0465 -0.0404
20386SOL     OW62598   3.903   2.563   6.543 -0.3626 -0.2749  0.2126
20386SOL    HW162599   3.998   2.547   6.546  0.0530  1.9358  1.0387
20386SOL    HW262600   3.864   2.486   6.585  1.0383 -1.2979 -0.2800
20387SOL     OW62601   2.507   4.780   3.637 -0.1978  0.7005 -0.4108
20387SOL    HW162602   2.591   4.770   3.591  0.5650  2.2113  0.5540
20387SOL    HW262603   2.451   4.712   3.600  1.8113 -1.1534 -0.2501
20388SOL     OW62604   4.423   4.796   8.671 -0.7667  0.9509 -1.1267
20388SOL    HW162605   4.416   4.707   8.706  1.4925  0.4085 -1.9061
20388SOL    HW262606   4.339   4.812   8.629 -1.1177 -0.9282 -1.2076
20389SOL     OW62607   3.009   7.502   1.832 -0.2897 -0.6367  0.0431
20389SOL    HW162608   2.969   7.522   1.747  1.4605  0.5502 -0.5706
20389SOL    HW262609   3.009   7.585   1.879 -1.0184 -1.2334  1.1220
20390SOL     OW62610   2.892   0.917  11.567  0.0984  0.2110 -0.5419
20390SOL    HW162611   2.803   0.892  11.541  0.3714 -1.1751 -0.2415
20390SOL    HW262612   2.880   0.996  11.620 -1.0777 -0.5392  0.3642
20391SOL     OW62613   5.064   1.546   1.460 -0.2345  0.6526 -0.2163
20391SOL    HW162614   5.006   1.470   1.465  1.0639 -0.3202  0.7809
20391SOL    HW262615   5.024   1.603   1.395 -0.8579 -1.2426 -1.5640
20392SOL     OW62616   3.939   2.296  11.874 -0.1631  0.0682 -0.2634
20392SOL    HW162617   3.992   2.363  11.830 -0.5279 -0.3537 -1.3576
20392SOL    HW262618   3.914   2.337  11.957  1.0732  0.6314 -0.1422
20393SOL     OW62619   6.590   5.381  10.969 -0.2598  0.1245  0.0480
20393SOL    HW162620   6.518   5.391  11.032  0.8609  0.8573  1.2581
20393SOL    HW262621   6.655   5.445  10.997  0.7608 -0.3365 -1.1975
20394SOL     OW62622   4.605   0.435   1.766 -0.4463 -0.0035 -0.2429
20394SOL    HW162623   4.564   0.504   1.713  0.6474 -1.2035 -2.8001
20394SOL    HW262624   4.545   0.361   1.760 -0.7251  0.0961  0.9864
20395SOL     OW62625   3.155   3.454  10.192  0.0866 -0.0907 -0.1160
20395SOL    HW162626   3.184   3.367  10.164 -0.8758 -0.2004 -0.8143
20395SOL    HW262627   3.180   3.458  10.284  0.9979 -0.7338 -0.3156
20396SOL     OW62628   7.354   6.821   0.158 -0.2734 -0.2449 -0.5478
20396SOL    HW162629   7.443   6.813   0.126  0.7431 -0.2129  2.0160
20396SOL    HW262630   7.324   6.731   0.170 -0.6607 -0.2572 -1.5429
20397SOL     OW62631   7.132   3.037   2.164 -0.0888  0.6730 -0.6483
20397SOL    HW162632   7.059   3.002   2.114 -0.5940 -1.4497  1.4207
20397SOL    HW262633   7.096   3.112   2.211 -0.3242  0.9663 -1.2817
20398SOL     OW62634   7.030   0.650   6.066 -0.1142 -0.3176  0.2423
20398SOL    HW162635   7.018   0.743   6.048 -0.3687 -0.4777 -0.4310
20398SOL    HW262636   7.118   0.630   6.033 -0.2695 -0.4362 -0.0975
20399SOL     OW62637   4.360   1.460  12.120 -0.3738 -0.0959 -0.3318
20399SOL    HW162638   4.422   1.446  12.049 -2.1053 -1.2948 -1.7039
20399SOL    HW262639   4.284   1.501  12.078 -1.2692 -0.4270  0.8876
20400SOL     OW62640   0.877   4.841   2.679  0.3685 -0.3112  0.5532
20400SOL    HW162641   0.895   4.763   2.732  1.3955 -1.4180 -1.3137
20400SOL    HW262642   0.852   4.807   2.593  1.3876  1.3909 -0.4873
20401SOL     OW62643   3.919   1.154   9.808  0.1667  0.1337  0.0359
20401SOL    HW162644   3.952   1.139   9.719  0.6866 -1.0302  0.4051
20401SOL    HW262645   3.989   1.123   9.865 -1.0463 -1.2097  0.8496
20402SOL     OW62646   1.313   6.083   8.100  0.2699  0.2811  0.0665
20402SOL    HW162647   1.342   6.151   8.040 -0.4189 -1.1419 -2.0284
20402SOL    HW262648   1.296   6.007   8.043 -1.0608 -0.9622  1.9962
20403SOL     OW62649   7.665   1.941   5.146  0.7153  0.1639 -0.8579
20403SOL    HW162650   7.729   2.009   5.169  1.7207 -0.3488 -2.0363
20403SOL    HW262651   7.636   1.907   5.231  0.6477  1.6200 -0.2501
20404SOL     OW62652   0.877   3.620   5.114  0.1365  0.2132  0.5352
20404SOL    HW162653   0.788   3.585   5.114  0.3361 -0.3718 -1.2327
20404SOL    HW262654   0.889   3.658   5.028  1.7215 -0.0660  0.5903
20405SOL     OW62655   1.538   7.935  11.963  0.4023  0.0250 -0.1746
20405SOL    HW162656   1.618   7.941  12.016 -0.3936  1.5766  0.9298
20405SOL    HW262657   1.534   7.843  11.937  1.4329 -0.5565  1.5236
20406SOL     OW62658   4.795   1.249   1.129  0.3763 -0.5565 -0.2751
20406SOL    HW162659   4.709   1.215   1.155 -0.1926  1.2540  0.3462
20406SOL    HW262660   4.777   1.301   1.051  0.8855 -0.0713 -0.0710
20407SOL     OW62661   5.103   4.330   0.473 -0.0608  0.0061  0.5260
20407SOL    HW162662   5.052   4.399   0.430  0.9758  1.2618  1.2273
20407SOL    HW262663   5.192   4.340   0.437  0.3146 -0.3582  1.3294
20408SOL     OW62664   2.615   3.202   1.675 -0.2464  0.2930  0.2469
20408SOL    HW162665   2.531   3.183   1.633 -0.6518 -0.4128  1.3494
20408SOL    HW262666   2.680   3.185   1.607 -1.0548  2.6831 -1.2434
20409SOL     OW62667   5.694   2.345   6.549  0.2961 -0.5433 -0.5697
20409SOL    HW162668   5.744   2.364   6.629 -1.6309 -0.9643  0.8290
20409SOL    HW262669   5.706   2.423   6.494 -0.1149  0.7967  1.1342
20410SOL     OW62670   4.134   1.007  11.946  0.2555  0.0778  0.7211
20410SOL    HW162671   4.187   0.957  12.008  2.2281 -1.2736 -1.8420
20410SOL    HW262672   4.197   1.048  11.888 -1.4844  1.3992 -0.3295
20411SOL     OW62673   6.404   3.832  10.982 -0.0946 -0.2097 -0.4354
20411SOL    HW162674   6.351   3.911  10.993  0.7157 -0.0008  3.3264
20411SOL    HW262675   6.492   3.864  10.964  0.4562 -0.0977  2.1467
20412SOL     OW62676   2.407   1.010   7.861 -0.0542  0.1961 -0.1788
20412SOL    HW162677   2.481   1.050   7.908  1.3449  0.9516 -2.7893
20412SOL    HW262678   2.442   0.991   7.774 -2.1496 -2.2270 -0.6027
20413SOL     OW62679   0.541   1.712   2.184 -0.5330 -0.0041  0.0225
20413SOL    HW162680   0.636   1.723   2.191 -0.2436 -1.2474 -1.3246
20413SOL    HW262681   0.522   1.633   2.234 -0.9628  0.5478  0.7509
20414SOL     OW62682   7.763   5.633   8.018 -0.1795 -0.0694  0.1198
20414SOL    HW162683   7.782   5.722   7.987  0.4998 -0.2443  0.0057
20414SOL    HW262684   7.680   5.610   7.976  0.3396 -0.0110 -0.9818
20415SOL     OW62685   0.146   4.355  12.046 -0.2874 -0.2832  0.5153
20415SOL    HW162686   0.171   4.377  12.136 -0.6765 -1.1452  0.8557
20415SOL    HW262687   0.218   4.301  12.014 -0.8825 -1.3385  0.8965
20416SOL     OW62688   7.266   1.247   4.897 -0.0768  0.6566  0.2376
20416SOL    HW162689   7.240   1.164   4.937  3.2340 -0.0344  1.3146
20416SOL    HW262690   7.242   1.238   4.805 -2.9053 -0.0118  0.9595
20417SOL     OW62691   5.331   2.608   9.741 -0.6378  0.5328 -0.0712
20417SOL    HW162692   5.371   2.637   9.822  0.3724 -0.4851 -0.1863
20417SOL    HW262693   5.400   2.619   9.675 -1.3621  1.1015 -0.7549
20418SOL     OW62694   1.798   3.370  10.312 -0.3249 -0.4145 -0.5252
20418SOL    HW162695   1.715   3.379  10.358 -0.2435  0.8042 -0.5863
20418SOL    HW262696   1.811   3.454  10.269  1.0274 -0.5234 -0.3762
20419SOL     OW62697   2.524   4.961   4.165  0.0726 -0.4568  0.2103
20419SOL    HW162698   2.597   4.909   4.132  0.7859 -0.7812  2.1651
20419SOL    HW262699   2.457   4.897   4.190  0.5277 -0.4076  1.6278
20420SOL     OW62700   1.470   6.944  11.206  0.3660  0.2731  0.1378
20420SOL    HW162701   1.556   6.914  11.178 -0.1738 -0.3525 -0.9149
20420SOL    HW262702   1.482   7.038  11.224  1.2038  0.2475 -0.2570
20421SOL     OW62703   2.978   1.494   4.566  0.0986 -0.4930 -0.0892
20421SOL    HW162704   3.059   1.545   4.556 -0.8347  0.6256 -3.5464
20421SOL    HW262705   2.916   1.555   4.605 -0.1222  0.0305 -1.2067
20422SOL     OW62706   2.528   6.459   1.020 -0.4700  0.2922 -0.3768
20422SOL    HW162707   2.501   6.414   1.099  0.0469  1.3668  0.4365
20422SOL    HW262708   2.552   6.388   0.959 -1.2063 -0.5493  0.2881
20423SOL     OW62709   0.374   3.360   2.251 -0.0529  0.3861  0.0145
20423SOL    HW162710   0.283   3.389   2.245  0.2393  1.0721 -1.4648
20423SOL    HW262711   0.425   3.441   2.261  0.5836  0.2411 -1.7414
20424SOL     OW62712   0.355   0.509   8.701 -0.7977  0.0152 -0.0866
20424SOL    HW162713   0.394   0.587   8.739  0.5075 -0.8651  0.4394
20424SOL    HW262714   0.301   0.542   8.629  0.4576  1.3195 -0.4690
20425SOL     OW62715   6.978   7.138   2.260 -0.2564 -0.1708 -0.2630
20425SOL    HW162716   6.974   7.078   2.187  1.4470 -0.8152  0.1322
20425SOL    HW262717   6.921   7.099   2.327  1.3063 -1.7483  0.2302
20426SOL     OW62718   2.104   4.555   6.473  0.1832  0.3826  0.1013
20426SOL    HW162719   2.146   4.626   6.522  0.2275  0.1234  0.4461
20426SOL    HW262720   2.173   4.489   6.462  0.3607  0.7243 -0.9019
20427SOL     OW62721   4.672   1.232   5.002 -0.1733  0.3002  0.7211
20427SOL    HW162722   4.611   1.216   4.931  0.0878 -1.2836  0.8075
20427SOL    HW262723   4.758   1.214   4.964  0.0613  0.5090  1.1476
20428SOL     OW62724   7.429   1.057   6.855  0.5746 -0.6155  0.0847
20428SOL    HW162725   7.505   1.013   6.818  0.0937 -0.3832 -1.2131
20428SOL    HW262726   7.446   1.150   6.842  0.0010 -0.5686 -0.3394
20429SOL     OW62727   1.906   2.801   0.614 -0.2497 -0.4820 -0.3095
20429SOL    HW162728   1.964   2.835   0.546 -0.2300 -0.5817 -0.3425
20429SOL    HW262729   1.896   2.874   0.675 -0.8903 -0.1290 -0.8204
20430SOL     OW62730   0.972   5.392   0.896  0.5984 -0.0967  0.7006
20430SOL    HW162731   0.930   5.469   0.857  1.2602 -0.0444  0.0884
20430SOL    HW262732   0.901   5.348   0.943  0.4619  1.6313  2.2641
20431SOL     OW62733   2.111   1.490  10.168  0.4499  0.0372 -0.3439
20431SOL    HW162734   2.022   1.526  10.163 -0.1073 -0.6816  2.4876
20431SOL    HW262735   2.098   1.395  10.167  0.8153 -0.1453  2.6911
20432SOL     OW62736   4.319   1.289   6.282  0.3848  0.0244 -0.0009
20432SOL    HW162737   4.403   1.244   6.280 -0.0559 -0.8041 -2.1972
20432SOL    HW262738   4.342   1.382   6.282  1.3977 -0.1358 -2.6178
20433SOL     OW62739   1.307   3.094   4.621 -0.5358 -0.8491  0.0807
20433SOL    HW162740   1.366   3.024   4.650  1.7370 -0.5145 -3.2025
20433SOL    HW262741   1.350   3.175   4.648 -1.8445 -0.5863  1.5515
20434SOL     OW62742   7.622   1.632   8.309 -0.6142 -0.4594 -0.0883
20434SOL    HW162743   7.568   1.566   8.265  1.7917 -1.8635 -1.1113
20434SOL    HW262744   7.710   1.595   8.310  0.5928  2.1744  0.5671
20435SOL     OW62745   6.260   7.368   2.247  0.1889 -0.0557 -0.1064
20435SOL    HW162746   6.297   7.328   2.168  0.4986 -0.3734  0.1953
20435SOL    HW262747   6.190   7.309   2.273 -0.1479  0.2350 -0.3403
20436SOL     OW62748   7.193   6.329  11.267  0.4345 -0.9280  0.3800
20436SOL    HW162749   7.179   6.385  11.343  1.0661 -1.4857  0.9124
20436SOL    HW262750   7.106   6.294  11.247 -0.0592  0.5831 -0.2523
20437SOL     OW62751   6.544   5.204  10.706  0.0392 -0.1774 -0.3849
20437SOL    HW162752   6.468   5.217  10.649  0.7999  0.1748 -1.3608
20437SOL    HW262753   6.509   5.162  10.784 -1.3655  1.1549 -0.2520
20438SOL     OW62754   5.151   3.008   4.575  0.0173  0.1158 -0.0127
20438SOL    HW162755   5.183   2.918   4.572  2.6070  0.9815 -0.4021
20438SOL    HW262756   5.088   3.013   4.502 -2.0316 -1.9342  1.4613
20439SOL     OW62757   2.075   4.531   9.544 -0.0392 -0.3839  0.1382
20439SOL    HW162758   2.018   4.585   9.489 -0.4787 -1.4408 -0.4810
20439SOL    HW262759   2.161   4.571   9.535 -0.2731 -0.0262 -0.6547
20440SOL     OW62760   1.394   7.046  12.385  0.3792  0.0090  0.3441
20440SOL    HW162761   1.476   6.996  12.386  0.0623 -0.5130  1.3544
20440SOL    HW262762   1.409   7.117  12.447  0.6136  0.8407 -0.6428
20441SOL     OW62763   5.814   3.014   6.297 -0.0436 -0.1601  0.5053
20441SOL    HW162764   5.854   2.996   6.382  0.9032 -1.1190 -0.1174
20441SOL    HW262765   5.774   2.931   6.272  0.4209 -0.1333 -0.3540
20442SOL     OW62766   3.210   3.184   9.574  0.2496  0.3888 -0.3428
20442SOL    HW162767   3.272   3.226   9.634  1.1882  2.0014 -2.3296
20442SOL    HW262768   3.125   3.216   9.602  0.7018  1.4078 -0.0923
20443SOL     OW62769   4.996   6.460   7.437  0.1537 -0.0645  0.4961
20443SOL    HW162770   5.081   6.451   7.393  0.5843 -2.3793  1.6316
20443SOL    HW262771   4.932   6.465   7.366  0.9672 -2.0348 -0.4593
20444SOL     OW62772   1.952   3.534   6.945  0.0269 -0.2157  0.3093
20444SOL    HW162773   1.868   3.513   6.903  0.3057 -0.1882 -0.2714
20444SOL    HW262774   1.990   3.602   6.889  0.8529 -0.8810  0.0553
20445SOL     OW62775   3.554   6.777   7.968 -0.3147  0.0085 -0.0477
20445SOL    HW162776   3.469   6.794   7.928  0.6840  0.5047 -2.0647
20445SOL    HW262777   3.564   6.847   8.033 -0.7065  0.9819 -1.0147
20446SOL     OW62778   7.863   5.329   5.787  0.1809  0.0292 -0.0717
20446SOL    HW162779   7.882   5.405   5.842 -0.1219 -0.8915  1.3604
20446SOL    HW262780   7.768   5.332   5.775  0.3160  0.6041 -1.1659
20447SOL     OW62781   0.119   2.530  12.451 -0.4362  0.7456 -0.3101
20447SOL    HW162782   0.082   2.443  12.461  0.2288  0.1523 -2.3830
20447SOL    HW262783   0.074   2.584  12.516 -1.1520 -1.0371  0.7336
20448SOL     OW62784   2.902   3.762   3.152 -0.1172  0.2858  0.5567
20448SOL    HW162785   2.944   3.812   3.082  0.0371  0.0565  0.4839
20448SOL    HW262786   2.854   3.827   3.203 -1.6746  0.2364 -0.7741
20449SOL     OW62787   0.129   6.191   8.823 -0.2815  0.3616 -0.2265
20449SOL    HW162788   0.038   6.206   8.798 -1.1926 -0.5614  2.2419
20449SOL    HW262789   0.132   6.099   8.851  0.9312  0.8593  1.4674
20450SOL     OW62790   6.604   2.445   0.836 -0.0244  0.0509  0.0664
20450SOL    HW162791   6.655   2.441   0.918 -1.6895  0.4093  1.1769
20450SOL    HW262792   6.546   2.519   0.848 -1.6585 -1.0662 -0.6095
20451SOL     OW62793   4.848   0.758   8.423 -0.1866  0.5379  0.4728
20451SOL    HW162794   4.787   0.689   8.398  1.2046 -1.2774  1.8726
20451SOL    HW262795   4.904   0.769   8.346 -1.0166  0.8466 -0.1060
20452SOL     OW62796   5.735   7.899   4.675  0.4917  0.6315 -0.4498
20452SOL    HW162797   5.795   7.972   4.693  0.3537  0.4614  0.7656
20452SOL    HW262798   5.771   7.857   4.597  1.0712  1.4636 -0.6486
20453SOL     OW62799   1.892   4.798  11.777  0.1920 -0.4062  0.5092
20453SOL    HW162800   1.842   4.870  11.739  0.4345 -0.6812 -0.3463
20453SOL    HW262801   1.972   4.793  11.724  1.6824  0.7352  2.5281
20454SOL     OW62802   5.244   3.905   6.089 -0.1954  0.0145  0.0745
20454SOL    HW162803   5.228   3.998   6.109 -0.8148  0.7047 -3.1140
20454SOL    HW262804   5.298   3.874   6.162  1.0767  3.1988  0.6699
20455SOL     OW62805   7.118   5.399   6.363 -0.2009 -0.3145  0.0319
20455SOL    HW162806   7.119   5.314   6.407 -1.5820  0.3971  1.5024
20455SOL    HW262807   7.038   5.442   6.394  0.3172  1.4148 -0.8974
20456SOL     OW62808   1.641   7.442   3.945  0.7016  0.5316 -0.0339
20456SOL    HW162809   1.633   7.380   3.872  1.7164 -0.2499  0.4961
20456SOL    HW262810   1.723   7.488   3.928  0.9050  0.4019  0.5735
20457SOL     OW62811   3.380   0.889   7.705 -0.2298  0.4498 -0.0353
20457SOL    HW162812   3.417   0.889   7.793  0.2914  0.7304 -0.2535
20457SOL    HW262813   3.305   0.948   7.710  2.0997  3.7796 -0.7225
20458SOL     OW62814   1.985   7.103  10.192  0.0632 -0.5572  0.3210
20458SOL    HW162815   2.028   7.188  10.188  1.5357 -1.3120 -2.5064
20458SOL    HW262816   2.010   7.068  10.278  0.0262  1.5227  1.2231
20459SOL     OW62817   4.667   5.356   1.678  0.5334  0.0860  0.0414
20459SOL    HW162818   4.616   5.364   1.759  0.6276 -1.5167  0.3071
20459SOL    HW262819   4.629   5.279   1.634  0.6265  0.8024 -1.3379
20460SOL     OW62820   7.344   2.999   4.201 -0.1282  0.2445  0.3322
20460SOL    HW162821   7.304   3.001   4.288  0.3602 -1.4351  0.6236
20460SOL    HW262822   7.288   2.941   4.150  0.3086  0.2062 -0.1063
20461SOL     OW62823   6.855   5.908   2.087 -0.0134  0.3154 -0.0607
20461SOL    HW162824   6.789   5.973   2.112  0.1849  0.7881 -0.7483
20461SOL    HW262825   6.895   5.883   2.170 -1.6034 -0.5983  0.4787
20462SOL     OW62826   1.497   0.363   5.968 -0.3177 -0.1255  0.1974
20462SOL    HW162827   1.550   0.346   6.047  0.4884 -1.1682 -0.5426
20462SOL    HW262828   1.425   0.418   5.999  0.1845 -0.2149  1.5955
20463SOL     OW62829   3.229   5.861   5.844  0.0993  0.0565  0.2470
20463SOL    HW162830   3.322   5.873   5.829  0.4813 -2.4337  0.2510
20463SOL    HW262831   3.189   5.877   5.759  0.5652  0.7107  0.1445
20464SOL     OW62832   4.626   2.217   5.662  0.2154 -0.1007 -0.0420
20464SOL    HW162833   4.637   2.304   5.699  2.4745  0.1689 -1.1633
20464SOL    HW262834   4.713   2.177   5.669 -0.6429 -2.0946 -0.0160
20465SOL     OW62835   6.681   2.858  10.957  0.1828  0.6290 -0.8072
20465SOL    HW162836   6.601   2.807  10.970  2.4315 -2.6212  2.4016
20465SOL    HW262837   6.671   2.933  11.015 -0.4414  0.0692 -0.1709
20466SOL     OW62838   3.022   0.855   3.430 -0.2908 -0.4300 -0.4180
20466SOL    HW162839   2.986   0.943   3.439 -0.6483 -0.5728 -0.4144
20466SOL    HW262840   3.105   0.858   3.478 -0.3721 -0.1365 -0.2914
20467SOL     OW62841   5.120   4.338   2.339 -0.0227 -0.4789 -0.1821
20467SOL    HW162842   5.088   4.261   2.292 -1.4059 -0.5221  0.7719
20467SOL    HW262843   5.106   4.317   2.431 -0.2514  0.8327  0.1017
20468SOL     OW62844   4.240   1.030  11.279  0.2430  0.6100 -0.1524
20468SOL    HW162845   4.153   1.062  11.299  0.3128 -0.1105  1.5167
20468SOL    HW262846   4.293   1.053  11.356  1.0086 -0.7526 -0.2193
20469SOL     OW62847   1.306   3.517   3.037 -0.8733  0.2879  0.1258
20469SOL    HW162848   1.339   3.513   3.127  0.6947 -1.7654 -0.4716
20469SOL    HW262849   1.355   3.589   2.997 -2.1127  1.7029  1.0667
20470SOL     OW62850   0.691   7.345   0.721 -0.7668  0.2532  0.0158
20470SOL    HW162851   0.668   7.324   0.811 -2.6669  1.1672 -0.2047
20470SOL    HW262852   0.608   7.369   0.680  0.1681  0.6335 -1.7658
20471SOL     OW62853   3.955   5.814   3.754  0.0954 -0.7509  0.3108
20471SOL    HW162854   4.041   5.815   3.795  0.7050 -0.3140 -0.9120
20471SOL    HW262855   3.896   5.848   3.821  1.1080  0.2750  0.7159
20472SOL     OW62856   6.233   7.638   8.625 -0.2185  0.2323  0.1204
20472SOL    HW162857   6.252   7.687   8.706 -3.0597  2.3282 -0.3463
20472SOL    HW262858   6.219   7.705   8.559 -0.2229 -1.3823 -1.6039
20473SOL     OW62859   5.910   6.885   8.223 -0.2998 -0.0634 -0.3340
20473SOL    HW162860   5.898   6.811   8.282  0.4533 -0.7456 -1.0054
20473SOL    HW262861   5.899   6.962   8.278 -1.6120 -0.6578  0.2790
20474SOL     OW62862   4.993   0.870   7.024 -0.1592 -0.4934  0.2190
20474SOL    HW162863   4.972   0.961   7.006  1.2809 -0.5208 -1.9407
20474SOL    HW262864   5.060   0.873   7.092 -0.7642 -0.0094  0.8037
20475SOL     OW62865   1.310   2.137   7.384  0.0624 -0.1995  0.1181
20475SOL    HW162866   1.403   2.117   7.371  0.7718  2.1381  1.0245
20475SOL    HW262867   1.296   2.218   7.335 -1.7131 -0.8892 -0.5831
20476SOL     OW62868   3.451   1.098   2.639 -0.4352  0.2041 -0.5214
20476SOL    HW162869   3.493   1.085   2.724 -1.1805  0.9300 -0.0211
20476SOL    HW262870   3.404   1.016   2.622 -0.4457  0.1295 -0.1345
20477SOL     OW62871   2.812   1.829   7.622  0.2278  0.4011  0.2202
20477SOL    HW162872   2.718   1.842   7.612  0.2927  0.6928 -0.0529
20477SOL    HW262873   2.851   1.903   7.575  0.5684  1.5241  2.1664
20478SOL     OW62874   0.720   0.130   7.555  0.3391 -0.0513 -0.2244
20478SOL    HW162875   0.676   0.057   7.599 -1.0557  0.6434 -0.3825
20478SOL    HW262876   0.758   0.182   7.626 -3.1705  1.8965  0.4944
20479SOL     OW62877   0.272   3.284   2.870 -0.2091 -0.5388  0.1647
20479SOL    HW162878   0.333   3.289   2.943 -0.2653 -0.9397  0.2437
20479SOL    HW262879   0.249   3.375   2.850 -2.5359 -0.4540  2.6249
20480SOL     OW62880   0.789   0.055  11.356  0.3581  0.2636  0.2971
20480SOL    HW162881   0.793   0.115  11.430 -0.1272 -0.7240  1.1468
20480SOL    HW262882   0.695   0.047  11.337  0.2933 -1.3636  1.1673
20481SOL     OW62883   5.396   3.853   6.299 -0.1165  0.5065  0.9881
20481SOL    HW162884   5.455   3.778   6.295 -2.7595 -1.7594  1.4011
20481SOL    HW262885   5.382   3.867   6.392 -1.8562 -0.4442  0.9062
20482SOL     OW62886   1.001   2.185   6.062  0.3951 -0.6188  0.6794
20482SOL    HW162887   0.997   2.254   6.128  0.0689 -1.6455  1.7684
20482SOL    HW262888   0.963   2.108   6.105  0.9449 -1.5389 -0.4209
20483SOL     OW62889   0.899   2.424   0.011 -0.1013 -0.2754 -0.0423
20483SOL    HW162890   0.992   2.439  -0.006 -0.1635  1.5885  1.0056
20483SOL    HW262891   0.869   2.372  -0.064  1.3153  0.8674 -1.4758
20484SOL     OW62892   0.675   4.542   2.411  0.2379 -0.2887 -0.2611
20484SOL    HW162893   0.722   4.506   2.486  0.8593  0.9616 -0.0107
20484SOL    HW262894   0.685   4.637   2.421 -0.8637 -0.0634 -1.1683
20485SOL     OW62895   5.379   5.210   1.652 -0.1888  0.5672  0.4617
20485SOL    HW162896   5.363   5.239   1.742  0.8754  0.1578  0.8039
20485SOL    HW262897   5.414   5.121   1.661  0.0545  0.5688 -0.3417
20486SOL     OW62898   0.989   4.654   8.665  0.0914  0.2096  0.0660
20486SOL    HW162899   1.028   4.599   8.733 -1.3850  1.5231  2.0689
20486SOL    HW262900   1.061   4.708   8.634  0.9141 -0.8055  0.1622
20487SOL     OW62901   4.336   2.601   1.626 -0.3069  0.4973 -0.5345
20487SOL    HW162902   4.313   2.527   1.570  1.0922  1.9426 -3.2252
20487SOL    HW262903   4.385   2.562   1.698 -1.8468 -1.4071 -0.4312
20488SOL     OW62904   5.317   5.552   9.183  0.1994  0.3559  0.0867
20488SOL    HW162905   5.337   5.458   9.182  0.6530  0.3556  2.5664
20488SOL    HW262906   5.402   5.594   9.167 -0.0941  0.3640 -1.5266
20489SOL     OW62907   2.611   0.832   1.451 -0.1562 -0.2443  0.2352
20489SOL    HW162908   2.685   0.793   1.498 -0.6080 -0.2563  0.9620
20489SOL    HW262909   2.593   0.772   1.379  0.7506 -0.0672 -0.1491
20490SOL     OW62910   4.014   7.451   5.254 -0.5022  0.3175 -0.1879
20490SOL    HW162911   3.985   7.468   5.164 -1.4139 -2.0303 -0.4032
20490SOL    HW262912   3.957   7.381   5.285  1.6264 -0.9099  1.2191
20491SOL     OW62913   5.082   4.776   0.109  0.2184  0.2234  0.1625
20491SOL    HW162914   5.063   4.815   0.024  0.7583  0.8896  0.3374
20491SOL    HW262915   5.085   4.850   0.170  1.1700 -0.0908  0.5155
20492SOL     OW62916   1.475   6.113   5.941  0.1104  0.2424  0.1692
20492SOL    HW162917   1.533   6.131   5.867  1.6430  0.5395  1.3994
20492SOL    HW262918   1.530   6.122   6.018 -1.3538 -0.4505  1.3565
20493SOL     OW62919   3.985   4.829   6.498  0.0734 -0.1363  0.2554
20493SOL    HW162920   3.982   4.767   6.571 -1.6888 -1.3714 -0.7897
20493SOL    HW262921   4.014   4.776   6.424 -2.4326 -0.0150 -0.8831
20494SOL     OW62922   6.844   2.346   4.021  0.1096 -0.7221  0.2007
20494SOL    HW162923   6.760   2.311   4.052  0.4791 -0.0164  2.1312
20494SOL    HW262924   6.854   2.309   3.933 -2.2701 -0.7228 -0.1466
20495SOL     OW62925   7.306   5.993   0.638  0.1111  0.8151  0.0467
20495SOL    HW162926   7.265   6.078   0.629  0.1423  0.9904  1.3671
20495SOL    HW262927   7.356   5.999   0.720  0.2106 -0.4175  0.0942
20496SOL     OW62928   5.210   3.316   6.136 -0.1172  0.5468 -0.0671
20496SOL    HW162929   5.266   3.391   6.153  1.9540 -0.4586 -1.8691
20496SOL    HW262930   5.208   3.267   6.218  3.2801 -0.3080 -0.3319
20497SOL     OW62931   6.564   7.377   7.493  0.3127 -0.7638 -0.0441
20497SOL    HW162932   6.622   7.416   7.558  1.4834  0.0125 -1.4810
20497SOL    HW262933   6.613   7.302   7.459  0.8995  0.3342 -1.8020
20498SOL     OW62934   5.881   6.405  11.518  0.0707  0.7474  0.0839
20498SOL    HW162935   5.788   6.427  11.523 -0.2136 -0.4181  0.2168
20498SOL    HW262936   5.890   6.323  11.567  0.8108 -0.1701 -1.4919
20499SOL     OW62937   1.792   7.705   0.932 -0.1149  0.4578 -0.5356
20499SOL    HW162938   1.700   7.718   0.913 -0.0485 -0.6604 -1.7157
20499SOL    HW262939   1.793   7.655   1.014 -0.4961  1.8658  0.3519
20500SOL     OW62940   6.332   0.006   5.528  0.1372  0.2694  0.5825
20500SOL    HW162941   6.379   0.074   5.576 -1.0351  0.3932  1.6270
20500SOL    HW262942   6.339  -0.072   5.583  0.1264 -0.0148  0.1810
20501SOL     OW62943   3.206   0.612   6.426  0.3008  0.1621  0.7050
20501SOL    HW162944   3.202   0.518   6.409  1.1836 -0.0046  1.4096
20501SOL    HW262945   3.280   0.643   6.374 -1.1463  0.8381 -1.0900
20502SOL     OW62946   1.145   4.862   7.605 -0.8487 -0.2611  0.3405
20502SOL    HW162947   1.110   4.926   7.543 -1.7824 -0.9672  0.1134
20502SOL    HW262948   1.235   4.848   7.576 -0.2207  1.8088  1.1128
20503SOL     OW62949   5.933   2.278   7.644 -0.2423 -0.5162  0.1598
20503SOL    HW162950   5.937   2.299   7.737 -1.5683  0.2605  0.0534
20503SOL    HW262951   5.846   2.306   7.616  0.0266 -1.0096 -1.2536
20504SOL     OW62952   1.734   7.387   9.186 -0.3734 -0.5568 -0.3417
20504SOL    HW162953   1.716   7.346   9.102 -0.2255  1.7900 -1.5972
20504SOL    HW262954   1.666   7.453   9.196  0.7419  0.5389  0.4017
20505SOL     OW62955   6.678   7.632  11.238 -0.2109  0.5202  0.4283
20505SOL    HW162956   6.692   7.551  11.190  1.2200  1.0782 -0.1786
20505SOL    HW262957   6.588   7.628  11.268 -0.5758 -0.6863 -0.7460
20506SOL     OW62958   4.467   0.916   8.830 -0.8062  0.7124 -0.2829
20506SOL    HW162959   4.509   0.974   8.766  0.7510 -1.4222 -1.3340
20506SOL    HW262960   4.531   0.910   8.901 -1.5436  1.2926  0.4430
20507SOL     OW62961   3.133   5.076   4.273  0.0911  0.4507  0.2424
20507SOL    HW162962   3.127   5.158   4.323  2.1696  2.4803 -2.5392
20507SOL    HW262963   3.204   5.027   4.315 -0.1358  0.7498  0.9902
20508SOL     OW62964   6.888   3.672   1.092  0.3554 -0.3046 -0.0220
20508SOL    HW162965   6.870   3.704   1.181 -0.2517 -0.7822  0.0343
20508SOL    HW262966   6.964   3.615   1.102 -0.4832 -1.3718  0.4215
20509SOL     OW62967   7.652   4.566   6.583 -0.4322  0.9003  0.3094
20509SOL    HW162968   7.651   4.470   6.582  0.3445  0.8757  1.0122
20509SOL    HW262969   7.575   4.590   6.634 -0.2597  0.6301  0.7036
20510SOL     OW62970   2.183   7.310   7.372  0.1883 -0.1861  0.2185
20510SOL    HW162971   2.197   7.400   7.342  0.8795 -0.0297  0.9810
20510SOL    HW262972   2.264   7.287   7.418 -0.7891 -0.4417  1.8935
20511SOL     OW62973   2.530   0.505   7.717  0.0385 -0.1891 -0.2828
20511SOL    HW162974   2.620   0.533   7.699 -0.1549  1.3724  0.9356
20511SOL    HW262975   2.526   0.499   7.813 -0.8397 -1.4046 -0.3788
20512SOL     OW62976   3.709   6.744   1.976  0.2330  0.1252 -0.1092
20512SOL    HW162977   3.708   6.827   1.929  1.6981  0.6894  0.7957
20512SOL    HW262978   3.770   6.758   2.049  1.4453 -2.0861 -0.6059
20513SOL     OW62979   4.451   2.226   3.962  0.0027  0.2361  0.0301
20513SOL    HW162980   4.370   2.276   3.953 -0.4533 -0.4405  0.2903
20513SOL    HW262981   4.422   2.140   3.992  0.4458 -1.2667 -3.4224
20514SOL     OW62982   5.699   1.941   4.157 -0.2799 -0.9091  0.7320
20514SOL    HW162983   5.770   1.879   4.141 -1.6845 -2.0640 -1.5421
20514SOL    HW262984   5.720   2.016   4.103 -1.5028 -1.9286 -1.2931
20515SOL     OW62985   0.431   4.997   3.154  0.3810 -0.0714  0.4563
20515SOL    HW162986   0.465   4.986   3.065  1.0594  0.9969  0.5522
20515SOL    HW262987   0.425   5.092   3.165 -2.8287 -0.1839  0.4176
20516SOL     OW62988   0.350   5.270   7.851 -0.2907 -0.0700  0.2331
20516SOL    HW162989   0.315   5.252   7.938 -1.6587 -0.0910 -0.2872
20516SOL    HW262990   0.444   5.258   7.859 -0.2809  0.9070  1.9367
20517SOL     OW62991   5.528   2.101   5.620 -0.1685  0.7869  0.4831
20517SOL    HW162992   5.435   2.082   5.606 -0.3128  0.9891  1.1073
20517SOL    HW262993   5.548   2.172   5.560 -0.4922  0.9374  0.5542
20518SOL     OW62994   1.795   6.927   4.624 -0.7427 -0.3636  0.3112
20518SOL    HW162995   1.874   6.883   4.591  0.5955 -0.1452  2.9781
20518SOL    HW262996   1.809   7.020   4.604 -0.8446 -0.4465 -0.1610
20519SOL     OW62997   7.130   7.872   5.549 -0.3441 -0.2838 -0.2249
20519SOL    HW162998   7.104   7.958   5.516 -0.4080 -1.2386 -2.8915
20519SOL    HW262999   7.063   7.850   5.613 -0.2048  1.6953  0.6864
20520SOL     OW63000   0.960   2.729   1.168  0.1855  0.2566 -0.0127
20520SOL    HW163001   0.872   2.734   1.132 -0.6665 -1.2517  1.6584
20520SOL    HW263002   1.008   2.672   1.107 -0.3863  0.0369 -0.2659
20521SOL     OW63003   0.718   5.047   6.423 -0.5712  0.5076 -0.8033
20521SOL    HW163004   0.684   5.136   6.416  0.8242  1.1218 -0.1496
20521SOL    HW263005   0.808   5.058   6.452 -0.8721 -1.1662  1.0130
20522SOL     OW63006   4.527   4.256   1.149 -0.4447 -0.3566  0.2109
20522SOL    HW163007   4.516   4.207   1.067 -0.9266 -0.4287  0.3153
20522SOL    HW263008   4.622   4.269   1.156 -0.4519  0.3056 -0.7353
20523SOL     OW63009   2.978   3.746  12.199  0.0488  0.5532  0.7536
20523SOL    HW163010   3.030   3.686  12.146  1.8442  1.1910  1.7065
20523SOL    HW263011   2.948   3.813  12.137 -1.7961 -1.1151 -0.2763
20524SOL     OW63012   4.232   1.047   8.745  0.3503 -0.3389 -0.2486
20524SOL    HW163013   4.257   1.133   8.781 -0.9967 -0.5268  1.3119
20524SOL    HW263014   4.301   0.988   8.773 -1.0178 -0.6494  3.0530
20525SOL     OW63015   0.645   2.625  10.742 -0.2088  0.4751 -0.8478
20525SOL    HW163016   0.690   2.671  10.672  0.1900 -0.7141 -1.3935
20525SOL    HW263017   0.709   2.562  10.774  0.1246  1.8769  1.5490
20526SOL     OW63018   5.042   7.120   5.146 -0.1828  0.1981 -0.0405
20526SOL    HW163019   5.023   7.213   5.160 -1.1527 -0.3288  2.7674
20526SOL    HW263020   5.047   7.083   5.234 -1.1294 -2.6643 -1.0874
20527SOL     OW63021   1.432   0.067   8.353  0.3029 -0.7768 -0.0695
20527SOL    HW163022   1.477   0.068   8.269  0.1147 -1.5279 -0.1940
20527SOL    HW263023   1.341   0.089   8.332 -0.0064 -2.1302 -0.2537
20528SOL     OW63024   6.528   5.703   9.620  0.3167 -0.6256 -0.2356
20528SOL    HW163025   6.584   5.766   9.574 -1.9495  0.4486 -1.7438
20528SOL    HW263026   6.500   5.642   9.551  0.0264 -1.4362  0.5790
20529SOL     OW63027   6.859   5.187   2.016 -0.6030  0.5389 -0.3343
20529SOL    HW163028   6.854   5.266   2.069 -0.8627  0.9705 -0.9858
20529SOL    HW263029   6.769   5.171   1.988 -0.3992  0.5893 -1.0292
20530SOL     OW63030   0.754   4.137   7.050 -0.2180  0.5728 -0.1000
20530SOL    HW163031   0.710   4.074   7.107  0.8040 -0.5502 -0.5053
20530SOL    HW263032   0.845   4.138   7.081 -0.0245  1.1835 -0.6710
20531SOL     OW63033   0.422   5.329   7.449 -0.0154 -0.0068  0.0647
20531SOL    HW163034   0.416   5.329   7.354  0.7123  0.2903  0.0116
20531SOL    HW263035   0.475   5.252   7.470  0.7029  0.4958  0.1532
20532SOL     OW63036   6.130   4.334   9.636 -0.2626 -0.3005 -0.4256
20532SOL    HW163037   6.223   4.323   9.654 -0.3800  0.6616  0.9345
20532SOL    HW263038   6.118   4.429   9.627 -0.8996 -0.4872 -1.9517
20533SOL     OW63039   3.905   0.336   8.636 -0.2927 -0.3546  0.5586
20533SOL    HW163040   3.909   0.395   8.560  3.6177  0.0656  0.8445
20533SOL    HW263041   3.863   0.388   8.704  1.6083  1.6330  0.3334
20534SOL     OW63042   0.238   1.103   0.020 -0.2384  0.2517 -0.1821
20534SOL    HW163043   0.311   1.164   0.014 -0.4742  0.4567 -1.3578
20534SOL    HW263044   0.166   1.155   0.054 -0.7848  1.0227 -2.3280
20535SOL     OW63045   1.034   4.738   0.268 -0.2978  0.3572 -0.4199
20535SOL    HW163046   1.102   4.804   0.257 -2.8303  2.8898 -2.1205
20535SOL    HW263047   0.973   4.776   0.331  0.2917 -2.3886  2.0582
20536SOL     OW63048   2.357   4.179   4.689 -0.5104  0.3068 -0.0641
20536SOL    HW163049   2.289   4.142   4.633  0.0452 -0.1273 -0.4541
20536SOL    HW263050   2.327   4.269   4.706  0.6627  1.4749 -3.3979
20537SOL     OW63051   2.619   1.904   2.877  0.3740  0.0586  0.0393
20537SOL    HW163052   2.588   1.830   2.928  0.8981 -0.2413 -0.0670
20537SOL    HW263053   2.710   1.882   2.855 -0.2702 -0.5119 -2.2992
20538SOL     OW63054   1.491   2.966   5.038 -0.1929  0.0892 -0.3783
20538SOL    HW163055   1.448   2.888   5.073 -0.4234  0.5393  0.3567
20538SOL    HW263056   1.499   3.025   5.113  1.7568  0.0040 -0.4896
20539SOL     OW63057   5.304   6.104   5.073 -0.2882  0.3791  0.2452
20539SOL    HW163058   5.210   6.112   5.060 -0.4953 -0.5266  1.1158
20539SOL    HW263059   5.339   6.188   5.044 -1.0919 -0.1032 -2.3681
20540SOL     OW63060   0.488   4.738   8.306 -0.5748 -0.2170 -0.2045
20540SOL    HW163061   0.565   4.750   8.362 -0.9430  0.2752  0.2090
20540SOL    HW263062   0.500   4.800   8.234 -0.6850  0.0173 -0.0238
20541SOL     OW63063   3.593   6.381   7.051  0.7058  0.1460  0.2919
20541SOL    HW163064   3.678   6.361   7.089  0.7540 -1.3333 -0.5235
20541SOL    HW263065   3.529   6.346   7.113  0.7107  0.2073  0.3320
20542SOL     OW63066   7.026   0.715  10.509  0.2650  0.6669  0.1241
20542SOL    HW163067   6.935   0.695  10.486  0.0409  2.8151 -1.1162
20542SOL    HW263068   7.020   0.798  10.556  1.6583  1.3210 -0.7995
20543SOL     OW63069   7.156   3.507  10.989 -0.7544 -0.8462  0.1070
20543SOL    HW163070   7.069   3.529  10.955 -1.1546 -2.7772 -0.2428
20543SOL    HW263071   7.153   3.412  11.002  0.9333 -0.7943  1.1910
20544SOL     OW63072   4.860   6.608   1.665  0.0647 -0.3171  0.2774
20544SOL    HW163073   4.765   6.604   1.677 -0.3002  1.4058 -1.4847
20544SOL    HW263074   4.891   6.656   1.741 -0.3920 -1.3082  1.1128
20545SOL     OW63075   6.168   4.990  10.782 -0.1483 -0.0402 -0.0903
20545SOL    HW163076   6.185   4.955  10.695 -1.7359 -1.0418 -0.0313
20545SOL    HW263077   6.153   4.913  10.837 -2.1972  0.6236  0.3810
20546SOL     OW63078   2.167   3.267   8.118  0.8599  0.5856 -0.5711
20546SOL    HW163079   2.126   3.194   8.165 -0.7019  1.1957 -0.9380
20546SOL    HW263080   2.257   3.268   8.150  0.0154  0.6412  2.0168
20547SOL     OW63081   3.577   7.689   4.443 -0.5407  0.5333  0.0279
20547SOL    HW163082   3.495   7.663   4.400  0.0262 -0.7770 -0.2978
20547SOL    HW263083   3.586   7.627   4.515  2.0526 -1.8597 -2.1688
20548SOL     OW63084   7.776   4.697   8.341 -0.2000 -0.2500 -0.3758
20548SOL    HW163085   7.798   4.759   8.411 -1.2664 -1.6918  1.3314
20548SOL    HW263086   7.847   4.633   8.341 -0.1828 -0.2339 -0.6445
20549SOL     OW63087   3.635   1.586   9.200  0.0024 -0.0108 -0.8292
20549SOL    HW163088   3.705   1.521   9.198 -0.4136 -0.4836 -0.3437
20549SOL    HW263089   3.670   1.657   9.254 -0.1286 -0.5388 -0.0282
20550SOL     OW63090   6.627   3.044  10.307  0.2985  0.4499  0.0816
20550SOL    HW163091   6.566   2.970  10.304  0.5436  0.2436  0.1663
20550SOL    HW263092   6.588   3.104  10.371 -0.6585  1.0699 -1.0595
20551SOL     OW63093   3.923   4.315   4.662 -0.0987 -0.7646  0.0551
20551SOL    HW163094   3.843   4.336   4.710 -0.8824 -1.6239 -0.8189
20551SOL    HW263095   3.976   4.265   4.724  0.0591  0.3663  0.8512
20552SOL     OW63096   7.033   7.268   0.229 -0.2313  0.6933 -0.2562
20552SOL    HW163097   7.041   7.174   0.217 -1.1024  0.5116  0.4806
20552SOL    HW263098   7.057   7.284   0.320 -0.6407  1.1008 -0.2142
20553SOL     OW63099   1.918   5.786   7.738 -0.1819 -0.2560  0.5027
20553SOL    HW163100   1.901   5.781   7.644  0.1658  1.1037  0.3466
20553SOL    HW263101   1.845   5.836   7.774  0.3523  0.3722  0.7404
20554SOL     OW63102   1.514   1.677   2.960 -0.8146  0.2502  0.3365
20554SOL    HW163103   1.574   1.628   2.903 -1.0834  0.2541  0.0521
20554SOL    HW263104   1.471   1.739   2.902 -1.1069  0.2384  0.5404
20555SOL     OW63105   4.873   0.000   5.552 -0.1221 -0.1204 -0.1870
20555SOL    HW163106   4.963  -0.020   5.527 -0.0333 -0.5737  0.4801
20555SOL    HW263107   4.820  -0.067   5.508 -0.0564 -0.3373  0.0628
20556SOL     OW63108   5.143   2.187  10.402  0.1831  0.1390  0.4724
20556SOL    HW163109   5.188   2.163  10.321 -1.8333  0.0688 -0.6930
20556SOL    HW263110   5.067   2.129  10.406 -1.0004  1.6511  1.1970
20557SOL     OW63111   5.220   4.924   8.779 -0.1083 -0.4694  0.0457
20557SOL    HW163112   5.258   4.842   8.747  0.8717  0.1410 -0.3677
20557SOL    HW263113   5.137   4.897   8.819  1.3835 -2.0347  2.3065
20558SOL     OW63114   3.827   1.339   8.781 -0.1357 -0.0941 -0.4862
20558SOL    HW163115   3.881   1.416   8.799 -0.1611  0.0400 -0.9663
20558SOL    HW263116   3.830   1.288   8.861 -1.5271  1.2522  0.4919
20559SOL     OW63117   2.381   4.374   2.904  0.1143  0.0620  0.5961
20559SOL    HW163118   2.331   4.310   2.956  0.4783  0.2450  1.1871
20559SOL    HW263119   2.418   4.433   2.970  0.7241  0.2013  0.1309
20560SOL     OW63120   7.017   1.779   1.282 -0.0906  0.3307 -0.6944
20560SOL    HW163121   6.960   1.853   1.260 -0.8801  0.1749  0.6809
20560SOL    HW263122   7.105   1.809   1.261 -0.6213  0.6530 -2.7114
20561SOL     OW63123   6.079   1.148   0.048  0.8426 -0.8736 -0.3478
20561SOL    HW163124   6.148   1.160  -0.017  1.4957 -0.1807  0.4439
20561SOL    HW263125   6.041   1.235   0.059 -1.1416 -1.4982 -1.7924
20562SOL     OW63126   0.441   2.308   6.838  0.2313  0.2070 -0.0661
20562SOL    HW163127   0.376   2.242   6.813  0.5940 -0.1272 -0.1364
20562SOL    HW263128   0.427   2.322   6.931 -0.1694  0.3925 -0.1499
20563SOL     OW63129   7.634   6.561   3.436  0.1073  0.3690 -0.5945
20563SOL    HW163130   7.663   6.601   3.518 -1.4970  0.1123  0.1361
20563SOL    HW263131   7.698   6.492   3.418  1.1691  1.2417 -0.2353
20564SOL     OW63132   7.113   4.909   7.585  0.0962 -0.8942  0.0771
20564SOL    HW163133   7.081   4.871   7.504  1.6639 -2.2467  0.0338
20564SOL    HW263134   7.162   4.839   7.628  3.0797  0.9558  0.0330
20565SOL     OW63135   7.167   3.809   7.481 -0.0285  0.7110  0.2929
20565SOL    HW163136   7.127   3.730   7.517 -2.0278  1.9682  0.9922
20565SOL    HW263137   7.133   3.815   7.392 -0.6215  1.2375  0.5454
20566SOL     OW63138   7.530   1.912   9.511 -0.5671 -0.1390 -0.1423
20566SOL    HW163139   7.617   1.900   9.548  0.3852  0.0320 -2.1910
20566SOL    HW263140   7.507   2.003   9.531  0.6757  0.4800 -1.3805
20567SOL     OW63141   7.683   6.042   7.500  0.4297 -0.1067 -0.3295
20567SOL    HW163142   7.705   6.087   7.418  1.5873 -2.7947 -1.6055
20567SOL    HW263143   7.588   6.055   7.509  0.8040  3.3059 -0.0411
20568SOL     OW63144   1.816   1.685   4.037 -0.6633 -0.4251 -0.1451
20568SOL    HW163145   1.877   1.741   3.989  0.6223 -0.7014  1.1010
20568SOL    HW263146   1.786   1.622   3.972 -0.6174  0.4879 -1.0925
20569SOL     OW63147   2.050   6.611   9.172  0.0119 -0.1209  0.0062
20569SOL    HW163148   2.094   6.527   9.161  0.4239 -0.1865  1.8865
20569SOL    HW263149   2.117   6.669   9.209 -0.5684  0.7276 -0.2350
20570SOL     OW63150   0.605   5.429   6.636  0.0912  0.1855 -0.9644
20570SOL    HW163151   0.534   5.493   6.626 -1.6876 -1.5384  0.1548
20570SOL    HW263152   0.628   5.406   6.546 -2.5976 -1.1154 -1.4079
20571SOL     OW63153   0.654   3.171   7.650 -0.0361 -0.5464  0.3629
20571SOL    HW163154   0.612   3.240   7.600  1.3568  0.0228 -0.0502
20571SOL    HW263155   0.638   3.195   7.742  2.2947  1.5976  0.3074
20572SOL     OW63156   0.714   1.254  11.251 -0.3626 -0.3739  0.2127
20572SOL    HW163157   0.729   1.316  11.323 -1.2255 -0.2487  0.2972
20572SOL    HW263158   0.758   1.174  11.279  2.4443  0.7103 -0.7367
20573SOL     OW63159   1.583   4.567   6.545 -0.0412 -0.6682  0.2494
20573SOL    HW163160   1.666   4.585   6.500 -0.1989  0.1166  0.2581
20573SOL    HW263161   1.609   4.518   6.623  0.4381 -0.2372  0.3686
20574SOL     OW63162   1.102   2.542   4.279 -0.4673  0.0952 -0.3352
20574SOL    HW163163   1.094   2.632   4.248 -0.4952  0.0196 -0.5475
20574SOL    HW263164   1.035   2.494   4.230 -2.0288  0.3792  1.3882
20575SOL     OW63165   3.056   0.379   1.497  0.0565  0.3446 -0.1201
20575SOL    HW163166   2.997   0.336   1.559 -0.5602 -0.0026 -0.9244
20575SOL    HW263167   2.999   0.436   1.445  0.1544 -1.0402 -1.8281
20576SOL     OW63168   3.071   6.543   0.080  0.6457 -0.2155 -0.3170
20576SOL    HW163169   3.127   6.518   0.007  1.7216  0.5594  0.2141
20576SOL    HW263170   2.996   6.483   0.075  0.9710 -0.5343 -1.7059
20577SOL     OW63171   1.801   0.494   0.716  0.1547  0.0730  0.6499
20577SOL    HW163172   1.834   0.455   0.635  1.3632  0.8269  0.7527
20577SOL    HW263173   1.859   0.568   0.732 -1.9063  1.7877  0.5888
20578SOL     OW63174   4.881   3.029   5.193 -0.1575 -0.0438 -0.0009
20578SOL    HW163175   4.859   2.936   5.197  1.6792 -0.4812  2.0400
20578SOL    HW263176   4.846   3.066   5.274  1.4221  0.4235  0.5065
20579SOL     OW63177   0.513   5.844  10.643  0.4634 -0.2156 -0.3426
20579SOL    HW163178   0.486   5.778  10.707  1.8522 -0.4335  0.0517
20579SOL    HW263179   0.438   5.852  10.584 -1.1100  0.3710  1.5918
20580SOL     OW63180   5.161   5.617  11.547  0.0179  0.3708 -0.0326
20580SOL    HW163181   5.069   5.639  11.564 -0.1886 -1.5711  1.8579
20580SOL    HW263182   5.157   5.530  11.507  1.0086  0.9373 -1.4436
20581SOL     OW63183   2.919   2.826   3.716  0.2515  0.6594 -0.2040
20581SOL    HW163184   2.861   2.772   3.663  0.2580  0.3783  0.0705
20581SOL    HW263185   2.979   2.866   3.654  0.2354  0.3623 -0.4120
20582SOL     OW63186   6.023   3.894   1.327 -0.2883  0.0345  0.0562
20582SOL    HW163187   6.056   3.961   1.267  1.5057 -0.1241  0.7819
20582SOL    HW263188   6.049   3.811   1.286 -0.2005 -0.1172  0.4183
20583SOL     OW63189   0.772   6.361   4.264 -0.4210 -0.0447  0.1312
20583SOL    HW163190   0.781   6.314   4.346 -1.4821  0.7241  0.7172
20583SOL    HW263191   0.837   6.321   4.206  1.3920  0.3663  1.7616
20584SOL     OW63192   4.572   6.241  12.085  0.6660 -0.9844 -0.3266
20584SOL    HW163193   4.534   6.302  12.022  0.4563  0.4038  1.0813
20584SOL    HW263194   4.662   6.273  12.098  0.2437 -0.3269  1.1687
20585SOL     OW63195   5.079   6.089   8.614  0.0407 -0.3947  0.2619
20585SOL    HW163196   5.091   6.004   8.571 -0.1526 -0.2578 -0.0672
20585SOL    HW263197   4.989   6.088   8.645 -0.4673  0.2922 -1.1065
20586SOL     OW63198   1.851   6.712  10.748  0.0598  0.3807  0.4937
20586SOL    HW163199   1.888   6.658  10.819  0.8638  1.0066  0.5666
20586SOL    HW263200   1.849   6.654  10.672 -1.1401 -0.4114  1.0967
20587SOL     OW63201   3.692   5.254   2.868  0.4515 -0.6263 -0.4034
20587SOL    HW163202   3.711   5.273   2.960  0.5916  0.0237 -0.5610
20587SOL    HW263203   3.638   5.175   2.870  0.2306 -0.4618  0.2512
20588SOL     OW63204   3.760   6.951  11.048  0.7567 -0.2302  0.0708
20588SOL    HW163205   3.665   6.949  11.060  0.9096 -2.6344  1.6426
20588SOL    HW263206   3.788   6.862  11.069  3.2672  0.1385 -1.3924
20589SOL     OW63207   1.107   7.500  11.983 -0.4568  0.1219 -0.1677
20589SOL    HW163208   1.145   7.548  12.057 -0.2271  0.8379 -0.7368
20589SOL    HW263209   1.153   7.417  11.982 -0.8175 -0.1066  0.8007
20590SOL     OW63210   7.778   1.004   4.801  0.0975 -0.2302 -0.0986
20590SOL    HW163211   7.768   0.945   4.876  0.2264 -1.0278 -0.6980
20590SOL    HW263212   7.854   0.971   4.754 -0.4666 -0.2409 -1.0295
20591SOL     OW63213   6.991   3.022  12.387  0.1993  0.0545  0.1309
20591SOL    HW163214   6.924   3.017  12.319 -0.2011 -0.8230  0.5662
20591SOL    HW263215   6.956   2.969  12.459  0.6340  0.9151  1.0002
20592SOL     OW63216   7.179   6.346  10.665  0.1707 -0.0456 -0.1891
20592SOL    HW163217   7.198   6.277  10.729 -0.2770 -0.1499 -0.1709
20592SOL    HW263218   7.201   6.307  10.580  0.6993  0.0704 -0.1122
20593SOL     OW63219   1.021   3.436   9.047  0.7897  0.1372 -0.5347
20593SOL    HW163220   1.019   3.424   8.952  0.7482  1.8291 -0.7639
20593SOL    HW263221   0.930   3.423   9.074  0.3216  2.0628 -1.0712
20594SOL     OW63222   4.754   4.532  10.585  0.3420 -0.5329  0.1605
20594SOL    HW163223   4.703   4.497  10.658  2.5790 -0.3085  1.9459
20594SOL    HW263224   4.839   4.553  10.623  0.7260  2.2497 -1.9052
20595SOL     OW63225   2.487   5.621   2.666  0.4146  0.3405 -0.5116
20595SOL    HW163226   2.507   5.536   2.706 -1.0427  0.9373  1.6336
20595SOL    HW263227   2.531   5.618   2.581  0.1434 -2.7046 -0.6668
20596SOL     OW63228   2.216   4.211   5.188 -0.6838  0.0207  0.0419
20596SOL    HW163229   2.277   4.279   5.159 -0.2318 -0.5069 -0.2664
20596SOL    HW263230   2.182   4.173   5.107  1.2294 -2.0402  0.1233
20597SOL     OW63231   7.358   5.022   5.433 -0.0891 -0.2768 -0.6695
20597SOL    HW163232   7.381   5.004   5.524 -1.3963  0.7903 -0.0893
20597SOL    HW263233   7.333   5.115   5.432  0.7458 -0.0275 -2.3053
20598SOL     OW63234   7.012   6.519   0.785  0.1716  0.1044 -0.2266
20598SOL    HW163235   6.984   6.475   0.865  0.7891 -0.5275 -0.3464
20598SOL    HW263236   6.962   6.476   0.715  0.3614 -0.0195 -0.2856
20599SOL     OW63237   6.730   5.209   7.300 -0.0919  0.0199 -0.5439
20599SOL    HW163238   6.723   5.129   7.247  2.4349  0.0161 -0.9980
20599SOL    HW263239   6.709   5.280   7.239 -0.8143 -0.1845 -0.5451
20600SOL     OW63240   1.896   4.799   6.900 -0.0766  0.0711 -0.0521
20600SOL    HW163241   1.844   4.862   6.948  0.2554 -0.4114  0.9674
20600SOL    HW263242   1.845   4.780   6.821 -0.6849  0.7790  0.1695
20601SOL     OW63243   4.553   6.795   8.298  0.4409  0.7518 -0.1630
20601SOL    HW163244   4.541   6.788   8.204  1.0837 -1.4844 -0.1208
20601SOL    HW263245   4.477   6.751   8.336  1.1456 -0.0876  0.3125
20602SOL     OW63246   5.586   7.967   5.937  0.4758  0.5482 -0.1704
20602SOL    HW163247   5.660   7.997   5.883  1.3592 -0.3091  0.5151
20602SOL    HW263248   5.545   8.048   5.968 -1.0761  1.1451 -3.3736
20603SOL     OW63249   0.728   1.392   9.661  0.5750 -0.3516 -0.5310
20603SOL    HW163250   0.658   1.370   9.601 -2.1660  0.6139  2.0575
20603SOL    HW263251   0.772   1.468   9.621 -1.8774  0.9805 -0.8588
20604SOL     OW63252   2.437   6.917   1.596  0.3751 -0.4775 -0.0821
20604SOL    HW163253   2.502   6.880   1.537 -0.1289 -0.6715 -0.5243
20604SOL    HW263254   2.469   6.895   1.684  1.8710  1.0522 -0.1953
20605SOL     OW63255   2.936   2.723   9.926 -0.1644 -0.3826  0.5194
20605SOL    HW163256   2.887   2.688   9.852 -2.5427 -0.2460  1.9021
20605SOL    HW263257   2.943   2.817   9.909  1.4612 -0.6854 -0.6421
20606SOL     OW63258   4.900   1.365   5.478  0.2189  0.7953 -0.1235
20606SOL    HW163259   4.994   1.345   5.485 -0.1583 -0.7196  1.1021
20606SOL    HW263260   4.862   1.287   5.437 -0.4676  1.5842 -1.0228
20607SOL     OW63261   1.396   1.360  10.703 -0.0444  0.1005 -0.0608
20607SOL    HW163262   1.351   1.287  10.745  0.5182 -2.0021 -2.8391
20607SOL    HW263263   1.438   1.322  10.627  2.9841  2.7640  0.0591
20608SOL     OW63264   3.348   4.429   6.149 -0.0107  0.4597  0.0621
20608SOL    HW163265   3.286   4.393   6.212  0.1884 -1.5291 -0.8094
20608SOL    HW263266   3.434   4.416   6.190  0.1217 -0.8687 -0.5775
20609SOL     OW63267   6.378   3.153   2.383 -0.5573 -0.0822 -0.0649
20609SOL    HW163268   6.294   3.114   2.359  1.3172 -2.9248 -2.7689
20609SOL    HW263269   6.407   3.198   2.304  0.2227  1.4063  1.0332
20610SOL     OW63270   3.755   6.867  11.345  0.0481 -0.1887 -0.4074
20610SOL    HW163271   3.673   6.917  11.347  0.2461  0.2574 -2.0659
20610SOL    HW263272   3.730   6.781  11.312  0.1552 -0.2664 -0.2872
20611SOL     OW63273   4.645   4.863   2.763  0.5312  0.3722 -0.0552
20611SOL    HW163274   4.704   4.821   2.700  0.7756  1.0723 -0.3042
20611SOL    HW263275   4.686   4.948   2.781 -1.8594  2.1955 -2.5089
20612SOL     OW63276   3.148   3.387   4.974  0.3291 -0.0625 -0.1939
20612SOL    HW163277   3.124   3.465   5.024  0.2556  0.0533 -0.4136
20612SOL    HW263278   3.230   3.358   5.014  1.1894  1.0226 -1.1310
20613SOL     OW63279   1.802   2.078   3.038 -0.1496 -0.6847 -0.2568
20613SOL    HW163280   1.845   1.992   3.040  0.1656 -0.5321 -0.3798
20613SOL    HW263281   1.814   2.108   2.948 -0.2131 -0.4843 -0.1977
20614SOL     OW63282   0.064   5.790   6.419 -0.1561 -0.5528  0.8755
20614SOL    HW163283   0.071   5.702   6.382  0.6210  0.2978 -1.1976
20614SOL    HW263284   0.150   5.829   6.402 -0.7938  0.9153  0.8551
20615SOL     OW63285   3.593   0.283  12.134  0.0679  0.7600 -0.0705
20615SOL    HW163286   3.547   0.318  12.211 -2.4732 -1.2564 -0.5347
20615SOL    HW263287   3.566   0.339  12.062 -1.1391  0.0490 -0.2011
20616SOL     OW63288   2.382   7.759   5.168 -0.1404 -0.2099  0.1497
20616SOL    HW163289   2.370   7.820   5.095  0.1037 -0.7726 -0.3744
20616SOL    HW263290   2.476   7.762   5.186 -0.4344  1.2391  1.6235
20617SOL     OW63291   2.411   2.291   9.851 -0.6616  0.0200  0.7008
20617SOL    HW163292   2.385   2.357   9.787 -1.5267 -0.4118  0.5838
20617SOL    HW263293   2.400   2.208   9.806  0.4183 -0.2181  0.8475
20618SOL     OW63294   2.014   6.620   8.848 -0.3960  0.5559 -0.4079
20618SOL    HW163295   2.109   6.627   8.841 -0.4405  0.4612 -1.1822
20618SOL    HW263296   1.998   6.529   8.871 -0.2648  0.7752  0.6058
20619SOL     OW63297   6.329   3.326   4.871  0.8053  0.0112 -0.0493
20619SOL    HW163298   6.380   3.377   4.934 -0.1373  1.1819 -0.1957
20619SOL    HW263299   6.238   3.337   4.899  0.4207  0.0797 -1.2588
20620SOL     OW63300   1.145   7.364   9.333 -0.0317 -0.0623 -0.0922
20620SOL    HW163301   1.054   7.360   9.302  0.5560  0.7789 -2.1193
20620SOL    HW263302   1.181   7.278   9.314  0.0549  0.1523 -0.9801
20621SOL     OW63303   4.625   5.777   7.598 -0.1138 -0.6579 -0.0922
20621SOL    HW163304   4.558   5.821   7.545 -0.1054  1.5651  1.5997
20621SOL    HW263305   4.708   5.815   7.570  0.0976 -0.9140  0.1700
20622SOL     OW63306   4.009   4.659   5.853 -0.3455  0.1235  0.3614
20622SOL    HW163307   4.007   4.626   5.943 -0.8413  0.9016  0.6435
20622SOL    HW263308   3.950   4.601   5.805  2.1720 -2.2121 -0.1744
20623SOL     OW63309   1.234   6.971   2.605 -0.0081  0.6588 -0.0094
20623SOL    HW163310   1.235   6.996   2.512  0.8882  0.3265 -0.0977
20623SOL    HW263311   1.318   6.928   2.619 -0.0525  0.8896  1.0178
20624SOL     OW63312   2.512   1.856  11.799  0.0287 -0.5575  0.2458
20624SOL    HW163313   2.427   1.849  11.757  0.2488  0.4502 -0.4048
20624SOL    HW263314   2.493   1.857  11.892 -0.6382 -0.8046  0.1144
20625SOL     OW63315   1.844   1.918   0.509  0.3121  0.6725 -0.0702
20625SOL    HW163316   1.803   1.851   0.564  1.8670 -0.4170 -0.1779
20625SOL    HW263317   1.913   1.954   0.564  1.8958 -0.4277 -1.2426
20626SOL     OW63318   0.620   6.962  11.735 -0.0237 -0.4884 -0.0437
20626SOL    HW163319   0.576   6.888  11.692  0.7189 -0.5045 -0.8115
20626SOL    HW263320   0.617   6.942  11.828  0.8717 -1.8976 -0.2897
20627SOL     OW63321   1.024   4.014   3.301  0.0061 -0.2455 -0.5711
20627SOL    HW163322   0.955   4.080   3.308  0.6135  0.4175 -0.6491
20627SOL    HW263323   1.055   4.022   3.211 -0.1492 -0.8832 -0.6820
20628SOL     OW63324   3.185   3.932   5.008  0.5045 -0.0966 -0.0025
20628SOL    HW163325   3.101   3.886   5.002  0.5320 -0.0261 -1.0765
20628SOL    HW263326   3.245   3.878   4.956  0.3818  1.4688 -1.8988
20629SOL     OW63327   6.907   6.296   9.099  0.4423  0.0741  0.2427
20629SOL    HW163328   6.843   6.231   9.070  0.2732  1.5021 -3.0971
20629SOL    HW263329   6.858   6.378   9.101  0.9277  0.3850  3.2386
20630SOL     OW63330   4.081   0.491   3.213  0.0238 -0.5226 -0.0881
20630SOL    HW163331   4.081   0.407   3.166  0.0574 -0.4829 -0.1580
20630SOL    HW263332   4.140   0.547   3.164  1.4148 -1.0128  0.9589
20631SOL     OW63333   7.138   2.227   6.460 -0.0484 -0.6906  0.3950
20631SOL    HW163334   7.125   2.155   6.399  1.7796 -0.9098  0.2127
20631SOL    HW263335   7.230   2.251   6.450 -0.4953  1.3952  0.7624
20632SOL     OW63336   7.958   2.287   2.615 -0.2589 -0.5823 -0.4608
20632SOL    HW163337   7.963   2.192   2.616  1.9137 -0.5325  1.5573
20632SOL    HW263338   8.007   2.312   2.536  0.2467 -1.1166 -0.3211
20633SOL     OW63339   0.702   1.520  10.804 -0.2073 -1.1997  0.1112
20633SOL    HW163340   0.751   1.539  10.724 -2.3716  0.5757 -0.9205
20633SOL    HW263341   0.755   1.456  10.851  2.0223 -0.9192 -1.8684
20634SOL     OW63342   3.359   1.699   6.804  0.0896  0.0916 -0.1140
20634SOL    HW163343   3.395   1.678   6.717 -0.7772 -0.0659 -0.4464
20634SOL    HW263344   3.334   1.615   6.841  0.2148  0.1841  0.1847
20635SOL     OW63345   2.369   0.551   1.300  0.0682  0.2772  0.5082
20635SOL    HW163346   2.462   0.561   1.282 -0.0516  2.2284  0.7713
20635SOL    HW263347   2.330   0.535   1.214  0.4027  1.8719  0.0174
20636SOL     OW63348   0.553   6.344  12.221 -0.3182 -0.7976 -0.0473
20636SOL    HW163349   0.572   6.266  12.272 -1.0072 -0.4498  0.7561
20636SOL    HW263350   0.548   6.415  12.286 -2.5793 -0.5755 -0.4057
20637SOL     OW63351   5.155   1.727   2.264  0.1213 -0.1265 -0.4740
20637SOL    HW163352   5.145   1.733   2.170 -3.3456  0.8516 -0.1738
20637SOL    HW263353   5.129   1.813   2.297  3.0445  0.2042  1.3831
20638SOL     OW63354   7.976   1.327   9.696 -0.0892 -0.0110 -0.5218
20638SOL    HW163355   7.897   1.278   9.671  0.2646 -0.3082 -1.0774
20638SOL    HW263356   7.993   1.384   9.621  1.7154 -1.8215 -1.6006
20639SOL     OW63357   0.754   5.585  12.099  0.0638 -0.7406 -0.0451
20639SOL    HW163358   0.668   5.595  12.141 -0.0718 -0.5043 -0.3688
20639SOL    HW263359   0.748   5.503  12.050  0.1929 -0.9734  0.3294
20640SOL     OW63360   0.253   0.739   0.599  0.0690  0.2710  0.0026
20640SOL    HW163361   0.281   0.796   0.527 -0.5430 -0.0730 -0.5129
20640SOL    HW263362   0.160   0.758   0.610 -0.4000 -1.3312 -0.8465
20641SOL     OW63363   6.878   1.657   1.834  0.1229  0.2378 -0.0124
20641SOL    HW163364   6.804   1.597   1.827 -1.9818  2.4973  1.2002
20641SOL    HW263365   6.907   1.670   1.744 -1.3162 -0.2928 -0.5839
20642SOL     OW63366   4.434   6.292   5.026  0.5124 -0.7537 -0.3799
20642SOL    HW163367   4.501   6.249   5.080  2.1046 -0.2117 -1.8396
20642SOL    HW263368   4.365   6.316   5.088  2.4548  0.2396  1.5344
20643SOL     OW63369   3.898   2.656   4.989 -0.1933  0.0081  0.4730
20643SOL    HW163370   3.896   2.699   4.904  1.7173 -1.4150 -0.3799
20643SOL    HW263371   3.897   2.728   5.053 -0.3004  1.1627 -0.7903
20644SOL     OW63372   2.993   6.104   6.657  0.2958  1.2482 -0.1228
20644SOL    HW163373   2.905   6.067   6.665  0.3776  0.2342 -2.8988
20644SOL    HW263374   3.008   6.148   6.741 -2.3821  0.4861  0.8622
20645SOL     OW63375   2.327   2.696   9.455  0.0848  0.1450 -0.5742
20645SOL    HW163376   2.413   2.716   9.491  0.5167 -1.9874 -0.3255
20645SOL    HW263377   2.334   2.607   9.421 -2.2557 -0.4133  0.1824
20646SOL     OW63378   4.233   7.371   7.717  0.4525  0.8863 -0.2750
20646SOL    HW163379   4.316   7.335   7.748  0.3501  2.1669  1.7483
20646SOL    HW263380   4.248   7.466   7.716 -1.3401  1.2512  1.4841
20647SOL     OW63381   0.805   0.856   2.014 -0.3158 -0.3790  0.1318
20647SOL    HW163382   0.851   0.858   1.931 -0.7491  0.2071 -0.1013
20647SOL    HW263383   0.763   0.770   2.016 -1.3653  0.0869 -0.8522
20648SOL     OW63384   3.657   2.431   6.457 -0.1056  0.3005  0.0533
20648SOL    HW163385   3.612   2.363   6.405 -0.5792  0.4654  0.2378
20648SOL    HW263386   3.722   2.467   6.397 -1.7455  1.6443 -1.0179
20649SOL     OW63387   2.549   1.479   9.838  0.4247 -0.0737 -0.1307
20649SOL    HW163388   2.625   1.486   9.781  0.2915 -0.0293 -0.3051
20649SOL    HW263389   2.475   1.470   9.778  0.0100  2.2404 -0.0530
20650SOL     OW63390   7.868   2.573   1.113 -0.3975  0.0680  0.9214
20650SOL    HW163391   7.921   2.650   1.095 -1.4899  0.7880  0.6924
20650SOL    HW263392   7.929   2.499   1.108 -0.0669  0.3963 -3.3895
20651SOL     OW63393   2.510   3.982   7.883  0.2652 -0.3847 -0.0085
20651SOL    HW163394   2.456   3.917   7.928  0.4695  0.9248  2.2751
20651SOL    HW263395   2.523   4.052   7.948  1.3975  1.1861 -1.8178
20652SOL     OW63396   7.944   1.635  10.475  0.0636  0.3457 -0.2087
20652SOL    HW163397   8.032   1.660  10.450  0.0782  0.7964  0.2823
20652SOL    HW263398   7.954   1.592  10.560 -0.0248 -0.8614 -0.7783
20653SOL     OW63399   1.968   3.351   9.364  0.1596 -0.0203 -0.1196
20653SOL    HW163400   1.925   3.383   9.444 -0.5705 -0.1603 -0.4499
20653SOL    HW263401   1.964   3.256   9.371  0.6814 -0.0379 -0.0176
20654SOL     OW63402   2.781   5.759   4.099 -0.2981 -0.3961 -0.1370
20654SOL    HW163403   2.808   5.851   4.092  2.7994 -1.1398  0.3306
20654SOL    HW263404   2.802   5.722   4.013 -1.4196 -0.7098 -0.2841
20655SOL     OW63405   5.797   5.412   6.710  0.0751 -0.2607  0.6680
20655SOL    HW163406   5.772   5.431   6.800  0.9828  0.1304  0.8439
20655SOL    HW263407   5.755   5.328   6.691  0.2713 -0.5816  1.6103
20656SOL     OW63408   1.563   7.050   9.502  0.5186  0.4643  0.3922
20656SOL    HW163409   1.613   6.969   9.514 -0.4780 -0.2372 -0.0823
20656SOL    HW263410   1.627   7.111   9.465  0.6530 -0.9516 -1.9949
20657SOL     OW63411   0.343   0.909   0.400 -0.0619  0.2089  0.1400
20657SOL    HW163412   0.379   0.994   0.423  0.4772 -0.7198  3.1495
20657SOL    HW263413   0.418   0.858   0.370 -0.1737  0.4108 -0.4966
20658SOL     OW63414   0.754   0.219  11.594 -0.0503 -0.1074  0.3249
20658SOL    HW163415   0.688   0.264  11.648 -0.3522  1.6568 -1.3858
20658SOL    HW263416   0.831   0.275  11.600  0.4518 -0.7880  0.2501
20659SOL     OW63417   4.710   3.797   2.741  0.3993 -0.3553 -0.1601
20659SOL    HW163418   4.785   3.816   2.798  0.4246 -0.7648 -0.0551
20659SOL    HW263419   4.643   3.859   2.769  0.7829  0.1853 -0.4207
20660SOL     OW63420   1.925   7.369   5.351 -0.4348 -0.5740  0.3296
20660SOL    HW163421   1.971   7.306   5.296  2.1775  0.1254  1.5425
20660SOL    HW263422   1.877   7.315   5.414 -0.9584 -1.3383 -0.6989
20661SOL     OW63423   7.899   3.655   8.629  0.4119  0.1157  0.5208
20661SOL    HW163424   7.888   3.703   8.711  1.3291  0.0692  0.6827
20661SOL    HW263425   7.956   3.712   8.576 -0.4673  0.3222 -0.2368
20662SOL     OW63426   5.839   7.545  10.217 -0.2725  0.9203 -0.5127
20662SOL    HW163427   5.754   7.581  10.243 -1.5509 -1.1822 -1.5534
20662SOL    HW263428   5.838   7.549  10.121  0.1352 -0.5522 -0.5923
20663SOL     OW63429   4.332   7.607  11.028  0.1492 -0.0816  0.4774
20663SOL    HW163430   4.282   7.686  11.048  1.5999  0.5673  1.8262
20663SOL    HW263431   4.301   7.542  11.091 -0.8565 -0.5270 -0.4570
20664SOL     OW63432   5.552   2.869   1.824  0.4660  0.1433 -0.0961
20664SOL    HW163433   5.605   2.828   1.893  1.2277  1.1068 -0.0795
20664SOL    HW263434   5.561   2.810   1.749  1.3674  0.1567 -0.0129
20665SOL     OW63435   4.474   6.165   2.554 -0.5293 -0.2279  0.9253
20665SOL    HW163436   4.407   6.210   2.605 -2.4562 -0.1115 -1.5113
20665SOL    HW263437   4.455   6.072   2.566 -0.6282 -0.2157  0.8664
20666SOL     OW63438   3.753   1.342  12.145  0.1718 -0.0398  0.3137
20666SOL    HW163439   3.760   1.292  12.227 -0.9718 -1.6906 -0.5247
20666SOL    HW263440   3.671   1.390  12.153  0.7029  0.8331  0.6441
20667SOL     OW63441   2.361   4.434  12.108 -0.0348 -0.0747 -0.1294
20667SOL    HW163442   2.379   4.448  12.016  0.3187 -1.1710 -0.2459
20667SOL    HW263443   2.266   4.440  12.115 -0.2382 -1.7373 -0.9154
20668SOL     OW63444   2.003   3.883   5.574 -0.6218  0.4227 -0.0760
20668SOL    HW163445   1.921   3.895   5.621  0.4042  2.5790  1.3425
20668SOL    HW263446   2.071   3.909   5.636  1.0693 -0.1751 -1.5736
20669SOL     OW63447   0.030   4.156   8.913  0.3716  0.1816 -0.3029
20669SOL    HW163448  -0.033   4.112   8.856  0.4048 -1.9194  1.1629
20669SOL    HW263449  -0.022   4.221   8.960 -0.2272  0.0063 -0.7031
20670SOL     OW63450   0.536   1.609   3.338 -0.1210 -0.2348  0.2945
20670SOL    HW163451   0.462   1.625   3.397 -0.1909  0.6220 -0.0076
20670SOL    HW263452   0.602   1.672   3.366  0.6585 -1.2482  0.8109
20671SOL     OW63453   5.480   2.516   9.930 -0.3949  0.2963  0.2127
20671SOL    HW163454   5.476   2.466   9.849 -0.8534  1.2999 -0.4013
20671SOL    HW263455   5.571   2.546   9.936 -0.0505 -0.8213  0.7264
20672SOL     OW63456   7.150   1.862   0.309  0.3095  0.7223 -0.0752
20672SOL    HW163457   7.098   1.898   0.237 -0.8308  0.1627  0.4491
20672SOL    HW263458   7.223   1.816   0.266 -0.6905 -0.1249 -0.9183
20673SOL     OW63459   3.754   2.545   7.956 -0.1020  0.3470  0.5251
20673SOL    HW163460   3.818   2.599   7.909 -1.3271  2.4881  1.1595
20673SOL    HW263461   3.707   2.499   7.887  1.6863 -0.8091  0.0209
20674SOL     OW63462   7.330   0.359  10.810 -0.1959  0.1561  0.0655
20674SOL    HW163463   7.290   0.380  10.726 -0.2230  0.1680  0.0812
20674SOL    HW263464   7.256   0.344  10.869 -0.1875 -1.1385 -0.2307
20675SOL     OW63465   1.070   5.063   8.687 -0.3174  0.1206 -0.3181
20675SOL    HW163466   1.113   5.135   8.640  1.0435 -0.3842  0.0974
20675SOL    HW263467   1.006   5.106   8.744 -1.5931  0.7863 -2.1539
20676SOL     OW63468   1.471   1.778   7.654  0.2574 -0.3337 -0.1006
20676SOL    HW163469   1.444   1.729   7.731 -1.6519 -0.6543 -0.9081
20676SOL    HW263470   1.505   1.860   7.688  2.1455 -1.5878  1.2029
20677SOL     OW63471   4.234   5.642   2.445  0.1790  0.1056 -0.0280
20677SOL    HW163472   4.244   5.726   2.400  0.7824 -0.7801 -1.6259
20677SOL    HW263473   4.165   5.658   2.510  1.1772  2.1640  0.6029
20678SOL     OW63474   0.568   2.232   2.374  0.0851  0.0260 -0.5793
20678SOL    HW163475   0.543   2.154   2.424 -1.2222  0.5425 -0.3952
20678SOL    HW263476   0.511   2.230   2.297  0.8432  0.2051 -1.1639
20679SOL     OW63477   2.893   6.830   1.411 -0.7752 -0.6228  0.2749
20679SOL    HW163478   2.916   6.764   1.345 -0.2348 -0.1398 -0.0331
20679SOL    HW263479   2.972   6.839   1.464 -1.4792 -1.6160  1.5371
20680SOL     OW63480   4.193   4.284   3.568 -0.0036  0.6021 -0.1695
20680SOL    HW163481   4.271   4.339   3.580  0.2061  0.3300 -0.2998
20680SOL    HW263482   4.134   4.339   3.516  0.3970  0.5251 -0.7129
20681SOL     OW63483   1.591   7.740   2.648 -0.3489  0.1721 -0.2412
20681SOL    HW163484   1.641   7.658   2.653  1.9123  1.3972 -1.3770
20681SOL    HW263485   1.638   7.799   2.707 -2.1507  0.6127  0.8139
20682SOL     OW63486   4.974   6.796   8.833 -0.4257  0.3689  0.2045
20682SOL    HW163487   4.979   6.734   8.906  2.2520 -0.1495 -0.3301
20682SOL    HW263488   5.045   6.858   8.849 -0.2711  0.6972 -1.5790
20683SOL     OW63489   2.241   2.172   8.272 -0.3838  0.2245 -0.5613
20683SOL    HW163490   2.323   2.124   8.279 -0.1292  0.7849  0.7181
20683SOL    HW263491   2.180   2.111   8.231 -0.0488 -1.1862  0.9300
20684SOL     OW63492   1.756   4.033  10.942  0.1410 -0.2376  0.1375
20684SOL    HW163493   1.695   4.003  11.009  0.2313 -0.4571  0.1206
20684SOL    HW263494   1.842   4.017  10.979  0.1911  0.3417  0.2825
20685SOL     OW63495   7.153   6.271   3.864  0.2997  0.0105  0.4471
20685SOL    HW163496   7.112   6.342   3.914 -2.7055 -2.4778  1.8649
20685SOL    HW263497   7.094   6.256   3.790  0.9952 -0.8303  0.0394
20686SOL     OW63498   5.891   5.005   3.140 -0.5341  0.4263  0.6975
20686SOL    HW163499   5.985   5.018   3.153 -0.6755  1.3240  0.8510
20686SOL    HW263500   5.854   5.093   3.141 -1.3699  0.0825  0.5586
20687SOL     OW63501   5.745   4.017   9.055 -0.8210 -0.4147 -0.8685
20687SOL    HW163502   5.712   4.011   9.145  0.7450  2.3180  0.0090
20687SOL    HW263503   5.672   4.054   9.006 -2.0698 -2.9255 -1.0620
20688SOL     OW63504   3.184   7.728   5.308 -0.5367  0.3520 -0.1870
20688SOL    HW163505   3.173   7.776   5.390 -0.1032  0.6792 -0.3193
20688SOL    HW263506   3.163   7.637   5.331 -1.1748  0.5665  0.1069
20689SOL     OW63507   5.127   3.143   7.253 -0.7887  0.3008  0.1892
20689SOL    HW163508   5.087   3.057   7.260 -1.7380  0.7394  0.3975
20689SOL    HW263509   5.167   3.145   7.167 -0.4643 -0.4656  0.3173
20690SOL     OW63510   1.286   1.583   1.463  0.3082 -0.5698 -0.7772
20690SOL    HW163511   1.314   1.617   1.378 -1.8959  1.0947 -0.9173
20690SOL    HW263512   1.345   1.626   1.526 -0.0914  0.6905 -1.2425
20691SOL     OW63513   5.921   3.868   3.222 -0.1503  0.5278 -0.0098
20691SOL    HW163514   5.948   3.844   3.134  0.2672 -0.3060  0.3405
20691SOL    HW263515   6.001   3.864   3.274 -0.4150  0.9115  0.4393
20692SOL     OW63516   7.111   1.228  12.030  0.0607  0.3003 -0.2891
20692SOL    HW163517   7.149   1.315  12.038 -1.9884  1.2496 -0.0165
20692SOL    HW263518   7.091   1.218  11.937  0.4666  0.0485 -0.3487
20693SOL     OW63519   7.006   2.935   7.563 -0.5334  0.2604  0.0377
20693SOL    HW163520   7.084   2.988   7.579 -0.2886 -0.4991  1.4810
20693SOL    HW263521   6.940   2.972   7.622 -0.2409 -1.2574  1.3765
20694SOL     OW63522   0.483   1.305  12.151 -0.2294 -0.0914  0.7130
20694SOL    HW163523   0.408   1.353  12.115  0.0894 -0.8080 -1.0110
20694SOL    HW263524   0.445   1.232  12.198 -0.7346 -2.4643 -2.9725
20695SOL     OW63525   5.751   3.725   3.557 -0.3245 -0.4918  0.2783
20695SOL    HW163526   5.712   3.698   3.640 -2.0075 -1.3307 -0.7430
20695SOL    HW263527   5.677   3.739   3.498  0.8412 -0.7032 -1.3249
20696SOL     OW63528   3.934   3.102   1.934 -0.3086  0.0030 -0.2566
20696SOL    HW163529   3.967   3.089   1.845 -0.2763 -2.7808  0.0500
20696SOL    HW263530   3.861   3.040   1.942 -0.4401  0.3251  1.5666
20697SOL     OW63531   6.298   1.554   6.101  0.0408  0.4410  0.3199
20697SOL    HW163532   6.345   1.473   6.119  0.8745  0.7850 -0.2569
20697SOL    HW263533   6.357   1.623   6.131 -0.1445  0.8724 -0.2947
20698SOL     OW63534   5.819   7.357   3.505  0.5058 -0.5830 -0.5366
20698SOL    HW163535   5.743   7.357   3.563  0.8129 -2.1000 -0.1010
20698SOL    HW263536   5.782   7.369   3.418  0.0512  1.8844 -0.0834
20699SOL     OW63537   6.176   6.796   1.495  0.1513 -0.3477  0.3433
20699SOL    HW163538   6.234   6.871   1.509  1.8735 -1.4794 -0.3963
20699SOL    HW263539   6.229   6.733   1.447 -1.6163 -1.5927 -0.0859
20700SOL     OW63540   0.391   7.226   4.655  0.5632 -0.1239 -0.6033
20700SOL    HW163541   0.407   7.132   4.664 -0.3643 -0.5135 -2.4327
20700SOL    HW263542   0.349   7.251   4.737 -1.8665 -1.9877 -1.1275
20701SOL     OW63543   0.865   3.960  10.712 -0.1622  0.1008  0.6291
20701SOL    HW163544   0.885   3.946  10.804  0.2675  1.5692  0.7885
20701SOL    HW263545   0.793   4.023  10.713  0.7707  1.2161 -0.0275
20702SOL     OW63546   2.321   3.086   9.318 -1.0213 -0.5891 -0.3528
20702SOL    HW163547   2.239   3.044   9.293 -0.6872 -0.1601 -2.3678
20702SOL    HW263548   2.296   3.175   9.342 -1.3539 -1.0014  0.8651
20703SOL     OW63549   1.319   6.615   2.347 -0.4594 -0.1128  0.2955
20703SOL    HW163550   1.358   6.595   2.432  2.5400  0.5126 -0.8102
20703SOL    HW263551   1.333   6.535   2.295  0.7829  0.6334 -0.5670
20704SOL     OW63552   0.963   1.251   4.510  0.3616  0.0685  0.1155
20704SOL    HW163553   1.026   1.185   4.539  2.4266  1.1656 -1.5907
20704SOL    HW263554   0.971   1.323   4.574  0.0910 -0.1834  0.4399
20705SOL     OW63555   0.157   5.770  11.734 -0.0402 -0.0541 -0.0593
20705SOL    HW163556   0.132   5.680  11.755 -0.7983 -0.0621 -0.9121
20705SOL    HW263557   0.165   5.771  11.639 -0.6237  0.9175 -0.1126
20706SOL     OW63558   7.700   4.606   2.584 -0.0860  0.4565  0.6188
20706SOL    HW163559   7.615   4.641   2.611 -0.2169 -0.0645  0.9031
20706SOL    HW263560   7.718   4.536   2.647 -0.4464 -0.8882 -0.7137
20707SOL     OW63561   1.336   4.128   5.527  0.4434  0.0343 -0.2507
20707SOL    HW163562   1.261   4.093   5.576  0.0879  0.5723 -0.4055
20707SOL    HW263563   1.297   4.172   5.452  1.0099 -1.5717 -1.5627
20708SOL     OW63564   5.636   2.308   4.590  0.1109  0.0876 -0.1435
20708SOL    HW163565   5.707   2.319   4.653  1.9495 -0.2475 -2.0193
20708SOL    HW263566   5.636   2.390   4.540  0.7522 -0.7593 -1.6039
20709SOL     OW63567   3.009   3.790   7.415  0.4148  0.2509 -0.2620
20709SOL    HW163568   3.025   3.801   7.509 -1.1794  1.9055 -0.1274
20709SOL    HW263569   3.085   3.742   7.383  1.2302  0.0766  1.7782
20710SOL     OW63570   6.265   1.896  12.161  0.3161  0.4485 -0.3494
20710SOL    HW163571   6.356   1.914  12.184  0.3548  1.1364 -1.0246
20710SOL    HW263572   6.270   1.843  12.081  0.1239  0.3334 -0.2874
20711SOL     OW63573   7.428   2.787   0.995 -0.2824  0.1119 -0.0047
20711SOL    HW163574   7.494   2.850   0.964 -0.6552  0.2027 -0.6291
20711SOL    HW263575   7.458   2.702   0.962 -0.5403  0.1716 -0.4040
20712SOL     OW63576   5.108   4.723   9.434  0.3076 -0.0347  0.0671
20712SOL    HW163577   5.064   4.668   9.370 -0.1181  0.4713 -0.0805
20712SOL    HW263578   5.201   4.708   9.419  0.3031  1.5054 -1.9860
20713SOL     OW63579   7.063   5.536   7.684  0.3911 -0.1341 -0.4129
20713SOL    HW163580   7.062   5.518   7.590  1.9423 -2.0290 -0.1263
20713SOL    HW263581   7.107   5.460   7.723 -2.6180 -0.7546  2.1757
20714SOL     OW63582   6.977   5.195   9.253  0.6607  0.5548 -0.1565
20714SOL    HW163583   7.000   5.123   9.313  1.2158  0.4799 -0.4580
20714SOL    HW263584   7.051   5.202   9.193  0.5257  1.2581 -0.2529
20715SOL     OW63585   1.174   1.256   5.947 -0.6657  0.4965  0.2162
20715SOL    HW163586   1.208   1.338   5.910  0.2533 -0.2877 -0.7440
20715SOL    HW263587   1.216   1.187   5.895 -2.6180 -0.5617 -0.0580
20716SOL     OW63588   6.913   0.429   1.472 -0.4138 -0.6779  0.0384
20716SOL    HW163589   6.977   0.442   1.542  1.0718  1.0342 -1.5336
20716SOL    HW263590   6.829   0.421   1.517  0.4574  0.5908  2.0069
20717SOL     OW63591   6.314   7.148   1.994  0.8774 -0.1595 -0.2216
20717SOL    HW163592   6.312   7.060   1.957 -0.1932 -0.1092 -0.3055
20717SOL    HW263593   6.252   7.198   1.941  0.7149  0.3850  0.4615
20718SOL     OW63594   3.490   5.352   3.130 -0.1847 -0.1691  0.2010
20718SOL    HW163595   3.441   5.312   3.202 -0.6114 -0.2223 -0.1169
20718SOL    HW263596   3.580   5.353   3.161 -0.3047 -0.5501  0.5836
20719SOL     OW63597   1.714   6.053  10.295  0.0765 -0.3848  0.2260
20719SOL    HW163598   1.791   6.098  10.329 -0.2901 -0.0438  0.6226
20719SOL    HW263599   1.687   5.994  10.366 -1.2240  0.9833  0.9287
20720SOL     OW63600   0.330   3.919   5.772 -0.3503  0.5468 -0.6692
20720SOL    HW163601   0.419   3.949   5.792 -1.4904  3.3764  0.7631
20720SOL    HW263602   0.274   3.986   5.811 -3.2214 -2.4479  0.7991
20721SOL     OW63603   4.578   0.954   5.557  0.1048 -0.2771  0.1253
20721SOL    HW163604   4.509   0.894   5.585 -0.3796  0.1483 -0.1362
20721SOL    HW263605   4.561   1.035   5.605 -0.2181  0.1749 -0.7285
20722SOL     OW63606   6.059   5.916  11.506 -0.0334 -0.1024 -1.2320
20722SOL    HW163607   6.137   5.953  11.548 -0.9446  1.1039 -0.5509
20722SOL    HW263608   6.055   5.826  11.537  0.7520  0.0120 -0.7887
20723SOL     OW63609   6.330   3.169  11.276  0.1177  0.1976 -0.1096
20723SOL    HW163610   6.262   3.146  11.213 -0.1606 -1.1758  0.6728
20723SOL    HW263611   6.284   3.180  11.359  0.6731  0.6173  0.1520
20724SOL     OW63612   3.116   4.251   6.767 -0.1604  0.0959  0.4560
20724SOL    HW163613   3.125   4.254   6.672 -0.5429 -0.8377  0.3778
20724SOL    HW263614   3.200   4.282   6.801  0.7567 -1.5251 -0.2003
20725SOL     OW63615   6.056   2.957   3.185  0.1870 -0.1055  0.8468
20725SOL    HW163616   5.970   2.986   3.216 -0.5319  0.1013 -1.1770
20725SOL    HW263617   6.118   3.002   3.242 -1.0040  1.5825  0.8940
20726SOL     OW63618   3.314   3.308   9.800  0.2158  0.3649 -0.4595
20726SOL    HW163619   3.314   3.403   9.797 -2.1822  0.3958 -1.0109
20726SOL    HW263620   3.276   3.286   9.886 -0.7513 -0.0634 -0.9835
20727SOL     OW63621   4.661   0.504   5.207  0.3186  0.1155 -0.2093
20727SOL    HW163622   4.614   0.551   5.276  0.3739 -0.0856 -0.0334
20727SOL    HW263623   4.603   0.430   5.185  1.2099 -1.0175  1.0697
20728SOL     OW63624   5.780   7.238  11.863  0.2050 -0.2153 -0.6632
20728SOL    HW163625   5.787   7.194  11.948 -0.0812  2.0698  0.6326
20728SOL    HW263626   5.686   7.234  11.843  0.1425 -0.0363 -0.4244
20729SOL     OW63627   5.370   6.487   6.023  0.0026  0.4301  0.5416
20729SOL    HW163628   5.296   6.543   6.045 -1.4871 -0.9396 -0.7484
20729SOL    HW263629   5.401   6.455   6.107 -0.7381  1.1814  1.1193
20730SOL     OW63630   6.301   0.222   9.873 -0.4762  0.3167 -0.2956
20730SOL    HW163631   6.209   0.198   9.867 -0.5674  0.6896 -0.3592
20730SOL    HW263632   6.301   0.312   9.906 -0.1050 -0.1487  1.0392
20731SOL     OW63633   6.490   2.659  10.983  0.1114  0.4605  0.3830
20731SOL    HW163634   6.449   2.679  11.067 -1.4761  1.3332 -0.5534
20731SOL    HW263635   6.445   2.580  10.952  1.0870 -0.1920  0.5972
20732SOL     OW63636   7.164   0.763   2.246  0.3370  0.1339  0.3933
20732SOL    HW163637   7.238   0.809   2.207 -0.2458 -0.4137 -1.4417
20732SOL    HW263638   7.087   0.807   2.209 -0.2974  0.8671  2.4627
20733SOL     OW63639   5.005   6.662   9.059 -0.3475 -0.3707 -0.2972
20733SOL    HW163640   4.996   6.590   9.122  0.1462 -0.2387 -0.0693
20733SOL    HW263641   5.052   6.730   9.107  0.5137 -0.4749 -0.9793
20734SOL     OW63642   5.317   2.235   2.596 -0.3739  0.6422 -0.0414
20734SOL    HW163643   5.411   2.233   2.611 -0.4883 -0.4377  0.5861
20734SOL    HW263644   5.302   2.172   2.526 -0.5301  1.5133 -0.8139
20735SOL     OW63645   4.779   5.706  10.528 -0.6527  0.3405  0.2285
20735SOL    HW163646   4.734   5.642  10.474 -0.3578 -1.3391  1.8573
20735SOL    HW263647   4.715   5.731  10.595 -1.2248  2.8519 -1.1544
20736SOL     OW63648   0.266   4.930   0.168  0.3165 -0.8096 -0.4362
20736SOL    HW163649   0.287   4.932   0.074 -1.0826 -1.1019 -0.7826
20736SOL    HW263650   0.193   4.868   0.174  0.0462 -0.3891  0.7861
20737SOL     OW63651   2.968   7.858  11.918 -0.8111  0.0373  0.0165
20737SOL    HW163652   2.949   7.919  11.847  0.3386 -0.9046 -1.1428
20737SOL    HW263653   2.971   7.772  11.876 -1.4349 -0.7124  1.4458
20738SOL     OW63654   7.040   0.147   5.480 -0.0115  0.1493 -0.1063
20738SOL    HW163655   7.007   0.180   5.563 -2.3499 -0.9555 -0.5020
20738SOL    HW263656   6.964   0.148   5.422  1.6827  1.5173 -2.4793
20739SOL     OW63657   1.604   6.858   0.156  0.2189  0.2031 -0.1981
20739SOL    HW163658   1.523   6.909   0.166 -0.1568 -0.0846 -1.5606
20739SOL    HW263659   1.633   6.877   0.067 -1.2137 -3.7532 -1.6819
20740SOL     OW63660   1.751   3.438   8.526 -0.1151  0.1531  0.4603
20740SOL    HW163661   1.705   3.373   8.580  0.3377 -0.5533  0.0168
20740SOL    HW263662   1.839   3.401   8.515 -0.0747  0.4896 -0.4141
20741SOL     OW63663   6.528   7.150  11.493 -0.2171 -0.3570  0.4185
20741SOL    HW163664   6.452   7.103  11.457 -1.1231 -0.4650  2.3546
20741SOL    HW263665   6.543   7.222  11.432 -2.8783  0.5933  0.7884
20742SOL     OW63666   5.897   6.470   5.885 -0.1456  0.0674  0.4211
20742SOL    HW163667   5.899   6.560   5.918 -0.0193 -0.2618  1.3517
20742SOL    HW263668   5.989   6.446   5.874 -0.1220 -0.4005  1.5005
20743SOL     OW63669   1.312   4.585   6.902  0.9008 -0.2671  0.5661
20743SOL    HW163670   1.327   4.654   6.968  1.2801 -0.0619  0.2701
20743SOL    HW263671   1.233   4.540   6.932  0.1736  0.8198  0.3274
20744SOL     OW63672   4.150   4.951   4.229 -0.0995  0.4443 -0.0155
20744SOL    HW163673   4.109   4.936   4.314 -0.6667  0.0654 -0.3514
20744SOL    HW263674   4.103   5.026   4.193 -0.0881  0.3901 -0.1412
20745SOL     OW63675   2.519   5.532   4.258 -0.1713  0.3072  0.0127
20745SOL    HW163676   2.455   5.478   4.304 -0.1493 -0.4701 -0.8457
20745SOL    HW263677   2.518   5.500   4.168 -0.8320  2.3435 -0.7727
20746SOL     OW63678   5.058   7.596   7.125 -0.1808 -0.0280 -0.2030
20746SOL    HW163679   5.008   7.524   7.087 -0.5809  0.7869 -1.2498
20746SOL    HW263680   4.994   7.666   7.139  0.4279  0.5997 -0.4478
20747SOL     OW63681   6.416   1.267   7.590 -0.2416  0.1650  0.3300
20747SOL    HW163682   6.337   1.218   7.614  1.2132 -2.0043  0.9866
20747SOL    HW263683   6.488   1.209   7.613  1.5494  1.6493 -1.2132
20748SOL     OW63684   3.933   4.181  11.557 -0.0260 -0.0406  0.3709
20748SOL    HW163685   3.849   4.222  11.535  0.2854  1.3336  1.6038
20748SOL    HW263686   3.968   4.152  11.473 -0.5578  1.6803 -0.4753
20749SOL     OW63687   5.836   6.052  11.298  0.1356 -0.3752 -0.3232
20749SOL    HW163688   5.810   6.144  11.294  1.9293  0.2490  1.0943
20749SOL    HW263689   5.854   6.035  11.390 -0.5884 -2.2994 -0.4902
20750SOL     OW63690   3.069   4.702   5.542  0.4553  0.0589 -0.2457
20750SOL    HW163691   3.011   4.626   5.543  0.9685 -0.3353  0.3381
20750SOL    HW263692   3.130   4.685   5.471 -0.1681  0.5068 -0.9072
20751SOL     OW63693   5.021   6.528  10.455  0.5157 -0.1902 -0.6076
20751SOL    HW163694   4.942   6.483  10.425 -1.2185  2.0394  0.3433
20751SOL    HW263695   5.039   6.490  10.541 -0.4636  0.3726 -0.1473
20752SOL     OW63696   1.794   0.312   1.227  0.0673  0.0460 -0.2990
20752SOL    HW163697   1.799   0.352   1.141 -0.3690  0.6921 -0.0321
20752SOL    HW263698   1.886   0.301   1.254  0.1945  0.7295 -0.4395
20753SOL     OW63699   5.596   7.574   7.662  0.2298  0.2460  0.4572
20753SOL    HW163700   5.539   7.629   7.717  1.1746 -0.1567  1.8730
20753SOL    HW263701   5.634   7.636   7.600 -0.4599  0.8063  0.5659
20754SOL     OW63702   2.194   0.613   5.530  0.1992 -0.3465 -0.6663
20754SOL    HW163703   2.201   0.519   5.509 -1.4253 -0.5702 -0.3572
20754SOL    HW263704   2.195   0.656   5.444 -0.6429 -0.7908 -0.9146
20755SOL     OW63705   4.526   0.286  10.076  0.0362 -0.2239  0.0474
20755SOL    HW163706   4.560   0.303  10.164 -0.0948 -2.6257  0.6235
20755SOL    HW263707   4.598   0.240  10.032 -0.6883 -0.9588 -0.3788
20756SOL     OW63708   3.444   3.296   4.774  0.4217  0.3647 -0.2461
20756SOL    HW163709   3.397   3.312   4.855  0.2661 -0.4774 -0.1597
20756SOL    HW263710   3.375   3.277   4.710  0.6335 -1.7560  0.0827
20757SOL     OW63711   0.435   3.730   1.125  0.5888  0.2399  0.5702
20757SOL    HW163712   0.518   3.759   1.164  0.2863  0.4236  1.0997
20757SOL    HW263713   0.456   3.649   1.079  0.9967  0.1071  0.9830
20758SOL     OW63714   3.126   0.495   3.254  0.1922 -0.2874  0.3060
20758SOL    HW163715   3.120   0.541   3.170  1.6532 -0.5439  0.0288
20758SOL    HW263716   3.083   0.411   3.239 -1.5131  0.5230  0.4900
20759SOL     OW63717   4.517   3.917   8.563 -0.0980 -0.7119  0.1125
20759SOL    HW163718   4.572   3.914   8.641  2.5418  3.0277 -1.2925
20759SOL    HW263719   4.548   3.844   8.509 -1.6299 -3.0380  2.1805
20760SOL     OW63720   4.272   5.100   1.305  0.1915 -0.6524  0.6221
20760SOL    HW163721   4.242   5.015   1.337  0.4076 -0.1633  2.2084
20760SOL    HW263722   4.195   5.156   1.309  0.0432 -0.7535 -0.4445
20761SOL     OW63723   1.832   3.202   4.483  0.1033  0.0772 -0.1586
20761SOL    HW163724   1.874   3.118   4.502 -1.0854 -0.3961  0.4686
20761SOL    HW263725   1.757   3.179   4.429  0.6339  0.9194 -1.3110
20762SOL     OW63726   3.475   4.407   5.452 -0.5123  0.2916  0.0452
20762SOL    HW163727   3.498   4.315   5.438  1.7459  0.8952 -0.6983
20762SOL    HW263728   3.511   4.428   5.538  2.4103  1.3612 -1.3035
20763SOL     OW63729   7.840   4.260   9.465  0.0595 -0.5335 -0.0384
20763SOL    HW163730   7.856   4.260   9.559 -0.3583 -2.1002  0.0584
20763SOL    HW263731   7.748   4.235   9.456 -0.0317  0.0639 -0.8533
20764SOL     OW63732   3.971   2.835   7.181 -0.2310  0.0560  0.3963
20764SOL    HW163733   3.998   2.898   7.248  1.9239  0.8566 -1.0816
20764SOL    HW263734   3.921   2.888   7.118 -0.1371 -0.1342  0.1605
20765SOL     OW63735   2.961   3.713   5.929 -0.9742  0.1377 -0.1678
20765SOL    HW163736   2.983   3.683   6.017 -3.7041 -2.1291 -0.0903
20765SOL    HW263737   2.968   3.808   5.933  0.2557  0.0208  2.0710
20766SOL     OW63738   3.524   5.171   1.618  0.2601 -0.2758 -0.4292
20766SOL    HW163739   3.585   5.108   1.578  1.3674  0.8779 -0.6157
20766SOL    HW263740   3.501   5.132   1.702  1.9292 -0.3438  0.0161
20767SOL     OW63741   4.675   1.630  12.294  0.0354 -0.2119  0.1282
20767SOL    HW163742   4.731   1.700  12.327  0.3953 -0.3876 -0.0940
20767SOL    HW263743   4.587   1.666  12.295  0.0471 -0.1909  1.1989
20768SOL     OW63744   5.200   4.677   6.021 -0.0269 -0.6043 -0.1323
20768SOL    HW163745   5.233   4.592   6.049 -1.1387 -1.0289 -0.0508
20768SOL    HW263746   5.207   4.732   6.099  3.2659  0.2475 -0.8690
20769SOL     OW63747   2.331   1.323   5.575  0.4925 -0.0345  0.6239
20769SOL    HW163748   2.413   1.290   5.613  1.3854 -0.3013 -1.4048
20769SOL    HW263749   2.359   1.395   5.518 -0.9123  1.0295  1.2236
20770SOL     OW63750   3.851   2.797   5.191  0.0295  0.0640  0.1173
20770SOL    HW163751   3.829   2.876   5.240 -0.5349 -0.0521  0.0656
20770SOL    HW263752   3.768   2.749   5.186  0.5995 -1.1067  1.2022
20771SOL     OW63753   2.519   4.361   9.112 -0.3530 -0.1585 -0.7051
20771SOL    HW163754   2.613   4.380   9.115 -0.4182  0.2464 -1.2321
20771SOL    HW263755   2.514   4.266   9.097 -0.0292 -0.1222 -1.0467
20772SOL     OW63756   0.733   4.962   6.712  0.0733  0.1594  0.3929
20772SOL    HW163757   0.803   5.000   6.659  1.1143 -2.4945 -0.2498
20772SOL    HW263758   0.655   5.012   6.687  1.4914  2.5482  0.4322
20773SOL     OW63759   2.587   3.276   7.770 -0.1267  0.1242  0.5331
20773SOL    HW163760   2.598   3.370   7.784 -2.4998  0.3940  0.9004
20773SOL    HW263761   2.580   3.266   7.675  2.4616 -0.0380  0.2860
20774SOL     OW63762   1.568   1.670   5.335  0.5950 -0.0115 -0.5732
20774SOL    HW163763   1.637   1.635   5.278  1.1300  0.3174 -0.1504
20774SOL    HW263764   1.530   1.742   5.284  2.4305  1.6283  0.1919
20775SOL     OW63765   1.210   5.436   1.300 -0.6964  0.0071  0.0159
20775SOL    HW163766   1.222   5.390   1.217 -0.1734  0.3024 -0.0719
20775SOL    HW263767   1.149   5.507   1.279  0.3915  0.8435 -0.4081
20776SOL     OW63768   3.887   2.053   7.064 -0.1520 -0.9304 -0.2696
20776SOL    HW163769   3.910   2.146   7.070 -0.4773 -0.7346 -1.7532
20776SOL    HW263770   3.793   2.053   7.046 -0.4290 -1.5997  1.0794
20777SOL     OW63771   5.766   4.915  10.083 -0.0403  0.0366  0.3912
20777SOL    HW163772   5.689   4.920  10.139  1.3158 -0.5918  2.4368
20777SOL    HW263773   5.779   5.004  10.051 -1.7322  0.0951 -0.2139
20778SOL     OW63774   2.927   6.011   4.834 -0.0603  0.1361  0.2804
20778SOL    HW163775   2.966   6.025   4.920 -0.5752  2.2335  0.2363
20778SOL    HW263776   3.001   6.015   4.773  0.2790 -1.1596  0.5808
20779SOL     OW63777   1.599   4.290  11.104  0.6479  0.5095 -0.8414
20779SOL    HW163778   1.515   4.303  11.061  0.1397  0.2363  0.0233
20779SOL    HW263779   1.632   4.207  11.069 -1.5435 -1.7502  1.9083
20780SOL     OW63780   5.020   3.326   3.814 -0.0772  0.3382  0.4833
20780SOL    HW163781   5.011   3.269   3.891  2.1579  0.3550  0.8326
20780SOL    HW263782   5.063   3.271   3.749 -0.1366  0.9197 -0.0481
20781SOL     OW63783   7.605   6.309   1.761  0.5639 -0.0379  0.3663
20781SOL    HW163784   7.546   6.250   1.809  0.4667 -1.6852 -1.6139
20781SOL    HW263785   7.658   6.350   1.829  0.6032 -2.4053  1.9108
20782SOL     OW63786   6.115   4.895  10.053  0.6010 -0.2964  0.8559
20782SOL    HW163787   6.060   4.819  10.032  2.5219 -2.3016  2.4981
20782SOL    HW263788   6.079   4.929  10.135  1.0197 -0.8369  1.2747
20783SOL     OW63789   7.278   6.806   0.484  0.1778  0.3747  0.3672
20783SOL    HW163790   7.370   6.806   0.457  0.0656 -0.9579 -0.0536
20783SOL    HW263791   7.278   6.772   0.573  0.2980  2.5714  1.2793
20784SOL     OW63792   1.062   1.591   5.799 -0.1481 -0.1655  0.1565
20784SOL    HW163793   0.997   1.592   5.728  0.3446  0.3810 -0.2930
20784SOL    HW263794   1.135   1.540   5.765 -0.4847 -1.1064  0.8068
20785SOL     OW63795   2.473   7.430   8.147 -0.0842  0.0515 -0.5731
20785SOL    HW163796   2.452   7.491   8.077  0.4141 -0.5510 -1.2703
20785SOL    HW263797   2.434   7.347   8.119  1.0788 -0.4755 -0.7058
20786SOL     OW63798   7.568   2.536  12.373 -0.1948 -0.4513  0.6216
20786SOL    HW163799   7.638   2.595  12.344  0.6663 -1.6672  0.1067
20786SOL    HW263800   7.490   2.566  12.327  0.6031 -0.7458 -0.9961
20787SOL     OW63801   2.320   2.855   6.453  0.4328 -0.0282  0.0398
20787SOL    HW163802   2.298   2.861   6.360 -0.1153 -2.0815 -0.0197
20787SOL    HW263803   2.329   2.946   6.481  0.5218  0.6538 -1.9872
20788SOL     OW63804   6.501   7.646   4.858  0.0093 -0.8783  0.2037
20788SOL    HW163805   6.447   7.712   4.901 -0.4295 -1.4646  0.5483
20788SOL    HW263806   6.487   7.662   4.764  0.3848 -0.0900  0.2698
20789SOL     OW63807   7.195   7.805   9.565 -0.1517 -0.2732  0.1984
20789SOL    HW163808   7.167   7.896   9.552 -1.3107 -0.5550  0.6102
20789SOL    HW263809   7.229   7.778   9.480 -0.8514  0.1985 -0.2403
20790SOL     OW63810   0.556   7.408   0.234  0.1360  0.5974  0.1725
20790SOL    HW163811   0.609   7.338   0.273  1.1203  0.3857 -1.4356
20790SOL    HW263812   0.514   7.451   0.308 -0.5062 -1.6918  1.2236
20791SOL     OW63813   7.206   7.820   2.352 -0.0596 -0.3888 -0.3238
20791SOL    HW163814   7.293   7.853   2.330  0.2323 -0.0609  1.1945
20791SOL    HW263815   7.203   7.733   2.312  0.8513 -0.2850 -0.6458
20792SOL     OW63816   3.894   7.602   6.946  0.4326  0.1755  0.2338
20792SOL    HW163817   3.904   7.696   6.932 -1.6248  0.8890  2.6909
20792SOL    HW263818   3.822   7.577   6.888  0.2483  0.3630  0.3812
20793SOL     OW63819   3.226   6.293   1.736  0.9481  0.2995  0.4099
20793SOL    HW163820   3.270   6.210   1.715  0.1522  0.1817 -0.9498
20793SOL    HW263821   3.162   6.270   1.803 -0.2589 -0.5316 -0.9603
20794SOL     OW63822   5.279   4.534  12.064  0.1050 -0.3360 -0.3519
20794SOL    HW163823   5.334   4.538  11.986 -0.1954  0.0039 -0.5451
20794SOL    HW263824   5.274   4.624  12.096 -0.7474 -0.2799 -0.6230
20795SOL     OW63825   5.508   3.392  10.511  0.0436 -0.0806  0.2112
20795SOL    HW163826   5.556   3.474  10.523 -0.2311  0.1139  0.0016
20795SOL    HW263827   5.450   3.409  10.436  1.7167 -1.2533 -1.4354
20796SOL     OW63828   7.820   3.377   7.430 -0.0202  0.0247 -0.9619
20796SOL    HW163829   7.829   3.440   7.502 -0.9309 -0.8500 -0.0636
20796SOL    HW263830   7.748   3.412   7.377  2.2416  2.0607 -2.9880
20797SOL     OW63831   5.198   5.853   3.536 -0.0127  0.3553 -0.5765
20797SOL    HW163832   5.233   5.809   3.458  0.0360  1.0186 -0.9410
20797SOL    HW263833   5.192   5.945   3.510  0.4737  0.6610  0.3778
20798SOL     OW63834   3.842   0.577   6.519 -0.3477 -0.2755 -0.1513
20798SOL    HW163835   3.804   0.600   6.604  0.3726  0.0184  0.0952
20798SOL    HW263836   3.767   0.574   6.459 -0.8970 -0.7642  0.5494
20799SOL     OW63837   5.125   0.552   2.523 -0.3285  0.3888  0.0317
20799SOL    HW163838   5.033   0.562   2.497 -0.4218  0.1621  0.2635
20799SOL    HW263839   5.145   0.631   2.572 -0.5531  0.2082  0.4158
20800SOL     OW63840   4.728   5.020   7.163  0.2917 -0.0616 -0.0526
20800SOL    HW163841   4.729   5.011   7.068 -0.4052  1.3928 -0.2215
20800SOL    HW263842   4.683   4.941   7.194 -1.3099  0.4032 -1.0808
20801SOL     OW63843   5.697   2.041  10.867 -0.5066 -0.4139 -0.4827
20801SOL    HW163844   5.773   1.984  10.861 -0.9025 -0.8222 -2.5911
20801SOL    HW263845   5.717   2.101  10.939  1.4653 -0.9571 -0.5190
20802SOL     OW63846   7.437   1.524   3.642  0.5105  0.7195 -0.8861
20802SOL    HW163847   7.515   1.522   3.697  0.9700 -0.6905 -1.5256
20802SOL    HW263848   7.450   1.452   3.580 -1.2873  0.4801 -1.0380
20803SOL     OW63849   6.061   7.678   1.088  0.0108  0.1806 -0.0139
20803SOL    HW163850   6.073   7.584   1.097  0.0729  0.2516  0.6392
20803SOL    HW263851   5.966   7.691   1.094 -0.1591 -0.0052 -1.7357
20804SOL     OW63852   5.221   2.422   1.192 -0.4037  0.0398 -0.2920
20804SOL    HW163853   5.289   2.465   1.140 -0.6577  0.0261 -0.6401
20804SOL    HW263854   5.247   2.436   1.283 -0.3906  0.7875 -0.4025
20805SOL     OW63855   3.030   0.521  12.106 -0.6280 -0.4923  0.1299
20805SOL    HW163856   2.985   0.442  12.137 -0.8944 -0.6782 -0.7088
20805SOL    HW263857   2.983   0.545  12.027  2.5503 -2.4620 -2.6110
20806SOL     OW63858   7.702   4.321   6.530  0.1230  0.2932 -0.3158
20806SOL    HW163859   7.768   4.255   6.554  0.0397  0.1754 -0.4118
20806SOL    HW263860   7.678   4.300   6.440  0.8276  1.0640 -0.7006
20807SOL     OW63861   7.641   2.467   5.912  0.2127 -0.4281  0.0821
20807SOL    HW163862   7.586   2.419   5.850 -0.8186  1.7176 -0.7817
20807SOL    HW263863   7.650   2.408   5.987 -0.3861 -2.2084 -1.1852
20808SOL     OW63864   0.262   5.083   6.341 -0.0957  0.5233 -0.3615
20808SOL    HW163865   0.325   5.011   6.339 -0.3336  0.2920  0.1400
20808SOL    HW263866   0.177   5.042   6.324 -0.3337  0.5560  0.6842
20809SOL     OW63867   5.089   7.881   2.665 -0.2309  0.3214 -0.1247
20809SOL    HW163868   5.125   7.880   2.754 -0.5747 -0.7226  0.0212
20809SOL    HW263869   5.037   7.961   2.661 -0.2058  0.3842  0.6167
20810SOL     OW63870   6.525   3.546   6.177  0.1199 -0.3177  0.0709
20810SOL    HW163871   6.443   3.592   6.158 -0.6580 -2.1035 -1.1150
20810SOL    HW263872   6.572   3.604   6.237 -2.0011  0.7472  0.7764
20811SOL     OW63873   0.951   2.129   8.132 -0.4434 -0.0123  0.3466
20811SOL    HW163874   1.043   2.116   8.109 -0.7944 -1.0764 -0.5323
20811SOL    HW263875   0.949   2.213   8.177  0.8347  0.4121 -0.3515
20812SOL     OW63876   0.878   2.890   7.020  0.5136 -0.1138 -0.3073
20812SOL    HW163877   0.823   2.818   6.989  0.3851  0.0407 -0.4423
20812SOL    HW263878   0.954   2.848   7.059  0.1471 -0.3362  0.1732
20813SOL     OW63879   1.180   5.568   0.871 -0.1310 -0.3534 -0.3275
20813SOL    HW163880   1.166   5.582   0.778 -1.4386 -1.0914 -0.2737
20813SOL    HW263881   1.125   5.493   0.893  1.5029 -1.3184  0.7041
20814SOL     OW63882   3.638   4.997  11.139 -0.6116 -0.2014  0.0611
20814SOL    HW163883   3.715   4.957  11.098 -2.2013 -1.6119 -1.7566
20814SOL    HW263884   3.662   5.007  11.231  1.4085 -1.4356 -0.2739
20815SOL     OW63885   2.925   3.419   1.707 -0.0611  0.2825 -0.2236
20815SOL    HW163886   2.992   3.447   1.770  0.4691 -1.1646 -0.1000
20815SOL    HW263887   2.914   3.495   1.649  1.5765  0.6288 -0.1506
20816SOL     OW63888   0.174   7.329   7.746 -0.2875 -0.5225  0.4200
20816SOL    HW163889   0.205   7.408   7.702  0.4899 -0.7820  0.4881
20816SOL    HW263890   0.097   7.303   7.696 -0.0952 -0.1591 -0.0740
20817SOL     OW63891   0.085   0.435   0.544 -0.2939 -0.3819  0.1080
20817SOL    HW163892   0.083   0.438   0.639  0.0547  2.1543  0.0953
20817SOL    HW263893   0.173   0.467   0.521  0.4074 -2.9029 -1.0799
20818SOL     OW63894   5.523   3.158   2.643 -0.4506  0.2163  0.0717
20818SOL    HW163895   5.519   3.235   2.701  0.1197  0.9693 -0.8499
20818SOL    HW263896   5.534   3.195   2.556 -0.3708 -0.9277 -0.4168
20819SOL     OW63897   1.949   4.744   4.834  0.0617  0.2624 -0.2832
20819SOL    HW163898   1.935   4.706   4.747 -1.4857  0.1594 -0.0169
20819SOL    HW263899   1.917   4.834   4.826 -1.3857 -0.1682  0.5376
20820SOL     OW63900   2.356   5.215  10.692  0.3761  0.2146 -0.5623
20820SOL    HW163901   2.408   5.208  10.772  1.6286 -1.4999 -1.4652
20820SOL    HW263902   2.414   5.182  10.623 -1.3373 -0.1852 -1.8713
20821SOL     OW63903   7.356   1.305  12.451 -0.1462 -0.3091  0.0057
20821SOL    HW163904   7.298   1.374  12.483  1.0090  0.8965 -0.4139
20821SOL    HW263905   7.320   1.281  12.365  0.2898  0.8638 -0.5295
20822SOL     OW63906   4.373   5.562  12.094  0.0617 -0.1341  0.7684
20822SOL    HW163907   4.307   5.629  12.078 -0.4525 -0.6251  0.8304
20822SOL    HW263908   4.444   5.609  12.139 -0.7187  0.1688  1.7264
20823SOL     OW63909   0.841   1.306   6.055  0.1334  0.1174  0.1927
20823SOL    HW163910   0.889   1.240   6.006  1.1901 -0.4993  1.9403
20823SOL    HW263911   0.907   1.372   6.078  0.2155 -0.6423  2.4581
20824SOL     OW63912   4.056   7.267   4.583  0.1585  0.4571 -0.3107
20824SOL    HW163913   4.144   7.275   4.547 -0.2588 -1.0266 -1.8001
20824SOL    HW263914   4.015   7.197   4.532 -1.5657  0.4317  0.9902
20825SOL     OW63915   7.697   4.984   6.247  0.1282 -0.0077 -0.1583
20825SOL    HW163916   7.631   4.944   6.303 -0.1562 -0.3215 -0.7075
20825SOL    HW263917   7.778   4.981   6.299  0.0405 -0.9930 -0.0622
20826SOL     OW63918   5.142   1.020   4.508  0.7676 -0.2505 -0.4403
20826SOL    HW163919   5.132   0.993   4.417 -1.6865 -0.6181 -0.1196
20826SOL    HW263920   5.122   0.941   4.558  1.6270  0.0722  0.4453
20827SOL     OW63921   4.783   6.968   1.609  0.3191 -0.4638 -0.9800
20827SOL    HW163922   4.755   6.965   1.700  1.7550  2.5152 -0.3345
20827SOL    HW263923   4.708   6.933   1.560 -1.3625 -0.1108  1.1804
20828SOL     OW63924   0.816   2.800   6.039  0.5881  0.9940 -0.5237
20828SOL    HW163925   0.773   2.765   6.118 -1.5521  0.1011 -1.9906
20828SOL    HW263926   0.902   2.827   6.069 -0.4762  1.5911  2.3345
20829SOL     OW63927   3.836   3.196   4.706 -0.0834  0.0089  0.7875
20829SOL    HW163928   3.792   3.130   4.653 -0.7769  1.1230 -0.0764
20829SOL    HW263929   3.927   3.165   4.713 -0.0123 -0.2555 -0.9150
20830SOL     OW63930   7.303   0.215   4.173 -0.2275  0.0792 -0.4677
20830SOL    HW163931   7.331   0.303   4.147 -0.6898  0.1806 -0.6318
20830SOL    HW263932   7.355   0.156   4.119 -1.0480  0.2845 -1.5201
20831SOL     OW63933   4.147   7.549   4.726 -0.2207 -0.1564  0.3492
20831SOL    HW163934   4.228   7.502   4.749 -1.6975 -2.3017  1.5141
20831SOL    HW263935   4.082   7.480   4.715 -1.5168  1.3442 -2.5601
20832SOL     OW63936   0.991   1.534   6.436  0.6937  0.1106  0.1690
20832SOL    HW163937   1.001   1.609   6.495 -1.2250  1.5954 -1.2543
20832SOL    HW263938   1.054   1.550   6.366  0.0716  0.6171 -0.2946
20833SOL     OW63939   1.837   0.915   2.597  0.4149 -0.1726  0.4864
20833SOL    HW163940   1.779   0.950   2.665 -0.9582 -1.1618 -0.1336
20833SOL    HW263941   1.809   0.959   2.517  0.3555 -0.8389  0.1390
20834SOL     OW63942   7.497   6.415   5.074  0.2235  0.0374 -0.0099
20834SOL    HW163943   7.455   6.498   5.098  0.8431 -0.1277  1.7949
20834SOL    HW263944   7.514   6.372   5.157  0.7570 -1.5036 -0.8780
20835SOL     OW63945   4.841   1.814   4.874 -0.0301  0.0827  0.2866
20835SOL    HW163946   4.783   1.752   4.918  0.8426 -0.1933  1.0769
20835SOL    HW263947   4.828   1.896   4.921 -1.2131  0.5349 -0.7837
20836SOL     OW63948   2.704   4.768   9.723  0.0029  0.8134 -0.6854
20836SOL    HW163949   2.787   4.786   9.767  0.8849 -3.3315 -0.2961
20836SOL    HW263950   2.728   4.746   9.633 -0.7529  0.1676 -0.7436
20837SOL     OW63951   3.927   5.145  11.988  0.3639 -0.7158  0.6622
20837SOL    HW163952   3.849   5.110  12.032 -1.1881 -0.2038 -1.5373
20837SOL    HW263953   3.976   5.067  11.962 -0.0525 -1.0884  0.9654
20838SOL     OW63954   5.524   3.317   3.344  0.2828  0.3045 -0.5456
20838SOL    HW163955   5.499   3.327   3.436  1.6587  0.2228 -0.1533
20838SOL    HW263956   5.612   3.281   3.346 -0.2159 -1.0946 -1.9216
20839SOL     OW63957   5.639   7.408   6.764  0.2031 -0.3039  0.0591
20839SOL    HW163958   5.691   7.386   6.841  1.5635  0.1800 -0.6864
20839SOL    HW263959   5.685   7.366   6.691  0.3712  1.2901 -0.8039
20840SOL     OW63960   0.382   6.780   8.125 -0.5515  0.1107 -0.7615
20840SOL    HW163961   0.465   6.735   8.141 -0.5437 -0.7620 -2.8870
20840SOL    HW263962   0.323   6.711   8.093 -1.9174  0.8263  0.0982
20841SOL     OW63963   6.061   5.363   7.525  0.1839 -0.1519 -0.1036
20841SOL    HW163964   6.154   5.386   7.514 -0.0315  0.5386 -0.5152
20841SOL    HW263965   6.027   5.362   7.436  0.2192 -2.2814 -0.1408
20842SOL     OW63966   6.724   7.405  11.077 -0.1366  0.4387 -0.0892
20842SOL    HW163967   6.649   7.357  11.112 -0.1586 -0.5153 -1.3477
20842SOL    HW263968   6.756   7.349  11.006  0.2865  1.9832 -1.1433
20843SOL     OW63969   0.486   6.019  10.974  0.5597  0.2100  0.1230
20843SOL    HW163970   0.409   5.969  10.946  0.0131  0.6145  0.8595
20843SOL    HW263971   0.560   5.963  10.953 -0.0780 -1.5278  2.1176
20844SOL     OW63972   7.050   0.958  11.719 -0.0743 -0.0295  0.0982
20844SOL    HW163973   7.075   0.866  11.729  0.9082 -0.0458 -1.8648
20844SOL    HW263974   7.114   0.993  11.657 -0.0296  2.1785  1.2939
20845SOL     OW63975   7.490   0.667   5.500 -0.7213  0.2492 -0.0398
20845SOL    HW163976   7.527   0.585   5.465 -0.2357  1.3761 -2.3321
20845SOL    HW263977   7.564   0.727   5.503 -1.5238  1.2982 -0.6405
20846SOL     OW63978   4.810   2.835   6.865 -0.5917  0.3505  0.2772
20846SOL    HW163979   4.804   2.862   6.773 -0.8351  1.2389  0.5495
20846SOL    HW263980   4.898   2.798   6.873 -1.0637 -1.0941 -0.6598
20847SOL     OW63981   3.182   3.882  11.113  0.0061 -0.5100 -0.0409
20847SOL    HW163982   3.211   3.930  11.191  0.2283 -2.2583  0.9866
20847SOL    HW263983   3.112   3.825  11.144 -0.6310 -0.4884 -1.3598
20848SOL     OW63984   6.756   0.030   0.313 -0.0342  0.6124  0.1033
20848SOL    HW163985   6.773  -0.044   0.371 -0.4876  0.5923  0.2119
20848SOL    HW263986   6.799   0.104   0.356  0.2008  0.4648  0.1251
20849SOL     OW63987   0.736   0.636   8.623 -0.1521  0.0817 -0.0925
20849SOL    HW163988   0.649   0.662   8.651  0.7234  2.4059  0.7577
20849SOL    HW263989   0.740   0.542   8.641 -2.2987  0.0042  0.2356
20850SOL     OW63990   1.643   0.037   9.170 -0.3768 -0.1082 -0.2818
20850SOL    HW163991   1.708   0.084   9.222 -0.4020  0.0009 -0.3474
20850SOL    HW263992   1.569   0.097   9.164 -0.7406 -0.4866  0.3275
20851SOL     OW63993   0.621   4.407   0.394 -0.8458  0.0028  0.3581
20851SOL    HW163994   0.616   4.422   0.300  1.1642 -0.0874  0.1838
20851SOL    HW263995   0.675   4.479   0.427 -0.1803 -0.8413  1.1720
20852SOL     OW63996   5.454   2.358   6.974  0.0778  0.2160  0.1984
20852SOL    HW163997   5.481   2.295   6.907  1.9712 -0.0938  1.1904
20852SOL    HW263998   5.360   2.343   6.984 -0.0974 -0.2835 -1.7812
20853SOL     OW63999   4.838   2.208  10.894  0.0808  0.1947 -0.4041
20853SOL    HW164000   4.814   2.240  10.807 -0.7575  2.0999  0.4836
20853SOL    HW264001   4.920   2.160  10.880 -0.2282  0.1500 -2.2906
20854SOL     OW64002   2.727   4.821   0.708  0.2446 -0.0366  0.2886
20854SOL    HW164003   2.714   4.778   0.793 -1.1067  1.5461  0.9532
20854SOL    HW264004   2.647   4.801   0.659  0.2378  0.4975  0.0782
20855SOL     OW64005   4.086   4.087   8.490 -0.0374  0.1862 -0.0982
20855SOL    HW164006   4.076   4.011   8.548  0.5689  0.4974  0.4169
20855SOL    HW264007   4.042   4.158   8.537  1.0065  0.5919  0.2921
20856SOL     OW64008   3.364   4.563   7.839  0.0883 -0.1279 -0.3482
20856SOL    HW164009   3.334   4.566   7.930  0.8558 -0.5097 -0.0745
20856SOL    HW264010   3.325   4.483   7.803  0.2353 -0.2713 -0.1904
20857SOL     OW64011   2.602   7.789   8.085  0.5256  0.0968 -0.1967
20857SOL    HW164012   2.538   7.726   8.053 -0.6110  0.8883  0.4628
20857SOL    HW264013   2.686   7.742   8.081 -0.1536 -1.1317 -0.5749
20858SOL     OW64014   3.835   3.190   0.752  0.8005  0.5235 -0.1100
20858SOL    HW164015   3.818   3.101   0.784  1.7314  0.3484 -0.0615
20858SOL    HW264016   3.749   3.230   0.746  0.2813 -0.6578 -0.9214
20859SOL     OW64017   7.607   2.755  11.144 -0.6141  0.3399 -0.0922
20859SOL    HW164018   7.625   2.685  11.206  3.0705  0.5586 -0.6954
20859SOL    HW264019   7.598   2.834  11.197 -0.8733  0.0243  0.3380
20860SOL     OW64020   0.794   0.256   2.705  0.1434  0.2256 -0.3839
20860SOL    HW164021   0.769   0.313   2.778 -0.7298 -1.1421  0.4302
20860SOL    HW264022   0.884   0.229   2.725 -0.6210 -1.4490  1.1388
20861SOL     OW64023   3.599   2.580   0.419 -0.0930 -0.2684  0.1243
20861SOL    HW164024   3.538   2.653   0.411 -1.4637 -1.4237 -0.4091
20861SOL    HW264025   3.651   2.582   0.339 -0.1224  0.1017  0.1135
20862SOL     OW64026   2.046   0.406   5.834  0.1984  0.1387  0.1177
20862SOL    HW164027   2.000   0.467   5.776  0.0587  1.0322  1.1358
20862SOL    HW264028   1.989   0.329   5.838 -1.2062  1.1815  1.2685
20863SOL     OW64029   2.162   7.975   6.425  0.0126  0.3958 -0.2650
20863SOL    HW164030   2.075   7.935   6.422  0.3591 -0.3248 -0.9236
20863SOL    HW264031   2.194   7.969   6.335  0.9202  0.2682  0.0621
20864SOL     OW64032   4.836   2.839   5.464  0.3654 -0.1109 -0.0841
20864SOL    HW164033   4.831   2.743   5.468 -1.6613 -0.1881 -2.2789
20864SOL    HW264034   4.888   2.863   5.541 -0.8550 -2.8210  1.7517
20865SOL     OW64035   4.980   3.058   4.348  0.5894  0.6986  0.1459
20865SOL    HW164036   4.923   3.048   4.272  1.1579  2.8572 -0.6427
20865SOL    HW264037   4.928   3.111   4.409  1.0993  1.2403  0.1212
20866SOL     OW64038   3.297   3.597   6.567  0.6345  0.6797  0.6112
20866SOL    HW164039   3.308   3.502   6.575  1.7142  0.8092  0.8018
20866SOL    HW264040   3.231   3.619   6.633 -0.5379 -0.0857 -0.2624
20867SOL     OW64041   4.888   4.328   6.864 -0.3118 -0.0759 -0.3903
20867SOL    HW164042   4.813   4.365   6.818 -0.6461  0.4728  0.5926
20867SOL    HW264043   4.894   4.377   6.946  0.2498 -1.0721  0.1859
20868SOL     OW64044   7.113   3.507   1.185  0.3059  0.4945  0.5589
20868SOL    HW164045   7.083   3.417   1.177  0.1133  0.5392  0.7679
20868SOL    HW264046   7.132   3.518   1.278 -2.4044  1.5203  1.0822
20869SOL     OW64047   2.159   7.134   9.788 -0.0770  0.1427  0.3120
20869SOL    HW164048   2.227   7.129   9.721 -0.7767  0.7710 -0.4679
20869SOL    HW264049   2.137   7.043   9.807  0.9978 -0.0695  0.6016
20870SOL     OW64050   6.153   4.984   7.751 -0.1644 -0.3433 -0.2884
20870SOL    HW164051   6.210   5.008   7.678 -1.4145  0.9000 -0.8942
20870SOL    HW264052   6.200   5.014   7.829  0.2036  0.3238 -0.7542
20871SOL     OW64053   2.047   0.488   6.930 -0.5495  0.6079  0.3519
20871SOL    HW164054   2.100   0.473   7.008 -0.6882  1.6229  0.6463
20871SOL    HW264055   2.110   0.482   6.857 -0.5526 -1.1393  0.4423
20872SOL     OW64056   7.833   0.683   2.176  0.2087 -0.4124  0.4748
20872SOL    HW164057   7.924   0.661   2.156  0.1109  1.8486 -3.4129
20872SOL    HW264058   7.839   0.756   2.238  0.9313 -1.0830  1.2296
20873SOL     OW64059   2.192   2.713   5.193 -0.3417  0.1931  0.1319
20873SOL    HW164060   2.173   2.678   5.106  1.0598  0.9157 -0.4945
20873SOL    HW264061   2.141   2.657   5.253  2.5164 -3.7376 -0.6824
20874SOL     OW64062   3.599   5.037  11.418 -0.6514  0.1682 -0.0110
20874SOL    HW164063   3.523   5.080  11.458 -0.6112  0.7885 -0.5785
20874SOL    HW264064   3.574   4.944  11.413 -1.7717  0.4913 -1.0574
20875SOL     OW64065   1.489   1.550   4.476  0.1197 -0.4094 -0.3712
20875SOL    HW164066   1.406   1.540   4.431 -0.8348 -1.1565  1.4598
20875SOL    HW264067   1.547   1.485   4.434 -0.3654 -0.2747 -1.2735
20876SOL     OW64068   5.711   0.438   6.831 -0.0736  0.7677 -0.1828
20876SOL    HW164069   5.730   0.387   6.910 -1.0175  2.4191  1.1794
20876SOL    HW264070   5.676   0.521   6.864 -0.1002  1.6790 -2.3454
20877SOL     OW64071   6.457   0.547   4.226  0.1201  0.1506 -0.1043
20877SOL    HW164072   6.499   0.490   4.161 -0.2078 -2.0974  1.5112
20877SOL    HW264073   6.365   0.547   4.200  0.3793  1.4524 -1.1141
20878SOL     OW64074   4.657   5.173   5.260  0.3227  0.6019  0.5891
20878SOL    HW164075   4.697   5.167   5.347  0.6868  1.6944  0.5105
20878SOL    HW264076   4.731   5.164   5.199 -0.1188 -1.8700  0.3104
20879SOL     OW64077   7.002   5.970   9.452 -0.2133  0.3267  0.0111
20879SOL    HW164078   7.086   5.951   9.411  0.2793 -1.1109  1.5614
20879SOL    HW264079   7.004   6.063   9.472  1.0777  0.2846  0.1166
20880SOL     OW64080   6.175   5.200   7.318  0.2656  0.2733 -0.5073
20880SOL    HW164081   6.235   5.275   7.323  0.2753  0.2300  0.1629
20880SOL    HW264082   6.221   5.130   7.364  0.4024 -0.2534 -1.4341
20881SOL     OW64083   2.514   0.285   9.297  0.3355  0.0225  0.0167
20881SOL    HW164084   2.488   0.375   9.279 -0.5951 -0.3739 -0.7192
20881SOL    HW264085   2.523   0.245   9.211 -0.5245 -0.9250  0.3526
20882SOL     OW64086   0.175   2.535   0.871  0.2208  0.0391  0.0392
20882SOL    HW164087   0.189   2.629   0.873  0.6234  0.0281 -1.5223
20882SOL    HW264088   0.237   2.502   0.806  0.5072 -1.3922  0.9794
20883SOL     OW64089   1.082   7.158   1.195  0.2052  0.5366 -0.4176
20883SOL    HW164090   1.090   7.148   1.100  1.6281 -1.6104 -0.1470
20883SOL    HW264091   1.072   7.069   1.228  1.2946  1.0787  1.5456
20884SOL     OW64092   7.893   6.849   1.044  0.0380 -0.3278  0.0705
20884SOL    HW164093   7.958   6.852   1.114 -0.4341 -1.7614  0.6025
20884SOL    HW264094   7.831   6.781   1.071 -1.5432  0.7806 -0.5551
20885SOL     OW64095   6.098   1.052   6.669  0.0352 -0.3760  0.0464
20885SOL    HW164096   6.131   0.993   6.601 -0.5434 -1.1976  0.4536
20885SOL    HW264097   6.041   0.997   6.722 -1.0292  0.7115  0.0713
20886SOL     OW64098   0.397   4.366  10.358  0.5013 -0.5224 -0.0765
20886SOL    HW164099   0.393   4.281  10.402 -0.5532 -0.5439 -0.1913
20886SOL    HW264100   0.479   4.363  10.308  1.1986 -0.9025  1.0328
20887SOL     OW64101   2.513   2.880  11.039 -0.1799 -0.2352 -0.1764
20887SOL    HW164102   2.473   2.963  11.064  0.2932 -0.0493 -0.0302
20887SOL    HW264103   2.595   2.877  11.089 -0.0548 -0.6511 -0.4060
20888SOL     OW64104   7.725   1.933   7.980  0.0078  0.1007 -0.0088
20888SOL    HW164105   7.740   1.843   7.950  1.8852  0.1442  0.6171
20888SOL    HW264106   7.733   1.928   8.075  1.2967  1.0821 -0.0302
20889SOL     OW64107   3.258   3.897   2.505  0.5687 -0.4947 -0.6984
20889SOL    HW164108   3.221   3.821   2.548  0.6541  0.9220  2.1073
20889SOL    HW264109   3.351   3.876   2.493  0.3169 -1.3338 -1.2821
20890SOL     OW64110   5.223   3.585  11.708 -0.4249  0.3757  0.0786
20890SOL    HW164111   5.289   3.522  11.679  0.6434  1.6824 -0.3897
20890SOL    HW264112   5.225   3.578  11.804  0.9379  0.9280  0.1083
20891SOL     OW64113   7.526   3.191   4.852 -0.2383 -0.6149 -0.2068
20891SOL    HW164114   7.432   3.172   4.852 -0.6907  1.3625  1.1824
20891SOL    HW264115   7.565   3.113   4.812 -2.6243 -0.4388 -3.3275
20892SOL     OW64116   0.532   0.356  12.059 -0.0735 -0.2999 -0.4675
20892SOL    HW164117   0.467   0.405  12.109  0.6000  1.0348 -0.8646
20892SOL    HW264118   0.553   0.281  12.115 -0.0498  0.6325  0.8256
20893SOL     OW64119   5.371   0.065   8.803 -0.4045 -0.2930  0.0368
20893SOL    HW164120   5.421   0.099   8.730  0.8888 -0.5139  0.7958
20893SOL    HW264121   5.434   0.056   8.874 -1.2821 -1.7009  0.6767
20894SOL     OW64122   4.266   6.517   8.952 -0.7790  0.1826 -0.2731
20894SOL    HW164123   4.188   6.509   8.896 -0.9442  0.2040 -0.0462
20894SOL    HW264124   4.333   6.465   8.907 -0.1447  2.1999 -1.8299
20895SOL     OW64125   7.066   5.793   5.567 -0.3106  0.0307 -0.1568
20895SOL    HW164126   7.045   5.828   5.480  0.1101 -0.3416 -0.4185
20895SOL    HW264127   7.144   5.740   5.552 -0.5728 -0.5060  0.3406
20896SOL     OW64128   1.106   7.131   1.780  0.2562  0.2495  0.7708
20896SOL    HW164129   1.193   7.159   1.751 -0.1322  1.0402  0.3369
20896SOL    HW264130   1.088   7.052   1.728  0.7393  0.0414  0.9133
20897SOL     OW64131   1.740   3.161  11.884  0.0216  0.3730 -0.5111
20897SOL    HW164132   1.656   3.185  11.922  0.4283  0.5643  0.2841
20897SOL    HW264133   1.725   3.077  11.841 -0.0829 -0.6494  1.4189
20898SOL     OW64134   7.552   6.598   2.033 -0.1902  0.0006  1.0503
20898SOL    HW164135   7.500   6.531   2.077 -1.0807 -0.7072 -0.9926
20898SOL    HW264136   7.488   6.660   1.998  0.5147  0.7716  1.0805
20899SOL     OW64137   2.529   7.653   2.479  0.6032 -0.5384  0.1236
20899SOL    HW164138   2.610   7.614   2.447  1.2664  0.9879 -0.1227
20899SOL    HW264139   2.504   7.715   2.411 -0.9845 -1.2360  0.0274
20900SOL     OW64140   7.701   0.236   8.256  0.2962  0.5052 -0.3799
20900SOL    HW164141   7.705   0.266   8.165  1.5373  0.2117 -0.4380
20900SOL    HW264142   7.717   0.142   8.251 -0.6524  0.2998  0.0680
20901SOL     OW64143   5.315   4.070   3.058  0.2440  0.0815 -0.2217
20901SOL    HW164144   5.265   4.084   3.138 -0.4398 -0.3027 -0.5665
20901SOL    HW264145   5.251   4.082   2.987  0.7161 -0.0817 -0.6866
20902SOL     OW64146   4.645   5.995   6.578  0.0991 -0.3930 -0.0318
20902SOL    HW164147   4.693   6.043   6.646 -0.5454 -1.7871  1.4681
20902SOL    HW264148   4.635   5.907   6.614 -1.8475 -0.6866 -1.1720
20903SOL     OW64149   6.978   2.826  12.111 -0.1436 -0.6120 -0.6613
20903SOL    HW164150   7.017   2.865  12.033  0.5108  0.1991  0.0526
20903SOL    HW264151   6.917   2.892  12.143 -0.4105 -0.9408 -0.4925
20904SOL     OW64152   7.472   0.062   3.139 -0.1179 -0.0728  0.1500
20904SOL    HW164153   7.449   0.120   3.212  2.3264  1.6259 -0.3048
20904SOL    HW264154   7.519  -0.010   3.180 -1.8796 -1.0753  0.5503
20905SOL     OW64155   4.214   2.494   9.442  0.3445 -0.1970 -0.4566
20905SOL    HW164156   4.130   2.519   9.481  1.1648 -1.0908  2.0855
20905SOL    HW264157   4.199   2.406   9.407  0.3849 -0.6964  0.7275
20906SOL     OW64158   3.832   1.209   8.310  0.0912 -0.7878 -0.2146
20906SOL    HW164159   3.849   1.291   8.264  2.4386 -1.1460 -0.1012
20906SOL    HW264160   3.883   1.215   8.390 -0.1771 -2.1180  0.0827
20907SOL     OW64161   0.958   4.653   1.151 -0.0725  0.0016  0.0095
20907SOL    HW164162   0.953   4.598   1.229  1.2042  0.7098  0.6150
20907SOL    HW264163   0.960   4.591   1.078  1.9914 -0.8139  0.7083
20908SOL     OW64164   3.109   1.284   7.583 -0.3450 -0.5533  0.2111
20908SOL    HW164165   3.145   1.312   7.499  2.0913 -2.0177  0.6629
20908SOL    HW264166   3.049   1.354   7.608  0.5422  0.9848 -1.7069
20909SOL     OW64167   2.405   1.374   3.246 -0.0976 -0.2571  0.0127
20909SOL    HW164168   2.371   1.401   3.161 -0.3411  1.7881  0.7002
20909SOL    HW264169   2.425   1.456   3.291 -1.9400 -1.1387  2.7265
20910SOL     OW64170   5.005   6.949   1.451 -0.2216  0.1069 -0.3159
20910SOL    HW164171   4.927   6.938   1.505 -0.1221  1.2783  0.0989
20910SOL    HW264172   5.004   7.042   1.426  1.0249  0.1326 -0.3120
20911SOL     OW64173   0.458   6.704  12.432 -0.2538 -0.5064 -0.6001
20911SOL    HW164174   0.493   6.732  12.347 -1.7001 -0.7463 -1.3000
20911SOL    HW264175   0.518   6.741  12.496  0.2129  0.6609 -1.6777
20912SOL     OW64176   3.545   4.849   5.772  0.1756 -0.1274  0.0937
20912SOL    HW164177   3.480   4.905   5.729  1.3624  1.0225 -0.2569
20912SOL    HW264178   3.578   4.793   5.701  0.3345  0.0286  0.0447
20913SOL     OW64179   5.272   7.291  11.028  0.3661  0.6870  0.2932
20913SOL    HW164180   5.258   7.218  11.087  2.9671  0.5459  0.8689
20913SOL    HW264181   5.186   7.332  11.018 -0.9607 -1.8423  0.7151
20914SOL     OW64182   2.019   5.270   0.716 -0.0781  0.0757  0.1332
20914SOL    HW164183   2.045   5.223   0.795 -3.1639 -1.5276  0.3394
20914SOL    HW264184   1.982   5.352   0.748 -1.9184 -0.8474  0.4860
20915SOL     OW64185   6.240   6.045   6.514  0.5859 -0.2553  0.0046
20915SOL    HW164186   6.221   6.007   6.428  1.3517  0.9061 -0.7063
20915SOL    HW264187   6.173   6.114   6.524  1.1020  0.2730 -0.1214
20916SOL     OW64188   4.755   4.771   8.885  0.6029  0.1380  0.2057
20916SOL    HW164189   4.760   4.849   8.830  1.4373 -0.6702 -0.9024
20916SOL    HW264190   4.846   4.752   8.908  0.5803 -1.3500 -0.7760
20917SOL     OW64191   1.049   0.991   9.939  0.0931 -0.1173  0.2387
20917SOL    HW164192   0.983   1.013   9.873  1.6931 -3.1912 -2.6725
20917SOL    HW264193   1.120   1.054   9.924  1.5754 -2.3129 -3.0532
20918SOL     OW64194   2.942   0.251   3.842 -0.1805  0.5351 -0.0162
20918SOL    HW164195   3.003   0.297   3.900  1.0385  0.2780 -1.0314
20918SOL    HW264196   2.911   0.318   3.781 -1.3460  0.7731  0.7990
20919SOL     OW64197   2.373   1.142   0.615  0.8339 -0.7671 -0.4104
20919SOL    HW164198   2.434   1.120   0.686  1.8093 -0.8703 -1.2496
20919SOL    HW264199   2.289   1.106   0.643  1.7156 -2.9946 -0.3962
20920SOL     OW64200   5.173   1.786   6.818 -0.2544  0.3030  0.0613
20920SOL    HW164201   5.179   1.719   6.750  1.9071 -1.3789  1.7358
20920SOL    HW264202   5.095   1.763   6.868  0.0140 -0.5178  0.1237
20921SOL     OW64203   6.274   3.342   6.654  0.6575  0.1978  0.2002
20921SOL    HW164204   6.297   3.364   6.564 -0.4540  0.8163  0.0526
20921SOL    HW264205   6.297   3.420   6.705  0.6434  0.1097  0.3433
20922SOL     OW64206   7.450   2.083   5.572  0.2806 -0.2713 -0.2762
20922SOL    HW164207   7.440   2.026   5.496 -0.4284 -0.8173  0.2096
20922SOL    HW264208   7.500   2.031   5.635 -0.2885 -0.3380  0.1326
20923SOL     OW64209   2.763   4.659  11.405 -0.1358  0.2059  0.1975
20923SOL    HW164210   2.775   4.581  11.458  0.3163 -0.3353 -0.6867
20923SOL    HW264211   2.845   4.707  11.414 -1.3219  1.9674  2.8877
20924SOL     OW64212   2.823   1.540   8.007 -0.1391  0.2372  0.2962
20924SOL    HW164213   2.789   1.605   7.945  2.7990  1.7202  0.0898
20924SOL    HW264214   2.838   1.461   7.954 -1.1880  0.2359 -0.0218
20925SOL     OW64215   4.932   5.014   3.379 -0.3546  0.2461 -0.3900
20925SOL    HW164216   4.985   4.939   3.354  0.6831  0.5552  0.8123
20925SOL    HW264217   4.854   4.976   3.419  1.6209 -0.3025  3.2800
20926SOL     OW64218   1.528   5.642   7.556  0.5066  0.6312 -0.4894
20926SOL    HW164219   1.505   5.639   7.463  0.4862  1.2532 -0.5080
20926SOL    HW264220   1.467   5.705   7.594 -1.0496 -1.3329  0.4070
20927SOL     OW64221   3.532   2.694   8.088  0.2342 -0.3143 -0.5383
20927SOL    HW164222   3.525   2.755   8.015  2.2394  1.3559  0.5448
20927SOL    HW264223   3.621   2.660   8.083  0.0583 -0.9962  0.5101
20928SOL     OW64224   5.532   1.333   2.798 -0.1561 -0.3183 -0.4155
20928SOL    HW164225   5.550   1.403   2.860 -1.8628  1.0471 -1.3693
20928SOL    HW264226   5.605   1.336   2.735 -0.4867  0.9909 -0.7571
20929SOL     OW64227   4.129   0.042   0.096  0.1761  0.1405  0.0950
20929SOL    HW164228   4.169   0.027   0.010 -2.2408 -0.4365 -1.0229
20929SOL    HW264229   4.060  -0.025   0.102  1.0283 -0.6246  3.0393
20930SOL     OW64230   0.939   3.666   9.996  0.4457  0.1337 -0.7085
20930SOL    HW164231   0.976   3.724   9.929 -0.4815  1.3598 -0.2003
20930SOL    HW264232   1.011   3.607  10.020  1.3531  0.9393 -1.3949
20931SOL     OW64233   2.660   1.997   3.288  0.3356 -0.3634  0.0916
20931SOL    HW164234   2.720   1.952   3.228 -1.0120  0.3140 -1.8697
20931SOL    HW264235   2.710   2.007   3.369  1.7523 -2.5541 -0.4372
20932SOL     OW64236   3.000   7.045   8.748  0.3655  0.0996  0.2775
20932SOL    HW164237   2.956   7.026   8.665 -0.2161  0.5623  0.4750
20932SOL    HW264238   2.930   7.073   8.807  0.7691 -0.2197  0.9319
20933SOL     OW64239   4.447   1.658   6.767  0.2063  0.2896 -0.0815
20933SOL    HW164240   4.419   1.573   6.801 -0.5747  0.2423 -0.8210
20933SOL    HW264241   4.450   1.646   6.672  1.2786  0.7445 -0.1187
20934SOL     OW64242   0.024   7.878  12.356 -0.3546 -0.1747 -0.3227
20934SOL    HW164243   0.085   7.805  12.351  0.7951  0.6911  0.5132
20934SOL    HW264244  -0.062   7.838  12.344  0.0348 -1.9960  2.0842
20935SOL     OW64245   0.391   4.504   8.212  0.3840 -0.8534  0.0279
20935SOL    HW164246   0.425   4.586   8.246 -2.6098  0.9264 -0.8549
20935SOL    HW264247   0.459   4.472   8.152  2.6687 -0.4141  2.2213
20936SOL     OW64248   7.878   3.635  11.636 -0.2317  0.2008  0.4112
20936SOL    HW164249   7.800   3.587  11.664  0.1728 -0.7624 -0.0738
20936SOL    HW264250   7.942   3.567  11.615 -0.0442  0.9021 -1.4701
20937SOL     OW64251   1.663   3.924   8.239  0.2457 -0.0754 -0.2237
20937SOL    HW164252   1.715   3.847   8.218 -1.6147 -1.4164 -0.2135
20937SOL    HW264253   1.676   3.938   8.332 -1.2332 -1.9121  0.3132
20938SOL     OW64254   7.609   6.848   5.513 -0.2564  0.0128  0.2569
20938SOL    HW164255   7.567   6.933   5.527  3.1411  1.6807  1.2665
20938SOL    HW264256   7.644   6.853   5.424  0.2622 -0.1984  0.4475
20939SOL     OW64257   0.940   3.388   2.617 -0.3606  0.9064  0.5067
20939SOL    HW164258   0.846   3.403   2.609 -0.6653  0.3729  2.4836
20939SOL    HW264259   0.981   3.466   2.580 -1.6182  1.7317  0.8060
20940SOL     OW64260   5.559   7.979   8.995 -0.3418 -0.4809  0.1348
20940SOL    HW164261   5.628   8.027   8.950 -1.6484  0.3169 -1.1108
20940SOL    HW264262   5.548   8.024   9.079 -0.2252  0.2074 -0.2121
20941SOL     OW64263   3.154   7.868   6.958  0.2037  0.3106  0.6173
20941SOL    HW164264   3.155   7.953   6.913  1.0241 -0.0598 -0.0883
20941SOL    HW264265   3.103   7.812   6.900 -0.7533  0.4299  1.3184
20942SOL     OW64266   0.155   3.603   3.923  0.2183  0.3143 -0.1484
20942SOL    HW164267   0.091   3.613   3.853  0.6078 -0.0860 -0.5645
20942SOL    HW264268   0.136   3.517   3.961  0.3062  0.3306 -0.0667
20943SOL     OW64269   6.911   6.213   6.936 -0.4901 -0.3640 -0.0044
20943SOL    HW164270   6.843   6.147   6.945  1.3967 -2.2835  1.1911
20943SOL    HW264271   6.963   6.185   6.861 -0.1550  0.2563 -0.0147
20944SOL     OW64272   1.173   6.299   5.354  0.2089 -0.5583  0.0736
20944SOL    HW164273   1.267   6.314   5.348  0.1612 -0.1212  0.3413
20944SOL    HW264274   1.139   6.378   5.396 -0.3243 -0.5399 -0.3769
20945SOL     OW64275   4.293   0.153   9.934 -0.0338 -0.5283 -0.5282
20945SOL    HW164276   4.288   0.057   9.934 -1.0826 -0.4942 -0.6005
20945SOL    HW264277   4.340   0.175  10.014  0.0526 -1.0997 -0.4156
20946SOL     OW64278   2.902   7.130   8.228 -0.7913  0.5846  0.1780
20946SOL    HW164279   2.816   7.154   8.192 -0.5049 -0.4197 -1.2841
20946SOL    HW264280   2.964   7.154   8.159 -0.2111 -1.3724 -0.0440
20947SOL     OW64281   6.143   4.121   9.135 -0.1153  0.2377  0.0491
20947SOL    HW164282   6.231   4.096   9.164 -0.7871 -1.4519  0.7431
20947SOL    HW264283   6.102   4.159   9.213 -0.4987 -0.3655  0.1442
20948SOL     OW64284   0.125   3.113   4.700  0.7265  0.1937 -0.6074
20948SOL    HW164285   0.125   3.205   4.673  0.2277 -0.2364 -2.1493
20948SOL    HW264286   0.193   3.108   4.767  0.1136  1.8725  0.2084
20949SOL     OW64287   1.313   1.535   5.344 -0.1068  0.3471 -0.5043
20949SOL    HW164288   1.405   1.562   5.343  0.3144 -0.9703 -0.1671
20949SOL    HW264289   1.266   1.609   5.307  0.9481  1.5284  0.4121
20950SOL     OW64290   3.375   1.853   6.128 -0.4965  0.4937 -0.1410
20950SOL    HW164291   3.313   1.923   6.111 -1.4100  0.3935  2.4352
20950SOL    HW264292   3.411   1.872   6.214  1.0004 -0.9501 -0.3847
20951SOL     OW64293   3.655   6.431   5.456 -0.2839 -0.2817 -0.2719
20951SOL    HW164294   3.743   6.448   5.420 -0.0190 -1.2184 -0.0955
20951SOL    HW264295   3.649   6.336   5.458 -0.2119 -0.2906  2.3564
20952SOL     OW64296   4.874   1.140   7.084 -0.0072 -0.4248  0.3403
20952SOL    HW164297   4.944   1.188   7.041 -2.3025  3.5607  0.6195
20952SOL    HW264298   4.877   1.169   7.176 -1.2107 -1.1527  0.6407
20953SOL     OW64299   4.050   0.039   5.115 -0.4009 -0.4242  0.1046
20953SOL    HW164300   4.050  -0.056   5.105 -0.1862 -0.5571  1.2951
20953SOL    HW264301   4.127   0.058   5.168 -0.4535  0.4228 -0.0996
20954SOL     OW64302   4.955   4.912   4.618 -0.2403  0.2830 -0.1337
20954SOL    HW164303   4.906   4.852   4.561  2.5519  0.3140 -2.7620
20954SOL    HW264304   4.989   4.979   4.560 -0.0970  2.3609  2.1811
20955SOL     OW64305   1.190   1.826   1.604  0.1558  0.0601 -0.6975
20955SOL    HW164306   1.216   1.874   1.526  2.5743 -0.0647 -0.0579
20955SOL    HW264307   1.256   1.756   1.612 -0.6348 -0.5570  0.8692
20956SOL     OW64308   5.950   5.930   1.899 -0.7402  0.0581 -0.1906
20956SOL    HW164309   6.033   5.886   1.915 -1.0633 -0.4383  0.1530
20956SOL    HW264310   5.887   5.883   1.954 -1.2021  0.5771 -0.2655
20957SOL     OW64311   0.855   3.586   1.896 -0.1111  0.0006  0.5428
20957SOL    HW164312   0.949   3.605   1.890 -0.6447  2.8551 -0.4610
20957SOL    HW264313   0.821   3.603   1.808 -1.8619  1.1847  1.3924
20958SOL     OW64314   7.789   5.480  11.128  0.3531 -0.2100 -0.3757
20958SOL    HW164315   7.863   5.477  11.067  0.1697  0.8611 -0.6786
20958SOL    HW264316   7.712   5.493  11.072  0.2145  1.0621  0.0819
20959SOL     OW64317   4.585   4.582   8.764 -0.3458  0.1190 -0.7669
20959SOL    HW164318   4.639   4.656   8.792  0.8026 -0.6775 -0.8019
20959SOL    HW264319   4.602   4.513   8.829 -1.3668 -0.1364 -0.7530
20960SOL     OW64320   4.784   2.033   4.199  0.4674 -0.5041  0.0226
20960SOL    HW164321   4.835   2.033   4.118 -0.1425 -1.6452 -0.3765
20960SOL    HW264322   4.712   1.972   4.183 -0.4358  0.2723  0.9562
20961SOL     OW64323   6.578   2.307  10.645  0.4582  0.1593 -0.2035
20961SOL    HW164324   6.670   2.291  10.667  0.5906 -0.1529 -0.9538
20961SOL    HW264325   6.570   2.279  10.554 -1.0949 -2.6064  0.6945
20962SOL     OW64326   3.559   0.137   4.697 -0.6220 -0.2678 -0.2580
20962SOL    HW164327   3.497   0.195   4.653 -1.0973 -0.4611  0.1418
20962SOL    HW264328   3.593   0.081   4.627 -2.2178 -1.3365 -0.2398
20963SOL     OW64329   3.973   0.988   8.181  0.2021 -0.1376 -0.4617
20963SOL    HW164330   4.004   1.068   8.140  0.0457  0.5033  0.6234
20963SOL    HW264331   3.919   1.018   8.254  1.1648 -1.2105  0.7411
20964SOL     OW64332   1.666   1.265   3.021 -0.2134 -0.4242  0.1916
20964SOL    HW164333   1.669   1.271   3.117  1.0719 -1.8310  0.2947
20964SOL    HW264334   1.723   1.336   2.991 -0.9745  0.3016  0.4373
20965SOL     OW64335   0.965   4.897   8.146  0.9156  0.1312  0.1585
20965SOL    HW164336   1.041   4.928   8.097  1.0422 -0.3577  0.0460
20965SOL    HW264337   0.992   4.813   8.183  0.5557  0.1303  0.4247
20966SOL     OW64338   2.097   1.392   1.979 -0.0149  0.0569  0.7416
20966SOL    HW164339   2.133   1.471   2.019 -0.5639  1.0506 -0.6574
20966SOL    HW264340   2.171   1.352   1.933 -0.2815  1.2011 -0.7414
20967SOL     OW64341   2.106   7.294   0.868  0.4502  0.3041 -0.0470
20967SOL    HW164342   2.191   7.337   0.862 -0.7585  2.7248 -1.4693
20967SOL    HW264343   2.074   7.291   0.778 -0.8286 -0.8797  0.4168
20968SOL     OW64344   2.523   0.831   4.229 -0.0279  0.5500  0.2654
20968SOL    HW164345   2.532   0.924   4.248  0.9982  0.2565  1.3420
20968SOL    HW264346   2.439   0.823   4.183  0.7728  2.2501 -1.6536
20969SOL     OW64347   6.624   0.432   3.620 -0.1157 -0.8158 -0.0043
20969SOL    HW164348   6.655   0.375   3.550 -1.5359 -1.9804  0.2547
20969SOL    HW264349   6.661   0.395   3.700  0.6949 -0.0791 -0.0259
20970SOL     OW64350   2.575   4.012  10.447 -0.3912 -0.2203  0.1071
20970SOL    HW164351   2.581   4.104  10.473 -0.0736 -0.1245 -0.2810
20970SOL    HW264352   2.518   3.971  10.512 -0.3025  0.1930  0.4448
20971SOL     OW64353   1.346   0.704   5.589 -0.3320 -0.5213  0.1216
20971SOL    HW164354   1.279   0.666   5.646 -0.1992 -0.3322  0.4115
20971SOL    HW264355   1.402   0.755   5.649 -0.5089  0.1285 -0.2506
20972SOL     OW64356   1.247   7.325   9.842 -0.1653  0.5326  0.9339
20972SOL    HW164357   1.183   7.281   9.786  1.7288 -0.6429 -0.4269
20972SOL    HW264358   1.194   7.376   9.903 -2.3594  1.6379 -1.6807
20973SOL     OW64359   6.422   7.103   7.317  0.1255 -0.3779  0.5094
20973SOL    HW164360   6.514   7.123   7.301 -0.1961  1.1656  0.3975
20973SOL    HW264361   6.421   7.061   7.404  0.8235  0.7050  1.0610
20974SOL     OW64362   6.259   0.732   5.046 -0.4120  0.2159  0.2063
20974SOL    HW164363   6.266   0.725   4.951 -1.3703  1.5229  0.0140
20974SOL    HW264364   6.176   0.689   5.067 -0.4981  0.4694  0.3798
20975SOL     OW64365   4.071   6.136   6.005 -0.3287 -0.2472  0.0928
20975SOL    HW164366   4.040   6.102   6.090  2.3263  0.9475  1.6674
20975SOL    HW264367   4.116   6.217   6.027  0.1412  0.2769 -2.5540
20976SOL     OW64368   0.496   6.844   2.849  0.5952 -0.0308  0.4809
20976SOL    HW164369   0.427   6.816   2.909  0.6418 -1.1587  0.0264
20976SOL    HW264370   0.565   6.779   2.859  0.0915 -0.9855 -1.6906
20977SOL     OW64371   2.158   3.668   1.355  0.4353 -0.0768 -0.1869
20977SOL    HW164372   2.118   3.584   1.331  0.5081 -0.2667  0.3447
20977SOL    HW264373   2.240   3.644   1.397  1.2021  0.3160 -1.3940
20978SOL     OW64374   5.549   0.510   4.410  0.1732 -0.2451  0.2767
20978SOL    HW164375   5.464   0.479   4.439 -0.0284  1.8275  2.2022
20978SOL    HW264376   5.610   0.484   4.479  0.5521  0.7256  0.3315
20979SOL     OW64377   1.211   0.797   2.644  0.1585 -0.3277  0.8150
20979SOL    HW164378   1.252   0.820   2.727 -0.9124 -0.9736  1.5461
20979SOL    HW264379   1.141   0.736   2.668  1.2221 -2.2997 -0.7562
20980SOL     OW64380   3.856   0.267   2.658  0.3033 -0.0436 -0.1465
20980SOL    HW164381   3.891   0.187   2.697  0.9494  0.4520  0.3041
20980SOL    HW264382   3.797   0.302   2.725 -1.0394 -0.8420 -0.8762
20981SOL     OW64383   1.255   1.309   1.864 -0.1163  0.9701 -0.2643
20981SOL    HW164384   1.196   1.321   1.790 -1.2358  0.9121  0.5962
20981SOL    HW264385   1.255   1.214   1.879 -2.1677  1.2008  1.5759
20982SOL     OW64386   3.784   7.015   3.156 -0.2761 -0.2793 -0.8919
20982SOL    HW164387   3.715   7.061   3.204  0.3825  1.8270 -1.8808
20982SOL    HW264388   3.739   6.942   3.113 -1.3703 -0.5414  0.6042
20983SOL     OW64389   2.920   2.548   3.991 -0.1715 -0.2182 -0.5810
20983SOL    HW164390   2.910   2.463   4.034 -0.0361  0.3812  0.6645
20983SOL    HW264391   2.993   2.536   3.930 -2.0746 -1.8647 -2.7366
20984SOL     OW64392   7.301   1.248  11.180 -0.1911 -0.3339 -0.2337
20984SOL    HW164393   7.384   1.199  11.183  0.1180  0.1810 -0.3462
20984SOL    HW264394   7.290   1.270  11.088 -0.9826 -1.2931 -0.3804
20985SOL     OW64395   2.132   1.352   6.963  0.2422 -1.0046 -0.0089
20985SOL    HW164396   2.119   1.265   7.000 -1.9459 -1.1933 -1.0736
20985SOL    HW264397   2.105   1.344   6.872  1.1393  0.5234 -0.4470
20986SOL     OW64398   3.237   3.328   3.678  0.4925 -0.0592 -0.6210
20986SOL    HW164399   3.269   3.258   3.735 -1.9575 -1.1120 -0.4005
20986SOL    HW264400   3.283   3.315   3.595  1.3837 -0.8129 -0.0265
20987SOL     OW64401   7.794   7.802  10.618  0.1240 -0.2907  0.2066
20987SOL    HW164402   7.789   7.827  10.525 -1.6491  0.9457  0.5927
20987SOL    HW264403   7.725   7.736  10.629  0.4224 -0.5384  0.6147
20988SOL     OW64404   1.243   0.290   6.217  0.2949 -0.4579  0.3825
20988SOL    HW164405   1.288   0.315   6.297 -0.1392 -1.7963  1.0677
20988SOL    HW264406   1.282   0.206   6.192 -2.0385 -1.8987  1.2464
20989SOL     OW64407   0.925   6.606   0.855  0.6871  0.4746  0.4560
20989SOL    HW164408   0.887   6.692   0.841  0.2113  0.0189 -1.2400
20989SOL    HW264409   0.882   6.574   0.935  0.3761  1.5192  0.7192
20990SOL     OW64410   3.378   7.790   6.600 -0.2937 -0.3591  0.0151
20990SOL    HW164411   3.451   7.777   6.661  0.2136  0.1580 -0.4693
20990SOL    HW264412   3.316   7.721   6.622  0.2857 -0.7280  0.5266
20991SOL     OW64413   4.148   6.637   2.100 -0.4094  0.7074  0.4639
20991SOL    HW164414   4.166   6.696   2.026  1.8140  1.5485  1.5724
20991SOL    HW264415   4.232   6.594   2.117 -0.9332  0.3379  2.3208
20992SOL     OW64416   7.137   3.944  11.568  0.4283 -0.3137  0.1647
20992SOL    HW164417   7.158   3.884  11.639 -0.8740  0.4941  1.2897
20992SOL    HW264418   7.081   4.011  11.609  0.1850  0.5450 -1.4774
20993SOL     OW64419   0.375   6.784  11.790  0.0857  0.3319  0.4409
20993SOL    HW164420   0.444   6.784  11.857 -0.0791  1.9914  0.6422
20993SOL    HW264421   0.415   6.743  11.714  1.0108  0.4731  0.8393
20994SOL     OW64422   5.910   1.021   2.907  0.3710  0.3756 -0.5983
20994SOL    HW164423   5.991   1.019   2.857  1.3116 -0.4337  0.8795
20994SOL    HW264424   5.857   0.949   2.872  1.5451 -1.0042  0.3468
20995SOL     OW64425   0.765   0.138  10.610 -0.0416  0.3077 -0.3513
20995SOL    HW164426   0.772   0.059  10.663  0.2398 -0.8970 -2.1062
20995SOL    HW264427   0.804   0.207  10.664  3.1722 -1.4500 -0.1929
20996SOL     OW64428   3.975   7.820   4.302  1.0518 -0.2512 -0.2923
20996SOL    HW164429   3.929   7.826   4.386  1.6989 -0.0546  0.0571
20996SOL    HW264430   4.008   7.909   4.286 -1.6548  0.5420 -2.2906
20997SOL     OW64431   5.828   4.093   7.464 -0.4898 -0.1457 -0.0746
20997SOL    HW164432   5.894   4.032   7.430  0.2351  0.7710 -0.3377
20997SOL    HW264433   5.792   4.135   7.386 -0.8818 -0.1206  0.1175
20998SOL     OW64434   6.521   0.095   9.391  0.5902 -0.3976  0.1047
20998SOL    HW164435   6.451   0.066   9.450 -0.7505 -0.7453 -1.5671
20998SOL    HW264436   6.556   0.174   9.431 -0.8084 -0.1957  0.9759
20999SOL     OW64437   6.154   6.994   3.060  0.1049 -0.3608 -0.0145
20999SOL    HW164438   6.195   6.936   2.997  2.3604  0.6068  0.4449
20999SOL    HW264439   6.104   7.057   3.007  2.4407  0.8053 -0.9614
21000SOL     OW64440   0.249   3.052   2.753 -0.4223 -0.1253 -0.5150
21000SOL    HW164441   0.248   3.140   2.790  0.0195 -0.3675  0.1014
21000SOL    HW264442   0.306   3.002   2.812 -1.5306 -1.0926 -0.2059
21001SOL     OW64443   1.893   4.137   3.069 -0.6061  0.4203  0.2223
21001SOL    HW164444   1.920   4.119   2.979  0.5087 -1.5052  0.8938
21001SOL    HW264445   1.855   4.054   3.099  0.2578  0.6162  1.9372
21002SOL     OW64446   0.041   1.633  11.783 -0.1109  0.0879  0.2705
21002SOL    HW164447  -0.004   1.689  11.720 -0.5098 -0.9655 -0.4172
21002SOL    HW264448   0.126   1.674  11.796  0.6316 -0.5253 -2.2335
21003SOL     OW64449   4.332   2.573   6.765 -0.0537  0.2896 -0.3487
21003SOL    HW164450   4.293   2.640   6.822  1.8199  0.1913  1.1351
21003SOL    HW264451   4.396   2.529   6.820 -0.1476 -1.7336 -1.7550
21004SOL     OW64452   7.050   5.447   0.939  0.1631  0.6698  0.2427
21004SOL    HW164453   6.965   5.453   0.983  0.9990  3.1232  1.6966
21004SOL    HW264454   7.040   5.500   0.860 -0.2401 -0.7777 -0.7164
21005SOL     OW64455   4.288   7.970   9.152 -0.0052 -0.0823 -0.4140
21005SOL    HW164456   4.216   7.908   9.164 -1.6885  1.9722  1.1652
21005SOL    HW264457   4.349   7.952   9.223 -0.1177 -0.3972 -0.3995
21006SOL     OW64458   7.365   4.209  11.148  0.4442  0.0262  0.2529
21006SOL    HW164459   7.326   4.267  11.213 -0.3938 -1.7052  1.3579
21006SOL    HW264460   7.400   4.135  11.198 -0.3946 -1.4528 -1.2347
21007SOL     OW64461   6.867   6.787   5.938 -0.4009 -0.0718  0.1323
21007SOL    HW164462   6.907   6.743   6.013 -0.7190 -0.2866  0.1772
21007SOL    HW264463   6.809   6.853   5.978 -3.3540 -2.5074  0.2228
21008SOL     OW64464   6.792   7.930   9.083  0.2667  0.5375  0.0179
21008SOL    HW164465   6.766   8.015   9.049 -1.7711  1.0134  2.5024
21008SOL    HW264466   6.845   7.949   9.160  0.0268 -0.4340  0.4471
21009SOL     OW64467   1.046   1.309   3.844 -0.3926 -0.3854  0.1312
21009SOL    HW164468   1.015   1.369   3.776 -0.2504  0.4766  0.8111
21009SOL    HW264469   1.072   1.230   3.796  0.0887  0.3571 -0.8590
21010SOL     OW64470   6.726   6.833   0.661  0.4187 -0.2006 -0.1748
21010SOL    HW164471   6.695   6.745   0.685 -0.0494  0.1211  0.4147
21010SOL    HW264472   6.773   6.820   0.578  1.8670 -1.3111  0.7668
21011SOL     OW64473   6.136   2.675   3.141  0.2645 -0.0123 -0.0993
21011SOL    HW164474   6.045   2.649   3.128  0.1069  0.6725 -0.4019
21011SOL    HW264475   6.131   2.763   3.176  0.7922 -0.4488  1.1189
21012SOL     OW64476   6.787   5.699  11.397  0.7354 -0.0537  0.6953
21012SOL    HW164477   6.767   5.771  11.457  1.8519  0.5212  0.4052
21012SOL    HW264478   6.868   5.661  11.432  0.1931 -1.1555  0.8150
21013SOL     OW64479   7.453   3.010   7.151  0.1185 -0.1043 -0.0147
21013SOL    HW164480   7.472   3.103   7.148  2.2379 -0.4971 -0.2353
21013SOL    HW264481   7.359   3.004   7.129 -0.7329  2.1078  2.5261
21014SOL     OW64482   6.920   4.866   8.257 -0.1026 -0.2289 -0.3565
21014SOL    HW164483   6.962   4.877   8.172 -0.0074 -1.9557 -0.5823
21014SOL    HW264484   6.928   4.951   8.300  2.7940 -0.2006 -0.7624
21015SOL     OW64485   4.878   1.966   4.449  0.2489 -0.0618 -0.2199
21015SOL    HW164486   4.893   2.050   4.492 -1.3961 -0.0289  0.3481
21015SOL    HW264487   4.853   1.989   4.360  0.1363  0.0277 -0.1644
21016SOL     OW64488   2.861   1.283   6.656 -0.0535  0.8978 -0.8851
21016SOL    HW164489   2.885   1.276   6.748 -0.8876  0.6949 -0.6753
21016SOL    HW264490   2.828   1.372   6.647 -0.9477  0.5829 -0.7473
21017SOL     OW64491   3.749   0.218   3.830 -0.0705 -0.8257 -0.9314
21017SOL    HW164492   3.697   0.278   3.776  0.1582 -1.7937 -2.2699
21017SOL    HW264493   3.785   0.273   3.900  0.5628  0.7088 -2.4196
21018SOL     OW64494   1.804   3.177   3.643  0.6818 -0.3166  0.3004
21018SOL    HW164495   1.853   3.095   3.644 -1.0795 -1.4205  1.2469
21018SOL    HW264496   1.754   3.175   3.562  0.6864 -0.1365  0.2917
21019SOL     OW64497   2.563   5.395   9.074  0.1304 -0.0628 -0.4769
21019SOL    HW164498   2.473   5.422   9.094 -0.1940 -3.2387  3.9281
21019SOL    HW264499   2.554   5.337   8.998 -1.8836 -1.4088  0.7039
21020SOL     OW64500   2.444   0.410   1.538  1.0895  1.4107  0.0760
21020SOL    HW164501   2.427   0.470   1.466  1.0319 -0.1582 -1.2949
21020SOL    HW264502   2.517   0.356   1.507 -0.6805 -1.0956 -0.0298
21021SOL     OW64503   0.699   0.936  12.406  0.0304  0.7212  0.1416
21021SOL    HW164504   0.779   0.988  12.410  0.2479  0.3299  1.4756
21021SOL    HW264505   0.637   0.985  12.460 -0.0404  0.0922  0.6524
21022SOL     OW64506   7.721   3.954   1.465  0.1698  0.2301 -0.4028
21022SOL    HW164507   7.787   3.902   1.420  0.7286  0.7691 -0.2220
21022SOL    HW264508   7.765   4.037   1.483 -0.7672  0.8394 -0.8748
21023SOL     OW64509   3.075   5.619   0.172 -0.0604  0.0355  0.2333
21023SOL    HW164510   3.096   5.528   0.194 -1.2706 -0.0449  1.1550
21023SOL    HW264511   3.160   5.662   0.164  0.5162 -1.0433  0.3907
21024SOL     OW64512   2.029   2.534   0.731 -0.2979 -0.3957  0.6830
21024SOL    HW164513   1.935   2.519   0.727 -0.4132  0.3983  0.0100
21024SOL    HW264514   2.066   2.472   0.668 -0.3668 -0.7460  0.9885
21025SOL     OW64515   4.016   4.468   8.441 -0.0129 -0.1382  0.7366
21025SOL    HW164516   3.991   4.398   8.380  0.0838  0.9059 -0.5437
21025SOL    HW264517   4.092   4.433   8.487  1.4983 -0.0408 -1.5350
21026SOL     OW64518   6.734   4.370   3.510  0.0171 -0.1811 -0.0702
21026SOL    HW164519   6.673   4.444   3.509 -0.1827 -0.3284  0.5678
21026SOL    HW264520   6.819   4.409   3.534 -0.2587 -0.2609  1.1244
21027SOL     OW64521   1.339   0.215  11.065 -0.7540  0.0123 -0.2106
21027SOL    HW164522   1.246   0.238  11.066 -0.2903  2.1148  0.0372
21027SOL    HW264523   1.361   0.209  10.973 -0.5506  2.4208 -0.3794
21028SOL     OW64524   6.498   0.192   2.935 -0.0183  0.6708  0.2485
21028SOL    HW164525   6.560   0.174   3.006 -0.5578 -0.0707  0.5395
21028SOL    HW264526   6.412   0.183   2.975 -0.3544 -0.9474 -0.7395
21029SOL     OW64527   7.444   6.350   8.802 -0.1245 -0.0869  0.0483
21029SOL    HW164528   7.367   6.335   8.747  0.5397 -0.0039 -0.9311
21029SOL    HW264529   7.476   6.435   8.774  0.1888 -0.0137  0.6267
21030SOL     OW64530   7.537   3.206   2.998  0.1906 -0.1651 -0.5393
21030SOL    HW164531   7.567   3.116   2.980  0.3809 -0.0672 -0.7118
21030SOL    HW264532   7.542   3.251   2.914 -1.2385 -0.3610 -0.7575
21031SOL     OW64533   6.589   7.588   7.049  0.0218 -0.1242 -0.5625
21031SOL    HW164534   6.605   7.625   7.136  0.4649 -0.2759 -0.5752
21031SOL    HW264535   6.668   7.609   6.999 -0.3689  0.2456 -1.0270
21032SOL     OW64536   3.759   6.122   7.086  0.5503 -0.3601 -0.1990
21032SOL    HW164537   3.796   6.128   6.998  1.0218  1.9586  0.0961
21032SOL    HW264538   3.834   6.138   7.144 -0.0888 -0.0189  0.5418
21033SOL     OW64539   2.851   2.631   8.252 -0.3146  0.4892 -0.3094
21033SOL    HW164540   2.802   2.696   8.302  1.8191  1.7982  0.2564
21033SOL    HW264541   2.937   2.673   8.237  0.2356 -1.1577 -2.2582
21034SOL     OW64542   1.453   0.592   3.125 -0.3855  0.7663  0.2127
21034SOL    HW164543   1.443   0.592   3.029  0.0030 -0.1567  0.1564
21034SOL    HW264544   1.515   0.663   3.142  2.7384 -1.5052 -0.6519
21035SOL     OW64545   5.551   0.317   6.659 -0.1967 -0.0981 -0.2684
21035SOL    HW164546   5.622   0.362   6.706  0.1434 -1.8661  1.0284
21035SOL    HW264547   5.471   0.351   6.700 -0.1842  1.8690 -1.7036
21036SOL     OW64548   0.186   1.978   4.452  0.1165  0.1194 -0.1671
21036SOL    HW164549   0.093   1.967   4.435  0.1284  1.1839 -1.0232
21036SOL    HW264550   0.229   1.928   4.383  0.1921 -0.7007  0.4627
21037SOL     OW64551   7.492   4.230   6.351 -0.0811  0.3466 -0.2101
21037SOL    HW164552   7.537   4.274   6.279 -0.5768  0.4993 -0.4295
21037SOL    HW264553   7.413   4.193   6.312  0.0729 -0.3122  0.0777
21038SOL     OW64554   0.275   2.473   0.629  0.2327 -0.2639  0.3512
21038SOL    HW164555   0.370   2.463   0.627  0.0427 -3.8629  1.5387
21038SOL    HW264556   0.250   2.491   0.538  2.0182  0.7201  0.0275
21039SOL     OW64557   0.997   4.314   6.671 -0.2870 -0.1489 -0.2502
21039SOL    HW164558   0.906   4.293   6.649 -1.3511  1.9095  1.8468
21039SOL    HW264559   1.039   4.228   6.678 -1.6912 -1.1348 -2.4458
21040SOL     OW64560   6.251   0.658   1.750  0.1759  0.0108 -0.4420
21040SOL    HW164561   6.288   0.593   1.810 -0.5988 -1.1595 -1.1967
21040SOL    HW264562   6.201   0.716   1.807  0.7065 -0.1552  0.2203
21041SOL     OW64563   2.764   2.375   9.791  0.6194  0.0443 -0.3282
21041SOL    HW164564   2.761   2.324   9.872 -0.1957  0.8912  0.1929
21041SOL    HW264565   2.854   2.407   9.786  0.7941 -0.3802  0.0063
21042SOL     OW64566   2.226   4.879   3.915  0.1111  0.0721 -0.2984
21042SOL    HW164567   2.243   4.795   3.958 -0.4346  0.2915  0.3553
21042SOL    HW264568   2.308   4.928   3.924  0.8537 -0.8163 -1.7342
21043SOL     OW64569   2.344   4.174   3.517 -0.3869  0.5425 -0.0253
21043SOL    HW164570   2.415   4.220   3.561  0.3120 -0.0303 -0.5406
21043SOL    HW264571   2.310   4.237   3.452  0.8784  0.1898 -1.0617
21044SOL     OW64572   1.325   3.121   6.305  0.1068 -0.5334 -0.6007
21044SOL    HW164573   1.332   3.182   6.232  1.2053  0.0868 -0.0110
21044SOL    HW264574   1.414   3.118   6.342 -0.7691  0.5574  1.7754
21045SOL     OW64575   5.505   0.755   8.665 -0.0534 -0.4803 -0.5569
21045SOL    HW164576   5.409   0.756   8.670  0.0084 -0.8957  1.3473
21045SOL    HW264577   5.531   0.845   8.687  0.0406 -0.8753  1.0221
21046SOL     OW64578   3.291   2.254   2.069  0.3722  0.2978  0.0833
21046SOL    HW164579   3.279   2.295   1.983  0.8368 -0.8958 -0.5762
21046SOL    HW264580   3.267   2.322   2.132 -0.6130  0.9898 -1.0024
21047SOL     OW64581   0.532   7.177   3.095  0.4245  0.1915 -0.1474
21047SOL    HW164582   0.523   7.248   3.159 -1.0033  0.1821 -0.3047
21047SOL    HW264583   0.622   7.186   3.062  0.6639  1.1735  0.7040
21048SOL     OW64584   1.894   4.369   6.342  0.3319 -0.1352 -0.3142
21048SOL    HW164585   1.894   4.431   6.414  0.0351  0.0765 -0.4928
21048SOL    HW264586   1.954   4.408   6.277 -0.8183  0.6190 -0.9682
21049SOL     OW64587   5.178   0.241   0.618  0.1653  0.5581  0.6488
21049SOL    HW164588   5.136   0.200   0.543 -1.6898  0.8514  1.4789
21049SOL    HW264589   5.250   0.292   0.581 -1.7007  2.0347 -1.1282
21050SOL     OW64590   4.532   0.842  11.804  0.0999  0.0528  0.2215
21050SOL    HW164591   4.562   0.907  11.741  0.0273 -0.3973 -0.2953
21050SOL    HW264592   4.467   0.790  11.755  1.1786 -1.2921  0.1486
21051SOL     OW64593   2.502   3.791   8.338 -0.5731  0.1090 -0.0974
21051SOL    HW164594   2.526   3.832   8.421 -0.8739 -0.6362  0.3789
21051SOL    HW264595   2.567   3.721   8.327 -1.7018 -1.0997  0.5598
21052SOL     OW64596   1.406   7.758   5.834 -0.0336  0.3613 -0.2177
21052SOL    HW164597   1.444   7.671   5.818 -0.4117  0.0247  0.6756
21052SOL    HW264598   1.478   7.819   5.818  0.5751 -0.1987  0.3322
21053SOL     OW64599   4.291   0.054   3.485  0.1571 -0.1869 -0.0920
21053SOL    HW164600   4.236   0.130   3.464  0.7669  0.4527  0.5409
21053SOL    HW264601   4.340   0.082   3.563  1.2701 -0.7957 -0.5606
21054SOL     OW64602   6.615   1.229   5.014 -0.5316  0.1396 -0.1218
21054SOL    HW164603   6.525   1.249   4.989 -0.6625  0.9880  0.9416
21054SOL    HW264604   6.651   1.313   5.044  0.3984 -0.3165  0.0706
21055SOL     OW64605   7.642   7.062   0.115 -0.2777 -0.2781 -0.2023
21055SOL    HW164606   7.649   7.042   0.209 -0.6628 -0.7899 -0.2799
21055SOL    HW264607   7.703   7.001   0.073  0.1480  0.1790 -0.2630
21056SOL     OW64608   0.011   7.426   2.554 -0.2946  0.0344  0.0481
21056SOL    HW164609   0.034   7.517   2.536 -1.0415  0.2549  0.2008
21056SOL    HW264610  -0.083   7.427   2.568 -0.5027 -0.9541 -1.1439
21057SOL     OW64611   7.240   1.639  10.942 -0.4386 -0.2777  0.2671
21057SOL    HW164612   7.171   1.627  11.007 -1.8771  2.2787 -0.6236
21057SOL    HW264613   7.199   1.620  10.858 -0.0859  1.1944 -0.2753
21058SOL     OW64614   4.357   6.252   6.717 -0.7497 -0.6122 -0.0210
21058SOL    HW164615   4.370   6.203   6.798  0.6449  0.5847  0.5157
21058SOL    HW264616   4.263   6.272   6.717 -0.4780  1.1638  2.4157
21059SOL     OW64617   0.948   4.209  11.236  0.0495 -0.2234 -0.0280
21059SOL    HW164618   0.960   4.304  11.244 -3.4128  0.4171 -0.6365
21059SOL    HW264619   0.951   4.192  11.142  0.9315 -0.7718  0.0970
21060SOL     OW64620   6.861   3.175  10.242 -0.0953  0.3218 -0.5780
21060SOL    HW164621   6.777   3.135  10.219 -0.2013 -0.2648  0.7726
21060SOL    HW264622   6.839   3.263  10.272 -0.3887 -0.2876  1.0471
21061SOL     OW64623   2.224   0.020  10.235 -0.0260  0.7463 -0.5460
21061SOL    HW164624   2.302   0.032  10.181  0.3993 -0.2410 -0.1877
21061SOL    HW264625   2.151   0.048  10.180  0.5676  1.5551 -0.9364
21062SOL     OW64626   0.037   1.884   0.070 -0.7531 -0.1688 -0.3663
21062SOL    HW164627   0.094   1.858   0.143 -3.1852 -1.0520  1.3677
21062SOL    HW264628   0.072   1.838  -0.006  0.5506 -1.0569  0.7200
21063SOL     OW64629   5.498   6.802   7.336 -0.1500  0.3323  0.0964
21063SOL    HW164630   5.586   6.768   7.348 -0.1327 -0.2303 -1.4500
21063SOL    HW264631   5.510   6.897   7.332  0.2166  0.3404  1.0872
21064SOL     OW64632   1.842   3.437   3.775  0.0309 -0.4849  0.0040
21064SOL    HW164633   1.934   3.436   3.800  0.2404 -3.5397 -0.4769
21064SOL    HW264634   1.826   3.349   3.740 -3.3125 -0.4135  1.0180
21065SOL     OW64635   7.804   4.071   2.649 -0.7652  0.1696  0.6558
21065SOL    HW164636   7.848   4.076   2.733  0.3850  0.2682  0.0762
21065SOL    HW264637   7.737   4.003   2.660 -0.6616  0.2275  1.6545
21066SOL     OW64638   6.631   4.290  11.600 -0.2052  1.0837 -0.2113
21066SOL    HW164639   6.693   4.246  11.543 -0.3874 -0.3985  0.6763
21066SOL    HW264640   6.650   4.256  11.688 -0.0937  3.1047  0.5956
21067SOL     OW64641   4.971   3.146   2.892 -0.2153 -0.2486 -0.2013
21067SOL    HW164642   4.995   3.101   2.974 -0.1739 -0.2116 -0.1925
21067SOL    HW264643   5.029   3.222   2.890 -0.1466 -0.3041 -0.3158
21068SOL     OW64644   3.681   3.618   2.116  0.4279  0.4269  0.3365
21068SOL    HW164645   3.707   3.692   2.171  2.5160 -0.7779  1.0869
21068SOL    HW264646   3.589   3.634   2.096 -0.0200  1.6768  2.9736
21069SOL     OW64647   5.008   4.262   7.947  0.4510  0.5714  0.3518
21069SOL    HW164648   5.003   4.180   7.898  1.8431  0.3245  0.6002
21069SOL    HW264649   4.917   4.280   7.971 -0.2419  0.4796 -1.9078
21070SOL     OW64650   2.737   2.885   2.397 -0.1777 -0.1426  0.2898
21070SOL    HW164651   2.773   2.798   2.380 -2.8049 -1.4345  0.8701
21070SOL    HW264652   2.766   2.938   2.323  1.4639 -1.4811 -0.0892
21071SOL     OW64653   4.654   3.807  11.482 -0.3280  0.0343  0.3109
21071SOL    HW164654   4.635   3.718  11.454  1.5098 -0.5078  0.6228
21071SOL    HW264655   4.619   3.862  11.412 -1.5908 -0.9028  0.1763
21072SOL     OW64656   4.904   0.973  11.519 -0.0749 -0.0986  0.0054
21072SOL    HW164657   4.984   1.012  11.556 -0.5493 -0.5467  1.5652
21072SOL    HW264658   4.935   0.927  11.440  1.0520  0.5032  0.0705
21073SOL     OW64659   1.613   2.696   2.786  0.1135 -0.5924 -0.7115
21073SOL    HW164660   1.686   2.635   2.773  2.8283  2.4658 -0.9913
21073SOL    HW264661   1.593   2.727   2.697 -0.2987 -0.0956 -0.4478
21074SOL     OW64662   4.364   4.580   2.203  0.0660  0.2777 -0.3585
21074SOL    HW164663   4.304   4.618   2.139 -0.0504 -0.0281 -0.4337
21074SOL    HW264664   4.349   4.631   2.283 -0.6706 -0.1273 -0.2280
21075SOL     OW64665   4.458   4.982   9.625 -0.3789  0.0081 -0.5127
21075SOL    HW164666   4.396   4.912   9.643  1.1775 -1.2587  0.1962
21075SOL    HW264667   4.501   4.955   9.544 -0.8613  0.9742 -1.1072
21076SOL     OW64668   7.573   7.444   3.218 -0.6108 -0.1788  0.4669
21076SOL    HW164669   7.542   7.410   3.134 -2.6437  0.8609  0.7404
21076SOL    HW264670   7.607   7.531   3.197 -0.5339 -0.1684  0.6362
21077SOL     OW64671   1.398   7.494   2.494 -0.0096 -0.1861 -0.0371
21077SOL    HW164672   1.358   7.573   2.457 -0.1034  1.0368  2.4986
21077SOL    HW264673   1.413   7.515   2.586  0.0193 -3.1292  0.7296
21078SOL     OW64674   0.805   3.146  12.417 -0.8053  0.3835  0.2926
21078SOL    HW164675   0.845   3.147  12.504  1.3339  0.5797 -0.6240
21078SOL    HW264676   0.735   3.211  12.421 -1.6081 -0.5101  2.2018
21079SOL     OW64677   2.348   4.535   3.166  0.0871  0.1859 -0.4392
21079SOL    HW164678   2.429   4.492   3.140  0.1064 -0.0205 -0.0492
21079SOL    HW264679   2.360   4.627   3.143  0.9251  0.3903  0.7383
21080SOL     OW64680   6.467   3.808   4.590 -0.1445  0.0969 -0.2051
21080SOL    HW164681   6.446   3.887   4.641  1.5181  0.9781 -0.8351
21080SOL    HW264682   6.441   3.736   4.648 -0.1206  1.0825  1.0992
21081SOL     OW64683   3.526   0.370   8.447 -0.5055  0.4821  0.2941
21081SOL    HW164684   3.524   0.416   8.363 -2.0509 -2.1364 -1.2515
21081SOL    HW264685   3.596   0.305   8.437 -2.4206 -1.6289 -0.1110
21082SOL     OW64686   5.252   3.836   6.826 -0.1772 -0.3854 -0.3606
21082SOL    HW164687   5.330   3.831   6.882 -1.1333 -3.1831  0.9424
21082SOL    HW264688   5.187   3.882   6.880  0.1750  0.9209 -1.0023
21083SOL     OW64689   7.214   7.788   6.856  0.0233  0.5495 -0.1828
21083SOL    HW164690   7.291   7.842   6.837 -0.1427  1.1072  0.6686
21083SOL    HW264691   7.169   7.779   6.772 -0.2202  2.1798 -0.2490
21084SOL     OW64692   2.569   2.254   2.643  0.2670  0.3904 -0.3194
21084SOL    HW164693   2.556   2.162   2.621 -0.5304  0.1014  1.2012
21084SOL    HW264694   2.602   2.252   2.733 -0.6278  1.6209  0.0623
21085SOL     OW64695   1.073   1.187   0.662  0.2835  0.0275 -0.1392
21085SOL    HW164696   1.092   1.262   0.719  0.0899  0.4809 -0.6614
21085SOL    HW264697   1.097   1.217   0.575  0.3554 -0.5801 -0.3294
21086SOL     OW64698   6.162   3.154  11.546  0.2468  0.6194  0.2267
21086SOL    HW164699   6.106   3.104  11.605  0.4038 -1.2393 -1.0896
21086SOL    HW264700   6.244   3.105  11.544  0.2188  0.5728 -1.5347
21087SOL     OW64701   6.420   5.355   3.971 -0.1544  0.3118  0.0867
21087SOL    HW164702   6.426   5.441   3.928 -0.0280  1.4374  2.2039
21087SOL    HW264703   6.511   5.328   3.983 -0.1751  0.2464  0.0961
21088SOL     OW64704   6.595   0.553  11.518  0.0210 -0.2741 -0.0264
21088SOL    HW164705   6.661   0.615  11.548  0.2449  0.1118 -1.2540
21088SOL    HW264706   6.644   0.474  11.494 -0.0846 -0.3734  0.0804
21089SOL     OW64707   2.069   4.871   8.784  0.4984 -0.4261 -0.0578
21089SOL    HW164708   2.023   4.788   8.792 -0.2020 -0.0094  0.4592
21089SOL    HW264709   2.158   4.848   8.758  0.9963 -1.5154  2.3091
21090SOL     OW64710   6.303   5.678   1.128  0.1622 -0.3327  0.0431
21090SOL    HW164711   6.257   5.595   1.113  0.7137 -0.7711  0.7015
21090SOL    HW264712   6.287   5.697   1.220 -0.4413  0.6035 -0.2418
21091SOL     OW64713   5.142   1.058  11.650 -0.0154  0.2156 -1.0219
21091SOL    HW164714   5.061   1.093  11.685 -0.1735 -0.0396 -1.1263
21091SOL    HW264715   5.210   1.087  11.711 -0.5210 -1.8059  0.5961
21092SOL     OW64716   7.105   5.315   5.727  0.2116  0.0008  0.4057
21092SOL    HW164717   7.131   5.388   5.783  2.4840  0.2102 -0.8002
21092SOL    HW264718   7.072   5.356   5.647 -0.1892 -0.3009  0.4133
21093SOL     OW64719   4.938   2.283   1.194 -0.1905 -0.0004 -0.2187
21093SOL    HW164720   5.009   2.219   1.196  0.0123  0.1839 -0.9414
21093SOL    HW264721   4.977   2.363   1.229 -0.4528 -0.2678  0.7137
21094SOL     OW64722   0.338   2.824   7.430  0.2957  0.4849 -0.2539
21094SOL    HW164723   0.308   2.901   7.479  0.7374  0.2983  0.3298
21094SOL    HW264724   0.285   2.823   7.351 -0.4314  0.7965  0.2248
21095SOL     OW64725   5.352   7.775   9.249 -0.4469  0.3369  0.3910
21095SOL    HW164726   5.267   7.803   9.216 -0.4509 -0.8290 -0.6440
21095SOL    HW264727   5.413   7.842   9.218 -0.8918  0.8402  0.5974
21096SOL     OW64728   2.677   2.377   9.536  0.2319  1.0426  0.1161
21096SOL    HW164729   2.695   2.370   9.630  0.8156  0.6365 -0.0140
21096SOL    HW264730   2.589   2.341   9.525  0.0527  1.3496  0.5432
21097SOL     OW64731   4.055   1.013   7.313  0.0124 -0.0973 -0.3794
21097SOL    HW164732   3.975   0.975   7.276 -1.7602 -0.9045  3.6504
21097SOL    HW264733   4.031   1.104   7.331  0.3212 -0.0710 -0.0939
21098SOL     OW64734   1.440   0.783   7.241  0.1626  0.0060  0.2854
21098SOL    HW164735   1.498   0.852   7.273  0.3571 -0.6381  1.3606
21098SOL    HW264736   1.485   0.747   7.164 -0.1926  1.4048 -0.6095
21099SOL     OW64737   6.225   4.297   8.814  0.1958  0.5713 -0.0209
21099SOL    HW164738   6.139   4.308   8.856 -0.0440  0.1302 -0.3852
21099SOL    HW264739   6.247   4.205   8.828 -0.4824  0.0665 -1.9426
21100SOL     OW64740   6.854   2.878  10.286  0.2906 -0.4538  0.3060
21100SOL    HW164741   6.784   2.939  10.307 -0.5014 -1.5978  1.1210
21100SOL    HW264742   6.855   2.873  10.190  0.3925  0.8348  0.2295
21101SOL     OW64743   3.266   5.731  11.825  0.4722 -0.5057 -0.4161
21101SOL    HW164744   3.304   5.740  11.913  1.2086 -0.9403 -0.6799
21101SOL    HW264745   3.342   5.731  11.767  0.0768 -1.6719 -0.9449
21102SOL     OW64746   4.888   0.480   8.935 -0.3495  0.4796  0.0047
21102SOL    HW164747   4.907   0.571   8.913 -0.7873  0.5330 -0.1555
21102SOL    HW264748   4.844   0.444   8.858 -0.2541  0.1542  0.0978
21103SOL     OW64749   7.133   2.823   2.490 -0.0495  0.0116  0.7643
21103SOL    HW164750   7.081   2.763   2.543 -2.2058 -1.8963 -3.1395
21103SOL    HW264751   7.082   2.904   2.487 -0.4606 -0.2525  0.6859
21104SOL     OW64752   4.004   6.275   9.235  0.2236 -0.1622 -0.5704
21104SOL    HW164753   4.054   6.212   9.183 -1.2674  0.5894 -3.0997
21104SOL    HW264754   4.055   6.356   9.230  0.6567 -0.3751  0.1808
21105SOL     OW64755   0.416   1.887   7.693 -0.1292 -0.0254 -0.4892
21105SOL    HW164756   0.379   1.812   7.647  0.2667  0.6100 -1.9016
21105SOL    HW264757   0.364   1.962   7.663  0.9828  0.5898 -0.9687
21106SOL     OW64758   6.858   4.737   7.634  0.3159 -0.1950 -0.0394
21106SOL    HW164759   6.857   4.816   7.688  2.5134 -0.2675  0.1932
21106SOL    HW264760   6.873   4.666   7.697  1.9235 -0.3869 -0.6037
21107SOL     OW64761   0.824   5.770   5.234  0.0146  0.7486 -0.4506
21107SOL    HW164762   0.812   5.862   5.214  0.0788  0.5714 -1.3428
21107SOL    HW264763   0.896   5.742   5.178 -0.8515 -0.1418 -1.1636
21108SOL     OW64764   2.333   5.293   3.587  0.8720  0.8545  0.3582
21108SOL    HW164765   2.248   5.337   3.580  0.3228 -0.2523 -0.3334
21108SOL    HW264766   2.340   5.242   3.506  0.8942 -1.2711  1.6055
21109SOL     OW64767   7.336   3.282   4.584 -0.5837  0.6346 -0.0401
21109SOL    HW164768   7.420   3.316   4.614 -1.2663  1.9582  0.4278
21109SOL    HW264769   7.307   3.344   4.518 -0.6282 -0.5004 -1.1255
21110SOL     OW64770   2.590   2.000   6.144 -0.2957 -0.5838  0.0915
21110SOL    HW164771   2.553   1.939   6.081  0.0145 -0.8631  0.1826
21110SOL    HW264772   2.588   1.954   6.228  1.2706 -1.0207 -0.0906
21111SOL     OW64773   2.384   7.399  11.816 -0.0535  0.1177 -0.2045
21111SOL    HW164774   2.300   7.446  11.815 -0.4048 -0.4335  0.9114
21111SOL    HW264775   2.364   7.314  11.776 -0.1024 -0.1142  0.3045
21112SOL     OW64776   2.524   7.526   6.876 -0.1388 -0.4533 -0.1016
21112SOL    HW164777   2.495   7.447   6.830  1.1080 -1.4988  0.8188
21112SOL    HW264778   2.491   7.515   6.966  0.7087 -0.3246  0.2368
21113SOL     OW64779   2.150   0.973   3.211 -0.3848  0.0614 -0.2474
21113SOL    HW164780   2.124   1.065   3.211 -1.6656 -0.2295  2.0270
21113SOL    HW264781   2.081   0.928   3.259 -0.0440 -2.2096 -1.7380
21114SOL     OW64782   7.200   3.138   8.404  0.0720  0.6507  0.2557
21114SOL    HW164783   7.160   3.188   8.475  1.7183  0.5629  1.2938
21114SOL    HW264784   7.223   3.054   8.444  2.2410  1.0778  0.0623
21115SOL     OW64785   3.452   2.582   2.065  0.1924  0.0656  0.2820
21115SOL    HW164786   3.521   2.626   2.015 -0.5608  0.4046 -0.4670
21115SOL    HW264787   3.439   2.499   2.019 -1.5099  0.9903 -0.9710
21116SOL     OW64788   0.143   5.330   3.603 -0.2757  0.6191  0.1295
21116SOL    HW164789   0.078   5.378   3.654 -1.0785  0.3444 -0.6110
21116SOL    HW264790   0.105   5.324   3.515  1.4739  1.9276 -0.7941
21117SOL     OW64791   1.093   0.836   9.554  0.6007 -0.4907 -0.1526
21117SOL    HW164792   1.006   0.816   9.588  1.3720  0.8448  2.8498
21117SOL    HW264793   1.126   0.905   9.610  3.2062 -0.1774 -1.9014
21118SOL     OW64794   3.645   0.533   5.102  0.5618  0.1907  0.5665
21118SOL    HW164795   3.639   0.610   5.158  0.5617  1.1280 -0.6684
21118SOL    HW264796   3.732   0.496   5.121  0.6037  0.5537  1.0900
21119SOL     OW64797   6.845   5.000  10.045  0.2619  0.5297  0.4447
21119SOL    HW164798   6.924   4.961  10.084 -0.3463 -1.5576 -0.2874
21119SOL    HW264799   6.856   4.988   9.951 -1.9210 -2.0500  0.3908
21120SOL     OW64800   7.816   6.530   4.784  0.1256 -0.4082  0.6194
21120SOL    HW164801   7.858   6.614   4.764  0.0262 -0.3074  0.8316
21120SOL    HW264802   7.722   6.548   4.776  0.1285 -1.1145 -1.8324
21121SOL     OW64803   6.483   0.361   9.507  0.2976  0.0805 -0.6152
21121SOL    HW164804   6.390   0.338   9.508  0.0515  0.9597  0.9833
21121SOL    HW264805   6.507   0.366   9.600  1.7384  0.6352 -0.9915
21122SOL     OW64806   0.562   4.345   1.935  0.0787 -0.1195  0.0148
21122SOL    HW164807   0.598   4.396   2.008  0.3602 -0.2897 -0.0024
21122SOL    HW264808   0.488   4.297   1.974 -0.8017  1.0319 -0.1931
21123SOL     OW64809   3.981   5.755  12.305  0.0120 -0.5770  0.4799
21123SOL    HW164810   3.957   5.666  12.331  2.3397 -1.0882  1.1378
21123SOL    HW264811   4.028   5.744  12.222  1.3136 -0.1318  1.1367
21124SOL     OW64812   7.716   7.192   8.962  0.1997  0.4820 -0.1495
21124SOL    HW164813   7.794   7.224   8.916 -0.6213  0.2377 -1.7991
21124SOL    HW264814   7.735   7.099   8.978 -0.6289 -0.2248 -2.7235
21125SOL     OW64815   1.350   6.027   3.945 -0.1986 -0.2701  0.5500
21125SOL    HW164816   1.255   6.038   3.935 -0.0085  1.7126  0.4267
21125SOL    HW264817   1.371   6.074   4.026  0.9716  1.6441 -0.7671
21126SOL     OW64818   4.391   4.497   6.799 -0.2156 -0.5386  0.0595
21126SOL    HW164819   4.335   4.464   6.728 -2.7491 -0.8399  2.0538
21126SOL    HW264820   4.398   4.424   6.860  2.7578 -0.6145 -0.2286
21127SOL     OW64821   5.884   2.473  10.156 -0.6207 -0.1316  0.6167
21127SOL    HW164822   5.814   2.409  10.172  0.2182 -1.0640  0.6562
21127SOL    HW264823   5.914   2.453  10.067 -0.7359  0.5981  0.4091
21128SOL     OW64824   7.359   6.046   1.708 -0.4784 -0.4024 -0.0023
21128SOL    HW164825   7.454   6.054   1.716 -0.5942  1.6771 -0.2872
21128SOL    HW264826   7.340   5.957   1.737  1.6715 -1.2642 -1.0463
21129SOL     OW64827   6.635   4.399   7.273 -0.1231  0.1796  0.1925
21129SOL    HW164828   6.684   4.323   7.243 -0.2382  0.0600  0.3085
21129SOL    HW264829   6.701   4.468   7.281 -0.2333  0.4982 -1.2885
21130SOL     OW64830   0.138   3.177   3.336  0.5727 -0.5584  0.0443
21130SOL    HW164831   0.059   3.190   3.283  0.5570 -1.1454 -0.0918
21130SOL    HW264832   0.131   3.241   3.407 -0.3846 -1.0675  0.4288
21131SOL     OW64833   6.717   0.112   2.772 -0.0966 -0.1177 -0.4684
21131SOL    HW164834   6.641   0.164   2.798 -1.0598 -1.9097  0.4980
21131SOL    HW264835   6.680   0.037   2.724  1.2963  0.3982 -2.5054
21132SOL     OW64836   3.007   3.048   2.473  0.2831 -0.2252 -0.6315
21132SOL    HW164837   3.018   2.956   2.497  0.4179  0.2954  1.5092
21132SOL    HW264838   2.965   3.088   2.550  3.0767  2.1227 -0.1479
21133SOL     OW64839   0.247   2.828  12.129  0.7069  0.0799 -0.5165
21133SOL    HW164840   0.324   2.822  12.186  0.9745 -0.0849 -0.8923
21133SOL    HW264841   0.194   2.752  12.153  0.7353  0.1061 -0.3681
21134SOL     OW64842   7.111   7.241   7.766  0.4239 -0.1343  0.6167
21134SOL    HW164843   7.106   7.325   7.720  0.5065 -0.5555 -0.1832
21134SOL    HW264844   7.037   7.243   7.827 -1.2288 -0.5709 -1.2819
21135SOL     OW64845   4.485   2.338  10.198 -0.3230  0.2501 -0.4925
21135SOL    HW164846   4.416   2.396  10.166 -0.5081 -0.3627 -1.2384
21135SOL    HW264847   4.547   2.332  10.126  0.4711  0.7119  0.1398
21136SOL     OW64848   6.694   2.808   3.555  0.1341 -0.3661 -0.3224
21136SOL    HW164849   6.669   2.799   3.647 -1.3241  1.1333 -0.5296
21136SOL    HW264850   6.789   2.802   3.555  0.3208  1.5564  1.5639
21137SOL     OW64851   4.106   3.841   3.181 -0.5706  0.2528  0.1833
21137SOL    HW164852   4.156   3.801   3.111 -0.5995  1.0945 -0.3252
21137SOL    HW264853   4.152   3.815   3.261  0.9345  1.3516 -0.2924
21138SOL     OW64854   7.411   3.562   7.846  0.8518 -0.2117 -0.1774
21138SOL    HW164855   7.449   3.633   7.897  1.4843 -0.1112 -0.7660
21138SOL    HW264856   7.487   3.519   7.806  0.3030  1.4372 -3.2931
21139SOL     OW64857   5.747   7.791   7.517 -0.0527 -0.1229 -0.0422
21139SOL    HW164858   5.824   7.762   7.468  0.1704  0.1842  0.1261
21139SOL    HW264859   5.782   7.849   7.585 -0.3009 -0.9261  0.8009
21140SOL     OW64860   3.426   2.876   0.331 -0.3767 -0.1569 -0.3426
21140SOL    HW164861   3.373   2.804   0.365 -1.0634  0.1533 -0.7264
21140SOL    HW264862   3.371   2.916   0.264  1.1871 -1.1939 -2.3782
21141SOL     OW64863   1.066   0.085   4.182 -0.2942 -0.0498  0.1457
21141SOL    HW164864   1.104   0.033   4.253 -2.0207  0.6467  1.6777
21141SOL    HW264865   1.091   0.039   4.102  1.9127 -0.7569  1.1659
21142SOL     OW64866   0.928   5.067   9.116  0.3938 -0.3611  0.1289
21142SOL    HW164867   0.919   5.160   9.138  0.8231 -0.5831  1.3029
21142SOL    HW264868   1.011   5.041   9.156 -0.2677 -1.5308  0.7808
21143SOL     OW64869   1.643   6.915  12.333  0.2792 -0.5374 -0.1772
21143SOL    HW164870   1.627   6.855  12.260  0.3276 -0.8586  0.0683
21143SOL    HW264871   1.720   6.965  12.307  1.1671 -1.6253  0.2385
21144SOL     OW64872   6.931   3.523   0.061 -0.3476 -0.0325  0.1657
21144SOL    HW164873   6.922   3.428   0.049  1.0608 -0.2288  0.4183
21144SOL    HW264874   6.933   3.558  -0.028  2.6545 -0.6809 -0.1568
21145SOL     OW64875   0.137   6.649  10.090 -0.4183  0.2524 -0.1675
21145SOL    HW164876   0.225   6.676  10.065 -0.4478  0.1366 -0.3921
21145SOL    HW264877   0.140   6.641  10.186 -0.0371 -0.2918 -0.2234
21146SOL     OW64878   6.618   5.435   5.627  0.0033 -0.3062  0.2560
21146SOL    HW164879   6.604   5.421   5.720  0.3753 -1.2909  0.1707
21146SOL    HW264880   6.570   5.515   5.607  0.1233  0.0436  1.3387
21147SOL     OW64881   2.476   4.558   3.874 -0.5629  0.0676 -0.0057
21147SOL    HW164882   2.440   4.642   3.848  1.2304  0.3624 -1.7810
21147SOL    HW264883   2.501   4.570   3.966 -1.1800  1.1468  0.0362
21148SOL     OW64884   6.469   6.039  10.466  0.3220 -0.5444  0.4679
21148SOL    HW164885   6.461   6.106  10.534 -2.3598 -1.1235  0.8129
21148SOL    HW264886   6.445   6.084  10.385 -1.1619 -0.9479  0.6531
21149SOL     OW64887   2.646   2.059   6.838  0.4829 -0.1910  0.0880
21149SOL    HW164888   2.712   2.003   6.798  0.5845  1.1054 -1.6378
21149SOL    HW264889   2.591   2.089   6.765 -1.5647 -0.6081  1.3632
21150SOL     OW64890   2.200   4.231   1.894 -0.4575 -0.1283 -0.2512
21150SOL    HW164891   2.151   4.187   1.825 -1.4834  2.2579 -1.1698
21150SOL    HW264892   2.268   4.280   1.848  0.2400 -0.2117  0.6535
21151SOL     OW64893   5.032   1.506   2.895 -0.0181 -0.2891  0.2348
21151SOL    HW164894   5.111   1.459   2.871  1.1972  0.4989  2.3960
21151SOL    HW264895   5.043   1.593   2.856 -0.7578 -0.7485 -1.0591
21152SOL     OW64896   0.788   2.445  11.093  0.2833  0.1624  0.5618
21152SOL    HW164897   0.805   2.437  10.999 -1.0198 -1.5570  0.4279
21152SOL    HW264898   0.807   2.536  11.114  0.1262  0.6890 -1.4628
21153SOL     OW64899   1.975   5.874   2.941  0.0929 -0.4319  0.5422
21153SOL    HW164900   1.979   5.903   3.032 -0.4699  2.8433 -0.3512
21153SOL    HW264901   1.893   5.825   2.935  0.6314 -1.5912  1.9658
21154SOL     OW64902   0.036   0.080   9.341  0.3890  0.1887  0.3156
21154SOL    HW164903   0.092   0.016   9.297 -2.2573 -1.1015 -1.4172
21154SOL    HW264904   0.097   0.144   9.379  3.0239 -1.8429 -0.2418
21155SOL     OW64905   3.388   1.230   6.202  0.6225 -0.8825 -0.1483
21155SOL    HW164906   3.332   1.246   6.127 -1.2263 -1.1751  1.0977
21155SOL    HW264907   3.412   1.138   6.196 -1.4123 -1.5179  0.7840
21156SOL     OW64908   5.376   5.482   8.196  0.0500  0.3072  0.4799
21156SOL    HW164909   5.326   5.402   8.177  0.0249  0.1426  1.2073
21156SOL    HW264910   5.456   5.473   8.145  0.3120 -0.4667  1.0133
21157SOL     OW64911   0.317   0.503   1.570 -0.4728 -0.3906 -0.0205
21157SOL    HW164912   0.331   0.464   1.484  0.2812 -1.5412  0.6046
21157SOL    HW264913   0.243   0.563   1.557 -1.0730 -1.3449 -1.2150
21158SOL     OW64914   3.169   1.653   6.103 -0.0408  0.1857 -0.6691
21158SOL    HW164915   3.251   1.700   6.095 -0.9361  2.1006  0.6767
21158SOL    HW264916   3.162   1.632   6.196 -0.3058 -1.4748 -1.0314
21159SOL     OW64917   4.599   1.910   8.798 -0.4828 -0.7375 -0.0888
21159SOL    HW164918   4.569   1.820   8.784  0.7698 -1.2238  0.2279
21159SOL    HW264919   4.548   1.941   8.873 -0.7009 -1.2950 -0.0037
21160SOL     OW64920   3.975   2.529   0.277  0.0939  0.0126  0.3889
21160SOL    HW164921   3.938   2.445   0.250 -0.3070 -0.2993  1.8178
21160SOL    HW264922   3.942   2.592   0.212 -0.8091 -0.6867  0.1472
21161SOL     OW64923   0.155   2.836   8.019 -0.6156  0.1843 -0.0779
21161SOL    HW164924   0.225   2.871   7.964 -1.0132  0.4704 -0.4118
21161SOL    HW264925   0.086   2.810   7.958 -1.0669  0.5099  0.2749
21162SOL     OW64926   6.746   2.229   1.340  0.7299  0.8719 -0.4474
21162SOL    HW164927   6.714   2.157   1.395 -1.3579  0.5318 -1.9719
21162SOL    HW264928   6.779   2.294   1.402  1.2613 -0.7347  1.0311
21163SOL     OW64929   7.942   7.516  10.162 -0.1920 -0.2257 -0.4049
21163SOL    HW164930   7.988   7.571  10.225 -0.2753  0.4039 -0.8938
21163SOL    HW264931   8.011   7.465  10.119 -0.1671 -0.9657  0.4665
21164SOL     OW64932   3.215   3.984   6.074 -0.2918 -0.1103  0.2919
21164SOL    HW164933   3.263   3.901   6.081 -0.6227 -0.1645  2.6610
21164SOL    HW264934   3.233   4.014   5.985  0.9768 -2.0285 -0.1669
21165SOL     OW64935   5.801   3.837   9.341  0.6022  0.2390  0.4295
21165SOL    HW164936   5.790   3.744   9.322  1.8062  0.0663  0.4703
21165SOL    HW264937   5.712   3.871   9.348  0.0319 -1.4610  3.1593
21166SOL     OW64938   4.389   4.893   8.321  0.5752 -0.5419 -0.6404
21166SOL    HW164939   4.379   4.807   8.281  1.3294 -0.6418 -0.6397
21166SOL    HW264940   4.325   4.894   8.392  0.1402 -0.8674 -1.0282
21167SOL     OW64941   0.451   4.913   6.040  0.1757 -0.5967 -0.6448
21167SOL    HW164942   0.484   4.838   6.089  2.2223  0.7363  0.1767
21167SOL    HW264943   0.389   4.955   6.100  1.3892  0.0703  0.1962
21168SOL     OW64944   2.608   3.556   4.559 -0.3883  0.0972 -0.6829
21168SOL    HW164945   2.642   3.645   4.556  0.2787 -0.1703 -1.9374
21168SOL    HW264946   2.521   3.562   4.520 -0.8665  0.3985  0.4049
21169SOL     OW64947   6.191   0.193   4.834  0.3585 -0.3839 -0.4243
21169SOL    HW164948   6.260   0.163   4.776 -0.6725 -2.6508 -0.5731
21169SOL    HW264949   6.218   0.165   4.921  1.0566  1.4633  0.0005
21170SOL     OW64950   2.715   1.356   4.238 -0.4339  0.8174 -0.1382
21170SOL    HW164951   2.722   1.351   4.143  1.2345 -0.4626  0.0045
21170SOL    HW264952   2.747   1.443   4.261  0.0308  0.7924 -0.6861
21171SOL     OW64953   5.016   4.556  10.639 -0.1127 -0.0663 -0.0545
21171SOL    HW164954   5.036   4.635  10.688 -1.8047  1.0945 -1.1403
21171SOL    HW264955   5.016   4.486  10.705 -1.6070  1.3185  1.5309
21172SOL     OW64956   6.272   5.488  11.859 -0.1718 -0.2844 -0.7955
21172SOL    HW164957   6.359   5.519  11.835  0.2797 -0.2759  0.7137
21172SOL    HW264958   6.283   5.393  11.870 -0.4362 -0.3341 -0.9753
21173SOL     OW64959   3.246   7.391   8.878  0.0494 -0.1377  0.6555
21173SOL    HW164960   3.185   7.393   8.804 -0.0091  0.1174  0.7102
21173SOL    HW264961   3.192   7.414   8.954  0.5894  2.0411  0.4446
21174SOL     OW64962   3.776   6.217   2.258  0.1530  0.3713 -0.0287
21174SOL    HW164963   3.699   6.273   2.271  0.2185  0.1944  1.3242
21174SOL    HW264964   3.744   6.145   2.203 -0.0688  1.4264 -1.3133
21175SOL     OW64965   1.527   7.241   5.571  0.4982  0.1728  0.0324
21175SOL    HW164966   1.606   7.210   5.614  0.3450  0.3478  0.4442
21175SOL    HW264967   1.546   7.234   5.477  0.7284 -0.4780  0.1232
21176SOL     OW64968   6.748   4.038   1.118  0.1200  0.1438 -0.1486
21176SOL    HW164969   6.837   4.072   1.120 -0.6589  2.3202  1.2481
21176SOL    HW264970   6.710   4.064   1.202 -0.6091 -4.4752  1.2396
21177SOL     OW64971   0.443   5.283   3.216  0.6056 -0.0418  0.2242
21177SOL    HW164972   0.470   5.370   3.186  0.3810  0.5061  1.5204
21177SOL    HW264973   0.347   5.289   3.224  0.7785  0.5293  2.9064
21178SOL     OW64974   2.978   7.158   4.679  0.2233 -0.1787  0.3811
21178SOL    HW164975   3.020   7.179   4.596 -1.5296  0.1900 -0.4684
21178SOL    HW264976   3.023   7.213   4.743  1.1799  0.0040 -0.4268
21179SOL     OW64977   3.729   7.424  12.331  0.4847 -0.0471 -0.0090
21179SOL    HW164978   3.795   7.410  12.263  0.5809 -0.1142  0.0970
21179SOL    HW264979   3.765   7.380  12.408 -0.9006 -2.4916 -0.6402
21180SOL     OW64980   4.367   1.277   0.957  0.7703 -0.0436 -0.0761
21180SOL    HW164981   4.328   1.363   0.945  2.6318  0.7292 -0.8860
21180SOL    HW264982   4.325   1.222   0.891 -0.3663  0.2409  0.3895
21181SOL     OW64983   1.278   7.234  12.237  0.3963 -0.3808 -0.7081
21181SOL    HW164984   1.228   7.280  12.304  1.7338  1.3417 -0.8086
21181SOL    HW264985   1.325   7.165  12.284  1.5874  1.0191  0.2406
21182SOL     OW64986   4.876   0.245   9.293  0.3477 -0.0351  0.1061
21182SOL    HW164987   4.795   0.296   9.303  1.7726  2.1846  0.9282
21182SOL    HW264988   4.911   0.272   9.209  0.7352 -0.2144  0.2107
21183SOL     OW64989   0.799   3.280   6.815  0.3080  0.0290  0.0255
21183SOL    HW164990   0.747   3.360   6.825  0.7181  0.2572  0.3637
21183SOL    HW264991   0.774   3.226   6.890 -0.8418 -0.6670 -0.8279
21184SOL     OW64992   3.022   3.979   5.464 -0.2072  0.2445 -0.7976
21184SOL    HW164993   3.001   4.007   5.553 -0.1011 -2.5818  0.2228
21184SOL    HW264994   3.097   4.033   5.439 -0.8490  1.7634  0.4256
21185SOL     OW64995   1.477   7.489   3.184 -0.3390 -0.0086 -0.1120
21185SOL    HW164996   1.565   7.496   3.146 -0.3811 -2.7845 -0.9072
21185SOL    HW264997   1.418   7.501   3.110 -0.5398 -1.0618 -0.1280
21186SOL     OW64998   4.214   3.396   7.147 -0.0096  0.1584  0.1935
21186SOL    HW164999   4.306   3.420   7.141 -0.0840  0.1090 -1.4497
21186SOL    HW265000   4.167   3.467   7.104 -0.6063 -0.5618 -0.3706
21187SOL     OW65001   3.119   5.913   1.837  0.0158 -0.0249  0.3571
21187SOL    HW165002   3.125   5.857   1.915 -2.1857 -0.7454  0.0802
21187SOL    HW265003   3.072   5.990   1.867  0.7782  0.5456  0.1268
21188SOL     OW65004   6.011   6.954   9.617  0.5645  0.2864  0.9265
21188SOL    HW165005   6.079   6.890   9.595  0.2327  0.0152  0.6800
21188SOL    HW265006   5.990   6.935   9.709  0.1119 -0.3035  0.7121
21189SOL     OW65007   4.697   5.465   2.880  0.4962 -0.1333  0.3246
21189SOL    HW165008   4.765   5.404   2.849  0.6138 -1.1362  2.3742
21189SOL    HW265009   4.620   5.444   2.827  1.3816  0.0963 -1.1118
21190SOL     OW65010   0.041   5.811   1.631  0.1166 -0.2726 -0.7722
21190SOL    HW165011  -0.004   5.872   1.572  1.3964 -0.3815 -1.8927
21190SOL    HW265012   0.074   5.742   1.574  1.4416 -0.3488  0.0585
21191SOL     OW65013   1.771   3.876   5.726 -0.2649  0.2366 -0.3352
21191SOL    HW165014   1.801   3.892   5.816 -1.3241 -1.2290  0.3265
21191SOL    HW265015   1.685   3.836   5.736  0.2918 -1.5118 -1.9205
21192SOL     OW65016   1.132   5.805   6.102  0.2217  0.0758  0.5758
21192SOL    HW165017   1.092   5.768   6.024 -0.0607  1.5381  0.0134
21192SOL    HW265018   1.221   5.826   6.076 -0.3786  2.1970  0.0838
21193SOL     OW65019   6.036   4.422   3.831 -0.1557  0.0094 -0.2266
21193SOL    HW165020   6.107   4.361   3.850 -0.5865 -0.0885  1.1441
21193SOL    HW265021   6.078   4.490   3.777  0.8566 -0.3043  0.1344
21194SOL     OW65022   6.817   7.413   7.712 -0.2460 -0.3831  0.0594
21194SOL    HW165023   6.862   7.493   7.740 -0.3301 -1.0955  2.4283
21194SOL    HW265024   6.774   7.381   7.791 -1.6145 -1.8949 -1.2273
21195SOL     OW65025   5.973   7.716   6.689 -0.0316 -0.4195  0.4050
21195SOL    HW165026   5.951   7.641   6.635 -0.6143 -1.4248  1.9721
21195SOL    HW265027   5.901   7.778   6.674  0.3430 -0.2305 -0.7277
21196SOL     OW65028   6.152   3.852   3.357  0.5288  0.3462 -0.6544
21196SOL    HW165029   6.167   3.795   3.432 -0.3748 -1.9527 -2.1094
21196SOL    HW265030   6.239   3.869   3.322  0.8572  0.4760  0.1863
21197SOL     OW65031   0.024   2.953   2.321  0.3417  0.2637  0.0915
21197SOL    HW165032  -0.044   2.977   2.384  0.7199  3.0348 -0.4623
21197SOL    HW265033   0.105   2.984   2.360  0.8653 -0.0150 -0.7458
21198SOL     OW65034   2.745   1.024   5.234  0.0201 -0.0684  0.4432
21198SOL    HW165035   2.749   0.930   5.222  0.8256  0.0277 -0.1944
21198SOL    HW265036   2.653   1.043   5.251 -0.7829 -0.6261 -2.5700
21199SOL     OW65037   1.343   7.489   2.915  0.4184 -0.7899  0.1607
21199SOL    HW165038   1.331   7.579   2.887 -0.1820 -0.5271  1.2360
21199SOL    HW265039   1.256   7.450   2.913 -0.1026 -0.1472  3.6398
21200SOL     OW65040   1.573   2.172   7.172 -0.1867  0.0619  0.1194
21200SOL    HW165041   1.634   2.108   7.134  0.1306  1.2651 -1.4710
21200SOL    HW265042   1.585   2.163   7.266  0.3504 -1.7297 -0.0739
21201SOL     OW65043   0.915   0.881   1.767 -0.6306  0.0219  0.3385
21201SOL    HW165044   0.961   0.823   1.706 -0.8136 -0.2778  0.4798
21201SOL    HW265045   0.872   0.945   1.712  0.2462  0.5257  0.2191
21202SOL     OW65046   2.419   0.541   5.842  0.5288  0.4260 -0.1439
21202SOL    HW165047   2.478   0.481   5.887  0.5560  0.0718 -0.6412
21202SOL    HW265048   2.418   0.510   5.752  0.5115  1.1503 -0.3990
21203SOL     OW65049   5.015   3.890   5.216  0.4661  0.5333  0.1947
21203SOL    HW165050   4.961   3.942   5.156  1.1606  0.4369 -0.5270
21203SOL    HW265051   4.972   3.805   5.218 -0.0217  0.7774  0.4836
21204SOL     OW65052   4.893   7.703  11.999 -0.0240  0.1677  0.1379
21204SOL    HW165053   4.857   7.726  12.084  2.0004 -0.7693  1.3236
21204SOL    HW265054   4.880   7.781  11.945 -0.8297  0.9890  1.4767
21205SOL     OW65055   4.462   4.796   7.941  0.6401  0.0840 -0.4335
21205SOL    HW165056   4.554   4.815   7.921  0.5606  0.6873 -0.2332
21205SOL    HW265057   4.420   4.787   7.856  0.8838 -0.2030 -0.5269
21206SOL     OW65058   0.289   3.892   6.455 -1.1382  0.2448 -0.3896
21206SOL    HW165059   0.383   3.906   6.447 -0.5781 -0.3637  3.3357
21206SOL    HW265060   0.281   3.801   6.485 -2.5298  1.3773  3.0655
21207SOL     OW65061   4.142   1.874   9.907 -0.1122  0.7370  0.0090
21207SOL    HW165062   4.151   1.785   9.873 -0.6298  0.7781 -0.2559
21207SOL    HW265063   4.195   1.876   9.986 -0.0304  0.2166 -0.0302
21208SOL     OW65064   2.378   4.302   7.790  0.0535  0.6631 -0.9546
21208SOL    HW165065   2.373   4.213   7.825 -0.5687  1.7385  1.8937
21208SOL    HW265066   2.353   4.292   7.698 -0.6972 -1.9890 -0.5632
21209SOL     OW65067   7.118   1.625   6.837  0.1114  0.2867 -0.0354
21209SOL    HW165068   7.175   1.696   6.808 -2.2732  1.7655 -1.4584
21209SOL    HW265069   7.039   1.668   6.867 -0.8694 -1.7254  0.4838
21210SOL     OW65070   2.723   1.772   5.572 -0.7071  0.2304 -0.5327
21210SOL    HW165071   2.786   1.708   5.540 -1.1638 -0.5212  0.0546
21210SOL    HW265072   2.759   1.801   5.656 -0.5172  0.7416 -0.7803
21211SOL     OW65073   2.059   6.954   3.858  0.3327  0.0527  0.3049
21211SOL    HW165074   2.111   6.891   3.908  0.6207 -0.4519 -0.6091
21211SOL    HW265075   1.984   6.973   3.914 -0.8097 -2.5960 -0.1341
21212SOL     OW65076   6.152   7.480   9.307 -0.1184 -0.3097  0.4499
21212SOL    HW165077   6.165   7.487   9.402 -0.0015 -0.7911  0.4683
21212SOL    HW265078   6.074   7.533   9.291 -1.4716 -2.0110  1.1364
21213SOL     OW65079   6.880   4.140   3.196 -0.1867 -0.2520 -0.2643
21213SOL    HW165080   6.829   4.114   3.273  0.0188  0.4391  0.1095
21213SOL    HW265081   6.971   4.129   3.222 -0.0603  1.5343  0.1756
21214SOL     OW65082   1.023   4.947   3.715 -0.7606 -0.3065 -0.4193
21214SOL    HW165083   1.005   4.927   3.623  1.3684  1.2514 -1.2421
21214SOL    HW265084   1.115   4.972   3.717 -0.7236 -0.3748  2.1781
21215SOL     OW65085   0.077   6.095   0.341  0.1449 -0.4091 -0.1799
21215SOL    HW165086   0.063   6.056   0.254  0.2982 -2.3845  0.6354
21215SOL    HW265087   0.141   6.038   0.383 -0.1556  0.3445  1.3672
21216SOL     OW65088   5.736   5.618   2.904 -0.2913 -0.1552 -0.1738
21216SOL    HW165089   5.692   5.564   2.969  0.5386 -0.7389 -0.0774
21216SOL    HW265090   5.748   5.560   2.829 -0.2969  0.1967 -0.4480
21217SOL     OW65091   3.751   0.731  10.269  0.2212  0.6500  0.6387
21217SOL    HW165092   3.660   0.711  10.291 -0.1953  1.1049 -0.5533
21217SOL    HW265093   3.762   0.696  10.180  1.3257  0.2769  0.9078
21218SOL     OW65094   1.638   5.726   0.109 -0.0803 -0.2426  0.2745
21218SOL    HW165095   1.611   5.751   0.020  1.3268 -0.6040 -0.2757
21218SOL    HW265096   1.723   5.769   0.121 -0.9843  1.1956  2.1071
21219SOL     OW65097   7.696   5.089   1.192 -0.1218 -0.1396 -0.1424
21219SOL    HW165098   7.635   5.110   1.122 -1.5127 -0.1772  1.0102
21219SOL    HW265099   7.782   5.118   1.160 -1.1421  2.4222 -0.7247
21220SOL     OW65100   4.939   7.961   8.190 -0.0898  0.1057  0.7091
21220SOL    HW165101   5.008   7.948   8.125  1.4333 -0.7053  2.4022
21220SOL    HW265102   4.956   8.047   8.227  0.7020 -0.5380  1.8799
21221SOL     OW65103   3.380   7.416  11.049 -0.1250 -0.2780 -1.0921
21221SOL    HW165104   3.334   7.362  11.114 -2.4763  2.4706 -0.2315
21221SOL    HW265105   3.327   7.409  10.970  0.0163  0.1070 -1.2246
21222SOL     OW65106   1.433   5.190  12.136  0.5881 -0.2109 -0.2392
21222SOL    HW165107   1.374   5.196  12.061 -0.3067 -2.4288  0.1975
21222SOL    HW265108   1.518   5.169  12.098  0.6776  0.9285 -0.7329
21223SOL     OW65109   5.573   7.167   9.405  0.4468 -0.3561 -0.2930
21223SOL    HW165110   5.643   7.135   9.462 -0.1541 -0.7494  0.2352
21223SOL    HW265111   5.569   7.261   9.422  0.4916 -0.4184  0.0727
21224SOL     OW65112   0.756   0.301  11.024  0.1633 -0.1225 -0.1036
21224SOL    HW165113   0.681   0.310  11.083 -0.2373 -0.1790 -0.5998
21224SOL    HW265114   0.806   0.382  11.036  0.3084 -0.3076  0.6106
21225SOL     OW65115   4.129   1.693   3.023 -0.4167 -0.1170  0.2324
21225SOL    HW165116   4.204   1.699   3.082 -0.2749 -0.1641  0.0587
21225SOL    HW265117   4.056   1.667   3.079 -0.0173 -1.4543  0.1750
21226SOL     OW65118   1.428   1.765   2.691 -0.1004  0.1560 -0.0610
21226SOL    HW165119   1.351   1.711   2.706  0.1615 -0.8616 -2.0299
21226SOL    HW265120   1.414   1.803   2.604  1.6423 -0.1245 -0.5020
21227SOL     OW65121   2.008   3.139   9.857 -0.3608  0.3217 -0.3728
21227SOL    HW165122   2.016   3.059   9.908 -1.4084 -0.7709 -1.8682
21227SOL    HW265123   2.011   3.209   9.923  0.7590 -0.8939  0.9494
21228SOL     OW65124   0.293   2.191  10.178  0.6261  0.5780  0.0964
21228SOL    HW165125   0.201   2.207  10.199  0.7636  1.2075  0.2287
21228SOL    HW265126   0.331   2.163  10.261  0.1293 -1.7368 -0.3741
21229SOL     OW65127   2.145   4.838   5.338 -0.1491 -0.1654 -0.0988
21229SOL    HW165128   2.086   4.820   5.265 -2.6008 -1.5178  2.0604
21229SOL    HW265129   2.210   4.769   5.334 -0.0114  0.0117 -1.2179
21230SOL     OW65130   4.334   7.408   4.297 -0.0438 -0.3366 -0.9150
21230SOL    HW165131   4.352   7.429   4.205  0.5837  0.4781 -0.6169
21230SOL    HW265132   4.263   7.467   4.321 -0.0871 -0.4280 -0.8206
21231SOL     OW65133   5.094   5.788   6.937 -0.0751  0.0919 -0.6937
21231SOL    HW165134   5.145   5.713   6.967  0.0519  0.8981  1.2278
21231SOL    HW265135   5.151   5.864   6.951 -1.5862  0.9668  1.1279
21232SOL     OW65136   1.364   4.630   8.618 -0.0300 -0.2309 -0.5761
21232SOL    HW165137   1.422   4.640   8.543  2.6606  2.3032  1.6266
21232SOL    HW265138   1.293   4.693   8.602  0.0159 -0.3754 -1.3919
21233SOL     OW65139   3.550   6.863  10.451  0.6303 -0.3057  0.2050
21233SOL    HW165140   3.639   6.857  10.487  1.9321 -0.5254 -2.7845
21233SOL    HW265141   3.545   6.952  10.416 -0.3458 -0.3189  0.2943
21234SOL     OW65142   7.598   0.250   4.673  0.3395 -0.1429 -0.1453
21234SOL    HW165143   7.531   0.257   4.741 -0.1819 -0.5345 -0.6056
21234SOL    HW265144   7.595   0.334   4.628  0.8346  0.1976  0.4413
21235SOL     OW65145   7.661   7.053   1.864 -0.1982  0.5068  0.2485
21235SOL    HW165146   7.718   6.979   1.883  0.2806  0.7144 -0.3449
21235SOL    HW265147   7.712   7.130   1.890  0.0093  0.7223 -0.7583
21236SOL     OW65148   5.646   5.822   5.670  0.1006  0.5186 -0.1986
21236SOL    HW165149   5.573   5.874   5.637 -1.1347 -1.1459 -0.2702
21236SOL    HW265150   5.606   5.762   5.733  1.2742 -0.8457 -0.6773
21237SOL     OW65151   5.558   5.717   6.257  0.3960 -0.1362  0.5564
21237SOL    HW165152   5.618   5.673   6.318 -0.7236  0.7901  2.4284
21237SOL    HW265153   5.471   5.700   6.294 -0.4871 -0.7353 -1.6185
21238SOL     OW65154   6.406   4.990   4.172 -0.3228  0.1622  0.3914
21238SOL    HW165155   6.357   4.980   4.254  1.1613  1.2308  1.4694
21238SOL    HW265156   6.468   4.917   4.172 -1.9469 -1.2810 -1.0471
21239SOL     OW65157   1.702   2.074  10.378  0.1889 -0.1260 -0.1108
21239SOL    HW165158   1.739   2.016  10.312  0.0291 -1.2290  0.7350
21239SOL    HW265159   1.694   2.159  10.334  1.5146 -0.4408 -1.0207
21240SOL     OW65160   5.757   5.229  12.222 -0.2564 -0.7093 -0.1274
21240SOL    HW165161   5.684   5.197  12.275 -0.5496 -1.9402 -1.2179
21240SOL    HW265162   5.827   5.246  12.285 -1.6561  1.1411  1.0229
21241SOL     OW65163   6.365   3.199  10.858  0.2755 -0.0714  0.0858
21241SOL    HW165164   6.298   3.172  10.921 -0.2745 -1.6981 -1.1108
21241SOL    HW265165   6.319   3.257  10.797  0.5597  0.6947  0.5863
21242SOL     OW65166   0.894   1.755   8.455 -0.0208 -0.8475  0.2181
21242SOL    HW165167   0.818   1.764   8.397  1.3237 -1.9347 -1.8063
21242SOL    HW265168   0.957   1.818   8.422  0.0614 -0.0200  1.8351
21243SOL     OW65169   4.525   6.623  11.018 -0.4110 -0.0616 -0.3493
21243SOL    HW165170   4.564   6.596  10.935  0.2014 -0.1518 -0.0417
21243SOL    HW265171   4.545   6.717  11.023 -0.0467 -0.1537 -0.0897
21244SOL     OW65172   2.643   3.177   8.233 -0.1065  0.7503 -0.2668
21244SOL    HW165173   2.734   3.187   8.259 -0.5188  0.1606  1.5417
21244SOL    HW265174   2.594   3.179   8.315 -1.5332 -0.9437 -1.0134
21245SOL     OW65175   5.079   2.293   2.123  0.0446  0.4763  0.0031
21245SOL    HW165176   5.107   2.210   2.160  0.5995 -0.7608 -2.8802
21245SOL    HW265177   4.990   2.277   2.091  0.3833  0.7281 -1.1317
21246SOL     OW65178   4.892   4.955   8.448  0.1055  0.1351 -0.3633
21246SOL    HW165179   4.940   4.874   8.431 -0.3040 -0.4237  1.0768
21246SOL    HW265180   4.813   4.948   8.394  0.9450  0.4453 -1.6847
21247SOL     OW65181   7.730   7.663   8.071 -0.4953  0.5290  0.2056
21247SOL    HW165182   7.655   7.665   8.011  0.4835  0.9843 -1.0571
21247SOL    HW265183   7.806   7.656   8.013  0.5347  1.7986  1.3523
21248SOL     OW65184   6.094   5.165  11.647 -0.0984  0.3959 -0.4761
21248SOL    HW165185   6.058   5.212  11.722 -0.6147  0.9530 -1.0626
21248SOL    HW265186   6.026   5.101  11.624 -0.9761  1.7575 -1.8724
21249SOL     OW65187   6.381   2.233   9.385  0.5811  0.5177 -0.4284
21249SOL    HW165188   6.373   2.141   9.358  0.1568  0.7116 -0.9803
21249SOL    HW265189   6.462   2.235   9.437  0.3149 -0.2697  0.0494
21250SOL     OW65190   3.303   4.298   0.193 -0.4250 -0.2995 -0.6902
21250SOL    HW165191   3.295   4.204   0.176 -0.8264 -0.8413  1.9782
21250SOL    HW265192   3.223   4.320   0.242  0.7848  0.8549  0.8626
21251SOL     OW65193   7.833   2.507   9.069  0.1285 -0.1082 -0.2281
21251SOL    HW165194   7.906   2.553   9.111 -0.3468  0.7020 -0.2613
21251SOL    HW265195   7.782   2.471   9.142  1.1774 -1.6842 -0.2374
21252SOL     OW65196   3.394   5.709   0.848 -0.2709 -0.2652  0.1285
21252SOL    HW165197   3.349   5.725   0.765  0.0361 -0.5402 -0.0973
21252SOL    HW265198   3.477   5.756   0.838 -0.0117 -0.7309  0.0694
21253SOL     OW65199   0.591   0.635  10.978 -0.1091 -0.3976  0.0375
21253SOL    HW165200   0.567   0.682  11.058 -1.3964 -1.4405  0.3014
21253SOL    HW265201   0.508   0.624  10.931  0.3989 -1.1056 -0.7173
21254SOL     OW65202   5.443   0.603  11.018  0.0032 -0.7903  0.4791
21254SOL    HW165203   5.411   0.681  10.971 -0.1421 -0.4629  1.1042
21254SOL    HW265204   5.464   0.540  10.949  0.0806 -0.2116 -0.0379
21255SOL     OW65205   6.614   6.074   1.103 -0.1309 -0.6429 -0.3319
21255SOL    HW165206   6.605   5.979   1.112  0.2660 -0.5330  1.8058
21255SOL    HW265207   6.703   6.092   1.134 -0.4761  0.4964  0.0344
21256SOL     OW65208   2.771   4.810   2.666 -0.3817  1.0588  0.0328
21256SOL    HW165209   2.714   4.733   2.657  1.6580 -0.4972 -0.2955
21256SOL    HW265210   2.787   4.839   2.577  2.1239 -0.7597 -0.2236
21257SOL     OW65211   3.648   6.852   8.617 -0.4807  0.2505  0.7011
21257SOL    HW165212   3.686   6.939   8.626  1.7195 -0.6347  0.6392
21257SOL    HW265213   3.575   6.864   8.556 -0.5723  2.1148  1.1116
21258SOL     OW65214   0.110   7.259   5.965 -0.2779  0.3131 -0.1809
21258SOL    HW165215   0.179   7.227   5.907  2.2021  0.2647  2.5280
21258SOL    HW265216   0.040   7.195   5.957  0.8801 -0.8518 -1.4980
21259SOL     OW65217   0.364   4.762   8.697  0.2576  0.3557  1.1546
21259SOL    HW165218   0.413   4.703   8.639 -1.5645  0.4098 -0.5298
21259SOL    HW265219   0.352   4.842   8.646  0.5335  1.2782  2.4829
21260SOL     OW65220   7.010   7.941  11.734  0.9500 -0.2421  0.2409
21260SOL    HW165221   7.006   7.875  11.804  0.7001 -0.4406  0.0412
21260SOL    HW265222   7.025   8.024  11.780 -1.9551  0.0752  0.8296
21261SOL     OW65223   5.095   1.772   4.770 -0.2437  0.4010  0.0841
21261SOL    HW165224   5.124   1.688   4.805  0.0200  0.8182  0.8998
21261SOL    HW265225   5.007   1.784   4.805 -0.0789  0.6996  0.4095
21262SOL     OW65226   0.386   5.529   6.473  0.7804 -0.4496 -0.2140
21262SOL    HW165227   0.322   5.536   6.544  0.4113  0.2082 -0.6044
21262SOL    HW265228   0.398   5.618   6.442  2.4340 -0.4572  0.3114
21263SOL     OW65229   2.949   6.152   3.895  0.2087 -0.1997 -0.2400
21263SOL    HW165230   2.952   6.104   3.978  1.8931 -0.0734 -0.1913
21263SOL    HW265231   2.987   6.238   3.915  0.7072 -0.1934 -1.1477
21264SOL     OW65232   0.820   3.530   3.436  0.5235  0.2961 -0.5811
21264SOL    HW165233   0.801   3.572   3.353  0.6524  0.8794 -0.3264
21264SOL    HW265234   0.758   3.569   3.498  1.7628  1.4292  0.0290
21265SOL     OW65235   2.814   5.850   0.047  0.2249  0.3389  0.1421
21265SOL    HW165236   2.747   5.889  -0.009  0.6664  0.0086 -0.6400
21265SOL    HW265237   2.786   5.759   0.058 -0.6247  0.7612  1.6807
21266SOL     OW65238   1.105   0.331   7.686  0.0495 -0.0974 -0.2101
21266SOL    HW165239   1.134   0.295   7.769  1.4817 -0.4126 -0.8254
21266SOL    HW265240   1.012   0.351   7.700  0.4982  0.8433  1.7931
21267SOL     OW65241   5.741   0.729   9.167  0.1468  0.5429  0.2982
21267SOL    HW165242   5.704   0.809   9.202 -0.1976  0.7615 -0.5531
21267SOL    HW265243   5.666   0.675   9.143  0.3776  0.5554 -0.4636
21268SOL     OW65244   7.153   5.061   4.489  0.1983 -0.3279  0.1783
21268SOL    HW165245   7.177   5.153   4.492  0.0337 -0.2614 -0.3860
21268SOL    HW265246   7.189   5.024   4.569 -2.6384  0.9427  2.2249
21269SOL     OW65247   1.571   0.275   2.435  0.0635  0.7991  0.4014
21269SOL    HW165248   1.640   0.294   2.498 -0.4546 -0.7185  1.4890
21269SOL    HW265249   1.506   0.344   2.449  1.2343  2.1378 -0.5127
21270SOL     OW65250   6.243   2.450   9.645 -0.0776 -0.3795 -0.1456
21270SOL    HW165251   6.292   2.509   9.702 -1.8957 -0.9760  2.1592
21270SOL    HW265252   6.265   2.480   9.556 -1.0830  3.9753  0.8220
21271SOL     OW65253   6.565   6.877   4.929 -0.1799 -0.1778  0.1621
21271SOL    HW165254   6.503   6.947   4.950 -1.0962 -1.1994  0.9781
21271SOL    HW265255   6.649   6.922   4.919 -0.2582  0.8269  2.9777
21272SOL     OW65256   5.284   6.600  10.376 -0.1782 -0.3476  0.2999
21272SOL    HW165257   5.202   6.579  10.421  0.8673 -1.3406  1.8407
21272SOL    HW265258   5.291   6.535  10.306 -0.9257  0.0621 -0.1745
21273SOL     OW65259   1.061   4.408   7.479 -0.2770 -0.0603  0.6425
21273SOL    HW165260   1.151   4.427   7.454  0.6498 -1.5662  2.6142
21273SOL    HW265261   1.049   4.450   7.564 -0.4725 -2.1603  1.7166
21274SOL     OW65262   7.223   3.065   4.453 -0.0906 -0.1102 -0.0838
21274SOL    HW165263   7.236   3.016   4.535  2.3739 -0.2240 -0.4720
21274SOL    HW265264   7.247   3.155   4.476  0.9253 -0.2045 -0.7296
21275SOL     OW65265   1.777   0.147   7.979 -0.0614 -0.0286 -0.0040
21275SOL    HW165266   1.848   0.104   7.932 -0.4499 -0.5124 -0.1512
21275SOL    HW265267   1.811   0.234   7.999  0.5389 -0.2256 -0.1517
21276SOL     OW65268   0.488   6.011  12.161  0.1640 -0.7126 -0.4911
21276SOL    HW165269   0.520   5.994  12.072 -2.1195  0.7788 -1.7076
21276SOL    HW265270   0.399   5.976  12.161 -1.8472  3.6715 -0.6257
21277SOL     OW65271   7.195   7.299  11.089  0.1091  0.0878  0.2776
21277SOL    HW165272   7.268   7.342  11.046  0.5057 -0.4454  0.4011
21277SOL    HW265273   7.183   7.217  11.040 -0.7608  0.4197 -0.0852
21278SOL     OW65274   6.694   1.192   0.028 -0.7236  0.3941 -0.2147
21278SOL    HW165275   6.750   1.145   0.089 -1.6975  0.0285  0.4326
21278SOL    HW265276   6.664   1.269   0.076 -0.4738  0.7904 -0.6840
21279SOL     OW65277   7.724   7.199   6.151  0.4826  0.1149 -0.6211
21279SOL    HW165278   7.686   7.285   6.135  0.0383 -0.2412 -1.5844
21279SOL    HW265279   7.659   7.153   6.204  0.1232 -0.0691 -1.2155
21280SOL     OW65280   2.363   3.281   1.995  0.6370  0.4379  0.0258
21280SOL    HW165281   2.351   3.224   1.918  0.8982  1.3053 -0.6764
21280SOL    HW265282   2.421   3.231   2.052 -0.1363 -0.5286 -0.0045
21281SOL     OW65283   0.536   5.318   8.358 -0.0429 -0.2041  0.2906
21281SOL    HW165284   0.573   5.334   8.272  1.8120 -0.7909  0.9277
21281SOL    HW265285   0.442   5.324   8.346  0.1834 -0.3528 -1.7794
21282SOL     OW65286   6.261   1.666   4.356  0.5445 -0.1552 -0.4233
21282SOL    HW165287   6.287   1.594   4.414 -0.8977 -1.8777 -1.8003
21282SOL    HW265288   6.167   1.677   4.372  1.0346  2.7414  1.0784
21283SOL     OW65289   7.893   4.495   5.856  0.4338  0.1221 -0.0740
21283SOL    HW165290   7.812   4.449   5.879  0.8208  0.8731  3.2555
21283SOL    HW265291   7.954   4.426   5.830 -0.5292 -0.6832 -0.2497
21284SOL     OW65292   5.946   3.346   7.249 -0.0505  0.2279  0.3468
21284SOL    HW165293   5.851   3.358   7.259 -0.1904 -0.8911  0.5987
21284SOL    HW265294   5.976   3.425   7.205 -1.2290  0.2605 -0.4543
21285SOL     OW65295   4.035   2.989   1.648 -0.1568  0.3131 -0.1514
21285SOL    HW165296   4.119   3.029   1.668  0.2928 -1.2860  1.5079
21285SOL    HW265297   4.054   2.924   1.580 -0.0741  0.0937  0.0784
21286SOL     OW65298   0.383   6.287   9.993  0.0719 -0.0092  0.0712
21286SOL    HW165299   0.461   6.343   9.994  0.2788 -0.2994  0.2274
21286SOL    HW265300   0.313   6.345   9.963  0.3483  0.2513 -0.0798
21287SOL     OW65301   4.144   0.674  12.374  0.5715  0.3919  0.6088
21287SOL    HW165302   4.213   0.617  12.407 -0.4026 -0.2281  1.6066
21287SOL    HW265303   4.126   0.735  12.447  1.7044  2.1239 -0.4773
21288SOL     OW65304   4.645   0.650   5.514 -0.1287  0.3276 -0.3230
21288SOL    HW165305   4.599   0.703   5.449  0.5731  0.0851 -1.0283
21288SOL    HW265306   4.577   0.597   5.555 -0.5310  0.2531 -1.0828
21289SOL     OW65307   4.123   1.173   4.644 -0.1587  0.1479  0.5870
21289SOL    HW165308   4.125   1.268   4.637 -0.9565  0.1765  0.7553
21289SOL    HW265309   4.207   1.145   4.605  0.2170  0.9262  0.8190
21290SOL     OW65310   0.978   3.646   5.579 -0.7321  0.0498  0.4927
21290SOL    HW165311   0.953   3.584   5.510 -0.3784  0.5208 -0.0605
21290SOL    HW265312   1.073   3.656   5.569 -0.7090  0.2806  0.9226
21291SOL     OW65313   0.493   2.889   6.182 -0.2918  0.4298  0.7599
21291SOL    HW165314   0.575   2.923   6.218  0.2007  0.4684 -0.3443
21291SOL    HW265315   0.434   2.884   6.257  0.7140  0.4142  1.5762
21292SOL     OW65316   7.807   3.576   0.490 -0.2305 -0.2634  0.0179
21292SOL    HW165317   7.798   3.672   0.485  3.5879  0.2032 -1.6172
21292SOL    HW265318   7.854   3.561   0.572  1.1762 -0.4067 -0.7715
21293SOL     OW65319   0.489   3.447  10.394  0.1052  0.4684 -0.1367
21293SOL    HW165320   0.410   3.418  10.441 -0.1621  1.8849  0.3476
21293SOL    HW265321   0.460   3.523  10.344  0.5078 -0.7380 -2.3046
21294SOL     OW65322   7.330   4.449  10.784  0.0951  0.0576  0.3044
21294SOL    HW165323   7.346   4.540  10.811 -1.1750  1.0115 -1.8620
21294SOL    HW265324   7.246   4.427  10.825  0.0300  0.1382  0.2153
21295SOL     OW65325   3.120   2.524   0.449 -0.2402 -0.7438 -0.3592
21295SOL    HW165326   3.203   2.553   0.487  0.4404 -2.6560 -0.2788
21295SOL    HW265327   3.104   2.586   0.377  1.3082 -0.3836 -0.4431
21296SOL     OW65328   1.247   1.258   4.637 -0.3595 -0.3095  0.2995
21296SOL    HW165329   1.219   1.335   4.686  0.7411  0.6546 -0.5251
21296SOL    HW265330   1.263   1.191   4.704 -0.8258  0.3431  1.0721
21297SOL     OW65331   5.063   1.930   1.172  0.1166  0.0206  0.2307
21297SOL    HW165332   5.043   1.932   1.079  0.2675  1.4565  0.2047
21297SOL    HW265333   5.126   2.001   1.185 -1.3811  1.1722  1.7401
21298SOL     OW65334   2.096   6.985  11.051  0.2148 -0.4291 -0.1979
21298SOL    HW165335   2.086   7.074  11.083  1.1337 -0.7250  1.0349
21298SOL    HW265336   2.052   6.984  10.966 -1.7937  0.5923  0.7646
21299SOL     OW65337   6.524   6.074   9.244 -0.5197  0.0873  0.3526
21299SOL    HW165338   6.462   6.005   9.220  0.0335 -0.9485  1.7367
21299SOL    HW265339   6.472   6.154   9.242 -1.2649 -0.3863 -0.9622
21300SOL     OW65340   0.742   7.095   1.512 -0.1188  0.3630 -0.4222
21300SOL    HW165341   0.786   7.151   1.448 -0.6182 -0.0025 -1.0923
21300SOL    HW265342   0.697   7.156   1.570 -0.1078  0.6792 -0.7427
21301SOL     OW65343   3.127   2.847   6.579  0.2817  0.2829 -0.2318
21301SOL    HW165344   3.043   2.811   6.608 -0.1305  2.1935  1.1135
21301SOL    HW265345   3.110   2.878   6.490 -0.7491  1.5142  0.3696
21302SOL     OW65346   5.695   0.121  12.407  0.0577  0.6930 -0.8780
21302SOL    HW165347   5.611   0.125  12.452 -0.4940 -1.1522 -1.6470
21302SOL    HW265348   5.754   0.079  12.470  0.0474  0.7862 -0.8072
21303SOL     OW65349   3.663   7.746   4.828  0.0115  0.2532  0.0888
21303SOL    HW165350   3.745   7.767   4.872  0.7150  2.1651 -1.9145
21303SOL    HW265351   3.595   7.779   4.887  0.9220  2.8263 -0.1542
21304SOL     OW65352   3.992   5.172   9.294 -0.0759  0.2317  0.0393
21304SOL    HW165353   3.898   5.188   9.286  0.0058  0.8378  0.2504
21304SOL    HW265354   4.033   5.255   9.271  0.4343 -0.1817 -0.5765
21305SOL     OW65355   1.593   2.243   5.434  0.0214  0.0268  0.4546
21305SOL    HW165356   1.604   2.227   5.528  1.7125  2.0437  0.6726
21305SOL    HW265357   1.500   2.231   5.419 -0.0815 -1.7232  2.0924
21306SOL     OW65358   0.226   2.473  10.566  0.1243  0.3468 -0.0559
21306SOL    HW165359   0.168   2.404  10.598 -1.2677  1.0574 -0.9554
21306SOL    HW265360   0.281   2.495  10.641 -0.0846 -1.0425  0.5266
21307SOL     OW65361   6.938   6.260  10.946  0.5102 -0.1985 -0.5335
21307SOL    HW165362   6.857   6.220  10.979  1.4816 -0.6791  1.3995
21307SOL    HW265363   6.938   6.238  10.852 -1.2142 -0.8352 -0.4357
21308SOL     OW65364   5.583   7.862   6.874  0.8304 -0.1844  0.3210
21308SOL    HW165365   5.578   7.946   6.829  1.1475 -0.7616 -0.8310
21308SOL    HW265366   5.600   7.798   6.805 -1.9133 -1.5831  0.8014
21309SOL     OW65367   5.412   1.301   6.354 -0.2619 -0.1335  0.4536
21309SOL    HW165368   5.505   1.322   6.368 -0.3294  3.3362 -2.6712
21309SOL    HW265369   5.412   1.240   6.280 -0.3631  2.2975 -1.6942
21310SOL     OW65370   4.905   7.906   9.781 -0.2336  0.3118  0.5963
21310SOL    HW165371   4.836   7.849   9.744  0.5138  0.2937 -0.8569
21310SOL    HW265372   4.874   7.995   9.764  1.2738  0.3679 -2.6630
21311SOL     OW65373   7.448   2.030   8.273  0.5712  0.9425  0.0517
21311SOL    HW165374   7.460   2.107   8.328  0.4129  0.2257  1.1162
21311SOL    HW265375   7.536   1.991   8.267  0.4418  0.5768  0.4778
21312SOL     OW65376   7.311   0.986   4.436 -0.3879  0.6078 -0.5075
21312SOL    HW165377   7.392   1.015   4.394  0.7418 -0.7271  0.6208
21312SOL    HW265378   7.322   0.891   4.445 -1.1363  0.6656  1.5547
21313SOL     OW65379   4.962   6.519   2.035 -0.3313  0.0747 -0.0251
21313SOL    HW165380   4.988   6.607   2.008 -0.5746 -0.3127 -1.5830
21313SOL    HW265381   5.006   6.461   1.974 -2.8964 -0.7159 -1.2735
21314SOL     OW65382   7.374   4.734   3.907  0.3011 -0.5088  0.4050
21314SOL    HW165383   7.355   4.825   3.928  0.7250 -0.0578 -1.0182
21314SOL    HW265384   7.464   4.720   3.938 -0.3759 -1.0178  2.2579
21315SOL     OW65385   7.929   6.716   9.233 -0.5669  0.0160  0.5298
21315SOL    HW165386   8.022   6.728   9.211 -0.6462  2.7463  1.3347
21315SOL    HW265387   7.931   6.687   9.324 -0.4938  0.2410  0.6020
21316SOL     OW65388   1.354   1.550   8.530 -0.0255  0.1125  0.4264
21316SOL    HW165389   1.268   1.586   8.550 -0.3745 -0.4384 -0.0616
21316SOL    HW265390   1.396   1.539   8.616 -0.9911 -0.9667  0.7868
21317SOL     OW65391   0.502   7.810   9.032  0.2998  0.8863 -0.0204
21317SOL    HW165392   0.538   7.724   9.012  0.0334  0.5098  1.0335
21317SOL    HW265393   0.411   7.806   9.005 -0.0726  0.3617  1.2173
21318SOL     OW65394   1.016   0.478   6.291  0.0213 -0.3032  0.3865
21318SOL    HW165395   1.080   0.433   6.236 -1.4423 -1.6590 -0.2949
21318SOL    HW265396   1.031   0.571   6.274  0.3756 -0.6570 -1.4349
21319SOL     OW65397   0.554   7.101   2.310  0.7922  0.8878  0.5807
21319SOL    HW165398   0.624   7.108   2.376  0.7829  1.8259  0.5062
21319SOL    HW265399   0.599   7.067   2.232  0.9418  0.4292  0.8632
21320SOL     OW65400   4.668   0.101   6.757 -0.3528  0.6056  0.5090
21320SOL    HW165401   4.742   0.044   6.776 -0.7777 -0.0591  0.1940
21320SOL    HW265402   4.606   0.084   6.827 -1.4836 -1.0916 -0.8213
21321SOL     OW65403   0.752   6.516  11.591  0.0627 -0.3329 -0.0820
21321SOL    HW165404   0.733   6.574  11.666  1.0054  1.4789 -1.1586
21321SOL    HW265405   0.668   6.507  11.546 -0.9091 -2.7982  2.0004
21322SOL     OW65406   5.460   7.288  12.392  0.3313 -0.3869 -0.1023
21322SOL    HW165407   5.462   7.298  12.297  2.2200 -0.4883 -0.0929
21322SOL    HW265408   5.368   7.303  12.415  0.2909  2.2244 -1.6453
21323SOL     OW65409   7.112   3.106   3.533 -0.0428 -0.6600 -0.1500
21323SOL    HW165410   7.164   3.181   3.505  0.9862 -1.9066 -1.7058
21323SOL    HW265411   7.042   3.145   3.586  1.6319  1.1913  0.8599
21324SOL     OW65412   4.007   1.916   2.406  0.4929  0.0806 -0.4041
21324SOL    HW165413   3.968   1.908   2.319  2.2200  1.1439 -1.3560
21324SOL    HW265414   3.936   1.947   2.462 -0.2576  1.0705 -1.8353
21325SOL     OW65415   1.603   2.253   8.011 -0.1940  0.2650 -0.0983
21325SOL    HW165416   1.614   2.344   8.039  2.3773 -0.0044  0.0207
21325SOL    HW265417   1.668   2.241   7.942 -0.4809 -1.4788 -0.1132
21326SOL     OW65418   0.862   5.906   7.321 -0.8810 -0.0513  0.6412
21326SOL    HW165419   0.906   5.968   7.263 -0.6097 -1.3130 -0.5369
21326SOL    HW265420   0.814   5.962   7.383  1.2647  1.3441  1.1367
21327SOL     OW65421   0.973   2.949   7.365 -0.3333  0.2425 -0.3980
21327SOL    HW165422   1.003   3.036   7.394 -0.5729  0.2988 -0.3185
21327SOL    HW265423   0.881   2.946   7.390 -0.4157  0.0978 -0.7170
21328SOL     OW65424   4.135   6.925  11.702 -0.5209 -0.6063 -0.0386
21328SOL    HW165425   4.138   6.832  11.678 -0.1558 -0.9950  1.4089
21328SOL    HW265426   4.154   6.926  11.796 -0.7172  0.9249  0.0081
21329SOL     OW65427   0.361   4.372   5.539 -0.4506  0.2482 -0.0858
21329SOL    HW165428   0.298   4.444   5.544 -1.1541 -0.3708  0.1991
21329SOL    HW265429   0.444   4.412   5.563 -0.5008  1.3308 -1.5585
21330SOL     OW65430   0.066   4.590   2.284 -0.2909  0.1626  0.4877
21330SOL    HW165431  -0.020   4.596   2.243  0.0664 -0.6847 -0.4286
21330SOL    HW265432   0.058   4.520   2.348  0.0559 -0.8289 -0.5250
21331SOL     OW65433   2.354   6.144   8.222  0.0216 -0.3850 -0.4245
21331SOL    HW165434   2.312   6.196   8.153 -1.4991 -0.3893  0.4477
21331SOL    HW265435   2.339   6.054   8.196  0.2873 -0.3870 -0.5704
21332SOL     OW65436   5.633   4.504   3.187 -0.5446 -0.0142  0.6693
21332SOL    HW165437   5.572   4.429   3.192 -0.6360 -0.0273 -0.3678
21332SOL    HW265438   5.720   4.464   3.194 -0.6019  0.1554  3.9175
21333SOL     OW65439   5.494   3.415  10.834  0.1788  0.2605  0.1619
21333SOL    HW165440   5.411   3.388  10.794  0.0761  1.5067 -0.5124
21333SOL    HW265441   5.531   3.334  10.868 -0.1563 -0.7162 -1.6804
21334SOL     OW65442   7.269   4.544   6.268 -0.1583 -0.3951 -0.2677
21334SOL    HW165443   7.340   4.595   6.307 -1.2893  0.2562  0.9835
21334SOL    HW265444   7.275   4.458   6.310  0.9647 -0.9595 -1.4748
21335SOL     OW65445   7.913   0.460   9.943  1.1499 -0.6238 -0.5104
21335SOL    HW165446   7.862   0.471   9.863 -0.2819 -0.4534  0.4039
21335SOL    HW265447   7.944   0.370   9.940 -1.2638 -1.5213  0.0730
21336SOL     OW65448   1.420   4.418  12.452 -0.1008 -0.6382 -0.4239
21336SOL    HW165449   1.448   4.454  12.536 -0.0837 -5.0438  1.7382
21336SOL    HW265450   1.463   4.474  12.387  3.4914  0.4716  2.5337
21337SOL     OW65451   2.259   5.530   3.962 -0.8040 -0.0857 -0.2269
21337SOL    HW165452   2.192   5.461   3.966 -0.5048 -0.3463  0.4560
21337SOL    HW265453   2.337   5.490   4.000 -0.6463  0.6537  0.2453
21338SOL     OW65454   2.413   5.630  10.129  0.0070  0.1479  0.3083
21338SOL    HW165455   2.446   5.717  10.152 -0.6922  0.0695  1.7007
21338SOL    HW265456   2.325   5.627  10.167 -0.1074 -1.0547 -0.0118
21339SOL     OW65457   5.598   5.327   4.650 -0.1268 -0.4092  0.9429
21339SOL    HW165458   5.630   5.360   4.734  0.5394 -2.0969  1.3945
21339SOL    HW265459   5.592   5.232   4.662 -1.5010 -0.5429 -0.4326
21340SOL     OW65460   3.033   2.672   2.483  0.0859 -0.4870 -0.0241
21340SOL    HW165461   3.016   2.684   2.389  0.5347 -0.8267 -0.1549
21340SOL    HW265462   3.045   2.577   2.493 -1.5419 -0.6432  0.6581
21341SOL     OW65463   7.007   0.224   3.813 -0.4379  0.2455  0.3364
21341SOL    HW165464   7.042   0.308   3.786  0.3530 -0.0549  0.4165
21341SOL    HW265465   6.998   0.231   3.908 -1.9884  0.8354  0.1751
21342SOL     OW65466   5.070   4.958   7.645 -0.0575  0.2637 -0.0163
21342SOL    HW165467   5.030   4.877   7.613 -0.2483  1.0498 -1.9046
21342SOL    HW265468   5.149   4.929   7.692 -1.0284 -1.0853  0.8547
21343SOL     OW65469   3.392   6.009   0.717  0.2677 -0.5823  0.5636
21343SOL    HW165470   3.342   6.078   0.760 -0.2346 -1.0714  0.7782
21343SOL    HW265471   3.330   5.969   0.656  0.7236 -0.4645  0.0172
21344SOL     OW65472   6.279   0.391   5.464  0.1490  0.4022 -0.1639
21344SOL    HW165473   6.363   0.430   5.439  1.2286 -1.0722  0.9319
21344SOL    HW265474   6.303   0.306   5.501 -1.9818 -0.7908 -1.3617
21345SOL     OW65475   5.047   2.051  10.820  0.4114  0.1494 -0.8542
21345SOL    HW165476   5.000   1.978  10.781 -0.2423  0.6554 -1.0195
21345SOL    HW265477   5.137   2.042  10.787  0.5624 -1.0734 -0.1821
21346SOL     OW65478   6.799   7.170   8.695  0.4028  0.3834 -0.0046
21346SOL    HW165479   6.718   7.217   8.672 -0.1893 -0.5722  0.0755
21346SOL    HW265480   6.772   7.109   8.764  1.6967  1.7128  1.7897
21347SOL     OW65481   5.657   2.789   5.491  0.1674 -0.2522 -0.2465
21347SOL    HW165482   5.576   2.777   5.540  0.3924 -0.0075  0.1951
21347SOL    HW265483   5.639   2.863   5.433 -0.3670 -1.0460 -1.1256
21348SOL     OW65484   6.429   5.896  10.132 -0.3358  0.0363 -0.7279
21348SOL    HW165485   6.460   5.859  10.050 -1.6136 -1.8683 -0.4236
21348SOL    HW265486   6.334   5.892  10.126 -0.4628 -0.5592  0.9877
21349SOL     OW65487   7.140   2.372   4.550  0.0156  0.2239  0.2001
21349SOL    HW165488   7.140   2.398   4.642  0.0108 -0.0410  0.2752
21349SOL    HW265489   7.100   2.446   4.504  2.2167  1.4372  0.0898
21350SOL     OW65490   0.035   7.452   0.338  0.1991  0.2224 -0.0193
21350SOL    HW165491   0.026   7.359   0.318 -0.0608 -0.1038  1.5035
21350SOL    HW265492  -0.040   7.494   0.296  0.3720 -0.2377 -0.7946
21351SOL     OW65493   3.882   4.931   4.911  0.7148 -0.1441 -0.2610
21351SOL    HW165494   3.801   4.940   4.862  0.7524  0.3097 -0.2508
21351SOL    HW265495   3.859   4.879   4.987  0.6190 -0.7057 -0.6743
21352SOL     OW65496   1.454   5.390   2.513  0.1359  0.0542 -0.1654
21352SOL    HW165497   1.427   5.454   2.578 -1.0834  0.2618 -0.8373
21352SOL    HW265498   1.543   5.416   2.489  0.3237  0.4063  0.8677
21353SOL     OW65499   0.066   6.848  11.770  0.9694  0.0817  0.0693
21353SOL    HW165500  -0.009   6.879  11.720  0.9186  0.0386  0.1190
21353SOL    HW265501   0.119   6.800  11.707  1.2731  0.6469 -0.1094
21354SOL     OW65502   0.671   4.435  12.340 -0.3088 -0.0806 -0.1953
21354SOL    HW165503   0.709   4.354  12.307  0.2854 -0.4017  1.1994
21354SOL    HW265504   0.670   4.424  12.435  0.1314  1.6940  0.0544
21355SOL     OW65505   4.983   4.334   7.496 -0.2611 -0.2046 -0.0078
21355SOL    HW165506   5.026   4.265   7.446 -0.3574  0.5319 -1.1325
21355SOL    HW265507   5.017   4.323   7.585 -0.2721 -1.6821 -0.1652
21356SOL     OW65508   2.192   6.920   9.524 -0.1792  0.4574 -0.0870
21356SOL    HW165509   2.186   7.004   9.480 -0.4843  0.0002 -0.9457
21356SOL    HW265510   2.123   6.922   9.590  0.1061  1.0451  0.2016
21357SOL     OW65511   6.145   7.508   5.027 -0.7470 -0.0950  0.2510
21357SOL    HW165512   6.098   7.534   4.947  1.7577  1.8408 -0.7489
21357SOL    HW265513   6.212   7.447   4.996 -0.3967 -0.1176  1.0413
21358SOL     OW65514   3.480   1.063   4.792  0.4378 -0.2277 -0.3598
21358SOL    HW165515   3.437   1.003   4.731 -4.7600  1.1802  1.3911
21358SOL    HW265516   3.490   1.144   4.743 -2.6873  0.5568  0.0846
21359SOL     OW65517   0.379   4.293   0.408  0.0375  0.1260  0.1332
21359SOL    HW165518   0.381   4.219   0.348 -0.0821 -0.1077  0.4143
21359SOL    HW265519   0.468   4.329   0.404 -0.1637  0.5609 -0.7288
21360SOL     OW65520   5.508   1.199   3.499 -0.3489  0.4136  0.3001
21360SOL    HW165521   5.471   1.137   3.438 -1.0048  0.4829  0.6187
21360SOL    HW265522   5.603   1.188   3.490 -0.4538 -0.7257  0.4602
21361SOL     OW65523   4.109   5.817   0.068 -0.2771  0.1968  0.4995
21361SOL    HW165524   4.052   5.826  -0.008 -1.6564  0.2737  1.5030
21361SOL    HW265525   4.107   5.903   0.110 -0.4570 -0.1687  1.2546
21362SOL     OW65526   0.857   4.831   9.252  0.1267 -0.6111  0.8751
21362SOL    HW165527   0.916   4.758   9.230 -0.5508 -1.3178  1.3476
21362SOL    HW265528   0.880   4.900   9.189  0.4108 -1.4284  0.0550
21363SOL     OW65529   6.173   2.046   7.100 -0.3955 -0.0183  0.1293
21363SOL    HW165530   6.254   2.097   7.105  0.6382 -1.6591  3.6958
21363SOL    HW265531   6.203   1.956   7.087 -1.2470 -1.0837  4.2412
21364SOL     OW65532   7.743   6.139   7.273 -0.8868 -0.4466  0.4174
21364SOL    HW165533   7.735   6.223   7.227 -0.2942 -1.0252 -0.7750
21364SOL    HW265534   7.729   6.073   7.206  0.8961 -1.3376  0.8631
21365SOL     OW65535   3.103   3.019   1.136  0.2940  0.1352 -0.0063
21365SOL    HW165536   3.173   3.013   1.201 -0.9830 -0.6804  1.3535
21365SOL    HW265537   3.088   3.113   1.126  0.4226  0.2726  0.9882
21366SOL     OW65538   6.812   6.968   4.860  0.4699  0.2618 -0.3619
21366SOL    HW165539   6.800   7.052   4.904 -1.8691 -0.3393  0.3293
21366SOL    HW265540   6.898   6.937   4.889 -0.0273  0.9100  2.0741
21367SOL     OW65541   5.492   1.477  12.040 -0.7681 -0.3452  0.4296
21367SOL    HW165542   5.576   1.521  12.028 -1.1472 -0.0552 -1.6162
21367SOL    HW265543   5.505   1.420  12.115  1.6909 -1.2588 -0.5859
21368SOL     OW65544   1.017   2.198   9.927  0.2250  0.4017 -0.3631
21368SOL    HW165545   0.996   2.141   9.853  0.2272 -1.6174  1.0789
21368SOL    HW265546   1.083   2.258   9.894 -1.0740  0.7957 -2.4615
21369SOL     OW65547   6.093   5.741   2.087  0.2642 -0.2166  0.7192
21369SOL    HW165548   6.161   5.752   2.153 -0.7548 -0.2514  1.8137
21369SOL    HW265549   6.022   5.695   2.132 -0.4652 -0.2547 -0.4056
21370SOL     OW65550   7.739   2.514   6.987  0.6310 -0.0630 -0.7871
21370SOL    HW165551   7.673   2.583   6.996  0.5974 -0.2057  0.1553
21370SOL    HW265552   7.822   2.561   6.982  0.8899  0.0452  2.5153
21371SOL     OW65553   0.474   1.393  11.260 -0.0827 -0.0502  0.0314
21371SOL    HW165554   0.494   1.413  11.352  1.1874  1.1000 -0.4561
21371SOL    HW265555   0.536   1.325  11.236 -0.6180 -0.5696  0.0929
21372SOL     OW65556   5.009   0.100   3.784  0.5132 -0.1261 -0.2314
21372SOL    HW165557   4.977   0.031   3.726  1.1491 -1.6476  1.1665
21372SOL    HW265558   5.104   0.088   3.785  0.6810  1.0662 -0.2991
21373SOL     OW65559   0.885   5.813   1.066 -0.2060 -0.7006 -0.4885
21373SOL    HW165560   0.831   5.864   1.006 -2.3672 -1.9692  0.2754
21373SOL    HW265561   0.852   5.836   1.154  3.0692  1.3452  0.4132
21374SOL     OW65562   4.921   0.589  11.535  0.1832  0.0711 -0.8411
21374SOL    HW165563   4.828   0.608  11.530 -0.1145 -1.3855 -1.4574
21374SOL    HW265564   4.926   0.506  11.582  1.3099  0.9720  0.7431
21375SOL     OW65565   1.027   6.821  11.233 -0.4868  0.6558 -0.0924
21375SOL    HW165566   1.060   6.826  11.323 -1.2461 -0.8650  0.3061
21375SOL    HW265567   1.078   6.887  11.186 -1.1796  2.6555  1.7626
21376SOL     OW65568   6.798   2.879   5.765  0.0991 -0.4360 -0.0567
21376SOL    HW165569   6.808   2.974   5.765  0.8842 -0.4407  2.4150
21376SOL    HW265570   6.886   2.845   5.749  0.3650 -0.6696  1.6762
21377SOL     OW65571   1.475   4.093   8.995  0.2861  0.2210  0.0736
21377SOL    HW165572   1.450   4.027   8.930  1.2409 -0.0742 -0.0079
21377SOL    HW265573   1.518   4.162   8.944 -0.9415  1.0607  0.1241
21378SOL     OW65574   6.884   4.282   6.367  0.3536 -0.1917  0.0966
21378SOL    HW165575   6.846   4.306   6.283 -0.6779 -2.1846 -0.0653
21378SOL    HW265576   6.831   4.329   6.432  0.1794  0.1745 -0.3138
21379SOL     OW65577   3.119   4.062   2.213 -0.1238  0.1733 -0.0676
21379SOL    HW165578   3.188   4.128   2.209 -0.8194  0.8545 -2.3915
21379SOL    HW265579   3.159   3.988   2.259  1.8767  0.8414 -0.6357
21380SOL     OW65580   5.146   0.280   5.343  0.6690  0.0029 -0.1780
21380SOL    HW165581   5.162   0.290   5.249  1.4862 -0.6843 -0.1222
21380SOL    HW265582   5.054   0.255   5.349 -0.4122  3.3612 -0.5617
21381SOL     OW65583   1.230   4.091   2.641  0.7586 -0.0495  0.1110
21381SOL    HW165584   1.271   4.162   2.689  0.8853  1.4200 -2.0149
21381SOL    HW265585   1.291   4.018   2.647  0.4778 -0.1584  2.6131
21382SOL     OW65586   0.619   1.863  11.512  0.3711  0.1871  0.0189
21382SOL    HW165587   0.630   1.943  11.461  1.8559  0.0477  0.0948
21382SOL    HW265588   0.544   1.819  11.471  0.1623  1.1254 -0.6428
21383SOL     OW65589   6.334   6.328   1.591  0.1787  0.2251 -0.5556
21383SOL    HW165590   6.334   6.349   1.685 -0.8143  0.8526 -0.6716
21383SOL    HW265591   6.422   6.350   1.561  0.6432 -0.4014  0.3149
21384SOL     OW65592   5.629   2.945   7.837 -0.2032 -0.1479 -0.0800
21384SOL    HW165593   5.645   3.033   7.872 -2.0752  0.7634 -1.3183
21384SOL    HW265594   5.561   2.908   7.893  0.8469 -1.0116  0.6736
21385SOL     OW65595   6.748   4.406   3.112  0.0320 -0.1241  0.0359
21385SOL    HW165596   6.794   4.333   3.154  0.1618  0.6838  1.3318
21385SOL    HW265597   6.771   4.482   3.164 -1.5821  0.5497 -0.1936
21386SOL     OW65598   4.882   0.110   2.597 -0.9213 -0.0996 -0.2637
21386SOL    HW165599   4.941   0.132   2.525  0.4277  0.7636  1.0506
21386SOL    HW265600   4.795   0.134   2.564 -0.0598  2.7755 -0.7206
21387SOL     OW65601   0.673   6.308   1.035 -0.0532 -0.1023  0.1934
21387SOL    HW165602   0.727   6.385   1.055  0.4645 -0.2532 -0.5638
21387SOL    HW265603   0.603   6.310   1.100 -0.7629  1.7033 -0.5431
21388SOL     OW65604   4.750   4.977  11.503  0.2589  0.0067 -0.0729
21388SOL    HW165605   4.682   4.985  11.570  0.0855 -1.5238 -0.0357
21388SOL    HW265606   4.798   4.898  11.527 -0.5635 -1.2686 -2.4182
21389SOL     OW65607   4.453   2.572   4.496  0.5238 -0.0760  0.3406
21389SOL    HW165608   4.531   2.522   4.470  1.7798  1.2781  1.3459
21389SOL    HW265609   4.477   2.612   4.580 -0.6996  1.6024 -0.0661
21390SOL     OW65610   2.249   4.364   3.353 -0.4437 -0.3437 -0.0371
21390SOL    HW165611   2.157   4.344   3.332 -0.8046  1.4895 -0.4324
21390SOL    HW265612   2.279   4.416   3.279  0.5107  0.1891  0.7017
21391SOL     OW65613   4.759   6.102   8.616  0.1101  0.6031  0.0858
21391SOL    HW165614   4.709   6.044   8.560  0.2185 -0.3852  0.9770
21391SOL    HW265615   4.782   6.176   8.560 -0.5904  0.0992 -0.8906
21392SOL     OW65616   2.560   7.215   5.627 -0.4602 -0.4151  0.0262
21392SOL    HW165617   2.487   7.190   5.684  1.2450 -0.8696  2.1372
21392SOL    HW265618   2.584   7.303   5.656 -0.9882  0.3004 -1.5976
21393SOL     OW65619   1.763   3.326   1.702  0.1421  0.5046  0.3677
21393SOL    HW165620   1.753   3.374   1.620  0.0151 -0.8044 -0.3985
21393SOL    HW265621   1.699   3.255   1.698  2.6800 -1.9632 -0.2063
21394SOL     OW65622   3.969   2.277   1.539 -0.6836 -0.9025 -0.0614
21394SOL    HW165623   3.944   2.217   1.469 -0.1036 -0.0846 -0.9975
21394SOL    HW265624   3.944   2.363   1.506 -1.1381 -0.5718  1.0877
21395SOL     OW65625   3.875   2.474   9.855 -0.1326 -0.2465 -0.1845
21395SOL    HW165626   3.907   2.507   9.939  0.4452  0.1579 -0.5639
21395SOL    HW265627   3.952   2.440   9.811 -0.0743  1.3147 -1.3746
21396SOL     OW65628   6.819   4.011   2.288 -0.3768 -0.0294 -0.2191
21396SOL    HW165629   6.730   4.042   2.271  0.3165  1.5758 -1.1537
21396SOL    HW265630   6.861   4.008   2.202  0.7856  0.2982  0.3062
21397SOL     OW65631   7.487   7.746   6.235 -0.0371  0.1257 -0.2648
21397SOL    HW165632   7.545   7.672   6.219 -0.9548 -1.0688  1.6101
21397SOL    HW265633   7.507   7.774   6.324 -0.8182  1.0966 -0.3779
21398SOL     OW65634   3.191   6.650   7.765  0.0811  0.0597  0.1975
21398SOL    HW165635   3.148   6.713   7.823  2.8612  0.9816  1.4175
21398SOL    HW265636   3.183   6.566   7.810 -0.5467  0.1715  0.3077
21399SOL     OW65637   1.721   6.377  11.634 -0.1219  0.0174 -0.1439
21399SOL    HW165638   1.734   6.306  11.697  1.9729 -0.7820 -1.3478
21399SOL    HW265639   1.739   6.336  11.549 -1.0408  1.5002 -1.0969
21400SOL     OW65640   7.046   5.378  11.656 -0.4093 -0.1392 -0.5742
21400SOL    HW165641   7.031   5.411  11.745 -0.6770  1.8027 -1.2859
21400SOL    HW265642   7.039   5.283  11.664 -1.1091  0.0253  1.3452
21401SOL     OW65643   4.747   4.748   9.792  0.1674 -0.1571  0.8876
21401SOL    HW165644   4.841   4.745   9.779  0.1326  1.3147  0.0582
21401SOL    HW265645   4.725   4.841   9.791 -1.2084 -0.4337  1.7634
21402SOL     OW65646   6.654   2.499   1.375 -0.3207 -0.0995  0.4041
21402SOL    HW165647   6.734   2.550   1.362 -0.2192 -0.1764  0.7377
21402SOL    HW265648   6.653   2.479   1.468 -0.9744  0.3059  0.4897
21403SOL     OW65649   7.825   5.977   3.563 -0.5825 -0.5808 -0.1331
21403SOL    HW165650   7.757   5.947   3.623  1.7530  0.2800  3.2780
21403SOL    HW265651   7.827   6.072   3.574  1.2909 -0.6025  0.1077
21404SOL     OW65652   5.539   0.144   7.855  0.0013 -0.0489 -0.5867
21404SOL    HW165653   5.533   0.179   7.766 -0.2295  1.8238  0.1259
21404SOL    HW265654   5.624   0.099   7.858  0.6173  1.0245 -1.3666
21405SOL     OW65655   0.468   0.252   7.118  0.4222 -0.1612 -0.0573
21405SOL    HW165656   0.466   0.341   7.083 -0.7322 -0.0330  0.3037
21405SOL    HW265657   0.526   0.258   7.194  0.9503  0.1077 -0.4743
21406SOL     OW65658   2.095   0.572  10.430 -0.0904  0.1763  0.6194
21406SOL    HW165659   2.009   0.580  10.388 -0.5156 -2.5076  0.7644
21406SOL    HW265660   2.158   0.584  10.359 -0.6745 -0.2973  0.0105
21407SOL     OW65661   6.361   2.690  11.206  0.1138 -0.0351  0.2676
21407SOL    HW165662   6.304   2.767  11.197  0.7685  0.4473  0.1956
21407SOL    HW265663   6.301   2.619  11.228 -0.5547  0.4103 -0.0558
21408SOL     OW65664   7.601   6.830  11.391  0.6647  0.4488 -0.0374
21408SOL    HW165665   7.514   6.815  11.354  0.5372 -0.1308  0.4783
21408SOL    HW265666   7.595   6.919  11.428  0.2514  0.3641  0.1084
21409SOL     OW65667   0.513   1.009  11.678 -0.2193 -0.3645 -0.3797
21409SOL    HW165668   0.558   1.093  11.673 -0.2531 -0.3566 -0.5427
21409SOL    HW265669   0.420   1.032  11.678 -0.2267 -0.3951 -0.3006
21410SOL     OW65670   2.239   3.432   2.571  0.1466 -0.3073 -0.0393
21410SOL    HW165671   2.279   3.435   2.484  1.3417  1.4709  0.4955
21410SOL    HW265672   2.312   3.413   2.631 -0.5265 -0.8092  0.6458
21411SOL     OW65673   3.073   6.343   1.974 -0.5286  0.0673 -0.4564
21411SOL    HW165674   2.989   6.382   1.999 -0.1829  0.7758 -0.3785
21411SOL    HW265675   3.139   6.395   2.020 -0.0961 -1.3958  0.6737
21412SOL     OW65676   7.266   6.007   8.799  0.2416 -0.1503  0.1600
21412SOL    HW165677   7.343   6.041   8.846  0.9897 -0.2026 -0.9758
21412SOL    HW265678   7.298   5.993   8.710 -1.3897  0.9406 -0.6494
21413SOL     OW65679   2.006   6.225   4.069  0.2372 -0.7763  0.4311
21413SOL    HW165680   2.004   6.319   4.052  0.7758 -0.7557  0.4460
21413SOL    HW265681   1.916   6.201   4.089 -0.0248 -0.3936 -0.2696
21414SOL     OW65682   0.554   1.113   4.765 -0.6168 -0.3521  0.0355
21414SOL    HW165683   0.553   1.035   4.710  0.1355  0.1040 -0.6567
21414SOL    HW265684   0.506   1.088   4.844 -2.1112 -0.8923 -0.9961
21415SOL     OW65685   1.315   1.099   8.514 -0.7087 -0.5181  0.3435
21415SOL    HW165686   1.410   1.109   8.516 -0.7432 -0.1580  0.2575
21415SOL    HW265687   1.285   1.135   8.598 -0.8076 -0.1785  0.1660
21416SOL     OW65688   1.774   6.697   4.345 -0.4882 -0.5892 -0.0142
21416SOL    HW165689   1.794   6.761   4.413 -1.8700  0.7510 -0.7932
21416SOL    HW265690   1.859   6.663   4.317  0.3761  1.6342 -0.2347
21417SOL     OW65691   1.953   5.609   8.826 -0.2115 -0.6446  0.2188
21417SOL    HW165692   1.937   5.591   8.918  0.4321  0.5511  0.5902
21417SOL    HW265693   2.039   5.652   8.824 -1.7706  2.8050 -0.4415
21418SOL     OW65694   1.264   1.462   4.351  0.0913  0.0354  0.1429
21418SOL    HW165695   1.254   1.367   4.358  0.1509  0.0726  0.7481
21418SOL    HW265696   1.237   1.482   4.261 -2.0724 -0.2694  0.6834
21419SOL     OW65697   6.857   1.361   8.414  0.6041 -0.7127 -0.2163
21419SOL    HW165698   6.868   1.273   8.449  0.3250 -0.9585 -0.7336
21419SOL    HW265699   6.856   1.349   8.319  0.2532 -0.1912 -0.2821
21420SOL     OW65700   7.714   1.400   7.723  0.2261  0.3218  0.2561
21420SOL    HW165701   7.768   1.336   7.768  0.4264  0.0791 -0.3240
21420SOL    HW265702   7.682   1.355   7.645 -2.8942 -0.4302  1.8000
21421SOL     OW65703   3.708   6.988   1.882  0.2679 -0.4695 -0.1287
21421SOL    HW165704   3.802   6.967   1.876  0.0514 -1.1312 -1.5946
21421SOL    HW265705   3.699   7.071   1.835 -0.3672 -2.1878 -3.3501
21422SOL     OW65706   0.826   3.868  11.289  0.5033 -0.5462 -0.4706
21422SOL    HW165707   0.738   3.902  11.270  0.4197 -0.1813  0.5259
21422SOL    HW265708   0.863   3.930  11.352  1.0864 -1.2630 -0.0893
21423SOL     OW65709   7.797   4.048   6.224 -0.0521 -0.2933 -0.0331
21423SOL    HW165710   7.871   3.992   6.198  1.1635  0.8184  0.9336
21423SOL    HW265711   7.818   4.134   6.187  0.6484  0.7893  2.6974
21424SOL     OW65712   1.410   3.914   0.722  0.7854  0.6033 -0.1742
21424SOL    HW165713   1.476   3.905   0.790  0.1732  1.5028  0.5742
21424SOL    HW265714   1.457   3.903   0.640  1.7136  0.4478  0.3709
21425SOL     OW65715   5.568   4.807   8.798  0.3179 -0.4110  0.1833
21425SOL    HW165716   5.572   4.900   8.777 -0.7776 -0.4807 -0.4119
21425SOL    HW265717   5.476   4.790   8.819  0.7617 -1.0731  1.7383
21426SOL     OW65718   5.340   7.639  11.027 -0.1637  0.2934 -0.2374
21426SOL    HW165719   5.395   7.618  11.103  0.6155 -0.9281 -1.1096
21426SOL    HW265720   5.274   7.570  11.026  1.1015 -0.9599 -1.8679
21427SOL     OW65721   2.109   7.107   4.702  0.1055 -0.7433  0.3290
21427SOL    HW165722   2.172   7.037   4.719 -1.1803 -1.5792  1.9916
21427SOL    HW265723   2.091   7.101   4.608  3.1622  0.1704 -0.4017
21428SOL     OW65724   3.970   4.323   0.839 -0.1436  0.4437 -0.6283
21428SOL    HW165725   4.057   4.307   0.801  0.1185 -0.6816  0.3650
21428SOL    HW265726   3.921   4.365   0.769  1.2702  1.3100 -1.1452
21429SOL     OW65727   1.899   7.146   7.677  0.3746  0.4593  0.3626
21429SOL    HW165728   1.893   7.239   7.700 -0.0491  0.0706  2.0032
21429SOL    HW265729   1.809   7.121   7.657  0.2874  0.1553  1.0850
21430SOL     OW65730   5.892   5.616   2.272 -0.2245 -0.0610  0.7214
21430SOL    HW165731   5.854   5.695   2.310 -1.6666 -1.2020  1.7616
21430SOL    HW265732   5.826   5.584   2.211  1.4527  0.9245 -1.7402
21431SOL     OW65733   7.965   1.921   4.096  0.3266  0.1117 -0.0497
21431SOL    HW165734   8.008   1.836   4.081  1.2528  0.6986 -0.8187
21431SOL    HW265735   7.973   1.935   4.191  1.1380 -0.1634 -0.0676
21432SOL     OW65736   1.446   6.926   2.166 -0.4260 -0.9597 -0.1809
21432SOL    HW165737   1.449   6.998   2.103 -0.1531  0.7876  1.7361
21432SOL    HW265738   1.414   6.852   2.115 -2.0953  0.8308 -1.9381
21433SOL     OW65739   3.352   1.439   2.388  0.2982 -0.3205  0.0084
21433SOL    HW165740   3.421   1.412   2.328 -0.7419  0.5198 -1.6549
21433SOL    HW265741   3.281   1.470   2.331 -2.9074 -4.1711  1.3901
21434SOL     OW65742   5.022   6.349   6.267 -0.3174  0.5390  0.1956
21434SOL    HW165743   4.958   6.287   6.304 -0.0074  0.3979  0.5065
21434SOL    HW265744   5.049   6.309   6.184  0.6186 -0.2557  0.8555
21435SOL     OW65745   2.518   7.035   0.286 -0.3729 -0.2942  0.4518
21435SOL    HW165746   2.539   7.128   0.294 -2.2998  0.2812 -0.6437
21435SOL    HW265747   2.553   6.996   0.367  1.2278  1.1927  0.5412
21436SOL     OW65748   3.929   3.781   6.213 -0.1421  0.5071 -0.0498
21436SOL    HW165749   4.009   3.826   6.237  0.7138 -0.9474 -0.0264
21436SOL    HW265750   3.894   3.748   6.295  0.1791 -0.3295 -0.2373
21437SOL     OW65751   3.629   3.562   2.494 -0.4069  0.2190 -0.2395
21437SOL    HW165752   3.708   3.611   2.472 -1.6947  2.4182 -0.2589
21437SOL    HW265753   3.645   3.526   2.581  1.3380 -1.0926 -1.0418
21438SOL     OW65754   6.237   1.614   2.146 -0.4274 -0.1706 -0.1644
21438SOL    HW165755   6.145   1.593   2.127 -0.4963 -0.0318  0.0115
21438SOL    HW265756   6.251   1.699   2.104 -0.9735  0.8065  1.5132
21439SOL     OW65757   7.845   1.830   6.038  0.0113  0.2488  0.9791
21439SOL    HW165758   7.881   1.857   6.122  1.5585  1.2582  0.0457
21439SOL    HW265759   7.899   1.875   5.973 -1.9035  0.4524 -0.5601
21440SOL     OW65760   1.008   4.861   3.462  0.4250  0.2231 -0.1510
21440SOL    HW165761   1.080   4.801   3.444  1.5427  0.1885  3.5713
21440SOL    HW265762   0.929   4.807   3.456  1.1422 -0.8927  0.2748
21441SOL     OW65763   1.622   1.500   0.133 -0.4125  0.0235  0.4778
21441SOL    HW165764   1.666   1.560   0.073 -0.0257  0.3597  1.0873
21441SOL    HW265765   1.606   1.552   0.212 -0.7722 -0.4561  0.7259
21442SOL     OW65766   7.907   1.952   2.382 -0.4298 -0.2599 -0.0564
21442SOL    HW165767   8.000   1.956   2.406 -0.1239 -0.9969 -1.0237
21442SOL    HW265768   7.907   1.946   2.286 -1.5514  1.3150 -0.1985
21443SOL     OW65769   0.074   6.167   6.862  0.5771 -0.4193  0.0408
21443SOL    HW165770   0.082   6.210   6.777  2.3016  1.4536  1.0590
21443SOL    HW265771  -0.004   6.112   6.854  0.2175  0.3293 -2.4540
21444SOL     OW65772   0.785   3.898   2.690  0.1809 -0.0784 -0.0164
21444SOL    HW165773   0.759   3.934   2.775  0.2243  1.6269 -0.6792
21444SOL    HW265774   0.707   3.852   2.658 -0.4299  0.7861  0.1844
21445SOL     OW65775   4.451   1.252  12.363 -0.1194  0.2106 -0.0464
21445SOL    HW165776   4.468   1.257  12.269 -0.8260 -0.3209 -0.2129
21445SOL    HW265777   4.499   1.326  12.400  1.5919 -0.5774 -0.5997
21446SOL     OW65778   5.731   2.824   3.925 -0.3456  0.2740 -0.4674
21446SOL    HW165779   5.709   2.844   3.834 -2.0698 -1.5332 -0.5075
21446SOL    HW265780   5.677   2.884   3.977 -0.6027  0.1761 -0.6210
21447SOL     OW65781   2.359   0.915   8.884 -0.4416 -0.0291  0.0482
21447SOL    HW165782   2.420   0.988   8.894  0.9332 -1.3645  2.3405
21447SOL    HW265783   2.322   0.902   8.971 -1.7583 -1.1728 -0.6340
21448SOL     OW65784   5.806   6.487   2.626  0.7547  0.1904  0.1344
21448SOL    HW165785   5.757   6.521   2.701  1.3911  0.3656  0.4737
21448SOL    HW265786   5.790   6.551   2.557  0.0925 -0.0187  0.0831
21449SOL     OW65787   5.872   7.982   0.113 -0.0539  0.2328 -0.1690
21449SOL    HW165788   5.880   7.893   0.147 -1.4813 -0.3712 -1.2983
21449SOL    HW265789   5.842   8.033   0.187  0.3066 -0.3198  0.3691
21450SOL     OW65790   4.494   0.874   5.008 -0.2117  0.0491  0.7669
21450SOL    HW165791   4.404   0.889   5.037 -0.9660  0.2441 -1.4753
21450SOL    HW265792   4.495   0.783   4.979  0.9341 -0.6025  2.7415
21451SOL     OW65793   0.727   7.500  11.659  0.1942  0.5067 -0.2923
21451SOL    HW165794   0.744   7.548  11.740 -0.5407  0.0470  0.1491
21451SOL    HW265795   0.662   7.434  11.683 -1.2413  1.3602 -1.5732
21452SOL     OW65796   1.400   1.458  10.385 -0.1537 -0.0480  0.4827
21452SOL    HW165797   1.477   1.510  10.408 -0.9748  1.6164 -0.3139
21452SOL    HW265798   1.415   1.372  10.425  3.4832 -0.8030 -2.0531
21453SOL     OW65799   1.442   5.631   8.060 -0.1337 -0.0238 -0.3420
21453SOL    HW165800   1.412   5.557   8.008  0.7310  0.1542 -1.1152
21453SOL    HW265801   1.537   5.626   8.057 -0.0638  1.0658 -0.3500
21454SOL     OW65802   0.045   6.778   4.988 -0.5686 -0.6238  0.5084
21454SOL    HW165803   0.053   6.754   5.081  0.0298  0.0590  0.6378
21454SOL    HW265804   0.104   6.852   4.977 -3.7979  2.1982  0.5923
21455SOL     OW65805   4.330   7.586   7.449  0.0573 -0.5440  0.2313
21455SOL    HW165806   4.310   7.624   7.534  2.4757 -0.8810  1.0337
21455SOL    HW265807   4.327   7.661   7.388  1.3964  0.3370  1.1901
21456SOL     OW65808   0.401   2.450   9.186  0.0750  0.3714  0.1820
21456SOL    HW165809   0.388   2.442   9.091  0.7091 -0.0735  0.1233
21456SOL    HW265810   0.386   2.543   9.205 -0.2829  0.4198 -0.3118
21457SOL     OW65811   5.988   4.071  10.797 -0.3974  0.3962  0.0946
21457SOL    HW165812   6.022   4.009  10.862  0.2698 -0.3444 -0.9335
21457SOL    HW265813   5.959   4.016  10.724 -0.4864  1.2609 -0.5391
21458SOL     OW65814   6.672   4.379   1.097  0.0321 -0.0461  0.6139
21458SOL    HW165815   6.662   4.303   1.040  2.0863 -0.5664  0.8354
21458SOL    HW265816   6.686   4.341   1.184  1.3954  0.5357  0.6710
21459SOL     OW65817   7.277   0.528   0.432  0.0469 -0.0295  0.0169
21459SOL    HW165818   7.265   0.563   0.520  1.4200 -1.7352  0.9409
21459SOL    HW265819   7.198   0.554   0.385 -1.3557 -0.1974  2.1347
21460SOL     OW65820   4.189   0.006  10.628  0.1315  0.5480 -0.1292
21460SOL    HW165821   4.274   0.011  10.584 -0.1529 -0.2340 -0.7931
21460SOL    HW265822   4.137  -0.051  10.572 -0.8928  1.1529  0.1883
21461SOL     OW65823   1.256   0.410   2.201 -0.2296 -0.3267 -0.2274
21461SOL    HW165824   1.197   0.483   2.181 -0.0647  0.3236  1.4543
21461SOL    HW265825   1.342   0.450   2.212  0.2785 -1.0814 -1.2719
21462SOL     OW65826   6.494   4.088   9.223  0.0354  0.0370  0.1133
21462SOL    HW165827   6.557   4.143   9.177 -0.3689 -0.7814 -1.4948
21462SOL    HW265828   6.511   3.999   9.190 -0.8862 -0.4368  0.8648
21463SOL     OW65829   4.420   6.100   3.702  0.3646 -0.1832  0.4555
21463SOL    HW165830   4.333   6.138   3.691 -1.3519 -3.8370 -0.1861
21463SOL    HW265831   4.426   6.082   3.796 -0.5001 -1.6407  0.2749
21464SOL     OW65832   5.155   4.361  11.756  0.2947  0.4948 -0.0006
21464SOL    HW165833   5.134   4.268  11.746  1.4513  0.3530 -1.4092
21464SOL    HW265834   5.086   4.395  11.814 -1.9259 -0.5820 -1.8327
21465SOL     OW65835   7.694   4.220   0.490  0.1155 -0.2132 -0.5187
21465SOL    HW165836   7.651   4.300   0.461  2.6561  1.3479 -0.2473
21465SOL    HW265837   7.633   4.183   0.554 -0.7941  1.9431 -0.0403
21466SOL     OW65838   3.638   7.934   1.864 -0.1230 -0.0428  0.4348
21466SOL    HW165839   3.601   7.886   1.791  0.9917 -1.8611  1.0065
21466SOL    HW265840   3.677   8.012   1.824 -1.4174  0.1062 -0.5957
21467SOL     OW65841   3.260   6.539   3.963 -0.2056  0.3427 -0.0421
21467SOL    HW165842   3.242   6.467   3.902 -0.3300 -0.4840  0.9383
21467SOL    HW265843   3.335   6.509   4.014  0.7129  1.5756 -0.6366
21468SOL     OW65844   0.237   6.178   7.965  0.8532  0.2516  0.4806
21468SOL    HW165845   0.254   6.092   7.927 -0.2488 -0.3514  1.2991
21468SOL    HW265846   0.252   6.240   7.893 -0.3977 -0.7840 -0.7139
21469SOL     OW65847   1.644   4.297   2.344  0.4594 -0.8617  0.4892
21469SOL    HW165848   1.720   4.336   2.387  1.2310 -3.1371  1.3858
21469SOL    HW265849   1.671   4.285   2.253 -0.8739  3.2022 -0.6278
21470SOL     OW65850   4.796   0.430   3.782  0.5729  0.0810 -0.0411
21470SOL    HW165851   4.772   0.493   3.713  1.5524  0.3756 -0.1302
21470SOL    HW265852   4.821   0.351   3.734 -0.5502 -0.3643  0.0670
21471SOL     OW65853   4.242   7.325  10.899 -0.2513  0.0453 -0.3232
21471SOL    HW165854   4.268   7.402  10.949 -1.4968 -0.4441  1.1715
21471SOL    HW265855   4.150   7.341  10.876 -0.7236 -1.2312  0.5569
21472SOL     OW65856   0.533   4.688  10.399  0.0123 -0.2382  0.3709
21472SOL    HW165857   0.482   4.727  10.470 -1.0508 -1.0139  0.0649
21472SOL    HW265858   0.467   4.653  10.339  0.7893  2.0704 -2.0117
21473SOL     OW65859   0.284   4.026   1.187 -0.1475 -0.1915  0.4826
21473SOL    HW165860   0.245   4.019   1.100 -1.3385 -0.1920  1.0003
21473SOL    HW265861   0.359   3.967   1.184 -0.4726 -0.5795 -0.3812
21474SOL     OW65862   5.262   5.300   1.281 -0.3942 -0.1999 -0.0717
21474SOL    HW165863   5.222   5.214   1.267 -1.9757  0.6370 -1.0459
21474SOL    HW265864   5.231   5.327   1.368  1.8026 -1.4417  1.1709
21475SOL     OW65865   5.948   1.699   7.076 -0.4461 -0.2061  0.4589
21475SOL    HW165866   5.877   1.730   7.133  1.2722  1.8929  1.6374
21475SOL    HW265867   5.939   1.752   6.997 -0.2471  0.0126  0.5813
21476SOL     OW65868   2.502   2.681   5.245  0.0618  0.0861  0.4458
21476SOL    HW165869   2.533   2.591   5.233  0.2609  0.4245 -2.2424
21476SOL    HW265870   2.412   2.679   5.213 -0.0572  0.7789  0.7177
21477SOL     OW65871   4.021   0.735   9.943  0.3597 -0.3460 -0.8671
21477SOL    HW165872   4.093   0.737  10.005 -0.8416  0.8232  0.5365
21477SOL    HW265873   3.961   0.669   9.978 -0.5071  0.5908 -0.5516
21478SOL     OW65874   4.562   5.985  10.770 -0.3697 -0.3269 -0.0679
21478SOL    HW165875   4.550   6.009  10.678 -0.5033 -2.4879 -0.6802
21478SOL    HW265876   4.551   5.890  10.771 -0.1294 -0.3797  2.1610
21479SOL     OW65877   1.062   0.582  10.798 -0.4696  0.0097  0.6838
21479SOL    HW165878   1.058   0.654  10.734  1.4959  0.4549  1.0036
21479SOL    HW265879   0.985   0.596  10.854 -0.4558  1.5463  0.3740
21480SOL     OW65880   7.398   4.308   1.831  0.2566 -0.4482  0.3297
21480SOL    HW165881   7.369   4.253   1.903 -1.0081  0.4889  0.5804
21480SOL    HW265882   7.455   4.252   1.779  0.5784 -1.3762  1.6293
21481SOL     OW65883   2.244   3.648   4.926 -0.2791 -0.7878 -0.3029
21481SOL    HW165884   2.335   3.641   4.898 -0.2404 -0.4349 -0.2733
21481SOL    HW265885   2.244   3.621   5.017  0.1559  1.1349  0.3155
21482SOL     OW65886   7.970   5.718   3.526  0.1887 -0.1541 -0.2216
21482SOL    HW165887   7.937   5.796   3.571 -0.8064  0.1415 -1.4334
21482SOL    HW265888   7.955   5.646   3.589  0.5372  0.5187  0.6491
21483SOL     OW65889   2.697   5.852   2.519  0.1057 -0.6607 -0.5453
21483SOL    HW165890   2.783   5.814   2.538  0.8587 -0.1020 -2.5588
21483SOL    HW265891   2.716   5.942   2.492 -1.1213 -0.4809 -0.8677
21484SOL     OW65892   0.427   7.851  12.047  0.6288 -0.5857  0.2635
21484SOL    HW165893   0.415   7.765  12.005 -0.5819 -0.3043 -0.0108
21484SOL    HW265894   0.338   7.882  12.062  1.0331  1.1686 -0.7486
21485SOL     OW65895   4.683   6.801   6.206 -0.4876  0.0806 -0.0542
21485SOL    HW165896   4.720   6.852   6.278 -0.7717 -0.9354  0.8461
21485SOL    HW265897   4.618   6.745   6.248 -1.1546 -0.0489 -1.2196
21486SOL     OW65898   1.130   3.475  10.089 -0.2772  0.2059  0.5292
21486SOL    HW165899   1.074   3.402  10.114 -1.1439  1.2467  1.7280
21486SOL    HW265900   1.180   3.496  10.168  2.3512 -1.0988 -0.6647
21487SOL     OW65901   3.023   7.205   2.294 -0.4333 -0.0409  0.6847
21487SOL    HW165902   2.961   7.240   2.230 -1.3948 -1.3132  0.8852
21487SOL    HW265903   2.970   7.152   2.353  0.7031 -0.3338  1.4846
21488SOL     OW65904   6.942   5.131   4.347 -0.0313 -0.2001  0.4907
21488SOL    HW165905   6.898   5.056   4.307 -1.0227  0.5174  0.2081
21488SOL    HW265906   7.026   5.096   4.377  0.1976 -1.0842 -1.0346
21489SOL     OW65907   1.225   0.195   5.626  0.4275  0.7295 -1.2584
21489SOL    HW165908   1.181   0.122   5.669  1.5471  1.0705  0.5826
21489SOL    HW265909   1.156   0.260   5.613 -0.1103  0.2850 -0.7207
21490SOL     OW65910   4.072   1.292   3.100  0.3857  0.2577 -0.1573
21490SOL    HW165911   4.100   1.237   3.026  0.8410  0.6514 -0.2839
21490SOL    HW265912   4.032   1.369   3.059 -3.6324 -1.5184 -0.0530
21491SOL     OW65913   6.301   4.893   4.414 -0.6163  0.8005 -0.1659
21491SOL    HW165914   6.230   4.839   4.447  0.6663 -0.1661  1.1434
21491SOL    HW265915   6.379   4.859   4.458  0.7440  1.4743 -1.9390
21492SOL     OW65916   6.699   0.037   1.962  0.4111  0.0380 -0.7500
21492SOL    HW165917   6.750  -0.015   2.024  1.0510 -0.1036 -1.3736
21492SOL    HW265918   6.721  -0.000   1.876  0.5834  1.0771 -1.1727
21493SOL     OW65919   5.208   7.239  11.712 -0.0258  0.9221  0.3896
21493SOL    HW165920   5.216   7.264  11.804  0.6667  1.6421  0.1495
21493SOL    HW265921   5.174   7.150  11.714  0.4326  0.7552  1.3525
21494SOL     OW65922   5.169   7.219   4.896 -0.4726  0.1317  0.6360
21494SOL    HW165923   5.176   7.313   4.912  1.7112 -0.2504  2.5248
21494SOL    HW265924   5.161   7.180   4.983 -1.4384 -1.4587 -0.1111
21495SOL     OW65925   5.682   3.917   3.005  0.1098  0.2123 -0.7552
21495SOL    HW165926   5.734   3.851   2.959  0.9818  1.3343 -1.4198
21495SOL    HW265927   5.721   3.922   3.092 -0.2927 -0.5166 -0.5294
21496SOL     OW65928   0.344   4.766   2.656 -0.0974 -0.6341  0.0889
21496SOL    HW165929   0.385   4.743   2.572 -0.7428 -0.6415 -0.2270
21496SOL    HW265930   0.418   4.787   2.713  0.4697 -2.2793  0.0282
21497SOL     OW65931   4.382   4.998   7.009 -0.1275  0.8176  0.0672
21497SOL    HW165932   4.386   4.908   6.978  0.0283  1.0109 -0.4933
21497SOL    HW265933   4.409   5.050   6.933  0.2423  1.3047  0.5284
21498SOL     OW65934   5.569   6.714  10.336 -0.0257  0.0745  0.2805
21498SOL    HW165935   5.506   6.644  10.322  0.0926 -0.1248  0.7447
21498SOL    HW265936   5.557   6.740  10.428  0.4991  0.1008  0.3432
21499SOL     OW65937   7.447   5.237   3.937 -0.3909 -0.5705 -0.3824
21499SOL    HW165938   7.513   5.288   3.890 -0.0166 -0.8270 -0.1431
21499SOL    HW265939   7.378   5.222   3.872 -0.4842  0.1983 -0.4615
21500SOL     OW65940   3.281   5.558   2.529  0.1576  0.0955 -0.3231
21500SOL    HW165941   3.294   5.464   2.540 -1.7873 -0.0581  1.4405
21500SOL    HW265942   3.364   5.597   2.556  0.4584 -1.0792  0.5451
21501SOL     OW65943   4.149   0.971   5.738 -0.0647 -0.6271 -0.2226
21501SOL    HW165944   4.109   0.997   5.821  1.4751 -0.9873  0.6784
21501SOL    HW265945   4.160   1.053   5.690  0.3508 -0.2191  0.5485
21502SOL     OW65946   3.311   4.899   6.120 -0.2972 -0.0649  0.1866
21502SOL    HW165947   3.261   4.853   6.188 -0.0098 -0.4080  0.1710
21502SOL    HW265948   3.312   4.990   6.148 -0.6820 -0.1038  0.3392
21503SOL     OW65949   0.473   6.479  11.795  0.1167 -0.0820  0.4047
21503SOL    HW165950   0.465   6.440  11.708  0.8720 -1.2706  0.8496
21503SOL    HW265951   0.383   6.500  11.820 -0.0130  1.4855 -1.1699
21504SOL     OW65952   1.018   6.380   3.808  0.0610  0.3386  0.5282
21504SOL    HW165953   0.977   6.456   3.848  1.3001  1.6518 -0.6211
21504SOL    HW265954   1.010   6.393   3.714  2.3189  0.2542  0.2626
21505SOL     OW65955   4.703   2.313  11.094  0.6488 -0.2037 -0.0662
21505SOL    HW165956   4.629   2.251  11.090  1.0865 -0.8565  1.3066
21505SOL    HW265957   4.757   2.290  11.019 -0.1336 -0.2463 -0.6345
21506SOL     OW65958   2.432   2.799   7.686 -0.1660 -0.0151 -0.4537
21506SOL    HW165959   2.511   2.746   7.676 -1.0259 -1.2728 -0.8481
21506SOL    HW265960   2.386   2.760   7.761  0.1159  1.4174  0.4943
21507SOL     OW65961   4.494   4.190   0.736  0.1184 -0.2265 -0.0708
21507SOL    HW165962   4.493   4.096   0.718  0.3480 -0.6233  1.8281
21507SOL    HW265963   4.534   4.229   0.658  2.0260 -1.9192 -0.0126
21508SOL     OW65964   7.351   5.868   9.095 -0.2302 -0.4246  0.6765
21508SOL    HW165965   7.438   5.885   9.058 -1.1931  1.0192 -1.0620
21508SOL    HW265966   7.297   5.842   9.021 -2.0901  1.9866  1.0486
21509SOL     OW65967   1.669   6.742   2.554  0.3774  0.2663  0.2597
21509SOL    HW165968   1.685   6.784   2.470  0.9299 -0.4010  0.0276
21509SOL    HW265969   1.755   6.715   2.585  0.0951 -0.1833  0.6771
21510SOL     OW65970   0.208   7.389  10.039 -0.1867 -0.0133 -0.3186
21510SOL    HW165971   0.271   7.380  10.111  0.3872  0.5671 -0.7310
21510SOL    HW265972   0.195   7.300  10.008  1.4528 -0.0378 -1.0615
21511SOL     OW65973   3.035   7.006   6.469 -0.2911 -0.2873  0.5657
21511SOL    HW165974   2.983   6.949   6.412 -3.1573  1.1116  1.5770
21511SOL    HW265975   3.049   7.085   6.417 -0.3024 -0.1705  0.7408
21512SOL     OW65976   4.584   6.513   9.333 -0.2623 -0.2698 -0.0992
21512SOL    HW165977   4.498   6.499   9.294  0.0700 -1.3238 -0.5031
21512SOL    HW265978   4.646   6.484   9.266  0.3244 -2.1701  1.1612
21513SOL     OW65979   1.140   6.008   2.008  0.0038  0.9797  0.4166
21513SOL    HW165980   1.180   5.994   1.923  1.7966  1.9385  1.0569
21513SOL    HW265981   1.062   5.953   2.007  0.7565 -0.1317 -1.2898
21514SOL     OW65982   0.835   0.037   1.205  0.1059  0.4006  0.5817
21514SOL    HW165983   0.906  -0.019   1.173 -1.2366 -1.3154  0.4175
21514SOL    HW265984   0.864   0.064   1.292  0.1625 -1.9320  1.3797
21515SOL     OW65985   5.380   5.314   1.949 -0.0886 -0.4142 -0.2859
21515SOL    HW165986   5.409   5.236   1.996 -1.6982 -0.2495  1.0870
21515SOL    HW265987   5.460   5.366   1.937  0.3620 -0.1590  2.9080
21516SOL     OW65988   4.601   3.100   6.877  0.3542 -0.5769 -0.1451
21516SOL    HW165989   4.608   3.098   6.972 -2.1105 -2.2756  0.0948
21516SOL    HW265990   4.516   3.142   6.860  0.9894  0.1679 -1.6231
21517SOL     OW65991   4.916   2.614   6.422 -0.0799  0.0896 -0.3674
21517SOL    HW165992   4.883   2.653   6.341  0.6502  0.7731 -0.3439
21517SOL    HW265993   4.933   2.689   6.480  1.4062 -0.2235 -0.3471
21518SOL     OW65994   7.382   2.352   0.956  0.0856 -0.4699 -0.0064
21518SOL    HW165995   7.459   2.366   0.902 -0.7184 -1.8109 -1.5996
21518SOL    HW265996   7.395   2.408   1.032  1.2337  1.6029 -1.6219
21519SOL     OW65997   7.177   7.747   7.305  0.4622 -0.8417  0.0737
21519SOL    HW165998   7.264   7.731   7.341  0.1426 -0.7350  0.9157
21519SOL    HW265999   7.117   7.721   7.374 -0.2330 -2.3500 -1.0366
21520SOL     OW66000   0.861   6.955   7.052 -0.3907 -0.2478 -0.7442
21520SOL    HW166001   0.798   7.026   7.037 -1.2293 -1.4639 -3.6551
21520SOL    HW266002   0.941   6.985   7.008  0.2861  0.1784  0.7209
21521SOL     OW66003   1.759   0.208  11.700  0.5461  0.6074  0.5840
21521SOL    HW166004   1.673   0.172  11.719  0.6221  0.6783  1.0742
21521SOL    HW266005   1.816   0.131  11.696  0.5774  0.6122  0.9127
21522SOL     OW66006   1.244   3.055   0.005 -0.0210 -0.0058  0.0274
21522SOL    HW166007   1.253   3.123   0.071 -1.8107 -1.4042  1.8332
21522SOL    HW266008   1.173   3.086  -0.052  0.5429  0.5391 -0.3902
21523SOL     OW66009   6.947   0.943   6.485  1.0211  0.4863  0.1194
21523SOL    HW166010   7.017   0.928   6.422  0.5456  2.4137 -0.9657
21523SOL    HW266011   6.910   0.856   6.501  2.2490 -0.2769 -0.9585
21524SOL     OW66012   3.763   0.381   8.896  0.0330  0.3066  0.6876
21524SOL    HW166013   3.768   0.455   8.957  1.4424  0.6348  0.2018
21524SOL    HW266014   3.693   0.405   8.835  0.9558  1.6109  0.0939
21525SOL     OW66015   0.656   6.786   0.123  0.4962  0.5473 -0.2098
21525SOL    HW166016   0.692   6.701   0.100 -0.4008  0.2341 -0.5170
21525SOL    HW266017   0.690   6.803   0.211  1.8043  0.5265 -0.6952
21526SOL     OW66018   5.527   3.720  10.999 -0.4075 -0.1246  0.1308
21526SOL    HW166019   5.528   3.626  11.018  0.4200 -0.0516  0.4760
21526SOL    HW266020   5.613   3.737  10.959  0.1282  0.7923  1.6105
21527SOL     OW66021   1.636   5.908   5.608 -0.3797 -0.4124 -0.1811
21527SOL    HW166022   1.673   5.863   5.532  0.4600 -4.4628  2.3396
21527SOL    HW266023   1.553   5.943   5.576 -0.1389 -2.0229 -2.9212
21528SOL     OW66024   1.869   4.082  11.995  0.3742  0.0001 -0.0685
21528SOL    HW166025   1.787   4.055  12.036  0.8981  0.0761  1.0664
21528SOL    HW266026   1.856   4.173  11.971  0.2590  0.1313  0.4800
21529SOL     OW66027   4.540   5.465  11.321  0.6463  0.8979  0.3155
21529SOL    HW166028   4.478   5.408  11.367  1.5835  0.9995  1.7959
21529SOL    HW266029   4.611   5.406  11.294  0.9530  1.1301  0.6079
21530SOL     OW66030   2.183   5.239   5.641  0.5379  0.1467 -0.1182
21530SOL    HW166031   2.212   5.238   5.549  1.9030 -1.3993  0.2839
21530SOL    HW266032   2.101   5.191   5.641  0.0408  0.9651 -0.6484
21531SOL     OW66033   0.178   6.686   9.082 -0.3055  0.4950 -0.0648
21531SOL    HW166034   0.244   6.752   9.062 -0.4262  0.6004 -0.1138
21531SOL    HW266035   0.210   6.606   9.040 -0.5483  0.7116 -0.6694
21532SOL     OW66036   1.928   1.665  11.075  0.8367  0.4843  0.1592
21532SOL    HW166037   2.001   1.617  11.036  1.1921  1.4122 -0.3625
21532SOL    HW266038   1.867   1.679  11.002  0.0723 -0.3665  0.6097
21533SOL     OW66039   3.086   2.251   3.062  0.6664 -0.8243 -0.1352
21533SOL    HW166040   3.181   2.249   3.063  0.6739 -2.6085 -0.9862
21533SOL    HW266041   3.060   2.180   3.122 -0.1593  0.1188  0.6717
21534SOL     OW66042   5.048   3.253   6.633 -0.1000  0.2671  0.3941
21534SOL    HW166043   5.080   3.214   6.715  0.7782  0.0844 -0.0249
21534SOL    HW266044   4.990   3.324   6.661  0.0576  0.0952  1.1732
21535SOL     OW66045   6.260   4.317  10.086  0.3141 -0.1241  0.0006
21535SOL    HW166046   6.250   4.382  10.017 -1.0480 -1.0601 -0.7069
21535SOL    HW266047   6.171   4.296  10.114  0.8056 -0.2377  1.6132
21536SOL     OW66048   4.207   0.282  10.347  0.3079  0.3552 -0.4857
21536SOL    HW166049   4.157   0.363  10.346 -0.8349 -0.2769  0.9463
21536SOL    HW266050   4.141   0.213  10.335  0.9423 -0.4556  0.5096
21537SOL     OW66051   3.328   7.147   8.557 -0.6458 -0.4108 -0.1953
21537SOL    HW166052   3.313   7.091   8.633 -1.8842 -0.4999 -0.4852
21537SOL    HW266053   3.386   7.096   8.501 -0.3159 -0.6428  0.3433
21538SOL     OW66054   5.465   6.045   5.567  0.4331 -0.4553 -0.2695
21538SOL    HW166055   5.472   6.113   5.501  0.7903 -0.6240 -0.4087
21538SOL    HW266056   5.373   6.019   5.566  0.0630  0.7423  0.5056
21539SOL     OW66057   4.206   3.324  12.090 -0.1754  0.6274 -0.7004
21539SOL    HW166058   4.260   3.248  12.067  1.9536  2.4808 -2.3144
21539SOL    HW266059   4.143   3.330  12.018  0.6812  1.2314 -1.4340
21540SOL     OW66060   4.407   6.493   7.648 -0.4805  0.0443 -0.3542
21540SOL    HW166061   4.333   6.502   7.587 -0.7662  1.4971  0.1593
21540SOL    HW266062   4.417   6.581   7.686  1.4643 -0.1331 -0.3554
21541SOL     OW66063   0.527   0.005   6.971  0.4027 -0.5879  0.3112
21541SOL    HW166064   0.524   0.090   7.014  1.2602 -0.9091  1.0516
21541SOL    HW266065   0.455   0.006   6.909  0.2997  0.6084  0.4366
21542SOL     OW66066   4.134   7.806   4.616  0.2130  0.5594 -0.5220
21542SOL    HW166067   4.040   7.802   4.599  0.2135  0.6534 -0.5477
21542SOL    HW266068   4.152   7.728   4.668 -0.0703  1.0831  0.3934
21543SOL     OW66069   6.671   3.281   9.938  0.1101 -0.1478  0.5525
21543SOL    HW166070   6.651   3.357   9.992 -1.7258  1.4019 -2.0896
21543SOL    HW266071   6.714   3.317   9.861  0.2878 -1.9624 -0.2395
21544SOL     OW66072   0.026   0.575   6.339  0.2382 -0.2918 -0.3217
21544SOL    HW166073  -0.016   0.580   6.254 -0.2642 -0.2233 -0.0717
21544SOL    HW266074   0.015   0.662   6.377  0.2637 -0.3835 -0.0973
21545SOL     OW66075   5.762   3.583   0.966  0.4251  0.3785 -0.3794
21545SOL    HW166076   5.760   3.626   1.052 -0.4785  1.4544 -0.9033
21545SOL    HW266077   5.855   3.565   0.950  0.6516  0.6016  0.6094
21546SOL     OW66078   4.671   3.052  10.186  0.3718  0.4192  0.1475
21546SOL    HW166079   4.678   2.965  10.146 -0.1140  0.4427  0.0107
21546SOL    HW266080   4.698   3.112  10.116 -0.9072  0.4916 -0.3012
21547SOL     OW66081   2.796   1.155   0.625 -0.1439  0.1837 -0.4589
21547SOL    HW166082   2.857   1.226   0.605  0.9974 -1.4167 -3.2063
21547SOL    HW266083   2.742   1.147   0.546 -1.2307 -1.0290  0.3695
21548SOL     OW66084   5.085   2.031   2.246 -0.6130  0.0293 -0.8023
21548SOL    HW166085   5.033   2.018   2.326  0.5112  1.6001  0.2473
21548SOL    HW266086   5.033   1.990   2.177 -3.6475  2.1192  0.0323
21549SOL     OW66087   7.585   4.557  12.134  0.2012  0.4206  0.1314
21549SOL    HW166088   7.530   4.607  12.194  1.5041  1.8469  0.1899
21549SOL    HW266089   7.538   4.474  12.122 -1.0571  0.8812  1.5547
21550SOL     OW66090   0.567   5.574   4.131 -0.3911 -0.1640  0.0938
21550SOL    HW166091   0.630   5.604   4.197 -0.0595 -1.9092  0.6317
21550SOL    HW266092   0.496   5.639   4.135  0.4310  0.7298  0.9167
21551SOL     OW66093   3.285   4.120   6.531  0.1353  0.0636  0.1895
21551SOL    HW166094   3.375   4.088   6.545 -0.0105  0.4382  2.2861
21551SOL    HW266095   3.235   4.042   6.509  1.0418 -0.0768 -1.5656
21552SOL     OW66096   2.567   2.579   9.887  0.7562  0.1581  0.5155
21552SOL    HW166097   2.628   2.589   9.814  0.5102 -0.1562  0.2644
21552SOL    HW266098   2.564   2.484   9.902  2.2855  0.3035  2.1904
21553SOL     OW66099   6.268   3.585   5.760 -0.1345 -0.0702 -0.1600
21553SOL    HW166100   6.343   3.580   5.818 -0.7683 -2.3310  0.5763
21553SOL    HW266101   6.267   3.501   5.714 -1.5444  0.3610 -1.0050
21554SOL     OW66102   2.301   0.186   2.113 -0.0512  1.0118 -0.1655
21554SOL    HW166103   2.209   0.164   2.105  0.0633  0.6868 -0.6312
21554SOL    HW266104   2.335   0.183   2.024  0.3115  1.5887 -0.0536
21555SOL     OW66105   0.356   2.422   4.577  0.0424  0.8916 -0.3677
21555SOL    HW166106   0.419   2.392   4.511  2.0649 -1.3204  2.3293
21555SOL    HW266107   0.402   2.491   4.625  0.0945 -0.0962  1.0442
21556SOL     OW66108   6.939   4.014   3.481  0.6202  0.6825 -0.0844
21556SOL    HW166109   6.921   4.051   3.567  1.9749  0.1025  0.4831
21556SOL    HW266110   7.029   4.042   3.461  0.8797 -0.4623 -0.6116
21557SOL     OW66111   6.270   3.147   0.165 -0.5149  0.0716  0.6229
21557SOL    HW166112   6.347   3.181   0.119 -0.9384  0.8487  0.4870
21557SOL    HW266113   6.279   3.052   0.158 -0.1882  0.1644 -0.4322
21558SOL     OW66114   6.858   6.116   1.165  0.0528  0.1958 -0.1483
21558SOL    HW166115   6.944   6.138   1.131  0.6072 -2.6975 -0.9629
21558SOL    HW266116   6.868   6.027   1.200 -2.1205  0.5774  1.6775
21559SOL     OW66117   3.326   4.283   5.666  0.9966  0.2869 -0.3987
21559SOL    HW166118   3.411   4.258   5.628  2.1040 -1.3023  2.7712
21559SOL    HW266119   3.349   4.332   5.746 -1.0153 -1.0821  1.1096
21560SOL     OW66120   1.287   1.451   3.672  0.0364  0.2092  0.9898
21560SOL    HW166121   1.292   1.374   3.615  1.8816  0.6240  0.5326
21560SOL    HW266122   1.203   1.492   3.650 -1.9312 -2.6259  2.5698
21561SOL     OW66123   4.704   5.272   1.080 -0.6476  0.3000 -0.1685
21561SOL    HW166124   4.683   5.319   0.999 -0.0151  2.1458  0.6903
21561SOL    HW266125   4.637   5.205   1.087 -0.9668  0.3749 -1.9931
21562SOL     OW66126   0.760   2.558   7.155 -0.2728  0.7521  0.5575
21562SOL    HW166127   0.710   2.596   7.228 -1.2706  0.3137  0.1116
21562SOL    HW266128   0.765   2.629   7.091 -0.9099  0.5868  0.3211
21563SOL     OW66129   2.191   0.072   1.172  0.1199 -0.1631 -0.0554
21563SOL    HW166130   2.201   0.120   1.255  0.7151  0.8520 -0.6940
21563SOL    HW266131   2.269   0.017   1.167  1.5125  1.7731 -1.1804
21564SOL     OW66132   1.349   1.732  11.433  0.3944 -0.2737 -0.0648
21564SOL    HW166133   1.373   1.647  11.395  0.4576  1.1530 -3.6271
21564SOL    HW266134   1.265   1.753  11.392 -0.1982  0.9409  1.6418
21565SOL     OW66135   7.505   3.230   3.280 -0.4101  0.1055  0.2893
21565SOL    HW166136   7.544   3.158   3.330 -0.1505  0.9751  1.3695
21565SOL    HW266137   7.536   3.216   3.190  0.2765 -0.6811  0.6328
21566SOL     OW66138   3.966   3.957   8.019 -0.2301 -0.1990 -0.5201
21566SOL    HW166139   3.897   3.976   8.082 -0.1132 -0.4074 -0.3290
21566SOL    HW266140   4.045   3.950   8.072  0.1359  1.1254 -0.8526
21567SOL     OW66141   0.264   5.930   5.008 -0.1432  0.2068 -0.4166
21567SOL    HW166142   0.198   5.896   4.947 -2.7115 -1.5583  3.0016
21567SOL    HW266143   0.223   6.007   5.046  1.4598  1.3406 -0.8900
21568SOL     OW66144   0.296   5.885  11.246 -0.0489 -0.0973  0.6059
21568SOL    HW166145   0.387   5.863  11.269 -0.7622 -2.5133  1.4934
21568SOL    HW266146   0.272   5.820  11.181 -0.8070  1.2773 -0.5259
21569SOL     OW66147   6.187   7.219   1.286 -0.7720 -0.2258 -0.3819
21569SOL    HW166148   6.131   7.142   1.277 -0.0443 -0.6219 -1.7785
21569SOL    HW266149   6.276   7.184   1.285 -0.4254  0.3072  2.6670
21570SOL     OW66150   4.618   5.831   4.700  0.2100  0.0067 -0.2657
21570SOL    HW166151   4.708   5.848   4.672  0.1847  0.8731  0.1321
21570SOL    HW266152   4.595   5.749   4.658  1.5398 -0.7750  0.4732
21571SOL     OW66153   2.965   5.596   8.251  0.0524  0.5034  0.3358
21571SOL    HW166154   3.008   5.654   8.314  0.3282  2.9323 -1.9247
21571SOL    HW266155   3.028   5.524   8.239  1.0872  1.2544  1.0080
21572SOL     OW66156   7.388   4.634   5.500  0.3018 -0.2027 -0.1314
21572SOL    HW166157   7.362   4.608   5.412  0.3357 -2.0499  0.3793
21572SOL    HW266158   7.359   4.563   5.556  0.8911  0.6259  1.2839
21573SOL     OW66159   7.157   1.307   5.227  0.6107  0.1794 -0.1341
21573SOL    HW166160   7.149   1.384   5.170  0.4584  0.6219  0.4645
21573SOL    HW266161   7.246   1.313   5.263 -0.1379  1.3918  1.6952
21574SOL     OW66162   6.778   1.462  11.540  0.4900 -0.2837 -0.4175
21574SOL    HW166163   6.854   1.412  11.510  1.3484  0.0508  1.1188
21574SOL    HW266164   6.708   1.439  11.478  1.5658 -1.3637 -1.2667
21575SOL     OW66165   2.923   3.762   6.525 -0.0224  0.2346 -0.5576
21575SOL    HW166166   2.908   3.810   6.606  1.3031  1.3774 -0.9463
21575SOL    HW266167   2.839   3.765   6.479 -1.5680 -2.5316  1.7475
21576SOL     OW66168   4.494   0.477   3.134  0.0186  0.1268 -0.4861
21576SOL    HW166169   4.564   0.528   3.174 -0.3612  0.7839 -0.6460
21576SOL    HW266170   4.472   0.524   3.053 -0.0649 -0.5064 -0.8421
21577SOL     OW66171   2.070   2.855   4.462  0.5103  0.1295 -0.1286
21577SOL    HW166172   1.993   2.858   4.404  2.8327 -0.1772 -3.5219
21577SOL    HW266173   2.051   2.785   4.523 -1.4135 -0.7846 -1.6416
21578SOL     OW66174   6.981   4.133  10.745  0.6451  1.1432  0.3382
21578SOL    HW166175   7.031   4.208  10.779  1.5769 -0.5677  3.0965
21578SOL    HW266176   7.040   4.059  10.754 -1.0825 -0.3350  0.0799
21579SOL     OW66177   3.844   1.263  10.976  0.2291  0.6826 -0.1314
21579SOL    HW166178   3.867   1.219  10.894 -0.9039 -2.2849  1.0000
21579SOL    HW266179   3.776   1.325  10.951  0.4686  0.4191 -1.5425
21580SOL     OW66180   3.159   1.143   0.773 -0.0002  0.0116 -0.3969
21580SOL    HW166181   3.169   1.049   0.762 -2.5887 -0.4675  0.5389
21580SOL    HW266182   3.129   1.175   0.688 -0.2764 -0.2181 -0.3856
21581SOL     OW66183   1.909   4.147   8.386  0.0606  0.1798 -0.7936
21581SOL    HW166184   1.894   4.140   8.291  0.0416 -0.6496 -0.7329
21581SOL    HW266185   1.875   4.066   8.422 -1.6842  1.2733  0.1654
21582SOL     OW66186   6.739   0.549   8.535 -1.1077  0.3624  0.3677
21582SOL    HW166187   6.670   0.531   8.599 -0.5592  0.0748  0.8847
21582SOL    HW266188   6.691   0.570   8.454 -1.8000 -0.3262  0.5798
21583SOL     OW66189   3.080   7.583   8.594  0.5965  0.0313 -0.0092
21583SOL    HW166190   3.075   7.497   8.635  0.4597 -0.8446 -1.8142
21583SOL    HW266191   3.097   7.566   8.502 -0.2484  1.9199 -0.5656
21584SOL     OW66192   4.133   7.082  10.103 -0.1975  0.4071 -0.3672
21584SOL    HW166193   4.186   7.139  10.159 -2.0579 -0.0058  1.9738
21584SOL    HW266194   4.184   7.002  10.094  0.1497  0.4941  0.7337
21585SOL     OW66195   4.081   4.722   7.388 -0.0287 -0.6475  0.6315
21585SOL    HW166196   4.045   4.809   7.407 -1.2384 -1.1494  0.6821
21585SOL    HW266197   4.089   4.720   7.292 -1.0440 -0.8814  0.5489
21586SOL     OW66198   5.416   1.012   0.261  0.4157 -0.3742 -0.2261
21586SOL    HW166199   5.344   0.964   0.302 -0.5680  0.8124 -0.4829
21586SOL    HW266200   5.406   0.994   0.167 -0.2287  0.6505 -0.3659
21587SOL     OW66201   5.273   0.586   6.712 -0.9149 -0.1135 -0.3065
21587SOL    HW166202   5.270   0.656   6.777 -0.5482  0.6468 -1.0924
21587SOL    HW266203   5.182   0.557   6.704 -0.8783 -0.6675  0.9992
21588SOL     OW66204   2.848   7.341   2.131  0.0521 -0.0676  0.0505
21588SOL    HW166205   2.814   7.430   2.143 -0.3313 -0.0078 -1.3044
21588SOL    HW266206   2.821   7.317   2.043  0.5577 -1.3626  0.2276
21589SOL     OW66207   3.181   2.682   1.801 -0.0154 -0.3281 -0.3344
21589SOL    HW166208   3.188   2.645   1.889  0.6770  1.8701  0.6045
21589SOL    HW266209   3.267   2.719   1.784 -0.6178  0.6751 -1.2855
21590SOL     OW66210   3.965   7.381  10.353  0.2570  0.2159 -0.0996
21590SOL    HW166211   3.908   7.443  10.397 -0.0888 -0.8440  1.0091
21590SOL    HW266212   3.988   7.317  10.421 -0.4219 -1.5705 -1.4640
21591SOL     OW66213   4.215   1.756   8.870 -0.3612  0.2131  0.1447
21591SOL    HW166214   4.175   1.832   8.830 -0.5381  0.9961  1.7241
21591SOL    HW266215   4.295   1.789   8.911  0.4997 -0.8060 -0.6640
21592SOL     OW66216   2.733   5.741   4.686  0.0889 -0.1524  0.3681
21592SOL    HW166217   2.762   5.717   4.774  0.0495  1.3190  0.8180
21592SOL    HW266218   2.644   5.708   4.680  0.3514 -0.9208  0.5934
21593SOL     OW66219   5.811   2.595   0.262  0.1294  0.1470 -0.2762
21593SOL    HW166220   5.851   2.643   0.189 -0.6534  0.0547 -0.7833
21593SOL    HW266221   5.738   2.650   0.290  2.7849  2.3194  3.2725
21594SOL     OW66222   3.438   2.554   4.108  0.3036  0.7864  0.1434
21594SOL    HW166223   3.527   2.538   4.138  0.2249  2.8488  1.7240
21594SOL    HW266224   3.390   2.579   4.187 -1.5176  0.3893 -0.7882
21595SOL     OW66225   1.542   7.550   7.614 -0.2850 -0.6761  0.3493
21595SOL    HW166226   1.624   7.577   7.574 -0.4546 -2.6176 -1.5547
21595SOL    HW266227   1.483   7.624   7.600  0.5963 -0.0289 -0.0337
21596SOL     OW66228   4.291   4.426   8.364 -0.1628 -0.7231 -0.4074
21596SOL    HW166229   4.327   4.451   8.449 -1.9447 -0.3863  0.2790
21596SOL    HW266230   4.369   4.409   8.310  1.0125 -0.3822  1.0949
21597SOL     OW66231   3.777   5.110   4.509 -0.1233  0.4249 -0.3485
21597SOL    HW166232   3.694   5.090   4.465 -0.2617 -0.2196  0.1900
21597SOL    HW266233   3.787   5.204   4.499 -1.0122  0.5399 -0.2646
21598SOL     OW66234   0.949   2.344   8.337 -0.2047 -0.0239  0.2733
21598SOL    HW166235   0.926   2.284   8.407 -0.1841 -1.5498 -0.9807
21598SOL    HW266236   1.013   2.404   8.377 -0.2512 -0.8036  1.5561
21599SOL     OW66237   0.487   6.995   2.615 -0.8899 -0.0717  0.0889
21599SOL    HW166238   0.454   6.978   2.704  0.1221  0.6733  0.6205
21599SOL    HW266239   0.582   6.981   2.622 -0.9414 -1.3056 -1.2067
21600SOL     OW66240   5.517   5.544   6.016 -0.1732 -0.0328 -0.0883
21600SOL    HW166241   5.605   5.564   5.983  0.2326  0.0678  0.9939
21600SOL    HW266242   5.503   5.607   6.087 -0.4593 -1.0623  0.8046
21601SOL     OW66243   4.284   2.932  10.199  0.3501 -0.2743 -0.1830
21601SOL    HW166244   4.245   3.019  10.209 -4.0605 -2.2003  2.5621
21601SOL    HW266245   4.335   2.919  10.278 -0.1540 -0.6419  0.0886
21602SOL     OW66246   5.893   3.489   6.856  0.2956  0.3377  0.1809
21602SOL    HW166247   5.971   3.539   6.830 -0.0427  0.2913 -1.0235
21602SOL    HW266248   5.856   3.459   6.773 -0.1175 -1.0114  0.8311
21603SOL     OW66249   6.988   1.658   5.942  0.1648 -0.0521 -0.0800
21603SOL    HW166250   6.932   1.685   6.014  1.6048  2.6880  0.1478
21603SOL    HW266251   7.077   1.663   5.977  0.9061  1.2388 -1.9233
21604SOL     OW66252   2.946   1.791   9.911 -0.2161 -0.2433  0.0414
21604SOL    HW166253   2.853   1.788   9.888 -0.1151 -1.4146 -0.2776
21604SOL    HW266254   2.967   1.884   9.914 -1.1892  0.0204 -0.7502
21605SOL     OW66255   6.596   2.159   8.457 -0.5013  0.1344  0.0914
21605SOL    HW166256   6.643   2.083   8.490 -1.4410 -0.5577 -0.1523
21605SOL    HW266257   6.504   2.134   8.458 -0.6575  0.3897 -2.1583
21606SOL     OW66258   6.189   6.244   3.280  0.1171 -0.1172 -0.1521
21606SOL    HW166259   6.189   6.337   3.303 -1.5103 -0.3117  0.7822
21606SOL    HW266260   6.145   6.241   3.195 -0.9559 -0.1223  0.3846
21607SOL     OW66261   2.053   7.020  11.887  0.3640 -0.1898 -0.1149
21607SOL    HW166262   2.018   7.069  11.812 -1.7265 -0.8708  0.3396
21607SOL    HW266263   1.976   6.979  11.926  1.9423 -3.7586 -0.3869
21608SOL     OW66264   3.279   0.871   8.403 -0.2165 -0.1074 -0.2227
21608SOL    HW166265   3.271   0.849   8.311 -1.4698 -0.0245 -0.1515
21608SOL    HW266266   3.285   0.786   8.448  2.2928 -0.1422 -0.4841
21609SOL     OW66267   1.692   6.272   0.297 -0.3856 -0.8672  0.0989
21609SOL    HW166268   1.763   6.336   0.304 -0.8540 -0.3268 -0.0493
21609SOL    HW266269   1.659   6.262   0.386  0.7735 -2.1772  0.4270
21610SOL     OW66270   3.628   0.310   2.838 -0.4079 -0.0559 -0.5296
21610SOL    HW166271   3.667   0.283   2.921  0.2872 -1.0886 -1.1583
21610SOL    HW266272   3.552   0.253   2.828  0.5108 -1.1835 -1.4041
21611SOL     OW66273   6.343   6.791  10.858  0.4391  0.4741 -0.2152
21611SOL    HW166274   6.403   6.731  10.814 -0.1290  0.3665 -0.8646
21611SOL    HW266275   6.400   6.851  10.906  1.0347 -0.1252 -0.1572
21612SOL     OW66276   7.705   2.836   0.952  0.6536  0.0018  0.3785
21612SOL    HW166277   7.690   2.753   0.907 -0.9753 -0.5009  1.7410
21612SOL    HW266278   7.785   2.822   1.003  1.5015 -0.0169 -0.9148
21613SOL     OW66279   4.370   0.839   7.598  0.3659  0.8509 -0.3255
21613SOL    HW166280   4.339   0.753   7.629 -1.4876  1.6686  0.2264
21613SOL    HW266281   4.465   0.828   7.590  0.4224 -0.7172  1.5025
21614SOL     OW66282   5.238   2.511  10.326  0.6718  0.3400  0.2388
21614SOL    HW166283   5.164   2.537  10.380  0.3344  0.5515 -0.3189
21614SOL    HW266284   5.287   2.593  10.312  0.5702  0.3483 -0.0634
21615SOL     OW66285   0.382   1.135   1.791 -0.4253  0.3602  0.2638
21615SOL    HW166286   0.465   1.112   1.831 -1.7665  0.4330  3.3910
21615SOL    HW266287   0.386   1.097   1.703  2.3999 -0.6507  0.7406
21616SOL     OW66288   2.978   6.405  10.742  0.1349  0.1503  0.1854
21616SOL    HW166289   3.005   6.339  10.678  0.8480  1.0169 -0.4427
21616SOL    HW266290   2.918   6.462  10.693  0.2785  0.5158  0.4324
21617SOL     OW66291   2.345   0.682  12.077  0.5997  0.2995  0.3507
21617SOL    HW166292   2.414   0.711  12.018  0.5888 -0.0892  0.1432
21617SOL    HW266293   2.383   0.691  12.165  1.3498 -1.0323  0.1789
21618SOL     OW66294   2.390   7.778   4.069  0.1899 -0.1134  0.4244
21618SOL    HW166295   2.438   7.740   4.143  1.7320 -0.6520 -0.8006
21618SOL    HW266296   2.330   7.708   4.041  0.5531 -0.3918  0.3365
21619SOL     OW66297   7.341   4.573   3.346  0.3529  0.0186 -0.0906
21619SOL    HW166298   7.246   4.561   3.346  0.0415  2.1366  0.6856
21619SOL    HW266299   7.367   4.554   3.255 -0.8154 -0.4800 -0.3439
21620SOL     OW66300   0.151   4.736  10.038 -0.1767  0.3883  0.2851
21620SOL    HW166301   0.141   4.707   9.948  0.4686 -1.3191  0.7257
21620SOL    HW266302   0.063   4.762  10.065 -0.7148 -0.7640 -0.3034
21621SOL     OW66303   2.354   2.459   6.408 -0.8753  0.2972 -0.0298
21621SOL    HW166304   2.363   2.538   6.355 -1.7501  0.1970 -0.3297
21621SOL    HW266305   2.443   2.442   6.439 -0.2026 -0.0231 -1.9979
21622SOL     OW66306   1.240   7.334   4.882 -0.1825 -0.3083  0.3657
21622SOL    HW166307   1.224   7.313   4.790  1.3669 -0.6327  0.1395
21622SOL    HW266308   1.154   7.324   4.924 -0.9961  0.1967 -1.0871
21623SOL     OW66309   2.493   1.536  10.646 -0.3271  0.3384 -0.7214
21623SOL    HW166310   2.473   1.486  10.725 -1.4802  2.1763  0.2002
21623SOL    HW266311   2.411   1.538  10.596 -0.4008  1.5222 -0.5922
21624SOL     OW66312   3.241   5.724   6.320  0.4652 -0.2559 -0.3640
21624SOL    HW166313   3.149   5.747   6.305  0.5781  1.6266  1.4291
21624SOL    HW266314   3.249   5.717   6.416  2.2941  0.0513 -0.4622
21625SOL     OW66315   7.562   3.152   0.661 -0.4394 -0.1110  0.3205
21625SOL    HW166316   7.654   3.130   0.678 -0.3189 -0.8190 -1.1134
21625SOL    HW266317   7.526   3.172   0.748  0.7479 -1.0938  1.0799
21626SOL     OW66318   5.305   0.401   7.594  0.1142  0.1997 -0.2687
21626SOL    HW166319   5.286   0.460   7.522  1.2614  0.0539 -0.7210
21626SOL    HW266320   5.332   0.458   7.666  0.9632  0.2654 -0.6213
21627SOL     OW66321   4.509   5.336  10.542  0.6190  0.2162 -0.4094
21627SOL    HW166322   4.541   5.332  10.632  2.1593  1.4212 -0.8713
21627SOL    HW266323   4.562   5.272  10.495  0.8889  0.6974 -0.7641
21628SOL     OW66324   4.095   6.033   2.769 -0.0252 -0.3717  0.2867
21628SOL    HW166325   4.114   6.042   2.676  2.4616  0.1991  0.7790
21628SOL    HW266326   4.167   5.980   2.803 -0.6336 -0.1802  1.9778
21629SOL     OW66327   3.387   6.134  11.158  0.1481 -0.2091 -0.4919
21629SOL    HW166328   3.326   6.063  11.180 -0.7284  0.3869 -0.9401
21629SOL    HW266329   3.449   6.136  11.231  2.5137 -3.8566 -2.1223
21630SOL     OW66330   5.577   2.679  11.160 -0.2751 -0.4974 -0.1256
21630SOL    HW166331   5.533   2.711  11.239 -3.0236 -1.3737 -1.1888
21630SOL    HW266332   5.624   2.601  11.188 -1.1210 -0.7328  0.6934
21631SOL     OW66333   2.218   2.838   4.153 -0.6065 -0.4657 -0.7424
21631SOL    HW166334   2.141   2.893   4.168 -0.7687 -0.8931  0.0623
21631SOL    HW266335   2.207   2.805   4.063 -1.4652 -0.6805 -0.5676
21632SOL     OW66336   7.597   0.494   2.721  0.3054  0.5854  0.2625
21632SOL    HW166337   7.535   0.486   2.649  0.8978 -0.0685 -0.1895
21632SOL    HW266338   7.583   0.415   2.773  0.0377  0.9454  0.7449
21633SOL     OW66339   6.960   7.763   1.024 -1.5065 -0.3026 -0.0641
21633SOL    HW166340   7.012   7.755   1.104 -1.2591  0.0898 -0.1827
21633SOL    HW266341   6.927   7.675   1.007 -1.3294 -0.4402  0.3162
21634SOL     OW66342   6.185   2.845   1.502 -0.2656  0.2020 -0.2763
21634SOL    HW166343   6.171   2.935   1.532 -0.5326  0.4350 -1.0745
21634SOL    HW266344   6.191   2.852   1.407  0.1792 -0.5700 -0.3165
21635SOL     OW66345   3.938   5.227   2.717  0.3074  0.1135  0.0813
21635SOL    HW166346   3.851   5.235   2.756  0.9021  0.1826  1.4552
21635SOL    HW266347   3.942   5.298   2.653  0.0237  1.3796  1.3878
21636SOL     OW66348   2.479   7.006   6.796 -0.0980  0.0807  0.2647
21636SOL    HW166349   2.418   7.022   6.868  0.5207  1.2564  0.5381
21636SOL    HW266350   2.422   6.983   6.722 -0.9337  1.6286  0.3742
21637SOL     OW66351   3.869   3.207  12.053  0.1595 -0.5148  0.1610
21637SOL    HW166352   3.911   3.231  11.970  1.5016 -0.7682  0.7414
21637SOL    HW266353   3.776   3.223  12.038  0.2099 -1.6772 -1.7978
21638SOL     OW66354   4.260   7.147  11.581  0.3637 -0.1328  0.4027
21638SOL    HW166355   4.201   7.072  11.594 -0.4612  0.0996 -1.5819
21638SOL    HW266356   4.336   7.127  11.635 -0.7288 -1.3710  1.5723
21639SOL     OW66357   2.584   1.203   2.156 -0.2054  0.1410  0.2108
21639SOL    HW166358   2.592   1.249   2.072 -0.2671 -1.2240 -0.5783
21639SOL    HW266359   2.489   1.191   2.168 -0.1483 -1.4904 -0.6104
21640SOL     OW66360   1.350   5.880   5.882  0.3230  0.0664 -0.5512
21640SOL    HW166361   1.269   5.911   5.842  0.4861 -0.2045 -1.1091
21640SOL    HW266362   1.390   5.958   5.919  0.0235  0.2758 -0.6664
21641SOL     OW66363   7.133   3.894   7.913 -0.2619 -0.4749  0.0089
21641SOL    HW166364   7.061   3.840   7.946 -1.3306  1.7498  1.6255
21641SOL    HW266365   7.103   3.925   7.827 -1.2069  0.2873  0.5917
21642SOL     OW66366   3.621   7.198   8.967 -0.1759  0.3084 -1.3142
21642SOL    HW166367   3.598   7.190   8.875 -1.8305 -1.5762 -0.7954
21642SOL    HW266368   3.650   7.110   8.993  0.9293  0.9597 -0.1724
21643SOL     OW66369   2.779   4.747  12.048  0.1216 -0.2172 -0.4563
21643SOL    HW166370   2.710   4.763  12.112 -0.0756  0.1238 -0.7470
21643SOL    HW266371   2.742   4.777  11.965  1.5689  2.6351 -0.2180
21644SOL     OW66372   1.880   6.349   6.222  0.0112 -0.7078 -0.2638
21644SOL    HW166373   1.935   6.319   6.150  0.2917  1.0126 -0.7971
21644SOL    HW266374   1.802   6.294   6.217 -0.0925 -0.4449 -2.0635
21645SOL     OW66375   7.436   1.938  12.154  0.3236 -0.7362 -0.2080
21645SOL    HW166376   7.515   1.887  12.138 -0.3309 -1.2836 -1.8804
21645SOL    HW266377   7.418   1.981  12.071 -0.9341 -0.3276  0.2538
21646SOL     OW66378   5.713   0.430   0.150  0.2444 -0.0357 -0.5119
21646SOL    HW166379   5.632   0.479   0.141  1.3091  2.3690  1.7258
21646SOL    HW266380   5.771   0.466   0.082 -0.1528 -0.9778 -1.3814
21647SOL     OW66381   5.844   6.374   7.510  0.4703  0.1546  0.8650
21647SOL    HW166382   5.765   6.394   7.461  0.1890 -1.0275  0.8035
21647SOL    HW266383   5.878   6.294   7.469  1.1166  0.0545  1.5688
21648SOL     OW66384   0.784   0.930   3.365  0.8783  0.3404 -0.9438
21648SOL    HW166385   0.864   0.955   3.318  0.8538  1.5907 -0.3639
21648SOL    HW266386   0.765   1.005   3.421 -0.8633  0.1783 -1.2572
21649SOL     OW66387   5.041   1.592   4.099 -0.2735  0.0523 -0.2239
21649SOL    HW166388   5.016   1.548   4.181  0.0678  0.5362  0.1420
21649SOL    HW266389   5.119   1.545   4.069 -0.7891 -0.5638 -0.6387
21650SOL     OW66390   0.525   4.485   6.118  0.0407  0.1993  0.0335
21650SOL    HW166391   0.562   4.516   6.035  0.9958  2.5350  1.2283
21650SOL    HW266392   0.541   4.557   6.179 -1.8163 -0.9013  1.9376
21651SOL     OW66393   3.388   5.218  12.069 -0.3122 -0.5734  0.7213
21651SOL    HW166394   3.462   5.260  12.025  0.5626  1.1895  3.5897
21651SOL    HW266395   3.420   5.129  12.088  0.6585 -0.2058  0.8920
21652SOL     OW66396   7.805   1.048   2.037  0.2070 -0.4486 -0.2796
21652SOL    HW166397   7.887   1.019   1.999  0.1143 -2.3470  0.8574
21652SOL    HW266398   7.743   1.050   1.964  0.9125 -0.4018 -0.8815
21653SOL     OW66399   7.509   1.454   7.420  0.5732 -0.5473 -0.2063
21653SOL    HW166400   7.598   1.425   7.441  0.3380 -0.9952  0.1830
21653SOL    HW266401   7.492   1.418   7.333  0.8575 -0.2604 -0.3831
21654SOL     OW66402   3.645   7.736   1.461 -0.4239 -0.5553 -0.3072
21654SOL    HW166403   3.596   7.818   1.450 -0.1049 -0.6427 -3.3189
21654SOL    HW266404   3.715   7.758   1.522 -2.5727  0.2709  2.0630
21655SOL     OW66405   1.410   2.029   3.532  0.2033 -0.0235  0.1021
21655SOL    HW166406   1.414   1.965   3.603  0.1289 -0.1879 -0.0419
21655SOL    HW266407   1.425   1.978   3.452  2.1667  0.4323  0.1247
21656SOL     OW66408   7.886   1.199  11.884  0.6114 -0.2540 -0.1990
21656SOL    HW166409   7.840   1.274  11.847 -0.1787 -0.7939 -0.3285
21656SOL    HW266410   7.979   1.219  11.871  0.3700 -0.0470 -1.7177
21657SOL     OW66411   6.554   6.014   1.442 -0.2012 -0.2597 -0.0629
21657SOL    HW166412   6.476   5.971   1.477  0.0687  0.7961  1.9909
21657SOL    HW266413   6.527   6.105   1.429  0.2369 -0.2449 -0.8975
21658SOL     OW66414   6.347   0.261   0.505 -0.2627 -0.2436  0.1137
21658SOL    HW166415   6.432   0.290   0.472 -0.0259 -1.7982 -0.7156
21658SOL    HW266416   6.295   0.244   0.426 -0.8910 -0.6008  0.5912
21659SOL     OW66417   5.210   6.189   7.696 -0.9101 -0.4432  0.8521
21659SOL    HW166418   5.157   6.198   7.616  0.5515  1.5923  0.0362
21659SOL    HW266419   5.148   6.207   7.767 -1.6499  0.5146  0.0084
21660SOL     OW66420   2.768   5.413   3.135 -0.4321  0.0574  0.0436
21660SOL    HW166421   2.782   5.320   3.116 -0.7570  0.2530 -1.2128
21660SOL    HW266422   2.768   5.456   3.050  0.8899  1.4045  0.6694
21661SOL     OW66423   1.628   2.386  10.492 -0.1149  0.1786  0.7878
21661SOL    HW166424   1.718   2.358  10.479  0.1376  0.7462  1.2427
21661SOL    HW266425   1.636   2.470  10.538 -0.8492  0.6998 -0.0077
21662SOL     OW66426   1.731   3.657   7.739  0.1878 -0.8605 -0.0380
21662SOL    HW166427   1.692   3.594   7.679  1.3718 -0.5791 -1.1499
21662SOL    HW266428   1.686   3.642   7.822 -1.7780 -0.9732 -1.0715
21663SOL     OW66429   4.805   5.627  10.072  0.3128  0.6895 -0.3689
21663SOL    HW166430   4.738   5.619  10.140 -1.3135  0.4832 -1.9319
21663SOL    HW266431   4.812   5.721  10.057 -1.3778  0.6374 -1.7993
21664SOL     OW66432   4.872   6.492   5.496 -0.0452 -0.1409 -0.1973
21664SOL    HW166433   4.951   6.459   5.539 -1.5860 -0.5451  2.4748
21664SOL    HW266434   4.825   6.413   5.468  0.7597  0.1041 -2.5314
21665SOL     OW66435   5.034   4.687   8.293 -0.1875  0.1274  0.6344
21665SOL    HW166436   5.036   4.644   8.208 -1.2767  0.2838  0.5146
21665SOL    HW266437   4.994   4.624   8.352 -2.8418  1.2895  0.2175
21666SOL     OW66438   2.630   0.896  10.715 -0.4042 -0.6688 -0.2215
21666SOL    HW166439   2.629   0.852  10.630  0.1337 -2.1937  0.5430
21666SOL    HW266440   2.709   0.950  10.713 -0.2236 -0.9433 -0.5573
21667SOL     OW66441   0.221   0.591   4.791  0.5375  0.3083  0.4240
21667SOL    HW166442   0.279   0.644   4.736 -0.6629  1.8226  0.5550
21667SOL    HW266443   0.136   0.595   4.746  0.1323 -0.5110  1.0927
21668SOL     OW66444   6.372   2.605   1.787  0.0937 -0.6029  0.2732
21668SOL    HW166445   6.356   2.516   1.818  0.3299 -1.3629 -1.6675
21668SOL    HW266446   6.343   2.604   1.696  0.7612  1.1217  0.0143
21669SOL     OW66447   3.692   0.180   9.073 -0.6605 -0.4173 -0.0474
21669SOL    HW166448   3.694   0.242   9.146 -0.4228 -1.0866  0.5206
21669SOL    HW266449   3.695   0.235   8.995  0.1765  0.2671  0.4501
21670SOL     OW66450   2.313   7.699   3.417 -0.2197  0.2475  0.6234
21670SOL    HW166451   2.291   7.756   3.343  0.1142  0.3243  0.5823
21670SOL    HW266452   2.266   7.617   3.399 -0.3916  0.3753  0.4868
21671SOL     OW66453   3.790   5.234   5.333 -0.1875 -0.1087 -0.2223
21671SOL    HW166454   3.769   5.300   5.399  0.7022 -1.3368  1.3599
21671SOL    HW266455   3.867   5.268   5.288 -0.3575  0.3985 -0.1298
21672SOL     OW66456   1.659   2.526   3.482  0.2492 -0.0675 -0.0816
21672SOL    HW166457   1.627   2.570   3.561 -0.7606  0.2670 -0.6691
21672SOL    HW266458   1.739   2.481   3.511 -0.5865 -0.7011  1.3569
21673SOL     OW66459   2.126   4.486  11.664 -0.2250 -0.1533  0.4033
21673SOL    HW166460   2.115   4.482  11.569  1.6984  1.2437  0.0395
21673SOL    HW266461   2.110   4.397  11.694  2.6873 -1.5565 -1.7217
21674SOL     OW66462   6.959   1.759   4.470  0.4419  0.3188 -0.1332
21674SOL    HW166463   7.035   1.814   4.490  0.0893  0.0816  2.1419
21674SOL    HW266464   6.994   1.670   4.466  0.6081  0.4281 -1.2423
21675SOL     OW66465   1.354   7.331   8.047  0.0043 -0.5842 -0.1984
21675SOL    HW166466   1.343   7.367   7.959  0.5537 -1.8844 -0.8243
21675SOL    HW266467   1.304   7.250   8.047 -1.2444  0.1368  1.1978
21676SOL     OW66468   7.158   6.435  10.974  0.4836  0.2113  0.3389
21676SOL    HW166469   7.230   6.386  11.013 -0.3183  1.2139  3.2856
21676SOL    HW266470   7.084   6.375  10.977  0.0149  0.8293  2.0100
21677SOL     OW66471   5.346   4.833   6.236  0.4911 -0.1107 -0.3628
21677SOL    HW166472   5.428   4.791   6.263  0.2741  0.1386  0.7198
21677SOL    HW266473   5.314   4.877   6.315  0.0068  0.9426 -1.1140
21678SOL     OW66474   5.925   3.935   0.166 -0.2121 -0.4564  0.3649
21678SOL    HW166475   5.868   3.984   0.107 -0.7588 -1.2781  0.1962
21678SOL    HW266476   5.916   3.980   0.250 -0.0387  0.2446  0.0196
21679SOL     OW66477   1.845   1.535   3.804  0.7568 -0.3941  0.9403
21679SOL    HW166478   1.940   1.530   3.794  0.7674  2.4627 -2.1532
21679SOL    HW266479   1.813   1.447   3.781  2.5723 -0.9721  0.4963
21680SOL     OW66480   6.501   6.412   9.633  0.2831 -0.6446  0.0587
21680SOL    HW166481   6.497   6.374   9.721  1.5530  0.9959  0.8835
21680SOL    HW266482   6.441   6.359   9.581 -3.1311  0.3341  2.6624
21681SOL     OW66483   2.356   6.379   6.593 -0.2407  0.5754 -0.1806
21681SOL    HW166484   2.409   6.447   6.552  1.4104 -0.8806 -0.5794
21681SOL    HW266485   2.277   6.375   6.539 -0.0643  1.6972 -0.5501
21682SOL     OW66486   0.093   0.558   5.385  0.3612 -0.3793  0.1710
21682SOL    HW166487   0.062   0.480   5.340  0.0280 -0.5697  0.7197
21682SOL    HW266488   0.178   0.532   5.423  1.1804  0.1194 -1.2679
21683SOL     OW66489   7.294   5.651   8.250  0.0893 -0.4720 -0.1310
21683SOL    HW166490   7.283   5.696   8.167 -0.1150  1.0945  0.7195
21683SOL    HW266491   7.384   5.617   8.248  0.4480  0.4905 -0.5353
21684SOL     OW66492   2.949   3.179   9.747  0.1760  0.1350  0.0413
21684SOL    HW166493   3.021   3.135   9.793  1.8315  1.3290 -1.3119
21684SOL    HW266494   2.896   3.216   9.818  1.5965  0.3187  1.0566
21685SOL     OW66495   3.395   7.151   7.462  0.1530  0.4389  0.1024
21685SOL    HW166496   3.477   7.162   7.414  1.0812  1.3861  1.8159
21685SOL    HW266497   3.416   7.088   7.531 -1.0947 -0.7239 -0.5254
21686SOL     OW66498   6.230   4.420   6.254 -0.4515 -0.2492  0.1891
21686SOL    HW166499   6.172   4.479   6.207 -0.1016  0.6361  0.8489
21686SOL    HW266500   6.295   4.477   6.295  0.4732 -1.1656  0.0342
21687SOL     OW66501   5.541   4.505   0.363 -0.4330 -0.6283  0.3919
21687SOL    HW166502   5.506   4.417   0.380 -0.7409 -0.8165 -1.0493
21687SOL    HW266503   5.615   4.490   0.304 -0.2244  0.0610  0.4736
21688SOL     OW66504   3.206   6.508   2.123 -0.1012 -0.4452 -0.1122
21688SOL    HW166505   3.178   6.592   2.158 -0.6755  0.5919 -2.8281
21688SOL    HW266506   3.298   6.521   2.099 -0.0212 -0.7893 -0.0042
21689SOL     OW66507   6.221   5.852   0.336  0.0223 -0.4212 -0.5181
21689SOL    HW166508   6.142   5.851   0.389 -0.4445 -0.5049 -1.2069
21689SOL    HW266509   6.292   5.862   0.399 -0.2180 -3.8241  0.5280
21690SOL     OW66510   1.962   0.780   3.735 -0.1868 -0.0591  0.3295
21690SOL    HW166511   1.953   0.870   3.767  0.1891 -0.2861  1.0804
21690SOL    HW266512   1.872   0.753   3.715 -0.3363  0.3700  0.4136
21691SOL     OW66513   6.549   1.609   2.023  0.4104  0.4416  0.3538
21691SOL    HW166514   6.535   1.685   1.967  0.0901 -0.0895 -0.2908
21691SOL    HW266515   6.468   1.559   2.017  0.4537  0.2592  1.1162
21692SOL     OW66516   1.276   7.197   9.077 -0.1811 -0.0294  0.0785
21692SOL    HW166517   1.262   7.166   9.167 -2.6134  0.6422 -0.0121
21692SOL    HW266518   1.245   7.125   9.022  1.3964 -0.4797 -0.2722
21693SOL     OW66519   4.435   1.940   9.682  0.0776 -0.2847  0.1874
21693SOL    HW166520   4.492   1.872   9.645 -0.5070 -1.1593  0.8760
21693SOL    HW266521   4.496   2.008   9.711  0.6776 -0.5579 -0.3937
21694SOL     OW66522   5.782   5.538  10.757 -0.0509  0.6435 -0.3908
21694SOL    HW166523   5.749   5.500  10.838  0.8382  0.3987 -0.1238
21694SOL    HW266524   5.840   5.609  10.785 -0.5877  1.2712 -0.8461
21695SOL     OW66525   1.789   6.192   6.947  0.0412  0.3564  0.3052
21695SOL    HW166526   1.740   6.138   7.009 -0.7395  0.9911  0.2472
21695SOL    HW266527   1.878   6.195   6.983 -0.2804  0.2973  1.1114
21696SOL     OW66528   4.307   4.630  11.485  0.2281  0.3189  0.2376
21696SOL    HW166529   4.236   4.598  11.541 -1.4764  3.0812 -0.1904
21696SOL    HW266530   4.378   4.649  11.546  0.3524 -1.6095  0.7756
21697SOL     OW66531   6.838   2.025   7.958  0.4728 -0.3149  0.1685
21697SOL    HW166532   6.757   2.023   8.009  0.1979  0.0020 -0.2543
21697SOL    HW266533   6.876   1.938   7.970 -0.7112 -1.0151 -0.8966
21698SOL     OW66534   1.777   1.689   5.144 -0.1295  0.1000 -0.0696
21698SOL    HW166535   1.800   1.726   5.058  1.2208 -0.3860  0.0629
21698SOL    HW266536   1.782   1.764   5.204 -0.6779  0.3584 -0.3371
21699SOL     OW66537   0.598   3.949   2.884  0.7483  0.5626 -0.2520
21699SOL    HW166538   0.573   3.871   2.835  1.7051  0.8956 -1.3246
21699SOL    HW266539   0.575   3.929   2.975  1.3907 -1.1483 -0.4311
21700SOL     OW66540   6.037   5.137   8.786 -0.3087  0.0204  0.2899
21700SOL    HW166541   6.002   5.210   8.734  0.2907  1.7528  2.1864
21700SOL    HW266542   6.021   5.162   8.877  1.4450 -1.4223  1.0676
21701SOL     OW66543   0.900   5.670  10.990  0.0990  0.1591 -0.0019
21701SOL    HW166544   0.829   5.680  11.054  1.3071  0.6995  1.2935
21701SOL    HW266545   0.869   5.717  10.913 -1.1402 -0.0041  0.3701
21702SOL     OW66546   5.544   6.780   3.353 -0.0928 -0.5011 -0.1055
21702SOL    HW166547   5.586   6.851   3.402 -0.3065 -0.6956  0.3736
21702SOL    HW266548   5.615   6.740   3.302  0.0790 -0.1186 -0.1633
21703SOL     OW66549   3.406   4.791   3.431  0.5363  0.1625  0.0486
21703SOL    HW166550   3.461   4.832   3.497  2.4142 -3.1555  0.7880
21703SOL    HW266551   3.317   4.798   3.466  1.2804  0.0940  2.0556
21704SOL     OW66552   1.206   2.183   3.633  0.1258  0.3309 -0.2750
21704SOL    HW166553   1.217   2.185   3.728  1.1925  1.4463 -0.4027
21704SOL    HW266554   1.283   2.138   3.600 -0.9599 -1.4027 -0.5502
21705SOL     OW66555   7.231   6.664   0.721 -0.2761  0.1168 -0.0194
21705SOL    HW166556   7.299   6.657   0.788 -0.0448  1.7372 -0.0636
21705SOL    HW266557   7.166   6.599   0.748  0.9508 -1.0109  0.3842
21706SOL     OW66558   2.450   0.929   3.539  1.2015 -0.1635  0.1135
21706SOL    HW166559   2.358   0.954   3.526  0.5048 -2.6763 -0.4796
21706SOL    HW266560   2.462   0.932   3.634  0.1594 -0.7530  0.2901
21707SOL     OW66561   6.333   0.804   2.186 -0.1127  0.0127  0.4939
21707SOL    HW166562   6.319   0.821   2.279  2.5303  1.4193  0.7204
21707SOL    HW266563   6.401   0.738   2.184  0.0625  0.2173 -0.4472
21708SOL     OW66564   1.722   2.320   6.465  0.0905 -0.6891 -0.2022
21708SOL    HW166565   1.705   2.335   6.558  0.0604 -0.0053 -0.3112
21708SOL    HW266566   1.760   2.402   6.434  1.8928 -1.5499 -0.3733
21709SOL     OW66567   3.600   6.530   4.947 -0.0125  0.4752 -0.4050
21709SOL    HW166568   3.567   6.510   4.859  0.7075  1.6501 -0.9532
21709SOL    HW266569   3.683   6.576   4.932  0.7964 -0.4806  0.9166
21710SOL     OW66570   6.627   0.677   1.365 -0.2989 -0.0313  0.8232
21710SOL    HW166571   6.613   0.771   1.356 -1.6219 -0.3587 -0.9625
21710SOL    HW266572   6.556   0.647   1.421  0.8673  0.1765  2.4869
21711SOL     OW66573   4.691   1.259   4.618 -0.2985  0.2917  0.1582
21711SOL    HW166574   4.683   1.198   4.545 -2.6858  0.0485  0.5385
21711SOL    HW266575   4.648   1.215   4.691 -0.0969  1.5235  1.0612
21712SOL     OW66576   1.911   6.560  10.511  0.1139  0.0483  0.1106
21712SOL    HW166577   1.968   6.550  10.434 -0.7597 -1.7655 -0.3436
21712SOL    HW266578   1.830   6.595  10.476  0.3487  1.0227  0.5125
21713SOL     OW66579   6.080   2.683   9.000  0.2320 -0.0816 -0.0916
21713SOL    HW166580   6.167   2.704   8.965  0.5036 -1.4667 -0.3067
21713SOL    HW266581   6.027   2.662   8.922  0.0557 -0.4534  0.1249
21714SOL     OW66582   0.531   0.482  11.412  0.1788 -0.2795  0.4679
21714SOL    HW166583   0.489   0.450  11.492  0.0767 -1.6321 -0.1058
21714SOL    HW266584   0.459   0.488  11.349  0.7000 -2.1079 -0.3717
21715SOL     OW66585   3.430   5.490   7.475 -0.1414  0.3489  0.1447
21715SOL    HW166586   3.508   5.471   7.527  1.1541  0.9832 -1.4422
21715SOL    HW266587   3.373   5.539   7.534  0.4804 -0.4610  1.4657
21716SOL     OW66588   4.034   7.547   0.419 -0.8443 -0.4008 -1.0618
21716SOL    HW166589   4.085   7.499   0.483 -1.9297  1.8715  1.7161
21716SOL    HW266590   4.096   7.610   0.381 -1.0597  1.0999  0.9433
21717SOL     OW66591   1.484   7.521  11.223  0.5572 -0.4561 -0.1297
21717SOL    HW166592   1.498   7.552  11.134  0.2376 -1.4186 -0.5196
21717SOL    HW266593   1.406   7.568  11.254 -0.0814 -1.0541 -0.8094
21718SOL     OW66594   1.234   4.336   0.417  0.3092 -0.1007  0.3535
21718SOL    HW166595   1.168   4.399   0.389 -0.7475 -0.9772  0.7856
21718SOL    HW266596   1.214   4.319   0.509  1.6113  0.1671  0.7121
21719SOL     OW66597   5.305   5.820   5.127 -0.1434  0.3547 -0.3802
21719SOL    HW166598   5.288   5.914   5.116 -0.2783  0.5019  0.9005
21719SOL    HW266599   5.287   5.782   5.041  1.0877  1.6619 -1.2664
21720SOL     OW66600   7.726   6.894   9.375 -0.0347 -0.0317  0.5693
21720SOL    HW166601   7.818   6.908   9.352 -0.7062  0.3411 -2.3029
21720SOL    HW266602   7.714   6.943   9.457  2.0454  0.8733  0.3975
21721SOL     OW66603   2.542   1.593   1.196 -0.1050  0.0045  0.3279
21721SOL    HW166604   2.516   1.555   1.280 -1.4286 -0.6686 -0.3541
21721SOL    HW266605   2.486   1.670   1.186  0.2604  0.2559  0.2007
21722SOL     OW66606   0.571   6.830  10.384 -0.0943 -0.2769  0.3203
21722SOL    HW166607   0.632   6.893  10.423 -0.6584 -1.0222  2.5674
21722SOL    HW266608   0.619   6.795  10.308  0.6375  2.0306 -0.3847
21723SOL     OW66609   2.715   2.012  12.372  0.6707  0.3464  0.5244
21723SOL    HW166610   2.764   1.939  12.410 -1.0668 -0.5510  1.1573
21723SOL    HW266611   2.688   2.064  12.448  1.6057  1.4718  0.0996
21724SOL     OW66612   6.560   3.824  12.306  0.7614 -0.0354  0.2938
21724SOL    HW166613   6.504   3.793  12.378 -1.9618  1.0930 -1.1627
21724SOL    HW266614   6.547   3.760  12.237 -0.6485  1.4144 -0.8597
21725SOL     OW66615   5.160   7.614   2.923 -0.2075  0.0120 -0.0993
21725SOL    HW166616   5.202   7.531   2.946 -1.5346 -0.5303  0.4469
21725SOL    HW266617   5.153   7.661   3.006  1.3616  1.1033 -0.5325
21726SOL     OW66618   5.214   2.790   2.750  0.1222 -0.2080 -0.0013
21726SOL    HW166619   5.135   2.823   2.706  0.7397  0.7473 -0.4265
21726SOL    HW266620   5.259   2.869   2.779  2.8198 -0.4060 -3.0375
21727SOL     OW66621   1.715   5.118   8.138 -0.7550 -0.0200  0.0233
21727SOL    HW166622   1.704   5.047   8.201  0.3367  0.9100  1.3244
21727SOL    HW266623   1.739   5.194   8.192  0.2174  0.8169 -1.5211
21728SOL     OW66624   7.034   2.417   1.439  0.1477 -0.1400 -0.0646
21728SOL    HW166625   7.023   2.485   1.373 -0.0456 -0.5719 -0.4875
21728SOL    HW266626   7.063   2.340   1.390  0.9815 -0.1927  0.4936
21729SOL     OW66627   7.880   4.524   9.351 -0.3439 -0.5292 -0.6694
21729SOL    HW166628   7.857   4.461   9.420 -0.4747 -0.1964 -0.4030
21729SOL    HW266629   7.798   4.537   9.303 -0.4792 -0.0681 -0.3171
21730SOL     OW66630   1.519   1.681   5.626 -0.8185 -0.0687  0.6056
21730SOL    HW166631   1.429   1.716   5.624 -0.9455 -0.3922  0.5279
21730SOL    HW266632   1.536   1.656   5.535  0.1747  2.0389  0.1657
21731SOL     OW66633   4.609   3.107   4.168  0.4056 -0.1298  0.0774
21731SOL    HW166634   4.573   3.047   4.233  0.4566  0.9115  1.1032
21731SOL    HW266635   4.560   3.189   4.181  0.9132  0.3153 -0.7047
21732SOL     OW66636   0.420   7.431   0.684 -0.1498  0.5081  0.5897
21732SOL    HW166637   0.341   7.470   0.645 -0.8953 -0.5651  0.9939
21732SOL    HW266638   0.412   7.451   0.777 -1.8943 -2.7413  1.2585
21733SOL     OW66639   4.229   0.039  12.322  0.5095  0.0747 -0.5401
21733SOL    HW166640   4.178   0.004  12.249 -0.1616  0.0796 -0.0906
21733SOL    HW266641   4.263   0.122  12.290  0.4434 -0.0518 -0.9382
21734SOL     OW66642   2.077   2.332   4.743  0.0827  0.2552 -0.6870
21734SOL    HW166643   2.170   2.325   4.722  0.0122  1.5927 -1.5017
21734SOL    HW266644   2.032   2.322   4.659 -0.4237  1.2774 -0.5457
21735SOL     OW66645   7.404   2.869   7.871 -0.0039 -0.3438 -0.0484
21735SOL    HW166646   7.462   2.905   7.805 -1.7857  0.3127 -1.3382
21735SOL    HW266647   7.328   2.836   7.822 -1.4778  0.3290  1.6373
21736SOL     OW66648   2.415   5.820   6.769 -0.5396  0.1888  0.2482
21736SOL    HW166649   2.383   5.875   6.840 -1.3336  0.8034 -0.5613
21736SOL    HW266650   2.484   5.872   6.728  0.3927 -0.4460  0.9633
21737SOL     OW66651   0.994   5.553  10.359 -0.1601  0.2567 -0.0574
21737SOL    HW166652   0.924   5.579  10.299 -0.5601  1.6015  0.9316
21737SOL    HW266653   0.956   5.483  10.412  0.9249 -2.5782 -2.7526
21738SOL     OW66654   6.392   2.667   2.821 -0.2707 -0.3253 -0.1249
21738SOL    HW166655   6.348   2.695   2.741 -1.6180 -1.9456  0.0034
21738SOL    HW266656   6.450   2.597   2.793  0.7371  0.4143  0.0427
21739SOL     OW66657   3.980   1.637  10.377 -0.1579  0.3710  0.2528
21739SOL    HW166658   3.890   1.605  10.382 -0.1287  0.5033  2.3528
21739SOL    HW266659   4.023   1.579  10.314 -1.4140 -0.4368  0.1227
21740SOL     OW66660   5.266   4.077   4.445 -0.0649  0.2284 -0.3847
21740SOL    HW166661   5.274   4.166   4.480  0.7019  0.3611 -0.8727
21740SOL    HW266662   5.304   4.021   4.513  0.2959  0.3674 -0.4687
21741SOL     OW66663   3.337   4.667  10.785 -0.2740  0.0862  0.2747
21741SOL    HW166664   3.428   4.666  10.815  0.6327  0.8636 -2.2666
21741SOL    HW266665   3.313   4.759  10.784 -1.0935 -0.1059  0.8319
21742SOL     OW66666   5.273   0.896  12.211  0.0570  0.3126 -0.0958
21742SOL    HW166667   5.336   0.926  12.145 -0.1217 -0.3388 -0.5643
21742SOL    HW266668   5.188   0.924  12.178 -0.2098 -1.4276 -0.9765
21743SOL     OW66669   7.504   1.503   5.117 -0.7577  0.0469  0.1391
21743SOL    HW166670   7.528   1.593   5.093 -0.6616  0.8104  2.7450
21743SOL    HW266671   7.562   1.448   5.066  0.0123  1.5100 -0.6368
21744SOL     OW66672   1.727   6.378   3.742  0.3679 -0.1262 -0.0237
21744SOL    HW166673   1.717   6.411   3.653 -1.0693  1.7383  0.7724
21744SOL    HW266674   1.652   6.318   3.753 -0.2990  0.7652  0.3831
21745SOL     OW66675   6.664   3.834   1.274  0.0615 -0.8638  0.3803
21745SOL    HW166676   6.579   3.812   1.236 -0.0455  0.6338 -0.3213
21745SOL    HW266677   6.701   3.899   1.214  1.7268 -1.5112  0.6604
21746SOL     OW66678   1.238   4.104   6.243 -0.4576 -0.1542  0.3585
21746SOL    HW166679   1.147   4.079   6.230 -0.4177 -0.7541  1.1541
21746SOL    HW266680   1.272   4.041   6.307  0.6259 -0.1816 -0.2162
21747SOL     OW66681   7.803   0.174  12.150 -0.1646  0.1346 -0.0106
21747SOL    HW166682   7.754   0.243  12.105 -0.8115  0.3773  1.0359
21747SOL    HW266683   7.804   0.101  12.088  0.2937  0.9686 -1.0233
21748SOL     OW66684   4.911   1.722   1.254  0.3170 -0.1201 -0.2840
21748SOL    HW166685   4.920   1.683   1.167  0.8547  1.5192 -1.0034
21748SOL    HW266686   4.956   1.807   1.247 -0.3370  0.3991  1.3531
21749SOL     OW66687   1.388   5.030   8.596  0.0546 -0.2338 -0.1352
21749SOL    HW166688   1.322   5.028   8.527 -0.5094 -0.9288  0.4157
21749SOL    HW266689   1.449   5.099   8.568 -1.3242  1.0028 -0.2448
21750SOL     OW66690   1.105   6.481   4.984  0.2646  0.2865  0.7493
21750SOL    HW166691   1.158   6.558   4.964 -0.2697  1.1957  2.6253
21750SOL    HW266692   1.017   6.506   4.956  0.2048  0.1012  0.7761
21751SOL     OW66693   4.235   4.124  12.114 -0.7725 -0.0455  0.7767
21751SOL    HW166694   4.283   4.078  12.045 -2.1798 -0.7771  0.2255
21751SOL    HW266695   4.252   4.074  12.193 -0.0901  0.1057  0.7288
21752SOL     OW66696   7.537   0.629   8.523 -0.8165  0.3753  0.1430
21752SOL    HW166697   7.585   0.571   8.464  0.9791  0.5693  1.3505
21752SOL    HW266698   7.493   0.570   8.584  0.0294  0.2197  0.6254
21753SOL     OW66699   2.824   3.393   5.254 -0.2880  0.4895  0.3797
21753SOL    HW166700   2.883   3.461   5.286 -1.0469  1.6102 -0.5265
21753SOL    HW266701   2.736   3.425   5.275 -0.6359 -0.4882  0.4606
21754SOL     OW66702   6.786   0.352   6.569  0.0950 -0.0034 -0.2167
21754SOL    HW166703   6.857   0.322   6.625 -0.9754 -1.6744  0.3183
21754SOL    HW266704   6.824   0.352   6.481  0.3051 -2.7068 -0.2154
21755SOL     OW66705   2.910   6.701  11.355  0.0395 -0.4217 -0.1787
21755SOL    HW166706   2.871   6.632  11.301 -1.3259 -0.4693  0.7980
21755SOL    HW266707   2.961   6.655  11.421 -0.7654 -0.5254  0.3921
21756SOL     OW66708   5.480   0.441   1.164 -0.0224 -0.2431  0.1707
21756SOL    HW166709   5.435   0.515   1.123  0.4705 -0.7035 -1.2614
21756SOL    HW266710   5.489   0.467   1.255  2.0737  2.5071 -0.6705
21757SOL     OW66711   0.986   3.963   6.901 -0.1016  0.4408 -0.4412
21757SOL    HW166712   0.974   4.058   6.901  0.7866  0.5894  1.3318
21757SOL    HW266713   1.054   3.947   6.966  2.3251 -1.1494 -3.0990
21758SOL     OW66714   5.372   3.783   0.281 -0.0885 -0.2719 -0.7852
21758SOL    HW166715   5.341   3.726   0.351 -0.8560 -1.0762 -1.7480
21758SOL    HW266716   5.336   3.869   0.303  1.0229 -0.1288  0.6446
21759SOL     OW66717   2.391   2.806   8.826 -0.6115 -0.5416 -0.4279
21759SOL    HW166718   2.355   2.806   8.738 -0.1207 -2.0445 -0.6423
21759SOL    HW266719   2.378   2.717   8.859 -1.4197  0.1506  1.2987
21760SOL     OW66720   6.736   5.008   9.025  0.2219  0.1491 -0.5432
21760SOL    HW166721   6.718   4.957   8.946  2.0424 -0.3916 -0.6352
21760SOL    HW266722   6.795   4.953   9.076 -0.7652  0.5746  1.1368
21761SOL     OW66723   5.571   1.907   3.049  0.3445 -1.0400 -0.4903
21761SOL    HW166724   5.564   1.833   3.110 -0.4958 -1.5290 -1.1657
21761SOL    HW266725   5.657   1.945   3.068  1.6412 -3.3067 -1.3417
21762SOL     OW66726   6.476   7.052   8.810 -0.2653  0.3308  0.3672
21762SOL    HW166727   6.429   7.046   8.893  1.2248  0.2979  1.2295
21762SOL    HW266728   6.487   7.146   8.796 -1.5138  0.3901 -0.4068
21763SOL     OW66729   1.804   4.408   0.121 -0.3216 -0.6880 -0.6405
21763SOL    HW166730   1.819   4.473   0.052 -0.1894 -0.0387 -0.0073
21763SOL    HW266731   1.891   4.396   0.161 -0.2897 -1.4540 -0.9197
21764SOL     OW66732   7.406   2.691   4.560  1.2947  0.4037 -0.3571
21764SOL    HW166733   7.426   2.630   4.630  1.2844 -0.7762 -1.3536
21764SOL    HW266734   7.351   2.641   4.499 -0.3702  1.9917 -0.2550
21765SOL     OW66735   4.710   0.745   7.369 -0.1339 -0.4212 -0.5394
21765SOL    HW166736   4.788   0.691   7.354  1.4344  1.8847 -1.2794
21765SOL    HW266737   4.652   0.724   7.296  0.0109 -1.7289 -0.3122
21766SOL     OW66738   1.396   7.381   9.491  0.0351 -0.5601  0.5193
21766SOL    HW166739   1.346   7.340   9.420  2.0560 -1.5348 -0.4347
21766SOL    HW266740   1.400   7.473   9.467 -1.1974 -0.4675  0.5823
21767SOL     OW66741   7.463   4.134   1.368 -0.6672 -0.4913  0.5955
21767SOL    HW166742   7.392   4.162   1.310 -0.4525 -0.1216  0.5097
21767SOL    HW266743   7.448   4.040   1.381  0.9953 -1.2797 -2.4447
21768SOL     OW66744   1.424   0.641   0.874 -0.0844 -0.0052 -0.6182
21768SOL    HW166745   1.439   0.608   0.785 -0.2644  0.9169 -0.9971
21768SOL    HW266746   1.457   0.730   0.873  0.9245 -0.3464  0.5704
21769SOL     OW66747   0.874   1.496  12.271  0.7597  0.0918  0.0892
21769SOL    HW166748   0.793   1.532  12.234  1.6178  0.4036 -1.5578
21769SOL    HW266749   0.844   1.441  12.344 -1.2370 -2.3078 -2.3253
21770SOL     OW66750   2.521   3.650   0.886  0.0553  0.2168 -0.1655
21770SOL    HW166751   2.586   3.630   0.818  0.4693  0.4238  0.1592
21770SOL    HW266752   2.561   3.618   0.967 -0.9349 -1.0867 -0.1563
21771SOL     OW66753   2.975   0.038  10.238  0.7567 -0.3414 -0.3919
21771SOL    HW166754   2.962  -0.040  10.185  0.6475  0.0175 -0.8973
21771SOL    HW266755   2.887   0.066  10.263  0.8391 -1.1156  0.8946
21772SOL     OW66756   3.965   0.025   2.757  0.5052  0.0423 -0.2711
21772SOL    HW166757   4.044  -0.028   2.770  0.6246 -0.7420 -3.2781
21772SOL    HW266758   3.931  -0.004   2.672 -0.3664  3.6342 -1.3432
21773SOL     OW66759   6.656   3.264   2.577  0.2854 -0.1026  0.1025
21773SOL    HW166760   6.657   3.174   2.545 -0.6395 -0.2547  0.4484
21773SOL    HW266761   6.643   3.255   2.672  1.7802  0.3640  0.3698
21774SOL     OW66762   3.959   3.292   0.401  0.2122 -0.0480  0.2981
21774SOL    HW166763   3.960   3.198   0.384 -0.4879  0.1036 -0.7395
21774SOL    HW266764   3.887   3.325   0.347  0.9336  1.1891  0.0435
21775SOL     OW66765   2.094   1.079   4.967 -0.3281  0.0082 -0.2533
21775SOL    HW166766   2.034   1.117   4.902 -0.5375 -0.0001 -0.0660
21775SOL    HW266767   2.062   1.113   5.051 -0.0134  0.0769 -0.1618
21776SOL     OW66768   3.750   5.987  12.275  0.0381  0.5327  0.0106
21776SOL    HW166769   3.758   5.995  12.180  0.5189 -1.2523 -0.1346
21776SOL    HW266770   3.820   5.926  12.300  0.6365  1.7997  1.6759
21777SOL     OW66771   6.614   7.428   5.024 -0.2977 -0.1163  0.2299
21777SOL    HW166772   6.578   7.488   4.959 -0.5514 -0.2129  0.2795
21777SOL    HW266773   6.540   7.408   5.082 -0.7218 -1.9209 -0.8375
21778SOL     OW66774   3.388   1.857   6.420 -0.1910 -0.0747 -0.4460
21778SOL    HW166775   3.389   1.767   6.451  0.7796 -0.0413 -0.3729
21778SOL    HW266776   3.321   1.900   6.475 -2.0011 -1.1444 -1.7097
21779SOL     OW66777   7.279   0.585   1.032  0.2553 -0.3587  0.0566
21779SOL    HW166778   7.361   0.599   1.078 -1.0960 -0.9960  2.8698
21779SOL    HW266779   7.236   0.514   1.080 -2.0898  0.1963 -1.0777
21780SOL     OW66780   2.953   7.545   4.579 -0.1022 -0.1825  0.6116
21780SOL    HW166781   2.923   7.636   4.589 -1.0708 -0.4899  0.5648
21780SOL    HW266782   2.919   7.518   4.494  1.3174 -0.1787  0.0073
21781SOL     OW66783   6.207   0.875   7.401  0.2414 -0.1780  0.1896
21781SOL    HW166784   6.290   0.849   7.361  1.2145  0.4242  1.7218
21781SOL    HW266785   6.140   0.834   7.346  1.5822 -2.4869  0.1177
21782SOL     OW66786   6.123   2.185   2.967 -0.4311 -0.2635  0.1119
21782SOL    HW166787   6.164   2.266   2.938  1.5589 -0.3530  2.3663
21782SOL    HW266788   6.164   2.117   2.914 -0.6702  0.0290 -0.4510
21783SOL     OW66789   2.448   7.674   1.057 -0.5502 -0.2244 -0.0550
21783SOL    HW166790   2.388   7.610   1.094 -0.3479 -0.0363  0.6145
21783SOL    HW266791   2.531   7.627   1.046 -0.8040 -0.4860 -0.9845
21784SOL     OW66792   3.949   5.912  11.445  0.7060 -0.4937 -0.2879
21784SOL    HW166793   3.907   5.827  11.451 -0.4811 -0.0349 -1.6112
21784SOL    HW266794   4.008   5.906  11.370 -0.8983  0.4338 -1.6726
21785SOL     OW66795   2.423   1.243   4.705  0.1342  0.0242  0.1885
21785SOL    HW166796   2.469   1.315   4.748 -0.2330  0.4674 -0.1596
21785SOL    HW266797   2.385   1.281   4.626 -0.5690 -0.4108  0.3057
21786SOL     OW66798   1.767   1.606   5.954  0.0971  0.1031  0.0938
21786SOL    HW166799   1.719   1.544   5.899 -2.1885  0.7230  1.2279
21786SOL    HW266800   1.752   1.691   5.912  1.6644  0.1332 -0.4467
21787SOL     OW66801   7.546   7.518  12.078 -0.3063  0.2381  0.6390
21787SOL    HW166802   7.632   7.542  12.046 -0.6176 -1.3718 -1.6799
21787SOL    HW266803   7.557   7.509  12.173  1.7244  1.2843  0.5495
21788SOL     OW66804   4.984   7.144  11.010 -0.0454  0.1359  0.4902
21788SOL    HW166805   4.939   7.110  10.934  1.1152  0.9650 -0.6189
21788SOL    HW266806   4.966   7.081  11.080 -1.4332 -0.4401 -0.3543
21789SOL     OW66807   1.497   0.664   8.365 -0.0087  0.8189 -0.5077
21789SOL    HW166808   1.429   0.730   8.381 -0.3471  0.1630  0.8762
21789SOL    HW266809   1.561   0.678   8.435  0.9555  0.9653 -1.3851
21790SOL     OW66810   4.844   3.711   6.896  0.1686 -0.0713  0.8046
21790SOL    HW166811   4.848   3.704   6.800 -0.2852 -0.8067  0.8323
21790SOL    HW266812   4.899   3.638   6.927  0.6314  0.4009  1.1084
21791SOL     OW66813   3.300   6.220   6.946  0.5120 -0.1439  0.0088
21791SOL    HW166814   3.363   6.228   6.874  0.4084  1.3239  0.0503
21791SOL    HW266815   3.296   6.308   6.984 -0.5960 -0.5302  0.8329
21792SOL     OW66816   4.963   1.435   9.786  0.1383  0.4724  0.3024
21792SOL    HW166817   4.967   1.484   9.704 -1.9885  0.1857 -0.0138
21792SOL    HW266818   5.029   1.366   9.775 -0.6368 -0.0370 -1.5156
21793SOL     OW66819   5.892   6.048   5.666  0.0786  0.5772 -0.2003
21793SOL    HW166820   5.951   6.111   5.625 -0.5502  0.7923 -0.7843
21793SOL    HW266821   5.826   6.101   5.710 -0.1287  0.3319 -0.2117
21794SOL     OW66822   1.299   4.841   3.113  0.7100 -0.1301 -0.5157
21794SOL    HW166823   1.238   4.912   3.096 -1.8789 -2.2940 -0.9293
21794SOL    HW266824   1.360   4.842   3.039  1.5503  2.3295  0.1172
21795SOL     OW66825   5.933   5.844   9.185  1.0081  0.6489 -0.3340
21795SOL    HW166826   5.973   5.792   9.255  0.0956  1.4470  0.8324
21795SOL    HW266827   5.917   5.782   9.114 -2.0711 -1.2678  1.8033
21796SOL     OW66828   6.167   0.039   5.300 -0.3297  0.5694  0.2998
21796SOL    HW166829   6.231   0.044   5.370 -0.2024  1.0602  0.1526
21796SOL    HW266830   6.218   0.035   5.220 -0.3831 -2.7955  0.2993
21797SOL     OW66831   1.505   2.479   1.789  0.5525 -0.0063 -0.1993
21797SOL    HW166832   1.416   2.478   1.754  0.5245  0.2584 -0.1415
21797SOL    HW266833   1.543   2.560   1.754 -0.3151  1.6642  2.4438
21798SOL     OW66834   6.951   4.436   5.919  0.0144  0.2470 -0.3262
21798SOL    HW166835   6.970   4.346   5.947  1.2316  0.2813 -0.9634
21798SOL    HW266836   7.021   4.488   5.958  0.4312  0.6254 -1.5315
21799SOL     OW66837   2.410   1.787   9.700  0.4261  0.1706  0.1819
21799SOL    HW166838   2.352   1.734   9.644 -0.9515  0.0959  1.6200
21799SOL    HW266839   2.431   1.730   9.774  2.5297  0.1431 -0.3739
21800SOL     OW66840   5.159   0.308   9.611 -0.7279  0.0105 -0.2467
21800SOL    HW166841   5.094   0.309   9.681 -0.3099  0.5774  0.1400
21800SOL    HW266842   5.108   0.319   9.531 -0.9492  3.8264  0.2106
21801SOL     OW66843   6.188   4.948   8.269  0.2805 -0.9420  0.6366
21801SOL    HW166844   6.257   5.014   8.267 -0.7697  0.2507  1.7533
21801SOL    HW266845   6.109   4.996   8.294 -0.8467 -2.3656  0.0019
21802SOL     OW66846   0.550   6.116   0.517  0.5279 -0.1858 -0.0926
21802SOL    HW166847   0.544   6.139   0.610  2.5143 -1.8841  0.5440
21802SOL    HW266848   0.518   6.026   0.513  0.3888 -0.1007 -1.0837
21803SOL     OW66849   7.542   7.320   9.830  0.2463 -0.2857  0.0023
21803SOL    HW166850   7.522   7.323   9.924 -0.9472  2.6675 -0.2361
21803SOL    HW266851   7.466   7.279   9.791  1.0363 -2.1494  0.3246
21804SOL     OW66852   1.246   4.883  12.042  0.0015 -0.4583 -0.2040
21804SOL    HW166853   1.276   4.836  12.120  0.5052  0.1032 -0.0529
21804SOL    HW266854   1.298   4.964  12.041 -1.5924  0.6264  0.1469
21805SOL     OW66855   6.480   2.396   0.269 -0.5044 -0.3020  0.4691
21805SOL    HW166856   6.386   2.399   0.249 -0.6547 -1.5200  0.9073
21805SOL    HW266857   6.522   2.432   0.191 -1.2485 -1.5856 -0.5644
21806SOL     OW66858   7.408   7.461   3.423 -0.0221  0.0516 -0.7953
21806SOL    HW166859   7.492   7.472   3.378  0.9066  0.1587  0.8879
21806SOL    HW266860   7.359   7.540   3.402  1.7576  1.7839  1.1054
21807SOL     OW66861   0.364   4.052   6.755 -0.1345 -0.0112 -0.2172
21807SOL    HW166862   0.454   4.023   6.743 -0.4897 -1.3690  0.2341
21807SOL    HW266863   0.313   3.971   6.763 -1.6157  0.6587 -1.9409
21808SOL     OW66864   1.970   1.248   3.514 -0.2886 -0.1160 -0.2388
21808SOL    HW166865   2.028   1.320   3.537 -1.0781  0.1695  0.9258
21808SOL    HW266866   1.897   1.255   3.575 -1.1147 -1.0108 -1.0783
21809SOL     OW66867   6.227   7.747  10.533 -0.6939 -0.4547  0.1046
21809SOL    HW166868   6.151   7.697  10.564  0.6387 -2.2952  0.5151
21809SOL    HW266869   6.281   7.760  10.612 -1.4754  2.6907  0.2899
21810SOL     OW66870   7.183   3.699   2.134 -0.4942  0.0879 -0.3997
21810SOL    HW166871   7.116   3.675   2.198 -1.2137  0.8356 -0.8368
21810SOL    HW266872   7.186   3.625   2.073  1.1943 -1.2702  1.2143
21811SOL     OW66873   4.503   2.260   5.436  0.1700  0.1578  0.5038
21811SOL    HW166874   4.543   2.346   5.426 -1.6996  1.2379  1.8194
21811SOL    HW266875   4.548   2.221   5.511 -0.1525  0.7243  0.9997
21812SOL     OW66876   1.690   1.589   2.130  0.0577  0.0195  0.4230
21812SOL    HW166877   1.715   1.510   2.082 -1.0268 -0.1256  0.0659
21812SOL    HW266878   1.772   1.623   2.165  0.5827 -1.0908  0.3142
21813SOL     OW66879   1.623   6.170   0.560 -0.0566  0.6314 -0.4764
21813SOL    HW166880   1.642   6.090   0.511  1.6576  1.7710 -1.7495
21813SOL    HW266881   1.613   6.140   0.651 -1.2455 -1.2424 -1.1536
21814SOL     OW66882   3.200   3.752   3.418  0.0114  0.3187  0.7591
21814SOL    HW166883   3.223   3.692   3.489 -0.0072 -0.6809 -0.0604
21814SOL    HW266884   3.133   3.706   3.368 -0.3241  1.2150  0.3678
21815SOL     OW66885   3.358   1.936   7.425 -0.3324 -0.4900  0.0524
21815SOL    HW166886   3.418   1.929   7.500 -1.1156 -1.7382  0.5979
21815SOL    HW266887   3.386   2.016   7.380  0.7596 -0.2133  1.1431
21816SOL     OW66888   4.541   1.574   7.520 -0.5819 -0.1655 -0.6434
21816SOL    HW166889   4.565   1.667   7.513 -1.7113  0.2721  0.8022
21816SOL    HW266890   4.464   1.566   7.464 -1.2365  0.0792  0.2052
21817SOL     OW66891   6.177   5.197   6.660 -0.4305  0.0983 -0.4462
21817SOL    HW166892   6.267   5.210   6.630 -0.3627  3.1589  0.7169
21817SOL    HW266893   6.186   5.153   6.745 -0.1411 -0.8220 -0.9435
21818SOL     OW66894   5.133   1.677   9.131 -0.1651 -0.2945 -0.3077
21818SOL    HW166895   5.223   1.676   9.097 -0.3572 -1.8484 -0.8453
21818SOL    HW266896   5.078   1.664   9.054 -0.8213  0.0090  0.1024
21819SOL     OW66897   5.906   6.135   0.258 -0.4159 -0.4176  0.1686
21819SOL    HW166898   5.812   6.115   0.258 -0.8662  1.2788 -1.7981
21819SOL    HW266899   5.932   6.125   0.167  0.5420  2.2030  0.0723
21820SOL     OW66900   3.046   2.543  11.915 -0.3167 -0.4929 -0.0915
21820SOL    HW166901   3.059   2.494  11.996 -0.6696  0.1516  0.3591
21820SOL    HW266902   3.057   2.635  11.939 -0.4062 -0.2915 -0.7774
21821SOL     OW66903   1.303   2.764   0.909  0.1694 -0.1508 -0.2848
21821SOL    HW166904   1.380   2.757   0.966  0.5655  1.9156 -0.4612
21821SOL    HW266905   1.251   2.833   0.950 -1.7012 -1.6096 -0.0962
21822SOL     OW66906   3.749   1.220   6.518  0.0131  0.3755  0.3118
21822SOL    HW166907   3.796   1.289   6.471 -0.4174  0.3553 -0.1597
21822SOL    HW266908   3.670   1.205   6.466 -0.3945  0.2379  0.9588
21823SOL     OW66909   5.998   5.378  11.012 -0.5593 -0.3983  0.2106
21823SOL    HW166910   6.027   5.326  10.937 -0.4341  1.3435 -1.0234
21823SOL    HW266911   5.904   5.364  11.016 -0.2171 -2.8697  1.6833
21824SOL     OW66912   7.719   1.756   3.975  0.1509  0.0956  0.0280
21824SOL    HW166913   7.794   1.815   3.984  0.9015 -0.5217 -1.6365
21824SOL    HW266914   7.727   1.696   4.049  0.9310  0.4331  0.2321
21825SOL     OW66915   3.214   6.025  10.719  0.3770  0.2868 -0.4824
21825SOL    HW166916   3.149   5.959  10.744  1.4038 -0.5976 -0.0335
21825SOL    HW266917   3.286   5.974  10.681  1.4204  1.0822  0.3457
21826SOL     OW66918   4.066   4.139   1.191  0.0744  0.6962  0.1352
21826SOL    HW166919   4.141   4.172   1.240 -0.4457  1.6160  0.3452
21826SOL    HW266920   4.101   4.118   1.104  0.6344  0.8214  0.3305
21827SOL     OW66921   4.912   7.400   3.863  0.0995  0.1880  0.1718
21827SOL    HW166922   4.846   7.346   3.820 -0.5241  1.8454 -1.0308
21827SOL    HW266923   4.867   7.437   3.939  0.9676 -2.0787  1.9500
21828SOL     OW66924   7.636   2.238   2.215  0.0355 -0.0755  0.3479
21828SOL    HW166925   7.710   2.268   2.163 -0.7339  0.7849 -0.2784
21828SOL    HW266926   7.563   2.294   2.188 -0.9352 -1.1342  0.6917
21829SOL     OW66927   1.997   5.851   4.181 -1.0636  0.2188 -0.6256
21829SOL    HW166928   2.023   5.924   4.237 -0.8085 -0.6065  0.3616
21829SOL    HW266929   2.060   5.782   4.201 -2.4051 -0.9173 -0.1493
21830SOL     OW66930   0.007   0.856   7.705  0.2381  0.1400  0.2149
21830SOL    HW166931  -0.032   0.792   7.647 -0.5386 -0.2944  1.1984
21830SOL    HW266932   0.017   0.811   7.789  0.5909  0.9936  0.6521
21831SOL     OW66933   4.286   0.427  11.061  0.2454  0.0353 -0.0817
21831SOL    HW166934   4.248   0.422  10.974 -1.3874 -1.5950  0.6767
21831SOL    HW266935   4.275   0.519  11.087 -0.7171  0.1723 -0.9447
21832SOL     OW66936   6.223   2.300   3.573  0.1475 -0.1365 -0.6362
21832SOL    HW166937   6.316   2.279   3.583  0.0194 -2.0296 -2.6462
21832SOL    HW266938   6.177   2.223   3.606 -0.7255  0.5868 -0.1042
21833SOL     OW66939   0.200   3.039   0.432 -0.2334 -0.3039  0.0869
21833SOL    HW166940   0.124   3.089   0.460 -0.5055  0.1443 -1.3697
21833SOL    HW266941   0.175   3.001   0.348  1.4042  0.5611 -0.8544
21834SOL     OW66942   0.286   7.636   0.128 -0.4423 -0.2575  0.7322
21834SOL    HW166943   0.249   7.594   0.051  0.1471  1.0201 -0.2864
21834SOL    HW266944   0.229   7.609   0.200 -0.3363 -2.3924  0.0620
21835SOL     OW66945   7.807   5.126   9.211 -0.4524  0.0502  0.2456
21835SOL    HW166946   7.797   5.135   9.305  1.8996  1.9684  0.4080
21835SOL    HW266947   7.758   5.199   9.174 -2.7292 -1.5989 -0.2228
21836SOL     OW66948   2.239   3.922   8.298  0.8138 -0.1216 -0.5435
21836SOL    HW166949   2.278   3.861   8.359 -0.4067 -0.9323 -0.5338
21836SOL    HW266950   2.157   3.880   8.271 -0.6871  1.9888  0.3919
21837SOL     OW66951   7.325   5.597  10.053  0.1116  0.0060 -0.0165
21837SOL    HW166952   7.305   5.503  10.055  1.1777 -0.2266  0.9363
21837SOL    HW266953   7.285   5.632  10.133 -1.0283  0.5469 -0.7991
21838SOL     OW66954   5.199   7.287   0.359 -0.3320  0.1437 -0.1664
21838SOL    HW166955   5.212   7.357   0.295  1.2477 -0.1661 -0.2055
21838SOL    HW266956   5.230   7.324   0.442 -1.8879  0.3609  0.3647
21839SOL     OW66957   3.663   3.812  12.281 -0.3236  0.0730  0.4061
21839SOL    HW166958   3.747   3.802  12.326 -0.2001  0.8442  0.3688
21839SOL    HW266959   3.615   3.876  12.335 -0.2316  0.8971 -0.4723
21840SOL     OW66960   1.791   7.330  11.020 -0.3834 -0.3084 -0.0400
21840SOL    HW166961   1.706   7.326  10.976 -1.2047  0.4039  1.4062
21840SOL    HW266962   1.829   7.414  10.991  0.0461 -0.8089 -1.0019
21841SOL     OW66963   3.714   2.742  12.314 -0.2911  0.0846  0.4823
21841SOL    HW166964   3.638   2.691  12.286 -0.3328  0.1687  0.4421
21841SOL    HW266965   3.686   2.789  12.392 -0.8050  1.4020 -0.4569
21842SOL     OW66966   3.362   2.799   0.831 -0.2272  0.2882 -0.1929
21842SOL    HW166967   3.313   2.880   0.844 -1.0945 -0.2209 -0.2777
21842SOL    HW266968   3.442   2.827   0.786 -1.5916  0.8200 -2.4578
21843SOL     OW66969   7.931   1.978  11.115  0.0704  0.2277 -0.3129
21843SOL    HW166970   7.869   1.959  11.045  0.3263 -1.3242 -0.1502
21843SOL    HW266971   7.992   1.905  11.114  0.2054  0.2643  1.3891
21844SOL     OW66972   6.272   1.445   4.519  0.5145 -0.3125  0.2479
21844SOL    HW166973   6.191   1.419   4.564 -0.0337  0.7064 -0.1081
21844SOL    HW266974   6.285   1.377   4.453 -0.0469 -0.4998  0.3255
21845SOL     OW66975   4.213   7.497  11.251 -0.0089  0.0383  0.3505
21845SOL    HW166976   4.175   7.413  11.274  0.4253 -0.4049 -0.5008
21845SOL    HW266977   4.203   7.551  11.330  0.2212 -0.9744  1.0844
21846SOL     OW66978   6.943   5.184   1.313  0.1773 -0.5003 -0.3094
21846SOL    HW166979   7.005   5.236   1.366 -0.3820  1.2389 -1.2754
21846SOL    HW266980   6.999   5.125   1.262  0.9619  0.0991 -0.1745
21847SOL     OW66981   2.316   0.732   6.938  0.4709  0.0064 -0.3526
21847SOL    HW166982   2.312   0.661   7.001  1.0529  1.1652  1.0391
21847SOL    HW266983   2.368   0.800   6.981  0.9160  0.8302 -2.0900
21848SOL     OW66984   5.773   4.203  10.255 -0.1911 -0.3062  0.5424
21848SOL    HW166985   5.745   4.251  10.333  1.0406  1.1515  0.1395
21848SOL    HW266986   5.755   4.263  10.182 -0.7304 -1.3941 -0.2535
21849SOL     OW66987   2.440   5.958   5.149 -0.5887 -0.0984  0.0958
21849SOL    HW166988   2.502   5.910   5.094 -3.2545 -2.1068 -1.4333
21849SOL    HW266989   2.430   6.043   5.107 -0.4410 -0.5504 -0.8648
21850SOL     OW66990   3.630   4.928   8.585  0.2564 -0.4424  0.2285
21850SOL    HW166991   3.537   4.906   8.589 -0.2451  1.2465 -1.0703
21850SOL    HW266992   3.668   4.862   8.527 -0.1658 -1.0035  0.5836
21851SOL     OW66993   4.406   6.110   5.841  0.1816  0.3015  0.2736
21851SOL    HW166994   4.343   6.053   5.796 -1.1717  1.5787  0.4561
21851SOL    HW266995   4.405   6.080   5.932 -1.0145  0.9836  0.5058
21852SOL     OW66996   2.367   1.802   6.959 -0.5074 -0.0000  0.0447
21852SOL    HW166997   2.426   1.854   7.013  2.5124 -2.3623 -0.7196
21852SOL    HW266998   2.326   1.741   7.021 -2.6288  1.8660  0.6327
21853SOL     OW66999   2.750   0.212   4.615  0.0816 -0.0713  0.5145
21853SOL    HW167000   2.699   0.279   4.661 -1.1593  0.3849 -1.4029
21853SOL    HW267001   2.837   0.218   4.653 -0.5649  1.1093  1.9165
21854SOL     OW67002   2.340   4.622   9.492  0.1668 -0.2325 -0.0320
21854SOL    HW167003   2.385   4.552   9.445  0.5948  0.3806 -0.5538
21854SOL    HW267004   2.347   4.597   9.584  1.2541 -0.3520 -0.1334
21855SOL     OW67005   5.271   4.053   8.990 -0.3163  0.2034  0.1358
21855SOL    HW167006   5.194   3.999   8.975 -0.4486  0.8188 -1.7739
21855SOL    HW267007   5.293   4.088   8.903  1.5663  0.7737  0.7785
21856SOL     OW67008   5.380   6.545   3.005 -0.3040  0.1945  0.4001
21856SOL    HW167009   5.381   6.578   3.095 -1.2084  0.8064  0.2032
21856SOL    HW267010   5.432   6.465   3.008  2.6910  2.0133  0.7567
21857SOL     OW67011   3.937   6.372  11.769 -0.2376  0.0485  1.0187
21857SOL    HW167012   3.967   6.326  11.690  4.7400  1.6881  1.5523
21857SOL    HW267013   3.947   6.307  11.839 -0.4475 -0.1745  0.8441
21858SOL     OW67014   4.692   6.796  11.210  0.5275  0.5541 -0.7434
21858SOL    HW167015   4.765   6.752  11.254 -0.5196  0.5528  1.1321
21858SOL    HW267016   4.733   6.868  11.161  1.8230  0.2944 -0.0955
21859SOL     OW67017   5.407   5.225  10.515  0.0349 -0.0724 -0.2883
21859SOL    HW167018   5.387   5.135  10.488 -1.0847 -0.1224  0.6287
21859SOL    HW267019   5.369   5.279  10.446 -1.3387 -0.2503  0.2983
21860SOL     OW67020   6.779   4.031   4.837 -0.2618 -0.2071  0.3390
21860SOL    HW167021   6.721   3.957   4.852 -0.9630  0.7630  2.9095
21860SOL    HW267022   6.858   4.010   4.887 -0.3609  0.6189  0.8658
21861SOL     OW67023   2.635   4.287  11.955  0.0178 -0.0160  0.1430
21861SOL    HW167024   2.623   4.311  12.047  0.2410 -0.4983  0.3026
21861SOL    HW267025   2.727   4.309  11.937  0.6857 -2.1115  0.7326
21862SOL     OW67026   4.378   6.705   0.658  0.6901 -0.0273 -0.2527
21862SOL    HW167027   4.369   6.784   0.711  1.8797 -0.6900  1.0022
21862SOL    HW267028   4.370   6.633   0.720  1.7746 -0.8351 -1.0025
21863SOL     OW67029   0.019   0.871   1.956 -0.1055 -0.4921 -0.0760
21863SOL    HW167030   0.024   0.782   1.921 -0.5580 -0.5461 -0.0151
21863SOL    HW267031   0.071   0.868   2.036 -0.4477 -0.8146  0.1420
21864SOL     OW67032   3.592   0.441   3.760 -0.0196  0.5307 -0.0064
21864SOL    HW167033   3.532   0.487   3.820  0.9312  0.6429  0.8793
21864SOL    HW267034   3.534   0.400   3.696 -1.1083  0.0346  1.2506
21865SOL     OW67035   2.041   0.300  12.286  0.1063 -0.4422  0.4115
21865SOL    HW167036   2.012   0.351  12.210 -0.0105  0.3800  0.9928
21865SOL    HW267037   2.096   0.361  12.336 -0.7033 -0.6120  1.5467
21866SOL     OW67038   5.902   0.017   7.669  0.0338  0.0240  0.0274
21866SOL    HW167039   5.891   0.108   7.642 -1.3207 -0.1703 -0.1570
21866SOL    HW267040   5.997   0.006   7.681  0.1955  1.5185  0.3041
21867SOL     OW67041   1.782   2.462   0.731  0.0603  0.7328  0.6167
21867SOL    HW167042   1.738   2.379   0.743  5.0329 -2.6141 -0.9931
21867SOL    HW267043   1.735   2.504   0.659 -2.4253 -0.7773  1.2563
21868SOL     OW67044   5.635   6.417   7.352  0.6397  0.6412 -0.2129
21868SOL    HW167045   5.541   6.413   7.366  0.8990  1.5681  2.1648
21868SOL    HW267046   5.646   6.480   7.281 -0.4796  1.7153  0.5404
21869SOL     OW67047   3.289   2.457   9.676  0.6266  0.0362  0.0244
21869SOL    HW167048   3.283   2.520   9.748  1.9467  0.3815 -0.1387
21869SOL    HW267049   3.285   2.510   9.597  2.0271 -0.0129 -0.1109
21870SOL     OW67050   0.342   3.509   4.184  0.3517 -0.0650 -0.5702
21870SOL    HW167051   0.408   3.572   4.212 -0.2331  0.0934  0.5134
21870SOL    HW267052   0.267   3.562   4.158 -0.0122 -0.2817  0.0046
21871SOL     OW67053   6.796   7.160   6.735 -0.2899 -0.2791  0.2656
21871SOL    HW167054   6.836   7.100   6.797 -0.2426 -0.0097  0.4967
21871SOL    HW267055   6.702   7.156   6.754 -0.1843  0.5323  1.0082
21872SOL     OW67056   5.854   7.484   1.580 -0.3635 -0.3782  0.0860
21872SOL    HW167057   5.805   7.515   1.504 -2.7224  1.0193  2.0262
21872SOL    HW267058   5.934   7.538   1.580 -1.1978  0.9258 -0.4105
21873SOL     OW67059   0.941   2.940   3.797 -0.1721 -0.7707  0.2573
21873SOL    HW167060   1.000   2.886   3.850  0.8468 -1.5843 -1.6060
21873SOL    HW267061   0.899   2.879   3.737 -0.4729  0.2354 -0.5979
21874SOL     OW67062   7.124   6.054   6.329 -0.0586  0.0657 -0.6283
21874SOL    HW167063   7.153   6.102   6.252 -1.7737  0.7368 -0.8827
21874SOL    HW267064   7.057   6.109   6.369 -1.3075 -1.6044 -0.3074
21875SOL     OW67065   1.954   0.913   0.017 -0.1978  0.2526 -0.1126
21875SOL    HW167066   1.990   0.995   0.051  0.0802  1.4709 -3.0621
21875SOL    HW267067   2.029   0.867  -0.020 -0.6554 -0.4430 -0.2041
21876SOL     OW67068   5.930   6.196   3.961 -0.0839  0.7687  0.0698
21876SOL    HW167069   5.990   6.123   3.981  0.3107  0.1144 -2.9247
21876SOL    HW267070   5.876   6.205   4.039  0.2578 -2.3539  0.8041
21877SOL     OW67071   0.372   6.019   9.931  0.1130  0.1901 -0.1464
21877SOL    HW167072   0.311   5.986   9.865  0.3947  0.0066 -0.3153
21877SOL    HW267073   0.346   6.111   9.944 -0.3650  0.0428 -0.0232
21878SOL     OW67074   2.322   2.751   5.538 -0.5342  0.0389  0.1901
21878SOL    HW167075   2.392   2.712   5.485  0.7687  0.8713  1.2375
21878SOL    HW267076   2.335   2.715   5.625 -1.9046 -0.3636  0.2495
21879SOL     OW67077   0.359   5.999   2.109 -0.1363  0.6648 -0.2378
21879SOL    HW167078   0.316   6.084   2.100  1.1418  1.4256  0.4508
21879SOL    HW267079   0.325   5.964   2.191 -0.8794  0.3768 -0.6658
21880SOL     OW67080   2.466   6.502   8.022 -0.5744  1.1140 -0.2001
21880SOL    HW167081   2.482   6.507   8.117 -2.1448  1.6372  0.0621
21880SOL    HW267082   2.524   6.568   7.985 -0.8127  1.7572  0.5291
21881SOL     OW67083   4.855   0.124   8.691  0.2260 -0.7718 -0.6455
21881SOL    HW167084   4.849   0.217   8.714  0.0123 -0.9302 -0.0366
21881SOL    HW267085   4.833   0.078   8.772 -0.1673 -1.3550 -1.0785
21882SOL     OW67086   4.945   5.679   2.823 -0.5942 -0.3290 -0.3620
21882SOL    HW167087   5.020   5.637   2.780 -1.6178 -1.2228 -1.3415
21882SOL    HW267088   4.879   5.610   2.828 -0.8387 -0.0125  1.9136
21883SOL     OW67089   6.809   1.381   3.014  0.2623  0.2499 -0.2920
21883SOL    HW167090   6.873   1.388   2.943 -0.0509  1.2343 -0.4983
21883SOL    HW267091   6.731   1.426   2.981  1.0617  3.4232  1.6860
21884SOL     OW67092   0.727   7.157  11.097  0.2430 -0.1427 -0.6171
21884SOL    HW167093   0.817   7.186  11.080 -0.3803  0.5648 -3.1692
21884SOL    HW267094   0.733   7.103  11.176  2.8403  0.1386 -0.5523
21885SOL     OW67095   5.991   5.500   7.010 -0.0996  0.0251  0.1557
21885SOL    HW167096   5.964   5.409   7.000 -0.1182  0.1192 -0.7261
21885SOL    HW267097   6.019   5.527   6.923  0.1325  0.7965  0.4535
21886SOL     OW67098   3.943   4.408   7.606 -0.7008  0.1379 -0.1840
21886SOL    HW167099   3.950   4.350   7.682  0.5388 -0.1097 -0.4622
21886SOL    HW267100   3.857   4.390   7.569 -0.3152 -1.6010 -0.3090
21887SOL     OW67101   5.058   7.181   3.950 -0.5870 -0.6556 -0.2083
21887SOL    HW167102   5.062   7.261   3.899  0.5904  0.1088  1.0157
21887SOL    HW267103   4.968   7.150   3.939 -0.9731  0.6679 -0.9414
21888SOL     OW67104   0.371   7.041   3.350  0.3045 -0.0715  0.1157
21888SOL    HW167105   0.282   7.070   3.329 -1.3210 -3.5439  1.3603
21888SOL    HW267106   0.402   6.998   3.270  0.6881  0.7083 -0.1616
21889SOL     OW67107   0.345   7.530   3.152 -0.2061  0.6414 -0.2692
21889SOL    HW167108   0.308   7.606   3.107 -0.0893  1.1862  0.5500
21889SOL    HW267109   0.272   7.493   3.202 -0.3246  0.0588 -0.8479
21890SOL     OW67110   7.256   4.693   7.708  0.1807 -0.3989 -0.1431
21890SOL    HW167111   7.183   4.653   7.754  0.3443  0.5346  0.9629
21890SOL    HW267112   7.291   4.622   7.654 -0.0128 -1.5457  1.1716
21891SOL     OW67113   6.770   7.791   6.236 -0.3944 -0.1870 -0.2694
21891SOL    HW167114   6.686   7.816   6.274 -0.0465 -0.5767  0.7847
21891SOL    HW267115   6.815   7.742   6.305  0.4636 -0.4922 -1.0138
21892SOL     OW67116   3.468   0.508   6.007 -0.6755 -0.1370 -0.2992
21892SOL    HW167117   3.489   0.497   5.914 -0.7853  4.2906 -1.0636
21892SOL    HW267118   3.548   0.482   6.053  0.8065  1.1873 -1.9742
21893SOL     OW67119   4.687   7.542  11.039 -0.1059 -0.1207 -0.0218
21893SOL    HW167120   4.648   7.455  11.038  0.6277 -0.4496 -1.0857
21893SOL    HW267121   4.735   7.549  10.957  1.7723  0.4123  1.0518
21894SOL     OW67122   7.627   0.144   6.885  0.2703  0.1297  0.5798
21894SOL    HW167123   7.633   0.163   6.978  1.5147  0.4763  0.4424
21894SOL    HW267124   7.692   0.201   6.844  2.7140 -2.8368 -0.0679
21895SOL     OW67125   6.449   5.487   9.787  0.0320  0.0312 -0.4247
21895SOL    HW167126   6.448   5.546   9.711 -0.8893  0.4734 -0.0858
21895SOL    HW267127   6.408   5.538   9.857  2.5981  0.3891  0.9710
21896SOL     OW67128   0.471   1.528   7.720 -0.6323 -0.8949 -0.0431
21896SOL    HW167129   0.390   1.546   7.672  0.5715 -1.4843 -2.4624
21896SOL    HW267130   0.456   1.565   7.807 -1.7968  3.2722 -1.7564
21897SOL     OW67131   6.827   3.610   3.660  0.3545 -0.1218 -0.2399
21897SOL    HW167132   6.843   3.638   3.570  0.0019  0.3719 -0.1558
21897SOL    HW267133   6.737   3.577   3.659  0.2087  0.2550  0.0110
21898SOL     OW67134   1.551   3.993   6.423  0.1354  0.2896  0.0114
21898SOL    HW167135   1.573   4.080   6.454 -0.8108  0.5700 -0.0819
21898SOL    HW267136   1.461   3.979   6.450  0.1214 -0.4714 -0.3857
21899SOL     OW67137   4.928   0.776  10.981  0.6087  0.0859  0.3174
21899SOL    HW167138   4.982   0.698  10.964 -2.7508 -2.1473 -1.2318
21899SOL    HW267139   4.930   0.825  10.899  0.4107  0.0692  0.3024
21900SOL     OW67140   6.615   5.076  10.199  0.0353  0.2613  0.0806
21900SOL    HW167141   6.614   5.069  10.294  0.0129  2.5588  0.3092
21900SOL    HW267142   6.708   5.069  10.176 -0.0094 -0.9027  0.1729
21901SOL     OW67143   0.935   2.677   8.702  0.0077  0.2385 -0.1990
21901SOL    HW167144   0.913   2.650   8.613 -0.6943 -0.7620  0.2618
21901SOL    HW267145   0.857   2.655   8.753  0.5460  0.4634  0.7354
21902SOL     OW67146   4.072   6.791   8.259 -0.2892 -0.1300 -0.2370
21902SOL    HW167147   4.009   6.729   8.296  1.4316 -1.5682  0.3838
21902SOL    HW267148   4.065   6.779   8.164 -0.9745 -0.2201 -0.1823
21903SOL     OW67149   2.569   5.955   7.186 -0.3235 -0.4595 -0.4030
21903SOL    HW167150   2.492   5.901   7.171 -0.4431  0.1062 -1.9988
21903SOL    HW267151   2.641   5.891   7.194 -0.7591 -0.9327 -0.1944
21904SOL     OW67152   7.453   4.666   2.700 -0.0506 -0.1030  0.5323
21904SOL    HW167153   7.493   4.670   2.787 -0.6352 -0.5805  0.8295
21904SOL    HW267154   7.395   4.742   2.696 -1.1447 -0.8765  1.1372
21905SOL     OW67155   6.723   6.860   4.615 -0.2223  0.7168  0.1364
21905SOL    HW167156   6.748   6.897   4.699 -0.5431  0.7381  0.2212
21905SOL    HW267157   6.764   6.918   4.550  0.9101  0.1074  0.2700
21906SOL     OW67158   4.203   5.041   9.173 -0.1278 -0.2708 -1.1608
21906SOL    HW167159   4.201   5.066   9.081 -0.0129  0.4659 -0.9728
21906SOL    HW267160   4.133   5.093   9.213  0.9006  0.6825 -0.5396
21907SOL     OW67161   1.522   6.594   1.043  0.0668 -0.1107  0.4236
21907SOL    HW167162   1.529   6.682   1.006  1.6874  0.2067  1.3581
21907SOL    HW267163   1.596   6.547   1.005  0.6648 -0.3158  1.7784
21908SOL     OW67164   5.341   5.241   3.780  0.3781  0.3487 -0.7151
21908SOL    HW167165   5.288   5.290   3.843 -0.7257  1.4940 -2.4240
21908SOL    HW267166   5.358   5.304   3.710  3.4008 -0.2263 -0.6208
21909SOL     OW67167   1.193   3.519  11.618  0.7655 -0.0580  0.1573
21909SOL    HW167168   1.279   3.515  11.658 -0.3491 -1.6354  2.5989
21909SOL    HW267169   1.171   3.428  11.599 -1.4262 -0.0294  2.1434
21910SOL     OW67170   3.768   6.835   5.118  0.0804  0.2910  0.0860
21910SOL    HW167171   3.846   6.890   5.128  0.2097  0.2223 -0.4760
21910SOL    HW267172   3.797   6.748   5.146  1.0083 -0.3445 -2.5240
21911SOL     OW67173   3.235   2.083   6.110 -0.0211 -0.2894 -0.1117
21911SOL    HW167174   3.206   2.151   6.049  0.4474 -0.8010 -0.9229
21911SOL    HW267175   3.194   2.106   6.193 -0.2482  0.7183 -0.4920
21912SOL     OW67176   2.485   2.947  10.556 -0.0864 -0.2370  0.5157
21912SOL    HW167177   2.567   2.994  10.573 -0.1897  0.1363  0.0184
21912SOL    HW267178   2.419   3.017  10.547  0.1935 -0.2485 -2.8203
21913SOL     OW67179   2.787   0.162   9.055  0.0925  0.0263 -0.2055
21913SOL    HW167180   2.854   0.140   9.119  2.1094  1.1925 -1.7998
21913SOL    HW267181   2.774   0.257   9.065 -2.0835 -0.3127  0.7191
21914SOL     OW67182   6.867   3.993   2.008 -0.2907  0.1093 -0.4869
21914SOL    HW167183   6.893   4.075   1.967 -0.7881  0.0904 -0.8386
21914SOL    HW267184   6.834   3.939   1.936  0.9516 -0.7832 -0.4351
21915SOL     OW67185   5.137   0.362   3.786 -0.1782  0.6012 -0.0669
21915SOL    HW167186   5.083   0.439   3.800 -1.3427 -0.3124  0.7119
21915SOL    HW267187   5.076   0.288   3.793  0.6154 -0.3580 -2.1786
21916SOL     OW67188   6.400   3.254   3.595 -0.2299  0.0139 -0.1398
21916SOL    HW167189   6.471   3.200   3.562  0.0511 -0.5282  1.2825
21916SOL    HW267190   6.374   3.308   3.520 -0.5176 -2.0634 -1.6131
21917SOL     OW67191   3.481   0.072   2.464 -0.0909  0.5356 -0.1130
21917SOL    HW167192   3.508   0.023   2.542  1.0147  1.4337  0.1031
21917SOL    HW267193   3.492   0.011   2.392 -1.1521 -0.3180  0.4222
21918SOL     OW67194   6.834   2.574   3.301 -0.0367 -0.1633 -0.3284
21918SOL    HW167195   6.870   2.582   3.212 -0.3205 -0.0492 -0.4340
21918SOL    HW267196   6.820   2.664   3.330  1.8235 -0.1182  0.5698
21919SOL     OW67197   5.718   3.105   0.359 -0.2248 -0.2528  0.3930
21919SOL    HW167198   5.711   3.201   0.360 -0.7326 -0.2904  0.8342
21919SOL    HW267199   5.686   3.078   0.445 -0.4195 -0.8473  0.1373
21920SOL     OW67200   5.750   2.324   7.197  0.0899  1.1142  0.2161
21920SOL    HW167201   5.671   2.341   7.248 -0.6545  0.2253 -0.6073
21920SOL    HW267202   5.773   2.233   7.218 -0.1916  0.7560 -0.9483
21921SOL     OW67203   7.322   0.423  11.814  0.3331  0.0361 -0.5834
21921SOL    HW167204   7.374   0.344  11.807 -0.2480 -0.2928 -1.4121
21921SOL    HW267205   7.305   0.433  11.908  1.8256  0.1287 -0.3092
21922SOL     OW67206   2.557   7.973  10.948  0.1908  0.4430  0.3215
21922SOL    HW167207   2.557   7.878  10.952 -0.1972  0.4714  1.3894
21922SOL    HW267208   2.532   8.001  11.037  1.2943  1.5411  0.3159
21923SOL     OW67209   7.186   4.282  11.396 -0.2392  0.5440 -0.1494
21923SOL    HW167210   7.227   4.311  11.477 -1.5580 -0.1101  0.7746
21923SOL    HW267211   7.134   4.205  11.420 -3.0865  2.0563 -0.9397
21924SOL     OW67212   7.768   1.575   4.161 -0.3635 -0.0480 -0.9810
21924SOL    HW167213   7.756   1.506   4.096 -3.0381 -0.0409 -0.5962
21924SOL    HW267214   7.841   1.545   4.215  1.1933 -0.5851 -3.2325
21925SOL     OW67215   0.052   0.242   7.388 -0.2293  0.7462 -0.0752
21925SOL    HW167216  -0.020   0.303   7.372 -0.2622  0.7752  0.1673
21925SOL    HW267217   0.097   0.234   7.304 -1.9211 -1.1117 -0.9068
21926SOL     OW67218   0.153   6.037   2.973  0.6078  0.4225 -0.0276
21926SOL    HW167219   0.204   5.995   2.904  0.7979  1.0856 -0.2947
21926SOL    HW267220   0.087   5.972   2.996  1.2396 -0.2344 -0.0509
21927SOL     OW67221   1.808   3.730   9.971  0.3113  0.2189  0.1057
21927SOL    HW167222   1.829   3.707   9.881 -1.1954 -1.1062  0.0520
21927SOL    HW267223   1.718   3.764   9.967 -0.3168 -1.2071  1.2684
21928SOL     OW67224   2.046   6.783   6.851  0.0734 -0.3399  0.1856
21928SOL    HW167225   2.065   6.846   6.921 -0.9272  2.8984 -2.2224
21928SOL    HW267226   1.958   6.751   6.871  0.7643 -1.4547  1.6803
21929SOL     OW67227   0.415   1.844  11.238 -0.3519 -0.6494  0.2819
21929SOL    HW167228   0.413   1.913  11.171 -1.0163 -0.7738  0.1739
21929SOL    HW267229   0.491   1.791  11.215  0.0601 -0.0601  0.2585
21930SOL     OW67230   5.617   0.876   3.367 -0.3348 -0.1560  0.1063
21930SOL    HW167231   5.581   0.883   3.456  1.3253  1.3949  0.7168
21930SOL    HW267232   5.561   0.932   3.314  0.6665  1.6735  0.9034
21931SOL     OW67233   3.942   6.478  10.740  0.9057 -0.4937  0.5264
21931SOL    HW167234   3.977   6.399  10.698  2.0678  0.4773 -0.4072
21931SOL    HW267235   3.847   6.470  10.731  1.0537 -1.1855 -0.6930
21932SOL     OW67236   7.952   6.737   8.304 -0.0264 -0.1915 -0.2607
21932SOL    HW167237   7.994   6.804   8.250 -1.3442  1.3943  0.6023
21932SOL    HW267238   8.019   6.714   8.369  0.4079  0.3463 -0.5146
21933SOL     OW67239   2.942   7.744   3.255  0.2682  0.8682 -0.3353
21933SOL    HW167240   2.972   7.660   3.220  1.5672  1.0837  0.2084
21933SOL    HW267241   2.847   7.743   3.241  0.5544  0.4193 -2.6862
21934SOL     OW67242   3.351   3.340  11.984  0.2676  0.0026  0.3881
21934SOL    HW167243   3.335   3.400  11.911  4.3481  1.4305  0.3911
21934SOL    HW267244   3.368   3.255  11.943  0.6642  0.3616 -0.2102
21935SOL     OW67245   6.873   2.363   8.214 -0.0496 -0.6243  0.3594
21935SOL    HW167246   6.887   2.452   8.248 -2.8759 -0.4671  1.4201
21935SOL    HW267247   6.895   2.306   8.288  2.2261 -0.9023 -0.4739
21936SOL     OW67248   6.810   3.050   9.669  0.3622  0.3289 -1.2476
21936SOL    HW167249   6.795   3.037   9.762  1.7406  0.1616 -1.0397
21936SOL    HW267250   6.790   3.143   9.655 -1.2998  0.0279 -1.1073
21937SOL     OW67251   4.374   6.240   9.331  0.1571 -0.2296 -0.2268
21937SOL    HW167252   4.355   6.239   9.425  0.2351  0.4780 -0.2039
21937SOL    HW267253   4.356   6.330   9.304  0.5832 -0.3181 -0.8026
21938SOL     OW67254   3.078   3.646   6.801 -0.5222 -0.3466  0.3591
21938SOL    HW167255   3.011   3.593   6.757 -1.6022 -0.1019  1.6567
21938SOL    HW267256   3.111   3.590   6.871 -0.7286  0.2027  0.9071
21939SOL     OW67257   0.781   7.473   1.684 -0.0343 -0.2279 -0.1657
21939SOL    HW167258   0.833   7.500   1.609  1.2433 -0.9382  0.4190
21939SOL    HW267259   0.845   7.437   1.745 -0.9605  0.7853  1.4863
21940SOL     OW67260   7.590   7.223   0.836  0.1902 -0.4840  0.2421
21940SOL    HW167261   7.507   7.270   0.842 -0.3051 -1.3032 -0.0580
21940SOL    HW267262   7.638   7.249   0.914  0.6244  1.8142 -0.7193
21941SOL     OW67263   3.321   3.347   5.824 -0.2543 -0.3347  0.0307
21941SOL    HW167264   3.307   3.414   5.757 -0.0292 -0.4933 -0.1800
21941SOL    HW267265   3.394   3.381   5.877 -0.6578 -0.0512  0.4070
21942SOL     OW67266   7.977   3.404   8.748 -0.0231  0.4012 -0.3125
21942SOL    HW167267   8.071   3.392   8.764 -0.2476 -2.4607 -0.6604
21942SOL    HW267268   7.973   3.472   8.681  1.7367  1.0971  0.2084
21943SOL     OW67269   1.459   4.306  10.292  0.0393  0.5101  0.4429
21943SOL    HW167270   1.448   4.295  10.386  0.4183 -0.6726  0.3712
21943SOL    HW267271   1.553   4.319  10.280 -0.1652  2.0333  0.3311
21944SOL     OW67272   6.306   4.719   0.508  0.3597  0.7704  0.0143
21944SOL    HW167273   6.215   4.699   0.484  1.2453 -1.6603 -1.7914
21944SOL    HW267274   6.354   4.710   0.426  2.5130  0.0172  1.2866
21945SOL     OW67275   2.948   6.092   1.952  0.7388  0.1363  0.1008
21945SOL    HW167276   2.999   6.172   1.958  2.0671 -0.7044  0.4631
21945SOL    HW267277   2.901   6.088   2.036 -0.5832  1.3050 -0.5412
21946SOL     OW67278   3.681   7.963   4.491 -0.0751  0.1855  0.0889
21946SOL    HW167279   3.626   7.884   4.493  0.5743 -0.2722  0.4590
21946SOL    HW267280   3.771   7.929   4.500  0.3335  0.8555 -1.2402
21947SOL     OW67281   3.883   6.453   4.528 -0.2938  0.0517  0.1540
21947SOL    HW167282   3.960   6.448   4.586 -0.9885 -0.8892  1.0348
21947SOL    HW267283   3.880   6.544   4.500 -0.1828  0.6535  1.9893
21948SOL     OW67284   7.468   6.531   2.515  0.3203 -1.0744  0.3217
21948SOL    HW167285   7.554   6.547   2.476  0.9465 -2.1313  1.1962
21948SOL    HW267286   7.488   6.484   2.596 -1.0550 -0.7537  0.8670
21949SOL     OW67287   6.396   5.842   7.904  0.1571  0.1124  0.0404
21949SOL    HW167288   6.391   5.877   7.815 -0.1876  0.0130  0.0190
21949SOL    HW267289   6.308   5.855   7.940  0.4711  0.7613  0.5970
21950SOL     OW67290   1.274   2.775   9.117  0.2252  0.5064 -0.4153
21950SOL    HW167291   1.261   2.870   9.111  2.9725  0.9979 -0.1431
21950SOL    HW267292   1.304   2.750   9.030  2.7992  0.5908  0.3605
21951SOL     OW67293   3.779   7.323  11.218 -0.0654  0.1405 -0.0150
21951SOL    HW167294   3.823   7.252  11.265  1.1893  1.1510  0.4115
21951SOL    HW267295   3.688   7.319  11.248  0.1954 -0.7045  0.7110
21952SOL     OW67296   1.898   0.201   5.735 -0.3766  0.2483  0.1352
21952SOL    HW167297   1.877   0.151   5.656  0.6239 -1.8296  1.1007
21952SOL    HW267298   1.832   0.174   5.799  1.3474 -1.5427  1.2899
21953SOL     OW67299   4.256   5.115   0.736  0.9374  0.2692  0.2452
21953SOL    HW167300   4.213   5.053   0.677  1.0868  0.9765 -0.6322
21953SOL    HW267301   4.184   5.165   0.775  0.8937  0.5654 -0.2115
21954SOL     OW67302   0.224   7.825  10.354 -0.4966  0.3799  0.3840
21954SOL    HW167303   0.306   7.784  10.328  0.1665  1.2800  0.9795
21954SOL    HW267304   0.175   7.755  10.397  0.7431  0.2382  1.6618
21955SOL     OW67305   3.934   1.569  11.290 -0.3018  0.0709 -0.7195
21955SOL    HW167306   3.905   1.594  11.378  1.1828 -1.1095  0.1524
21955SOL    HW267307   3.859   1.589  11.234 -1.5751  0.1326  0.9198
21956SOL     OW67308   7.886   3.328   9.838  0.1755 -0.1265  0.4138
21956SOL    HW167309   7.815   3.390   9.820  0.4024  0.4673  1.4944
21956SOL    HW267310   7.858   3.282   9.917 -0.4759 -2.1745 -0.9303
21957SOL     OW67311   6.416   7.306   0.295 -0.2034  0.1239  0.5378
21957SOL    HW167312   6.399   7.387   0.344 -0.6825  0.3390  0.0183
21957SOL    HW267313   6.504   7.281   0.322  0.3799  1.3828 -0.0677
21958SOL     OW67314   3.730   2.498   4.122  0.2178 -0.0381  0.0604
21958SOL    HW167315   3.760   2.551   4.048 -1.5208 -0.7030 -1.1713
21958SOL    HW267316   3.716   2.411   4.085  0.8816 -0.8164  1.5590
21959SOL     OW67317   6.261   6.900  10.462 -0.2502 -0.1216 -0.1576
21959SOL    HW167318   6.295   6.842  10.531 -1.2519  0.2607  0.6846
21959SOL    HW267319   6.272   6.850  10.381 -2.0855 -2.0086  0.6521
21960SOL     OW67320   4.497   2.681   0.672  0.4598 -0.7387 -0.5822
21960SOL    HW167321   4.458   2.767   0.658  0.7693 -0.1551  1.7362
21960SOL    HW267322   4.582   2.686   0.629  0.4283  0.0714 -0.5653
21961SOL     OW67323   2.407   7.069  10.135  0.7456  0.0012 -0.5116
21961SOL    HW167324   2.357   7.043  10.213 -0.3991  1.5443 -0.6875
21961SOL    HW267325   2.483   7.011  10.135  0.1086 -0.8961  1.0328
21962SOL     OW67326   0.321   5.257   6.556  0.2438  0.2851  0.1018
21962SOL    HW167327   0.300   5.193   6.488  0.5326 -0.1229  0.3916
21962SOL    HW267328   0.359   5.331   6.509  0.3892  0.0283 -0.1876
21963SOL     OW67329   3.285   0.921  11.447  0.1878  0.3893 -0.3682
21963SOL    HW167330   3.307   0.926  11.354  0.0611 -2.9967 -0.7069
21963SOL    HW267331   3.369   0.911  11.491  0.1815  1.0659 -0.1905
21964SOL     OW67332   6.338   4.740  10.044  0.8216  0.2806  0.6509
21964SOL    HW167333   6.252   4.776  10.063  1.1742  0.9355  1.0692
21964SOL    HW267334   6.322   4.650  10.015 -0.0617  0.6948 -0.1644
21965SOL     OW67335   2.821   4.647   2.996 -0.4495 -0.1877  0.6038
21965SOL    HW167336   2.862   4.732   2.980  0.5517 -0.4356  1.7181
21965SOL    HW267337   2.837   4.597   2.917 -0.7462  0.5404  0.0703
21966SOL     OW67338   5.596   6.713   5.102  0.5368  0.4321  0.0799
21966SOL    HW167339   5.531   6.649   5.132  0.7187 -1.1271 -2.5424
21966SOL    HW267340   5.547   6.794   5.089 -0.6391 -0.3829 -0.6605
21967SOL     OW67341   0.879   3.293   2.921  0.2723 -0.0324  0.6619
21967SOL    HW167342   0.974   3.298   2.907  0.1924  0.7647  0.3343
21967SOL    HW267343   0.869   3.272   3.013  0.7742 -0.1264  0.6975
21968SOL     OW67344   1.588   1.640   0.381  0.1336 -0.3613  0.1993
21968SOL    HW167345   1.519   1.689   0.425  1.7241  1.6868  0.5559
21968SOL    HW267346   1.654   1.625   0.449 -0.2451 -3.0514  0.0935
21969SOL     OW67347   0.066   7.365   2.287 -0.2040  0.0956  0.3164
21969SOL    HW167348   0.005   7.365   2.361  0.8714 -0.5231  1.2369
21969SOL    HW267349   0.152   7.369   2.328  0.4170 -0.4287 -0.9054
21970SOL     OW67350   4.493   5.221   1.471 -0.3102  0.5133 -0.1632
21970SOL    HW167351   4.431   5.165   1.424  1.3335 -0.5536 -1.1475
21970SOL    HW267352   4.500   5.300   1.417  0.0847  0.1224 -0.6939
21971SOL     OW67353   6.364   2.850  10.701  0.1602  0.0356 -0.0831
21971SOL    HW167354   6.332   2.874  10.613 -2.4236 -0.1081  0.7331
21971SOL    HW267355   6.450   2.812  10.685 -0.5135 -0.6400 -2.6623
21972SOL     OW67356   7.030   2.671   2.690  0.1751  0.1966  0.2570
21972SOL    HW167357   7.008   2.691   2.782 -1.2914  1.9540 -0.4115
21972SOL    HW267358   7.066   2.583   2.693  2.9319  1.2388  2.9094
21973SOL     OW67359   1.029   6.435   2.155  0.0141 -0.3530  0.0290
21973SOL    HW167360   1.063   6.369   2.095  0.7472  0.7695 -0.8380
21973SOL    HW267361   1.078   6.515   2.133  0.6919 -0.0073  2.4775
21974SOL     OW67362   7.116   5.551   4.104 -0.3481  0.1625  0.0541
21974SOL    HW167363   7.034   5.599   4.102 -0.1919  0.5730  1.8244
21974SOL    HW267364   7.107   5.489   4.176  0.1025 -1.3379 -1.1040
21975SOL     OW67365   7.236   7.450   9.216  0.8160  0.3603  0.5688
21975SOL    HW167366   7.324   7.488   9.222  0.1931  2.1149 -0.4880
21975SOL    HW267367   7.210   7.466   9.125 -0.9471  0.7506  1.1077
21976SOL     OW67368   1.763   5.578   4.902 -0.0294  0.2469 -0.6528
21976SOL    HW167369   1.778   5.561   4.809  1.6872  0.8853 -0.5156
21976SOL    HW267370   1.850   5.597   4.937 -0.2667 -2.2679  1.5781
21977SOL     OW67371   5.084   2.681   5.197  0.4123 -0.1961  0.3118
21977SOL    HW167372   5.104   2.644   5.111  2.1766  1.9881 -0.3246
21977SOL    HW267373   5.000   2.725   5.185  0.0466 -0.9456  0.0736
21978SOL     OW67374   6.436   2.812   3.373  0.8434  0.4454 -0.0149
21978SOL    HW167375   6.483   2.838   3.452  0.7624  0.9043 -0.1127
21978SOL    HW267376   6.359   2.869   3.372 -0.3947 -1.1237  0.8160
21979SOL     OW67377   6.535   3.378  10.435 -0.7095  0.2955 -0.0885
21979SOL    HW167378   6.540   3.471  10.454 -0.5496  0.5516 -1.3025
21979SOL    HW267379   6.508   3.374  10.343 -0.1527 -0.8434 -0.2159
21980SOL     OW67380   5.845   0.061   0.499 -0.0021 -1.1967 -0.1607
21980SOL    HW167381   5.788   0.063   0.576  0.5724 -0.8618  0.2672
21980SOL    HW267382   5.797   0.108   0.432  1.1166  2.2363  1.1787
21981SOL     OW67383   3.197   4.055   6.975 -0.1373  0.9337 -0.3097
21981SOL    HW167384   3.108   4.023   6.986 -0.0070  0.8664  0.6808
21981SOL    HW267385   3.187   4.148   6.954 -0.4325  1.1680  0.7938
21982SOL     OW67386   5.978   2.410   8.790 -0.3638 -0.0176  0.3860
21982SOL    HW167387   6.032   2.341   8.751  0.9065  0.5291  1.1272
21982SOL    HW267388   5.919   2.363   8.849 -1.0792 -0.6686 -0.7962
21983SOL     OW67389   1.641   7.085  12.075 -0.3926 -0.9650  0.2047
21983SOL    HW167390   1.627   7.136  12.154 -1.8414 -1.3813  0.2432
21983SOL    HW267391   1.628   7.147  12.004 -2.5297 -1.3107  0.2433
21984SOL     OW67392   6.526   7.392   0.045  0.4279 -0.3692 -0.2244
21984SOL    HW167393   6.619   7.372   0.054  0.0392 -2.7224 -0.7029
21984SOL    HW267394   6.488   7.369   0.131  0.4233  1.8263  0.4195
21985SOL     OW67395   7.126   6.425   5.621  0.2282  0.2411  0.1540
21985SOL    HW167396   7.174   6.427   5.704 -0.2521 -2.7864  0.6114
21985SOL    HW267397   7.177   6.366   5.565  0.3679  1.9815 -1.6485
21986SOL     OW67398   1.791   0.113   3.041 -0.0124 -0.0436 -0.2599
21986SOL    HW167399   1.794   0.039   3.102 -0.9256 -0.4395 -0.6716
21986SOL    HW267400   1.834   0.081   2.962  0.1245  0.0654 -0.2286
21987SOL     OW67401   6.270   3.619   6.108  0.2895  0.1245 -0.1452
21987SOL    HW167402   6.213   3.675   6.054  1.0981 -0.2705 -1.4698
21987SOL    HW267403   6.214   3.547   6.136 -0.0277  0.0651 -0.9119
21988SOL     OW67404   5.995   1.191   1.452  0.2493  0.6250 -0.1471
21988SOL    HW167405   5.959   1.216   1.537 -0.4350 -0.4773 -0.0943
21988SOL    HW267406   6.030   1.103   1.465 -0.9670 -0.0636 -1.2973
21989SOL     OW67407   5.696   7.388   2.057  0.6534  0.0135  0.2308
21989SOL    HW167408   5.724   7.461   2.112 -0.6874  0.8023 -0.0896
21989SOL    HW267409   5.702   7.422   1.968 -1.5691  0.3499  0.1605
21990SOL     OW67410   4.781   7.122   5.046 -0.3196  0.2836 -0.3346
21990SOL    HW167411   4.862   7.166   5.021  0.1246 -0.2623  0.1246
21990SOL    HW267412   4.809   7.037   5.081 -1.1586 -0.3941 -1.2328
21991SOL     OW67413   3.561   6.550   1.596 -0.2025  0.5110 -0.0225
21991SOL    HW167414   3.531   6.634   1.562 -0.5535 -0.3685 -2.0517
21991SOL    HW267415   3.537   6.487   1.528 -1.5593 -1.5295  2.1936
21992SOL     OW67416   3.028   1.738   1.316 -0.3212 -0.3445 -0.6786
21992SOL    HW167417   3.067   1.654   1.289  0.8373 -0.3651  0.8934
21992SOL    HW267418   2.985   1.771   1.238  0.4381 -1.7307 -1.7243
21993SOL     OW67419   6.880   7.515   0.987  0.1028  0.4347  0.5874
21993SOL    HW167420   6.844   7.513   0.899  1.9547  0.1310 -0.1998
21993SOL    HW267421   6.875   7.424   1.017 -1.2228  0.6625  1.1224
21994SOL     OW67422   3.755   7.910   9.327 -0.1971  0.2049  0.2101
21994SOL    HW167423   3.839   7.937   9.365 -0.1505 -0.0655  0.2994
21994SOL    HW267424   3.700   7.890   9.402 -0.2142 -0.0008  0.1433
21995SOL     OW67425   3.300   5.744   0.583  0.3490  0.0583 -0.3882
21995SOL    HW167426   3.337   5.730   0.495 -0.4018 -0.6225 -0.6042
21995SOL    HW267427   3.209   5.717   0.575  0.4292 -0.6128  0.7635
21996SOL     OW67428   7.170   6.910   9.072  0.1558 -0.3288 -0.1405
21996SOL    HW167429   7.263   6.890   9.066  0.4281 -0.2034  2.5005
21996SOL    HW267430   7.136   6.850   9.138 -1.5868 -0.1067 -0.7565
21997SOL     OW67431   7.909   1.856   5.408  0.1758 -0.7718 -0.1087
21997SOL    HW167432   7.932   1.820   5.322 -0.9704 -0.6266 -0.4896
21997SOL    HW267433   7.942   1.946   5.405 -2.1516  0.1412 -1.4648
21998SOL     OW67434   2.535   7.899   8.344 -0.2646 -0.3542 -0.0942
21998SOL    HW167435   2.453   7.948   8.339  0.0905  0.3257  0.6101
21998SOL    HW267436   2.564   7.892   8.253 -0.9612 -0.3591 -0.3205
21999SOL     OW67437   3.634   7.831   6.752  0.0126 -0.5619  0.5382
21999SOL    HW167438   3.573   7.863   6.818 -1.4634  0.0345 -1.0613
21999SOL    HW267439   3.720   7.861   6.783 -0.7432  0.4656  1.7266
22000SOL     OW67440   2.900   3.465   1.069 -0.1853 -0.1016  0.4630
22000SOL    HW167441   2.912   3.541   1.012 -1.0824  0.7358  1.3514
22000SOL    HW267442   2.807   3.467   1.092 -1.0448 -3.2990 -1.9856
22001SOL     OW67443   6.699   3.455   6.399 -0.7479  0.5811 -0.2448
22001SOL    HW167444   6.735   3.539   6.427  2.4749 -1.2808  1.9422
22001SOL    HW267445   6.675   3.411   6.480 -1.0877 -1.1094 -1.2174
22002SOL     OW67446   0.025   2.028   0.394 -0.3647  0.1763  0.3198
22002SOL    HW167447  -0.044   2.052   0.332  0.6228 -0.2805 -0.9877
22002SOL    HW267448  -0.023   2.004   0.474 -1.7899 -0.8579 -0.7699
22003SOL     OW67449   6.380   3.874   3.704 -0.0664 -0.2703  0.6862
22003SOL    HW167450   6.469   3.892   3.672 -0.5706  0.4664 -0.3533
22003SOL    HW267451   6.385   3.784   3.738  1.3701  0.1846  1.7849
22004SOL     OW67452   5.697   3.287   3.828  0.1329  0.2540  0.5285
22004SOL    HW167453   5.632   3.225   3.795  1.5138 -1.3532  0.7194
22004SOL    HW267454   5.682   3.290   3.923 -0.1863  0.5435  0.4731
22005SOL     OW67455   7.405   7.729  11.687 -0.0608  0.2513 -0.1503
22005SOL    HW167456   7.341   7.698  11.622  1.7484  0.2569 -2.0431
22005SOL    HW267457   7.360   7.720  11.771 -2.0173 -1.0939 -1.2521
22006SOL     OW67458   6.900   3.655   6.466  0.3413 -0.1310  0.0361
22006SOL    HW167459   6.901   3.629   6.558  1.2865 -1.7272 -0.4001
22006SOL    HW267460   6.991   3.653   6.439 -0.1311 -3.4524 -1.9024
22007SOL     OW67461   7.938   3.258   2.446 -0.3532  0.1128 -0.1083
22007SOL    HW167462   7.990   3.223   2.519 -0.7174  0.7348  0.4564
22007SOL    HW267463   8.003   3.272   2.376 -0.0144 -0.5623  0.0607
22008SOL     OW67464   5.513   3.806   7.964  0.4033  0.1889 -0.3698
22008SOL    HW167465   5.440   3.867   7.951  0.4937  0.9313  2.1199
22008SOL    HW267466   5.472   3.728   8.000  0.6290 -0.1072 -0.7571
22009SOL     OW67467   1.730   2.036   0.280  0.0957 -0.1384 -0.1839
22009SOL    HW167468   1.744   1.995   0.364 -1.7520 -0.0959  0.1928
22009SOL    HW267469   1.659   2.099   0.295  0.1711  0.3473 -1.6165
22010SOL     OW67470   0.388   2.342   5.764 -0.0072  0.1729  0.2614
22010SOL    HW167471   0.466   2.306   5.806 -0.0875 -1.1772 -0.6711
22010SOL    HW267472   0.318   2.329   5.828 -0.2811 -2.5459 -0.4606
22011SOL     OW67473   4.256   7.379   8.054 -0.5720 -0.2096  0.0559
22011SOL    HW167474   4.226   7.468   8.072  1.4126  0.6918 -0.8738
22011SOL    HW267475   4.331   7.366   8.112 -0.1659 -0.8619 -0.5946
22012SOL     OW67476   1.560   6.170   3.807 -0.3103 -0.4758 -0.1656
22012SOL    HW167477   1.480   6.119   3.804 -0.1732 -0.6799 -2.6281
22012SOL    HW267478   1.594   6.157   3.895 -1.6442 -2.4727  0.1184
22013SOL     OW67479   6.886   7.000   3.264 -0.0209  0.3847 -0.1300
22013SOL    HW167480   6.856   7.088   3.285 -1.2170  0.2795 -1.2502
22013SOL    HW267481   6.808   6.955   3.230  1.0693 -0.3762 -1.7738
22014SOL     OW67482   6.881   6.465   4.335  0.4152 -0.2563  0.2386
22014SOL    HW167483   6.804   6.479   4.281 -0.1430 -1.6544  0.6157
22014SOL    HW267484   6.849   6.415   4.410  1.9937 -2.8872 -0.6734
22015SOL     OW67485   4.705   4.516   9.649 -0.3030  0.4436 -0.5884
22015SOL    HW167486   4.689   4.595   9.701 -1.3369  0.2370 -0.5831
22015SOL    HW267487   4.774   4.470   9.696  0.0330  1.1398 -0.3763
22016SOL     OW67488   1.404   1.537   2.502  1.1144  0.1983 -0.0302
22016SOL    HW167489   1.365   1.542   2.415  1.1005 -1.6708 -0.1649
22016SOL    HW267490   1.333   1.562   2.562  0.7100  0.0837 -0.4572
22017SOL     OW67491   6.299   2.820   2.279 -0.2619  0.5293 -0.2735
22017SOL    HW167492   6.297   2.910   2.247 -0.1130  0.5572 -0.2028
22017SOL    HW267493   6.207   2.796   2.288 -0.3009  0.6762 -0.2855
22018SOL     OW67494   2.039   2.819   2.026  0.6320  0.2195 -0.5928
22018SOL    HW167495   2.102   2.881   2.063  0.6293  1.1403 -2.0335
22018SOL    HW267496   2.092   2.744   1.998  0.8916  0.3701 -0.5043
22019SOL     OW67497   5.265   7.305   7.405  0.0386  0.0225  0.2314
22019SOL    HW167498   5.334   7.331   7.466 -1.7596  0.4035  2.2098
22019SOL    HW267499   5.242   7.386   7.359  0.2632  0.0969  0.2525
22020SOL     OW67500   5.316   5.229  10.925 -0.1263  0.0899  0.2427
22020SOL    HW167501   5.402   5.199  10.954  0.4850 -0.4278 -1.8821
22020SOL    HW267502   5.258   5.216  11.000  0.9224 -2.8787  0.6671
22021SOL     OW67503   4.158   6.670  10.198  0.2341  0.1874  0.0462
22021SOL    HW167504   4.181   6.577  10.189  0.0337  0.0501  0.8165
22021SOL    HW267505   4.206   6.714  10.128 -0.3317 -0.6009 -0.8658
22022SOL     OW67506   0.616   0.466   9.227 -0.0688 -0.6524  0.2691
22022SOL    HW167507   0.623   0.426   9.314 -0.9764 -1.0838  0.1612
22022SOL    HW267508   0.539   0.523   9.233  1.4109  1.4371  0.5289
22023SOL     OW67509   5.377   5.560   5.756  0.0144 -0.0471  0.2647
22023SOL    HW167510   5.308   5.625   5.765 -0.1965 -0.2862  0.4007
22023SOL    HW267511   5.411   5.548   5.845  1.0131  0.9089  0.0279
22024SOL     OW67512   1.578   3.760  12.098 -0.0725 -0.0699  0.0762
22024SOL    HW167513   1.664   3.731  12.070 -0.4959 -1.7706  0.4349
22024SOL    HW267514   1.573   3.851  12.069  2.0251  0.2365  0.5299
22025SOL     OW67515   2.637   7.155  11.816 -0.4462  0.0004  0.4547
22025SOL    HW167516   2.668   7.170  11.905  0.0670  2.4556 -0.0580
22025SOL    HW267517   2.692   7.211  11.762 -0.7850 -1.3869 -1.4354
22026SOL     OW67518   3.533   7.937   0.508  0.1103  0.6116  0.2380
22026SOL    HW167519   3.540   7.939   0.412  1.1054  0.6430  0.3034
22026SOL    HW267520   3.553   7.846   0.531  0.9640  0.8499  0.4804
22027SOL     OW67521   2.666   0.018   0.840  0.0405  0.1067  0.2607
22027SOL    HW167522   2.600   0.067   0.890  0.8032  0.2741  1.1434
22027SOL    HW267523   2.616  -0.047   0.791 -1.0491  1.9015 -1.1691
22028SOL     OW67524   5.660   5.493  12.087 -0.3037  0.3564 -0.0508
22028SOL    HW167525   5.584   5.525  12.135 -0.6836  0.4646 -0.7188
22028SOL    HW267526   5.693   5.421  12.141 -0.3667  0.8571  0.6677
22029SOL     OW67527   7.875   4.092   4.096 -0.1272 -0.1642  0.5015
22029SOL    HW167528   7.923   4.011   4.081  0.2349  0.1541 -0.1104
22029SOL    HW267529   7.937   4.150   4.141 -0.1406  0.0307  0.2731
22030SOL     OW67530   6.635   1.882  11.980  0.7094 -0.0949 -0.3669
22030SOL    HW167531   6.641   1.888  11.885  2.0691 -0.1074 -0.3000
22030SOL    HW267532   6.646   1.788  11.999  0.5815 -0.0751 -0.1856
22031SOL     OW67533   1.050   5.410   3.037 -0.3382 -0.2176 -0.1049
22031SOL    HW167534   1.102   5.486   3.064  1.3719 -1.6055  0.7431
22031SOL    HW267535   1.015   5.374   3.118 -1.9133  0.1578 -0.5902
22032SOL     OW67536   1.922   5.491   3.889 -0.1282  0.2592 -0.1329
22032SOL    HW167537   1.912   5.405   3.850 -1.3717  0.1193  0.4101
22032SOL    HW267538   1.950   5.473   3.979 -0.0083  0.4418 -0.1331
22033SOL     OW67539   7.905   0.621   5.588 -0.3542 -0.2693  0.0954
22033SOL    HW167540   7.961   0.609   5.511 -0.7943  0.4696 -0.3507
22033SOL    HW267541   7.964   0.656   5.655  0.0760 -1.1114  0.1749
22034SOL     OW67542   4.400   7.861  12.075 -0.1454 -0.2614 -0.3211
22034SOL    HW167543   4.394   7.920  12.150  1.3062 -0.6966  0.1661
22034SOL    HW267544   4.453   7.787  12.106 -0.9340 -1.2578 -1.2726
22035SOL     OW67545   1.531   2.035   4.767  0.3718  0.2405 -0.1493
22035SOL    HW167546   1.594   2.027   4.839  0.6243  0.1497 -0.3776
22035SOL    HW267547   1.500   1.946   4.752 -0.4728  0.4066  0.5436
22036SOL     OW67548   0.063   5.992   8.425 -0.0458  0.1067  0.0720
22036SOL    HW167549  -0.005   6.004   8.492  0.0225 -3.3409  0.9909
22036SOL    HW267550   0.019   6.011   8.342 -1.7451 -0.5440  0.7680
22037SOL     OW67551   6.068   0.152  11.832 -0.4175 -0.6959  0.1971
22037SOL    HW167552   6.004   0.214  11.798  0.3813  0.3447  0.5549
22037SOL    HW267553   6.085   0.181  11.921  1.4848 -0.1720 -0.2911
22038SOL     OW67554   2.433   7.111   0.008  0.2061  0.1167 -0.2228
22038SOL    HW167555   2.345   7.146   0.013 -1.3892 -3.4175 -0.0515
22038SOL    HW267556   2.457   7.093   0.099  0.6757  0.1798 -0.3326
22039SOL     OW67557   3.972   1.855   5.937  0.8867  0.3045 -0.4957
22039SOL    HW167558   3.957   1.938   5.982 -2.0989 -0.2510 -0.2547
22039SOL    HW267559   3.935   1.789   5.997 -0.6632 -0.7328 -2.4717
22040SOL     OW67560   6.452   3.108   6.161 -0.0829  0.2978 -0.1444
22040SOL    HW167561   6.524   3.084   6.220 -0.9670 -0.3911  0.7122
22040SOL    HW267562   6.373   3.090   6.213 -0.9008 -0.6092 -1.6479
22041SOL     OW67563   1.503   4.322   0.443  0.0589 -0.1488  0.1674
22041SOL    HW167564   1.412   4.333   0.415  0.2376  0.0357 -0.3449
22041SOL    HW267565   1.503   4.238   0.488 -0.6197  0.3992  1.2484
22042SOL     OW67566   4.099   7.578  10.224 -0.2915  0.1248 -0.5307
22042SOL    HW167567   4.121   7.615  10.310  0.4155 -0.5900 -0.3948
22042SOL    HW267568   4.046   7.501  10.245 -1.6436  0.9437 -0.8082
22043SOL     OW67569   6.955   3.624  12.280 -0.2401  0.0751  0.0754
22043SOL    HW167570   7.029   3.632  12.220 -0.1230  0.1414  0.2293
22043SOL    HW267571   6.885   3.674  12.238  0.9263  3.4719  1.7998
22044SOL     OW67572   3.344   5.418  10.496 -0.2285  0.3919 -0.2538
22044SOL    HW167573   3.369   5.507  10.469  0.2480  0.1062 -0.7778
22044SOL    HW267574   3.318   5.427  10.588 -0.1193  1.0592 -0.2826
22045SOL     OW67575   7.326   4.492   1.062 -0.5496 -0.0856  0.2408
22045SOL    HW167576   7.300   4.563   1.003 -1.7725  0.1080  0.9852
22045SOL    HW267577   7.359   4.537   1.140  0.7439 -0.3427 -0.1302
22046SOL     OW67578   7.052   1.620   5.411 -0.3284 -0.0146  0.1129
22046SOL    HW167579   7.125   1.661   5.457  0.0367  0.6614 -1.0332
22046SOL    HW267580   7.048   1.531   5.446  1.8045 -0.4559 -0.6036
22047SOL     OW67581   2.742   3.422  11.128 -0.2750  0.0213 -0.3471
22047SOL    HW167582   2.784   3.344  11.166  1.1275  0.7447 -0.3200
22047SOL    HW267583   2.782   3.495  11.176 -1.2172  0.7803 -0.6987
22048SOL     OW67584   5.657   7.350   7.438 -0.2102  0.0050 -0.0950
22048SOL    HW167585   5.620   7.345   7.350 -1.3659 -0.7955  0.4091
22048SOL    HW267586   5.746   7.317   7.429 -0.5582 -0.7733 -0.8345
22049SOL     OW67587   5.198   4.828  11.640 -0.0966  0.0990 -0.1883
22049SOL    HW167588   5.184   4.923  11.639  0.8005  0.2392 -0.1492
22049SOL    HW267589   5.264   4.813  11.573 -1.2205 -0.6811 -1.1722
22050SOL     OW67590   3.235   3.850   0.319 -0.8536  0.1482 -0.2484
22050SOL    HW167591   3.249   3.756   0.313  0.4546  0.3663 -1.1718
22050SOL    HW267592   3.170   3.861   0.388 -0.3851 -1.3832  0.4770
22051SOL     OW67593   0.429   5.941   2.393  0.3488 -0.7776 -0.3303
22051SOL    HW167594   0.518   5.914   2.415  0.5211  0.9778  1.3485
22051SOL    HW267595   0.438   6.031   2.362 -0.9352 -0.2057  0.8597
22052SOL     OW67596   1.111   5.020   7.379  0.0553  0.2312  0.1495
22052SOL    HW167597   1.194   5.066   7.390  0.2103  1.2091 -3.8532
22052SOL    HW267598   1.046   5.081   7.414  0.7190  1.0270  0.0305
22053SOL     OW67599   2.133   2.099   0.189  0.6433  0.2092  0.0701
22053SOL    HW167600   2.193   2.109   0.115 -0.0562 -1.1174 -0.7021
22053SOL    HW267601   2.174   2.033   0.245  0.3820  0.0381  0.0583
22054SOL     OW67602   3.720   6.911   0.727  0.0077  0.4037  0.2216
22054SOL    HW167603   3.703   6.980   0.790  0.2470 -0.2674  1.0438
22054SOL    HW267604   3.781   6.950   0.664 -1.8833  1.7732 -0.8706
22055SOL     OW67605   4.996   0.784  11.333  0.2267  0.0377 -0.4353
22055SOL    HW167606   5.006   0.759  11.241  0.5724 -1.2585 -0.0736
22055SOL    HW267607   4.986   0.701  11.379 -0.4060  0.6949  0.6507
22056SOL     OW67608   7.573   4.334  12.406  0.2348  0.1700 -0.3766
22056SOL    HW167609   7.526   4.368  12.330 -1.0749  1.4327  0.9240
22056SOL    HW267610   7.580   4.240  12.390 -1.3578  0.1825 -1.3821
22057SOL     OW67611   7.749   0.267   8.600 -0.9038  0.0245 -0.2802
22057SOL    HW167612   7.825   0.246   8.546 -0.8395  1.3002 -0.7186
22057SOL    HW267613   7.699   0.329   8.548 -1.5377  0.2407  0.5701
22058SOL     OW67614   1.783   7.916   3.224  1.4053  0.3975 -0.0090
22058SOL    HW167615   1.845   7.851   3.258  0.2712 -0.1292  1.1513
22058SOL    HW267616   1.699   7.892   3.265  0.4325  1.0752 -1.5391
22059SOL     OW67617   6.231   3.555   8.421  0.0510  0.1071 -0.2172
22059SOL    HW167618   6.316   3.576   8.459 -0.1918  0.1550  0.3068
22059SOL    HW267619   6.228   3.605   8.340 -0.1323  1.3666  0.5509
22060SOL     OW67620   0.938   7.952   3.632  0.6824 -0.6596 -0.8833
22060SOL    HW167621   0.896   8.010   3.696 -0.3304 -0.7482 -1.4492
22060SOL    HW267622   1.031   7.958   3.652  0.5558  0.7632 -0.5970
22061SOL     OW67623   5.880   0.088   8.619 -0.1217 -0.6204  0.2395
22061SOL    HW167624   5.852   0.179   8.613  0.4852 -0.4050  0.6144
22061SOL    HW267625   5.826   0.042   8.554  0.4041  0.2073 -0.8120
22062SOL     OW67626   3.939   5.698   5.308 -0.0695  0.1318 -0.2893
22062SOL    HW167627   3.879   5.747   5.252  1.2709  0.9329 -1.0739
22062SOL    HW267628   3.919   5.729   5.397  0.0650  1.4080 -0.6751
22063SOL     OW67629   3.081   6.379  11.007  0.6481  0.1074  0.0553
22063SOL    HW167630   3.024   6.404  10.934 -1.1095 -0.7088  1.0983
22063SOL    HW267631   3.142   6.452  11.015 -0.6901  1.3552 -0.6585
22064SOL     OW67632   1.294   6.307   2.305 -0.1491 -0.0284 -0.5033
22064SOL    HW167633   1.211   6.311   2.353  0.1050  0.0408 -0.0637
22064SOL    HW267634   1.302   6.215   2.280  0.2029 -0.2778  0.4739
22065SOL     OW67635   0.704   2.496   2.796 -0.2549  0.6572 -0.0840
22065SOL    HW167636   0.647   2.452   2.732 -0.1504  0.2856  0.0778
22065SOL    HW267637   0.735   2.426   2.853  0.0779  0.9119  0.0513
22066SOL     OW67638   5.451   7.007   0.889  0.0413  0.3014  0.2008
22066SOL    HW167639   5.369   7.051   0.869 -0.2974  0.2405  1.3969
22066SOL    HW267640   5.428   6.941   0.954  0.7512 -0.8695 -0.6946
22067SOL     OW67641   6.054   2.571   9.246  0.4936 -0.4015  0.4843
22067SOL    HW167642   6.031   2.620   9.166  1.4914  2.4424  1.7837
22067SOL    HW267643   5.971   2.534   9.276 -0.4781  0.9926 -0.3367
22068SOL     OW67644   6.923   5.227   3.938 -0.2304 -0.0563  0.0962
22068SOL    HW167645   6.996   5.195   3.991 -1.2524 -1.2728  0.8202
22068SOL    HW267646   6.907   5.157   3.875 -2.6740 -1.2462  1.8658
22069SOL     OW67647   3.985   0.118   3.226 -0.3658  0.1898  0.6543
22069SOL    HW167648   3.933   0.038   3.222  0.8163 -0.5870  0.4090
22069SOL    HW267649   4.075   0.090   3.210  0.2438  1.3953  1.7302
22070SOL     OW67650   6.052   2.163   7.415  0.8095 -0.2053  0.1909
22070SOL    HW167651   6.029   2.227   7.483 -2.0486  0.0678 -0.9080
22070SOL    HW267652   6.051   2.213   7.334  1.4125 -1.0931 -0.3792
22071SOL     OW67653   2.032   3.124   8.719  0.6009 -1.2291 -0.0365
22071SOL    HW167654   1.963   3.185   8.746 -0.2517 -1.5293 -1.4604
22071SOL    HW267655   1.987   3.059   8.666  2.3972  0.4813 -4.0874
22072SOL     OW67656   3.441   6.313   0.597 -0.0996  0.4057 -0.5018
22072SOL    HW167657   3.441   6.218   0.613  0.5976  0.2177 -1.5064
22072SOL    HW267658   3.357   6.329   0.554 -1.1872  0.6279  1.5841
22073SOL     OW67659   5.650   2.643   4.984  0.2934 -0.7174 -0.3853
22073SOL    HW167660   5.667   2.650   5.078  0.2139 -2.7432 -0.1672
22073SOL    HW267661   5.731   2.675   4.943  0.7252 -0.7598  0.4018
22074SOL     OW67662   1.416   1.704   1.241  0.5356 -0.0185  0.0447
22074SOL    HW167663   1.493   1.755   1.263  0.2713  0.2931  0.2501
22074SOL    HW267664   1.422   1.691   1.146  1.0513 -0.3464  0.1229
22075SOL     OW67665   2.704   0.863   6.785  0.0720  0.1679 -0.1445
22075SOL    HW167666   2.628   0.852   6.728 -0.3469 -0.1561  0.4677
22075SOL    HW267667   2.724   0.775   6.816  0.7010  0.2518 -0.2945
22076SOL     OW67668   2.972   6.482   3.909  0.1196  0.4230 -0.0571
22076SOL    HW167669   3.029   6.531   3.968 -0.0802  1.1296 -0.4404
22076SOL    HW267670   3.003   6.505   3.822 -2.0100  2.4747 -0.3800
22077SOL     OW67671   2.013   4.016   9.235 -0.6364 -0.8141  0.3175
22077SOL    HW167672   2.040   3.927   9.210  0.0829 -0.7940  0.9934
22077SOL    HW267673   2.095   4.062   9.251 -1.0311 -0.2481  0.7229
22078SOL     OW67674   3.428   4.002   1.833 -0.4842 -0.4379 -0.3111
22078SOL    HW167675   3.398   3.912   1.820 -0.8822 -0.2400 -0.8419
22078SOL    HW267676   3.480   4.021   1.755 -0.4084 -0.2091 -0.2049
22079SOL     OW67677   7.406   4.339  12.096  0.6236 -0.1906 -0.0207
22079SOL    HW167678   7.355   4.270  12.053 -1.8489  1.4957 -0.0721
22079SOL    HW267679   7.351   4.366  12.170  1.8162  1.2498  0.3810
22080SOL     OW67680   0.886   7.765   9.812  0.3154  0.3648 -0.4931
22080SOL    HW167681   0.935   7.795   9.888  0.0687 -1.8843  0.6396
22080SOL    HW267682   0.797   7.796   9.826  0.4259  0.5725 -0.2491
22081SOL     OW67683   2.651   7.473   0.953 -0.4821 -0.1280 -0.5670
22081SOL    HW167684   2.709   7.441   1.022 -0.3614  0.4738 -0.3806
22081SOL    HW267685   2.706   7.475   0.875 -0.7789 -1.3825 -0.8344
22082SOL     OW67686   1.358   2.070  11.336  0.1244 -0.0609  0.3774
22082SOL    HW167687   1.445   2.033  11.348  0.5376  0.6338 -0.3371
22082SOL    HW267688   1.327   2.030  11.255 -1.0396 -1.7783  1.6061
22083SOL     OW67689   3.578   1.734   8.244 -0.4581  0.2815 -0.1287
22083SOL    HW167690   3.499   1.767   8.201  0.1372  0.8608 -0.7913
22083SOL    HW267691   3.618   1.677   8.179 -2.0003 -2.7133  1.3209
22084SOL     OW67692   4.411   2.882   5.577  0.2640 -0.0463 -0.4619
22084SOL    HW167693   4.425   2.797   5.618 -2.1891  0.1973  1.0677
22084SOL    HW267694   4.328   2.913   5.613  1.5579  3.5116 -0.1078
22085SOL     OW67695   1.181   7.849   5.711  0.0924  0.4427  0.2707
22085SOL    HW167696   1.263   7.807   5.737 -0.0744 -0.3791 -0.4662
22085SOL    HW267697   1.155   7.900   5.787  0.7785 -0.0799  0.8747
22086SOL     OW67698   4.859   7.326   8.902 -0.1495 -0.6309  0.1778
22086SOL    HW167699   4.852   7.401   8.843 -1.4152 -0.6738  0.2384
22086SOL    HW267700   4.933   7.276   8.868  0.0172  0.0719 -0.5309
22087SOL     OW67701   0.508   4.063   4.054 -0.0681  0.3404  0.1554
22087SOL    HW167702   0.555   4.035   3.976  0.9296 -1.7212  1.4112
22087SOL    HW267703   0.528   4.156   4.062 -1.2936  0.9732 -2.7188
22088SOL     OW67704   0.382   6.141   1.385 -0.6406 -0.0265 -0.5711
22088SOL    HW167705   0.435   6.078   1.434 -0.0292  0.1173 -1.0431
22088SOL    HW267706   0.347   6.091   1.312  0.5287  0.3588 -1.4281
22089SOL     OW67707   6.812   7.156   8.321 -0.2864  0.1586  0.5631
22089SOL    HW167708   6.834   7.242   8.284  0.2983 -0.2519 -0.0545
22089SOL    HW267709   6.813   7.096   8.247  0.9588 -0.6906  1.2275
22090SOL     OW67710   6.424   0.339   5.042 -0.2487  0.1722  0.3658
22090SOL    HW167711   6.428   0.410   5.106  2.8800 -0.3591  0.9417
22090SOL    HW267712   6.461   0.377   4.962  2.3528 -0.8950  0.9423
22091SOL     OW67713   6.239   7.649  12.132 -0.8735 -0.0631  0.5039
22091SOL    HW167714   6.258   7.572  12.079 -0.6346  0.5049 -0.2583
22091SOL    HW267715   6.257   7.622  12.222  1.4194 -0.2166  0.0548
22092SOL     OW67716   5.460   2.326   5.427  0.1697  0.1609  0.0803
22092SOL    HW167717   5.401   2.363   5.493 -1.3049 -1.2503 -0.3823
22092SOL    HW267718   5.405   2.316   5.349  0.8241 -1.7305 -0.1989
22093SOL     OW67719   1.571   0.636   3.890 -0.7618  0.5423  0.3910
22093SOL    HW167720   1.638   0.570   3.902 -2.0631 -0.9167 -0.0194
22093SOL    HW267721   1.520   0.634   3.971 -0.9790  0.8606  0.2660
22094SOL     OW67722   6.065   7.326   2.673 -0.5654  0.1417  0.6575
22094SOL    HW167723   5.991   7.371   2.633  0.2601  2.4105  1.4858
22094SOL    HW267724   6.026   7.252   2.720 -2.0661  0.2633 -0.3230
22095SOL     OW67725   7.619   5.067  11.066 -0.1858 -0.0505 -0.4486
22095SOL    HW167726   7.527   5.089  11.052 -0.1635 -0.3682 -1.1758
22095SOL    HW267727   7.625   4.974  11.044  0.3347  0.0025 -0.5598
22096SOL     OW67728   3.108   5.036   3.344 -0.1787  0.5120 -0.5152
22096SOL    HW167729   3.088   4.987   3.424  0.5901  1.5284  0.3299
22096SOL    HW267730   3.093   5.128   3.368  0.4591  0.8653 -1.4171
22097SOL     OW67731   6.625   2.001   5.613  0.2355  0.2382  0.1437
22097SOL    HW167732   6.680   2.032   5.541 -0.2443  0.4439 -0.1337
22097SOL    HW267733   6.604   1.911   5.591  3.1977 -1.0460  1.8529
22098SOL     OW67734   5.670   4.296   7.270 -0.5616  0.2708  0.3982
22098SOL    HW167735   5.613   4.255   7.205 -0.6655 -2.2253  1.9174
22098SOL    HW267736   5.742   4.332   7.219 -1.9756  0.8548 -1.2941
22099SOL     OW67737   5.622   0.929   7.400  0.2703  0.1834  0.3831
22099SOL    HW167738   5.557   0.991   7.367 -0.2641 -0.7519 -0.3844
22099SOL    HW267739   5.676   0.907   7.324 -1.3630 -2.4728 -0.1485
22100SOL     OW67740   2.063   1.870   4.881 -0.2243 -0.1289 -0.1787
22100SOL    HW167741   2.109   1.876   4.965  0.0660 -1.1505 -0.2513
22100SOL    HW267742   2.098   1.942   4.829 -0.3447  0.4607  0.5429
22101SOL     OW67743   0.213   2.212   0.318 -0.9287 -0.3504  0.0395
22101SOL    HW167744   0.128   2.255   0.306 -1.0606  0.1109  2.3166
22101SOL    HW267745   0.191   2.122   0.342 -0.8528  0.0656  1.7877
22102SOL     OW67746   6.549   5.759   9.905 -0.1209 -0.3993 -0.9413
22102SOL    HW167747   6.567   5.730   9.816  0.0769 -0.5834 -0.8414
22102SOL    HW267748   6.632   5.747   9.952 -0.0828  0.1549 -0.8547
22103SOL     OW67749   2.313   6.845   0.235  0.0137 -0.0409 -0.7683
22103SOL    HW167750   2.378   6.910   0.262  0.9886  0.1092 -3.2392
22103SOL    HW267751   2.365   6.774   0.197 -1.1982 -0.8574 -0.9380
22104SOL     OW67752   1.343   0.573   1.617 -0.6188 -0.3898  0.0148
22104SOL    HW167753   1.327   0.484   1.648  0.4284 -0.7795 -0.5196
22104SOL    HW267754   1.433   0.571   1.583 -1.2135  0.3818 -1.7267
22105SOL     OW67755   6.152   0.919   7.038  0.7321  0.0521 -0.2002
22105SOL    HW167756   6.201   0.995   7.070 -0.3263  0.2423  1.0443
22105SOL    HW267757   6.183   0.907   6.949  2.1023  0.9512  0.1215
22106SOL     OW67758   0.569   6.035   7.046 -0.6199  0.1988  0.7274
22106SOL    HW167759   0.653   6.079   7.034 -0.7277  1.1764  2.9534
22106SOL    HW267760   0.505   6.098   7.014 -0.5587 -0.6527 -1.2174
22107SOL     OW67761   3.090   6.786   2.570 -0.0573 -0.7226  0.1865
22107SOL    HW167762   3.157   6.718   2.561  0.0323 -0.6662  0.4234
22107SOL    HW267763   3.139   6.866   2.587 -0.1385 -0.5098 -0.5621
22108SOL     OW67764   7.808   6.498   0.851  0.1813  0.4860 -0.0478
22108SOL    HW167765   7.902   6.496   0.864  0.0607  0.6854  0.8725
22108SOL    HW267766   7.772   6.448   0.924 -0.3482 -1.0400 -1.2966
22109SOL     OW67767   1.140   4.725  10.218 -0.1476  0.1351  0.4008
22109SOL    HW167768   1.045   4.732  10.214 -0.2535 -0.8502  1.1018
22109SOL    HW267769   1.169   4.754  10.131 -1.2119 -1.4664 -0.5498
22110SOL     OW67770   4.549   0.169  10.985  0.1052 -0.0741 -0.5106
22110SOL    HW167771   4.566   0.217  11.066 -0.1709 -0.7437 -0.0481
22110SOL    HW267772   4.630   0.123  10.966 -0.2727 -1.0579  0.1798
22111SOL     OW67773   0.330   6.357  10.722 -0.3755  0.0962  0.5594
22111SOL    HW167774   0.418   6.383  10.752 -0.4171 -0.6037  1.3126
22111SOL    HW267775   0.338   6.353  10.626  0.9513 -1.7834  0.6921
22112SOL     OW67776   5.859   0.518   0.986 -0.1268 -0.0910  0.2375
22112SOL    HW167777   5.805   0.587   1.025 -0.6649 -0.0901 -0.4863
22112SOL    HW267778   5.807   0.438   0.997 -0.9896  0.1324 -1.7555
22113SOL     OW67779   6.841   5.767   6.839 -0.3117  0.3370 -0.2491
22113SOL    HW167780   6.919   5.822   6.837  0.9094 -1.3143 -1.2307
22113SOL    HW267781   6.857   5.706   6.910 -0.9464  0.2953 -0.1389
22114SOL     OW67782   5.286   7.598   7.756 -0.3195  0.1685  0.7007
22114SOL    HW167783   5.320   7.519   7.715 -2.0903 -1.4130  2.1310
22114SOL    HW267784   5.254   7.651   7.682  2.1383  0.2889 -0.3912
22115SOL     OW67785   4.155   3.177   8.746 -0.3322 -0.3187  0.2877
22115SOL    HW167786   4.177   3.210   8.659  1.2341 -1.6235  0.1246
22115SOL    HW267787   4.066   3.207   8.762 -0.3594  0.6260 -1.4246
22116SOL     OW67788   0.929   3.620  11.317 -0.0028 -0.4110  0.6150
22116SOL    HW167789   0.918   3.713  11.296 -0.8491 -0.8813 -1.2992
22116SOL    HW267790   0.853   3.598  11.370  0.3274  0.0169  1.2893
22117SOL     OW67791   5.098   7.526   8.545  0.3929  0.3167 -0.2361
22117SOL    HW167792   5.169   7.590   8.556 -0.8543  1.5918  0.7791
22117SOL    HW267793   5.034   7.549   8.612 -0.8320 -1.0253 -0.8824
22118SOL     OW67794   1.090   0.380   5.198 -0.6476 -0.2403  0.3249
22118SOL    HW167795   1.061   0.318   5.132 -0.8563 -0.5542  0.7064
22118SOL    HW267796   1.180   0.401   5.174 -0.5964 -0.6484  0.1620
22119SOL     OW67797   6.720   3.124   0.199 -0.1914  0.5158 -0.4537
22119SOL    HW167798   6.655   3.171   0.147  0.9041 -0.1899 -2.5402
22119SOL    HW267799   6.804   3.155   0.167  0.5292 -0.4291  0.4484
22120SOL     OW67800   3.577   4.166  10.325 -0.0347  0.2357  0.2892
22120SOL    HW167801   3.648   4.134  10.270 -0.7249  0.2795 -0.6593
22120SOL    HW267802   3.526   4.088  10.347  1.4110 -0.1272  2.6996
22121SOL     OW67803   3.565   0.584   4.358 -0.0883 -0.0343 -0.1959
22121SOL    HW167804   3.548   0.526   4.284  0.2739  1.1445 -1.2400
22121SOL    HW267805   3.485   0.636   4.367  0.3234  0.6787 -0.5764
22122SOL     OW67806   6.773   4.462   7.772  0.4821  0.7353  0.0981
22122SOL    HW167807   6.786   4.407   7.849  1.7069  0.5935 -0.1967
22122SOL    HW267808   6.696   4.515   7.794  0.1774 -0.0335  0.9823
22123SOL     OW67809   3.848   0.449   9.836  0.3825 -0.7430 -0.1458
22123SOL    HW167810   3.872   0.378   9.895  1.4902  0.5680  1.0729
22123SOL    HW267811   3.918   0.451   9.771  0.2117 -0.9456 -0.3342
22124SOL     OW67812   7.419   1.806   9.281 -0.0338 -0.0794  0.1833
22124SOL    HW167813   7.452   1.828   9.368 -1.2807  3.0618 -0.0259
22124SOL    HW267814   7.329   1.777   9.297 -0.3200  0.6686 -0.0631
22125SOL     OW67815   1.613   6.450  10.957 -0.1373 -0.2104  0.3729
22125SOL    HW167816   1.596   6.514  11.026 -0.2262 -0.5890  0.7070
22125SOL    HW267817   1.534   6.452  10.903 -0.4479 -0.5648  0.8066
22126SOL     OW67818   2.811   2.359   5.710 -0.7955  0.1919 -0.0748
22126SOL    HW167819   2.851   2.446   5.708  1.2537 -0.6332  1.8626
22126SOL    HW267820   2.881   2.299   5.685 -1.6006 -1.0827  0.6060
22127SOL     OW67821   5.914   3.795   8.526  0.1801 -0.4004 -0.5121
22127SOL    HW167822   5.908   3.786   8.621  2.3662  1.3455 -0.1226
22127SOL    HW267823   5.943   3.710   8.495 -0.1471 -0.8602  0.4274
22128SOL     OW67824   0.850   5.985   9.565  0.3197 -0.2877  0.1416
22128SOL    HW167825   0.835   6.075   9.595  0.4385 -0.7812  1.7639
22128SOL    HW267826   0.904   5.945   9.633  0.6682 -1.4746 -0.7793
22129SOL     OW67827   4.759   1.484   9.495  0.3542  0.0491  0.0007
22129SOL    HW167828   4.834   1.425   9.506  1.3154  1.1744 -0.2907
22129SOL    HW267829   4.797   1.565   9.460 -1.0124  0.6326 -0.1961
22130SOL     OW67830   6.213   6.678   3.988 -0.0342 -0.1643  0.0547
22130SOL    HW167831   6.179   6.751   3.936  0.2585  0.2535  0.4454
22130SOL    HW267832   6.173   6.600   3.949  0.7123  0.0712 -1.2434
22131SOL     OW67833   2.627   3.163  10.344 -0.8875 -0.3566  0.0677
22131SOL    HW167834   2.686   3.134  10.414  0.6192 -0.4517 -1.1863
22131SOL    HW267835   2.685   3.197  10.276 -2.2176 -1.2244 -1.5890
22132SOL     OW67836   2.904   2.806   3.164 -0.0343 -0.3141 -0.9986
22132SOL    HW167837   2.862   2.836   3.083 -0.9114  1.5051  0.0631
22132SOL    HW267838   2.967   2.875   3.185  0.1985 -0.7706 -0.1580
22133SOL     OW67839   7.871   1.915  11.710  0.4751 -0.1538 -0.1495
22133SOL    HW167840   7.956   1.887  11.677  0.3956 -0.5035 -0.0617
22133SOL    HW267841   7.838   1.975  11.643 -0.0668 -1.5229 -1.1623
22134SOL     OW67842   5.855   7.150   0.738  0.3154  0.0861 -0.0086
22134SOL    HW167843   5.904   7.164   0.819  0.3243  0.1383 -0.0226
22134SOL    HW267844   5.827   7.238   0.711  0.4747  0.0896 -0.1641
22135SOL     OW67845   1.109   6.459   5.683  0.2869  0.9637  0.2401
22135SOL    HW167846   1.173   6.393   5.656 -2.2368 -1.5810 -0.1054
22135SOL    HW267847   1.070   6.490   5.601  0.3416  1.7014  0.4860
22136SOL     OW67848   4.182   1.720   7.775  0.1438  0.5558  0.1862
22136SOL    HW167849   4.223   1.747   7.693 -0.2515 -1.2041 -0.6412
22136SOL    HW267850   4.162   1.802   7.820  2.4167  1.5113 -0.4175
22137SOL     OW67851   5.006   6.927   6.833  0.1524  0.1421  0.5969
22137SOL    HW167852   4.956   6.856   6.794 -0.2412  0.5735  0.3118
22137SOL    HW267853   4.954   7.006   6.817 -0.0394  0.3301  2.0003
22138SOL     OW67854   4.969   2.788  10.917  0.3401 -0.1275 -0.3299
22138SOL    HW167855   4.937   2.770  11.005  0.9236  2.7594  0.5588
22138SOL    HW267856   4.891   2.814  10.868 -0.3617 -3.6456 -1.3963
22139SOL     OW67857   7.408   1.316   5.319 -0.0835  0.1399 -0.2950
22139SOL    HW167858   7.410   1.390   5.259  0.5332  0.2331 -0.1640
22139SOL    HW267859   7.478   1.258   5.289  1.5081  1.0705  1.4397
22140SOL     OW67860   2.912   4.352  11.969  0.7457  0.5325 -0.0345
22140SOL    HW167861   2.981   4.300  11.929  2.0487  0.8264  1.7421
22140SOL    HW267862   2.928   4.346  12.063 -3.4950 -2.0096  0.7907
22141SOL     OW67863   3.409   3.830  11.750  0.2153  0.4121  0.2525
22141SOL    HW167864   3.389   3.751  11.700  0.0614  0.9962 -0.6164
22141SOL    HW267865   3.486   3.806  11.802  0.3276 -0.2264 -0.1993
22142SOL     OW67866   7.377   5.002   8.687  0.0921  0.2867  0.3274
22142SOL    HW167867   7.422   4.919   8.673  1.3452  0.5904  2.2012
22142SOL    HW267868   7.388   5.050   8.605  0.6922 -0.7799 -0.2384
22143SOL     OW67869   6.022   5.011  11.281 -0.6403  0.4675  0.2066
22143SOL    HW167870   5.949   5.064  11.312 -0.3599  1.2603 -0.4613
22143SOL    HW267871   5.992   4.978  11.196 -0.4244  0.3655  0.1694
22144SOL     OW67872   5.260   4.449   5.815 -0.0099  0.4608  0.0839
22144SOL    HW167873   5.227   4.366   5.848 -0.5899  0.6065 -0.1219
22144SOL    HW267874   5.231   4.515   5.878 -0.5937  0.6587 -0.3794
22145SOL     OW67875   2.100   5.016  11.913 -0.2547  0.3507 -0.3908
22145SOL    HW167876   2.074   4.966  11.990 -2.5262  1.2495 -0.5136
22145SOL    HW267877   2.023   5.066  11.889  0.9926  1.5727 -2.1242
22146SOL     OW67878   3.533   3.926   9.358  0.0855 -0.5196  0.2502
22146SOL    HW167879   3.451   3.964   9.327  0.7187  1.6788  1.0827
22146SOL    HW267880   3.601   3.972   9.309  0.8949 -0.7545  1.1207
22147SOL     OW67881   7.766   7.265   2.695 -0.4688 -0.3039 -0.5497
22147SOL    HW167882   7.718   7.205   2.638  2.0404 -1.8522 -1.1950
22147SOL    HW267883   7.774   7.218   2.778  0.4070 -0.3274 -0.6380
22148SOL     OW67884   2.610   5.337   2.713  0.0768  0.1839 -0.4488
22148SOL    HW167885   2.598   5.264   2.652 -0.6303  1.7865 -2.3359
22148SOL    HW267886   2.704   5.355   2.710  0.2412 -0.5718 -0.0448
22149SOL     OW67887   0.447   0.094   0.896  0.6214  0.3285  0.0835
22149SOL    HW167888   0.533   0.060   0.921  0.9827  0.4366 -0.9264
22149SOL    HW267889   0.456   0.113   0.802 -1.2461 -1.9960 -0.6820
22150SOL     OW67890   4.201   7.796   0.692 -0.1388  0.1191  0.2659
22150SOL    HW167891   4.106   7.800   0.681 -0.0493  0.6252 -0.4390
22150SOL    HW267892   4.222   7.869   0.749 -0.0851  0.5931 -0.3445
22151SOL     OW67893   6.639   0.165   3.178 -0.2856 -0.1664 -0.0961
22151SOL    HW167894   6.567   0.210   3.222 -0.1014  0.2306 -0.1956
22151SOL    HW267895   6.663   0.093   3.237  0.1459  0.5252  0.5894
22152SOL     OW67896   1.983   0.616   1.116 -0.3217  0.1574  0.6839
22152SOL    HW167897   2.065   0.596   1.070 -0.7934 -0.1380 -0.0433
22152SOL    HW267898   1.956   0.533   1.155 -1.5232 -0.3624 -1.1201
22153SOL     OW67899   0.729   1.566   6.202  0.1236 -0.1513 -0.5244
22153SOL    HW167900   0.810   1.561   6.151  0.9918 -0.8581  0.8513
22153SOL    HW267901   0.743   1.505   6.274 -1.3759  0.2235  0.1138
22154SOL     OW67902   5.048   6.496   6.981 -0.2460 -0.0189 -0.1801
22154SOL    HW167903   5.076   6.587   6.986 -0.4502  0.0029  0.6843
22154SOL    HW267904   5.081   6.465   6.896  1.0827  0.4417  0.1442
22155SOL     OW67905   0.695   5.893   8.831 -0.3556  0.4984  0.0828
22155SOL    HW167906   0.633   5.906   8.903  0.1158 -0.5832  0.7108
22155SOL    HW267907   0.734   5.980   8.817 -0.0625  0.6312  1.5165
22156SOL     OW67908   2.175   7.722  10.582  1.0014 -0.5067 -0.4839
22156SOL    HW167909   2.223   7.644  10.553 -0.7702 -1.6131 -0.5872
22156SOL    HW267910   2.175   7.717  10.678  5.1961  2.1366 -0.0787
22157SOL     OW67911   7.520   2.699   6.779 -0.7223  0.0807  0.0937
22157SOL    HW167912   7.500   2.659   6.864  1.6954 -0.8934  0.3092
22157SOL    HW267913   7.523   2.793   6.796  1.1992 -0.1656  1.5380
22158SOL     OW67914   2.095   7.728   6.077  0.2069  0.3872 -0.3194
22158SOL    HW167915   2.155   7.737   6.150 -1.2246 -0.3205  1.0092
22158SOL    HW267916   2.148   7.692   6.006  1.3535 -0.1587  0.7905
22159SOL     OW67917   4.679   5.542   2.396 -0.1604  0.1562  0.0624
22159SOL    HW167918   4.696   5.475   2.463  1.5964  1.7895  1.3554
22159SOL    HW267919   4.585   5.536   2.380 -0.7202 -0.2061  2.8629
22160SOL     OW67920   3.561   4.994   2.837  0.6313 -0.7189  0.1692
22160SOL    HW167921   3.529   4.992   2.746  0.1137 -0.0271  0.3245
22160SOL    HW267922   3.488   4.958   2.888 -0.7149  2.4830  0.7292
22161SOL     OW67923   3.086   6.894   5.272 -0.2057  0.5581 -0.3290
22161SOL    HW167924   3.054   6.930   5.189  0.2124  0.6343 -0.4588
22161SOL    HW267925   3.180   6.908   5.269 -0.1077 -0.0393 -0.1354
22162SOL     OW67926   0.531   6.739   9.201 -0.1583  0.0404  0.3004
22162SOL    HW167927   0.507   6.648   9.217 -0.6329 -0.0290 -0.7135
22162SOL    HW267928   0.540   6.745   9.105 -1.5326  1.3702  0.2023
22163SOL     OW67929   6.103   2.223   9.593  0.6208  0.0437  0.3138
22163SOL    HW167930   6.155   2.168   9.651  0.6964  0.7144  0.8831
22163SOL    HW267931   6.152   2.304   9.585 -0.2583  0.6316  0.7408
22164SOL     OW67932   0.521   2.046   3.354  0.0312  0.4911  0.1945
22164SOL    HW167933   0.617   2.048   3.358  0.1544  0.3791 -1.6805
22164SOL    HW267934   0.498   2.123   3.301 -1.0144  1.1547  1.5475
22165SOL     OW67935   5.483   6.237   4.486  0.8961  0.2327 -0.2508
22165SOL    HW167936   5.543   6.311   4.492  1.1201 -0.0332  0.9435
22165SOL    HW267937   5.540   6.162   4.466  0.8627  0.1160  0.0932
22166SOL     OW67938   0.570   2.898   5.916 -0.3239 -0.2947  0.6954
22166SOL    HW167939   0.645   2.842   5.936 -1.1181 -1.2109  1.2079
22166SOL    HW267940   0.525   2.909   6.000 -1.6451 -1.1103  0.1252
22167SOL     OW67941   0.139   1.247  11.806  0.3522  0.1279 -0.4222
22167SOL    HW167942   0.086   1.283  11.735  0.1323 -1.6105 -1.2102
22167SOL    HW267943   0.165   1.160  11.774  2.2988  0.2628  0.6329
22168SOL     OW67944   2.113   6.032   6.490  0.0917 -0.1698 -0.0009
22168SOL    HW167945   2.056   6.056   6.563 -0.8255  1.1927 -1.1096
22168SOL    HW267946   2.190   5.994   6.532 -0.4577  0.4353  1.6625
22169SOL     OW67947   3.415   2.442   7.955  0.1716 -0.2782  0.2018
22169SOL    HW167948   3.434   2.522   8.004 -1.2930 -0.6115  1.4218
22169SOL    HW267949   3.337   2.463   7.905 -0.5937 -1.0936  1.0112
22170SOL     OW67950   7.312   2.289   5.684 -0.4805 -0.3682  0.5316
22170SOL    HW167951   7.357   2.301   5.768  2.3397 -0.2326 -0.8576
22170SOL    HW267952   7.365   2.223   5.639 -1.5956 -0.0421 -1.3557
22171SOL     OW67953   1.125   6.229   2.965 -0.1012  0.5218  0.7999
22171SOL    HW167954   1.176   6.152   2.940 -0.3130  0.3524  0.8871
22171SOL    HW267955   1.190   6.296   2.983  0.1187  0.1235  1.5154
22172SOL     OW67956   2.473   5.710  10.474 -0.0261 -0.5742  0.7598
22172SOL    HW167957   2.408   5.780  10.469  1.8594  1.2777  0.9998
22172SOL    HW267958   2.421   5.629  10.466 -2.1238  0.8215 -1.1903
22173SOL     OW67959   2.872   0.713   3.852  0.1896 -0.1897 -0.2729
22173SOL    HW167960   2.826   0.781   3.900 -1.3960 -1.4651  0.1333
22173SOL    HW267961   2.827   0.632   3.877  0.2723 -1.0770 -2.7232
22174SOL     OW67962   2.761   0.654   4.843 -0.1616 -0.0733  0.6188
22174SOL    HW167963   2.856   0.662   4.852  0.2698 -2.8291 -0.5727
22174SOL    HW267964   2.734   0.736   4.802  2.2391 -0.5231 -2.2059
22175SOL     OW67965   7.080   4.776   5.859 -0.3519 -0.0145 -0.5181
22175SOL    HW167966   7.085   4.864   5.896 -1.7129 -0.0592 -0.1600
22175SOL    HW267967   7.111   4.719   5.929  0.1932  0.1482 -0.6240
22176SOL     OW67968   2.442   7.281   5.299 -0.3069  0.6593 -0.5047
22176SOL    HW167969   2.503   7.349   5.327  0.7342 -0.8296  1.0322
22176SOL    HW267970   2.358   7.308   5.335  0.0459  1.2703 -0.1211
22177SOL     OW67971   0.220   1.683   6.661  0.6584 -0.1191  0.0629
22177SOL    HW167972   0.197   1.653   6.749  0.6261  0.2601  0.1857
22177SOL    HW267973   0.228   1.778   6.669  0.2606 -0.0407 -0.4308
22178SOL     OW67974   6.697   0.200   3.483 -0.2659  0.4989 -0.1287
22178SOL    HW167975   6.762   0.137   3.452  0.9293  2.0009 -0.8020
22178SOL    HW267976   6.614   0.169   3.446  0.3446 -0.4947 -0.7063
22179SOL     OW67977   0.514   2.657   6.439  0.3210 -0.1540  0.0639
22179SOL    HW167978   0.573   2.712   6.491 -1.3799  1.4148  0.4567
22179SOL    HW267979   0.443   2.716   6.414  0.0213 -1.4016 -2.3055
22180SOL     OW67980   1.458   1.545   7.199 -1.2064 -0.4836  0.3654
22180SOL    HW167981   1.509   1.513   7.125 -0.6665  1.1597 -0.0012
22180SOL    HW267982   1.508   1.518   7.276 -1.5096 -1.7522  0.1467
22181SOL     OW67983   0.818   5.780  11.414 -0.4245 -0.2517  0.7723
22181SOL    HW167984   0.853   5.803  11.500 -0.2243 -1.4358  1.0300
22181SOL    HW267985   0.886   5.725  11.375 -0.6077  0.0976 -0.0638
22182SOL     OW67986   7.328   3.944   8.409  0.1272  0.4095  0.5826
22182SOL    HW167987   7.373   3.925   8.491  0.1355 -0.1642  0.4464
22182SOL    HW267988   7.287   3.861   8.384  0.9642  0.3090 -0.5174
22183SOL     OW67989   6.178   0.567   2.179 -0.6823 -0.1168  0.4413
22183SOL    HW167990   6.251   0.627   2.165  0.1128 -1.5162 -1.9844
22183SOL    HW267991   6.100   0.623   2.178 -0.0974  0.8655 -3.1326
22184SOL     OW67992   7.072   6.231   9.473  0.4109  0.1865  0.0536
22184SOL    HW167993   7.144   6.179   9.439  1.1308  0.3330  1.2729
22184SOL    HW267994   7.113   6.312   9.504 -0.5029  0.9255 -0.6150
22185SOL     OW67995   1.578   0.915   0.316  0.4768  0.0704 -0.0282
22185SOL    HW167996   1.575   0.880   0.405 -1.6371 -1.8725 -0.7537
22185SOL    HW267997   1.538   1.001   0.322 -0.0735 -0.2379  0.8536
22186SOL     OW67998   4.765   5.195  10.428  0.0493  0.2126 -0.0548
22186SOL    HW167999   4.803   5.220  10.344 -0.7970 -1.1487 -0.8689
22186SOL    HW268000   4.837   5.202  10.490  1.0661 -0.1894 -1.1564
22187SOL     OW68001   5.286   7.984   8.121 -0.7068  0.0328  0.2453
22187SOL    HW168002   5.221   8.028   8.067 -1.0499 -0.1035  0.5381
22187SOL    HW268003   5.309   7.905   8.072 -1.8551 -0.6786  0.7951
22188SOL     OW68004   3.125   6.586   1.350 -0.6766  0.3087  0.0532
22188SOL    HW168005   3.107   6.595   1.257 -0.2857  0.6213  0.0035
22188SOL    HW268006   3.062   6.521   1.381  1.2902 -2.3113 -1.0722
22189SOL     OW68007   1.965   5.048   5.609  0.1662  0.7152  0.2205
22189SOL    HW168008   1.927   5.041   5.521  0.8707  0.5214 -0.0830
22189SOL    HW268009   1.893   5.077   5.665 -0.5823 -0.2719 -0.2060
22190SOL     OW68010   1.178   4.628   7.824 -0.4894 -0.0877  0.4916
22190SOL    HW168011   1.207   4.537   7.833 -0.3815 -0.0608  0.4128
22190SOL    HW268012   1.258   4.677   7.805 -0.4718  0.0948  1.0097
22191SOL     OW68013   2.695   3.347   5.661 -0.1977  0.0397  0.0233
22191SOL    HW168014   2.619   3.289   5.649 -0.3413  0.4405 -1.1471
22191SOL    HW268015   2.748   3.333   5.582 -0.8829  2.4221 -0.9317
22192SOL     OW68016   6.711   5.411  11.994 -0.2668  0.2912  0.4773
22192SOL    HW168017   6.701   5.326  11.952  1.0382  0.3987 -0.1068
22192SOL    HW268018   6.644   5.412  12.063 -1.8958 -0.2230 -1.0286
22193SOL     OW68019   5.443   4.303   5.294  0.1591 -0.0980 -0.0172
22193SOL    HW168020   5.417   4.329   5.382  0.8464 -0.4629  0.2993
22193SOL    HW268021   5.429   4.209   5.291 -0.3773 -0.0095 -0.4850
22194SOL     OW68022   5.565   5.410   3.697 -0.3865  0.2595  0.2622
22194SOL    HW168023   5.645   5.393   3.746  0.1402  0.3386 -0.5463
22194SOL    HW268024   5.499   5.429   3.763 -0.3654 -2.2168  1.0827
22195SOL     OW68025   7.967   4.374  10.750 -0.1471  0.1359 -0.0581
22195SOL    HW168026   8.034   4.431  10.713  0.6190  0.9586  2.4534
22195SOL    HW268027   7.887   4.426  10.747  0.2809  0.8764  1.0292
22196SOL     OW68028   0.937   1.315   1.918  0.0368  0.0481  0.0267
22196SOL    HW168029   0.980   1.331   1.834 -0.1230  0.5591  0.0410
22196SOL    HW268030   1.010   1.305   1.980  0.1669 -0.9237 -0.2704
22197SOL     OW68031   5.522   4.066   5.073 -0.2826 -0.3698  0.6430
22197SOL    HW168032   5.497   4.062   5.165  0.1365  0.2231  0.7936
22197SOL    HW268033   5.522   3.975   5.043 -0.1438 -0.5901  1.3057
22198SOL     OW68034   7.919   2.536   6.074 -0.2531  0.0174  0.0506
22198SOL    HW168035   7.841   2.481   6.067 -1.5085  1.7749 -0.7150
22198SOL    HW268036   7.955   2.538   5.985  0.5990 -0.6411  0.3636
22199SOL     OW68037   0.489   2.288   8.625 -0.5331  0.6425 -0.2535
22199SOL    HW168038   0.414   2.309   8.680 -1.0365  0.5279 -0.8827
22199SOL    HW268039   0.481   2.345   8.549 -0.4137  0.0887 -0.6924
22200SOL     OW68040   1.122   0.690   8.118  0.2003 -0.1421  0.1362
22200SOL    HW168041   1.083   0.770   8.153 -0.2013 -0.6608  0.9072
22200SOL    HW268042   1.203   0.719   8.076  0.0121  0.6764  0.3176
22201SOL     OW68043   4.736   3.520  11.789 -0.7389  0.6894  0.0951
22201SOL    HW168044   4.751   3.528  11.695 -0.1124 -1.8950 -0.1009
22201SOL    HW268045   4.814   3.558  11.829  0.4787 -1.0119 -0.5660
22202SOL     OW68046   6.353   1.991   7.605  0.7207 -0.4590  0.1276
22202SOL    HW168047   6.265   1.996   7.641  0.2325 -1.8343 -0.7920
22202SOL    HW268048   6.410   2.023   7.675 -0.4261 -0.3649  1.0368
22203SOL     OW68049   6.708   6.680   2.426 -0.0022  0.1054  0.5159
22203SOL    HW168050   6.660   6.617   2.479  1.1926  0.3966  2.0072
22203SOL    HW268051   6.797   6.645   2.420  0.2509  0.7980 -0.0894
22204SOL     OW68052   2.108   6.283   1.881 -0.2055 -0.0879 -0.6373
22204SOL    HW168053   2.064   6.200   1.864 -0.0436 -0.2513 -0.2641
22204SOL    HW268054   2.054   6.325   1.948  0.0720 -0.1808 -0.3559
22205SOL     OW68055   3.861   3.547   0.080  0.0247 -0.6587  0.2924
22205SOL    HW168056   3.876   3.640   0.066 -1.7039 -0.1720  1.3726
22205SOL    HW268057   3.875   3.507  -0.006 -1.2390  0.9017 -0.6981
22206SOL     OW68058   1.463   3.368   8.247  0.2513 -0.5762  0.1588
22206SOL    HW168059   1.481   3.353   8.155 -0.0957  0.4753 -0.0957
22206SOL    HW268060   1.530   3.431   8.275 -0.2197 -0.1590  0.3732
22207SOL     OW68061   3.306   2.011   7.933 -0.0923 -0.6708  0.5673
22207SOL    HW168062   3.363   1.935   7.946 -0.4839 -0.6785  2.5373
22207SOL    HW268063   3.226   1.989   7.982 -0.6964  0.5030  0.1329
22208SOL     OW68064   1.337   1.848   3.742  0.0191  0.9746 -0.0574
22208SOL    HW168065   1.398   1.882   3.807  0.2147 -1.4719  1.1414
22208SOL    HW268066   1.386   1.780   3.696 -2.1275 -2.4428  2.2144
22209SOL     OW68067   5.585   0.372   9.612  0.0425  0.7233  0.1728
22209SOL    HW168068   5.680   0.375   9.624  0.2505 -0.5795 -0.8697
22209SOL    HW268069   5.549   0.409   9.692  1.4287  1.2958  0.5601
22210SOL     OW68070   6.088   3.807  11.475 -0.2399 -0.3263  0.0193
22210SOL    HW168071   6.030   3.879  11.448 -1.4359 -1.5327 -0.7899
22210SOL    HW268072   6.033   3.750  11.528  0.6328 -0.7428  0.4950
22211SOL     OW68073   6.601   7.907  11.745 -0.1482  0.6355  0.3293
22211SOL    HW168074   6.614   7.862  11.662 -0.9587  0.6986  0.1578
22211SOL    HW268075   6.506   7.919  11.751 -0.0546  1.0877  1.0228
22212SOL     OW68076   2.074   2.451  11.481  0.2142 -0.6501 -0.0246
22212SOL    HW168077   2.113   2.386  11.539 -1.6796 -0.4602  1.5616
22212SOL    HW268078   2.115   2.436  11.396  1.4861 -2.3800  0.8500
22213SOL     OW68079   7.097   0.855   0.501  0.0866  0.0590  0.1153
22213SOL    HW168080   7.098   0.842   0.596  0.4140  0.2055  0.1336
22213SOL    HW268081   7.061   0.774   0.466  1.1652 -0.5114  0.2829
22214SOL     OW68082   3.777   6.433   9.242  1.1949 -0.2885 -0.4319
22214SOL    HW168083   3.853   6.377   9.230 -0.1132 -2.8286  1.9538
22214SOL    HW268084   3.788   6.469   9.331 -0.8727 -1.7316  0.4937
22215SOL     OW68085   4.077   6.457   8.061 -0.1002  0.3289 -0.5474
22215SOL    HW168086   4.041   6.417   7.981  0.8940  0.1859 -0.9391
22215SOL    HW268087   4.076   6.551   8.043  1.6680  0.2197 -1.4382
22216SOL     OW68088   3.935   1.306   4.981  0.5109  0.1285 -0.1515
22216SOL    HW168089   3.906   1.363   5.053  0.6733  0.3480 -0.2581
22216SOL    HW268090   3.888   1.340   4.904 -0.1267 -0.4831 -0.0439
22217SOL     OW68091   1.347   2.304   1.974  0.5712 -0.0190 -0.4101
22217SOL    HW168092   1.423   2.356   1.998 -0.9090  1.8059  0.5539
22217SOL    HW268093   1.293   2.363   1.921  0.7534 -1.9394 -2.9720
22218SOL     OW68094   3.204   1.394   5.994 -0.0835  0.6724  0.8118
22218SOL    HW168095   3.144   1.338   6.044 -0.9317  0.7489 -0.0913
22218SOL    HW268096   3.193   1.481   6.033 -1.2184  0.8635  0.1109
22219SOL     OW68097   5.422   1.042   2.875  0.1291  0.4167  0.3525
22219SOL    HW168098   5.428   1.067   2.783  1.7343  0.8406  0.5438
22219SOL    HW268099   5.474   0.962   2.882  0.2617  0.5473  0.9360
22220SOL     OW68100   7.457   4.905   0.159 -0.4347  0.5333  0.1533
22220SOL    HW168101   7.527   4.905   0.093 -0.3411  1.7943  0.2199
22220SOL    HW268102   7.500   4.937   0.239 -0.8773  0.4051  0.4467
22221SOL     OW68103   5.057   7.964   6.275  0.0548  0.0711 -0.1376
22221SOL    HW168104   5.026   8.018   6.348  1.0653  0.2658  0.1719
22221SOL    HW268105   5.129   8.014   6.237 -0.1198 -0.2743 -0.9530
22222SOL     OW68106   7.133   5.192   1.709 -0.5160  0.2206 -0.0027
22222SOL    HW168107   7.129   5.253   1.783 -0.8705  0.6743 -0.3916
22222SOL    HW268108   7.119   5.106   1.748  0.3303  0.3397  0.6014
22223SOL     OW68109   1.368   2.226   8.447  0.6889 -0.7461  0.0887
22223SOL    HW168110   1.462   2.210   8.459  1.1609  0.4199 -1.6296
22223SOL    HW268111   1.363   2.278   8.367 -1.4627 -1.0459 -0.0276
22224SOL     OW68112   0.294   0.952   7.221  0.5281 -0.3258 -0.0457
22224SOL    HW168113   0.251   0.915   7.298 -0.5515  1.0347  0.0352
22224SOL    HW268114   0.385   0.965   7.248  0.2734 -0.3209  0.8416
22225SOL     OW68115   0.955   0.396   2.380 -0.1358 -0.6735 -0.4230
22225SOL    HW168116   0.912   0.312   2.365 -1.1939  0.1144 -2.0948
22225SOL    HW268117   0.906   0.458   2.326  0.2307  1.1476  1.2401
22226SOL     OW68118   6.149   4.167   1.222  0.0687 -0.2211 -0.0795
22226SOL    HW168119   6.096   4.234   1.180 -0.5276  0.2298  1.3314
22226SOL    HW268120   6.191   4.212   1.296  1.8055 -0.7636 -0.6848
22227SOL     OW68121   2.191   0.370  11.722 -0.0101  0.2888 -0.4223
22227SOL    HW168122   2.254   0.414  11.779 -1.0659  2.4007 -0.8259
22227SOL    HW268123   2.244   0.305  11.675  1.4235  0.4845  0.8483
22228SOL     OW68124   4.986   5.234   0.035  0.0774  0.0785  0.1987
22228SOL    HW168125   4.979   5.306   0.099  0.6573  0.5956 -0.3008
22228SOL    HW268126   4.898   5.196   0.033  0.1530 -0.2435  1.6365
22229SOL     OW68127   3.252   3.155   7.653 -0.3522  0.2978 -0.5403
22229SOL    HW168128   3.208   3.152   7.738  0.4421 -0.0813 -0.1361
22229SOL    HW268129   3.186   3.190   7.593 -0.9174  0.5715  0.2315
22230SOL     OW68130   2.348   2.838   2.862 -0.3357 -0.4421 -0.4598
22230SOL    HW168131   2.268   2.873   2.824  0.1809  0.7209 -0.5344
22230SOL    HW268132   2.369   2.762   2.808 -0.8135 -0.1258 -1.1111
22231SOL     OW68133   4.347   3.832   2.512  0.0453  0.5444  0.4090
22231SOL    HW168134   4.364   3.926   2.505  0.0580  0.5526  0.5366
22231SOL    HW268135   4.308   3.808   2.429  1.3447  0.3911 -0.1873
22232SOL     OW68136   3.538   7.422  11.743  0.6036  0.0001  0.0086
22232SOL    HW168137   3.545   7.330  11.716 -3.5892 -1.0371  1.5785
22232SOL    HW268138   3.500   7.466  11.667  0.3146 -0.1526  0.0615
22233SOL     OW68139   6.522   4.502   8.441  0.5613  0.0823  0.2309
22233SOL    HW168140   6.527   4.529   8.533  0.2331  1.3009 -0.0952
22233SOL    HW268141   6.477   4.574   8.397 -1.8740 -1.7017 -0.4085
22234SOL     OW68142   1.543   1.134   4.119 -0.0267 -0.0986  0.3679
22234SOL    HW168143   1.465   1.181   4.089 -0.6778 -0.5983  1.2352
22234SOL    HW268144   1.518   1.042   4.118  1.4225 -0.5325 -1.8362
22235SOL     OW68145   5.076   4.117   2.177 -0.0861  0.0885 -0.1795
22235SOL    HW168146   5.015   4.088   2.109  0.1621  1.3530 -0.9743
22235SOL    HW268147   5.163   4.098   2.141  0.2034  3.6099 -1.7124
22236SOL     OW68148   2.079   5.285   4.393 -0.8203 -0.5363  0.2384
22236SOL    HW168149   1.984   5.280   4.380 -0.6951 -0.9852 -0.5612
22236SOL    HW268150   2.089   5.334   4.474 -1.7274 -0.0667  0.0843
22237SOL     OW68151   4.913   5.697  11.666  0.2273 -0.1779  0.4721
22237SOL    HW168152   4.904   5.791  11.676 -0.6166 -0.1628 -0.2283
22237SOL    HW268153   4.839   5.672  11.609  1.6952 -0.9308 -1.2015
22238SOL     OW68154   5.250   4.378   7.641  0.6826 -0.1942  0.0118
22238SOL    HW168155   5.305   4.327   7.700  2.3768 -0.4162 -1.6496
22238SOL    HW268156   5.279   4.354   7.554 -0.7683  1.1508 -0.9093
22239SOL     OW68157   3.093   1.113  11.449 -0.9548 -0.1805 -0.1649
22239SOL    HW168158   3.031   1.042  11.429 -1.7316  0.2290  0.6814
22239SOL    HW268159   3.172   1.068  11.480  0.3574 -0.8657 -3.9576
22240SOL     OW68160   5.829   1.604   8.572 -0.4925  0.2510 -0.4552
22240SOL    HW168161   5.831   1.541   8.499 -0.3102  0.3436 -0.5308
22240SOL    HW268162   5.744   1.590   8.613 -1.3521  1.3866 -1.7448
22241SOL     OW68163   1.016   2.102   7.813 -0.8636  0.0093  0.0776
22241SOL    HW168164   1.074   2.083   7.740 -0.3648  2.4421 -0.2444
22241SOL    HW268165   1.069   2.085   7.891 -0.0332  1.1874 -0.2019
22242SOL     OW68166   2.496   5.809  10.899  0.1347 -0.5392  0.0870
22242SOL    HW168167   2.563   5.836  10.963 -0.1550 -1.5658  0.8469
22242SOL    HW268168   2.469   5.722  10.928 -0.6364 -0.6593 -0.9469
22243SOL     OW68169   4.865   7.666   6.797 -0.2435 -0.0039 -0.5807
22243SOL    HW168170   4.913   7.632   6.721 -0.3899 -0.3694 -0.5105
22243SOL    HW268171   4.875   7.598   6.864 -1.9834 -0.7043 -0.9926
22244SOL     OW68172   6.265   2.589   1.540  0.4613  0.6075  0.4766
22244SOL    HW168173   6.239   2.680   1.530 -1.1777  0.2166  0.9003
22244SOL    HW268174   6.262   2.553   1.451 -0.0306  0.6832  0.4612
22245SOL     OW68175   6.143   2.758   4.743  0.6608 -0.0858  0.7318
22245SOL    HW168176   6.237   2.743   4.743  1.1176  1.8025 -2.5057
22245SOL    HW268177   6.134   2.852   4.728 -1.7766 -0.1254  1.5039
22246SOL     OW68178   7.514   2.353  11.775  0.3974  0.2968 -1.0900
22246SOL    HW168179   7.608   2.353  11.797  0.0816 -0.3519  0.4326
22246SOL    HW268180   7.491   2.446  11.773  0.7834  0.4440  0.0376
22247SOL     OW68181   4.050   6.122   6.948 -0.5342 -0.3331  0.0602
22247SOL    HW168182   4.108   6.046   6.951 -0.4833 -0.2640  1.2225
22247SOL    HW268183   4.080   6.172   6.872  0.0726 -0.9686 -0.1275
22248SOL     OW68184   0.218   7.473   8.912 -0.3888 -0.1601 -0.5527
22248SOL    HW168185   0.136   7.520   8.930  0.1890  0.3025  0.9576
22248SOL    HW268186   0.265   7.532   8.853 -0.7032  0.0387 -0.6118
22249SOL     OW68187   0.318   6.865   0.974 -0.4152 -0.7012 -0.2303
22249SOL    HW168188   0.301   6.877   1.068  2.1292  0.1501  0.1897
22249SOL    HW268189   0.249   6.917   0.931  0.9656  2.7190  1.3043
22250SOL     OW68190   5.067   0.550   9.222 -0.0169 -0.7043 -0.0521
22250SOL    HW168191   5.003   0.543   9.151  0.5722 -3.2417 -0.4415
22250SOL    HW268192   5.026   0.503   9.295  0.8776 -1.3172  0.0706
22251SOL     OW68193   2.506   4.769   3.298  0.2170 -0.0874 -0.0765
22251SOL    HW168194   2.568   4.732   3.360  0.7306  0.8735  0.0037
22251SOL    HW268195   2.544   4.853   3.274 -0.4411 -0.0366 -0.9824
22252SOL     OW68196   4.380   6.777   3.303 -0.0520  0.3706 -0.2951
22252SOL    HW168197   4.451   6.821   3.256 -0.3831  1.1894 -0.0627
22252SOL    HW268198   4.397   6.797   3.395 -0.0437 -0.2511 -0.1616
22253SOL     OW68199   6.477   7.133   0.912 -0.2168 -0.1194 -0.3908
22253SOL    HW168200   6.445   7.059   0.962  0.4673  1.5053  2.6812
22253SOL    HW268201   6.405   7.156   0.853 -0.1460 -3.5909 -2.0524
22254SOL     OW68202   7.928   4.873   8.085  0.2255  0.1183  0.3894
22254SOL    HW168203   7.855   4.889   8.145 -0.1231  0.9727 -0.2397
22254SOL    HW268204   7.932   4.778   8.077 -0.4167  0.0374  0.9163
22255SOL     OW68205   2.408   3.760   4.476 -0.5813 -0.1518  0.0307
22255SOL    HW168206   2.321   3.739   4.507 -0.1824 -0.5072  0.9373
22255SOL    HW268207   2.425   3.697   4.405 -1.7807  1.1366 -1.4699
22256SOL     OW68208   0.624   7.248   8.597 -0.0107  0.3979 -0.0092
22256SOL    HW168209   0.582   7.170   8.562  1.3598 -0.7267  0.7422
22256SOL    HW268210   0.693   7.269   8.534  0.9628 -0.2520  0.8207
22257SOL     OW68211   4.477   7.285   7.804 -0.2137  0.0860  0.1033
22257SOL    HW168212   4.503   7.365   7.851  1.5604  0.7950 -1.8945
22257SOL    HW268213   4.536   7.218   7.838 -0.3569  0.1010  0.3816
22258SOL     OW68214   1.448   5.116   2.573 -0.0609 -0.3700  0.0426
22258SOL    HW168215   1.447   5.208   2.549  1.2253 -0.6799 -1.3961
22258SOL    HW268216   1.445   5.115   2.669  1.5771  1.2386  0.1567
22259SOL     OW68217   0.772   6.163  10.954 -0.0806  0.2456 -0.0459
22259SOL    HW168218   0.701   6.153  10.891 -0.1761  2.3387 -0.3470
22259SOL    HW268219   0.851   6.139  10.906 -0.4702 -1.4896  0.1074
22260SOL     OW68220   7.327   5.019   8.947 -0.4241 -0.3106  0.5117
22260SOL    HW168221   7.350   5.009   8.855  1.7840 -0.8064  1.0653
22260SOL    HW268222   7.252   4.961   8.960  0.5531 -1.8706 -0.5229
22261SOL     OW68223   6.317   3.735  11.630  0.5827  0.1862 -0.5678
22261SOL    HW168224   6.250   3.706  11.568  1.4426 -0.1613 -1.3650
22261SOL    HW268225   6.349   3.817  11.593  0.1231  0.7066  0.1786
22262SOL     OW68226   0.468   1.130   0.736  0.5542  0.2691 -0.1342
22262SOL    HW168227   0.426   1.050   0.767 -0.3453  0.8209  0.0977
22262SOL    HW268228   0.561   1.117   0.756  0.5968 -1.1618 -1.0662
22263SOL     OW68229   2.265   4.776  12.149 -0.7294  0.6589 -0.1107
22263SOL    HW168230   2.320   4.836  12.099 -0.4853  0.7793  0.3058
22263SOL    HW268231   2.219   4.725  12.082  1.4547 -0.9247 -0.5307
22264SOL     OW68232   0.566   6.950   1.150  0.2503 -0.0223 -0.7576
22264SOL    HW168233   0.492   7.000   1.114 -0.5564 -0.3464  0.3936
22264SOL    HW268234   0.553   6.953   1.245  1.1500 -0.9610 -0.5894
22265SOL     OW68235   4.030   6.491   3.355  0.0683  0.4498  0.0965
22265SOL    HW168236   3.977   6.429   3.305  1.6178 -0.3925 -0.6019
22265SOL    HW268237   4.095   6.523   3.292  0.7455  0.9948  1.0447
22266SOL     OW68238   0.768   0.640   7.870 -0.2480  0.6191  0.6623
22266SOL    HW168239   0.734   0.680   7.790  0.3269  0.1147  0.1524
22266SOL    HW268240   0.853   0.604   7.844 -1.3275 -2.1773  0.7368
22267SOL     OW68241   4.827   6.022   1.795 -0.0378  0.4176 -0.1754
22267SOL    HW168242   4.784   5.949   1.840  1.8192  0.4596  1.8226
22267SOL    HW268243   4.920   6.009   1.812  0.5329  1.9263 -1.8766
22268SOL     OW68244   6.651   1.515   1.749 -0.3730  0.2885 -0.2957
22268SOL    HW168245   6.650   1.478   1.660 -1.5987  0.5604 -0.4203
22268SOL    HW268246   6.608   1.448   1.803  0.0947  0.2572  0.0409
22269SOL     OW68247   2.127   5.856   3.793 -0.0744  0.2248  0.0206
22269SOL    HW168248   2.061   5.922   3.817  0.4228  1.5158 -1.9007
22269SOL    HW268249   2.077   5.789   3.746 -0.3061  0.1793  0.3266
22270SOL     OW68250   6.283   6.848   0.978 -0.1662 -0.1442  0.1548
22270SOL    HW168251   6.221   6.920   0.967 -0.6451 -0.5327  0.2792
22270SOL    HW268252   6.240   6.772   0.938  0.0761 -0.4958  0.5437
22271SOL     OW68253   5.136   6.782   9.243 -0.6204 -1.0985 -0.6876
22271SOL    HW168254   5.211   6.821   9.197 -1.0947  2.4868  1.1904
22271SOL    HW268255   5.174   6.739   9.319 -0.3336  1.4835  0.7618
22272SOL     OW68256   0.700   3.595  11.463  0.1228  0.2350  0.1959
22272SOL    HW168257   0.671   3.523  11.518  0.7870  0.7569  1.2645
22272SOL    HW268258   0.705   3.670  11.522  2.9856  0.3398 -0.0199
22273SOL     OW68259   6.240   2.832   7.932  0.0752  0.4267 -0.1466
22273SOL    HW168260   6.225   2.779   7.853 -2.7032  0.6876  0.1052
22273SOL    HW268261   6.264   2.918   7.899 -1.3377  0.6127 -0.7795
22274SOL     OW68262   6.355   6.088   4.203  0.3449 -0.1748 -0.4323
22274SOL    HW168263   6.379   5.997   4.185  0.3976 -0.3654  0.5342
22274SOL    HW268264   6.438   6.132   4.220  0.3877  0.2390 -1.6223
22275SOL     OW68265   7.078   0.374   8.652 -0.0366  0.5687  0.0527
22275SOL    HW168266   7.037   0.353   8.568  1.8653 -3.7805 -0.0258
22275SOL    HW268267   7.151   0.432   8.630 -1.8544  2.7289 -0.6471
22276SOL     OW68268   4.442   3.120   5.689 -0.1121  0.2816 -0.2304
22276SOL    HW168269   4.429   3.037   5.643  0.3996  0.4880 -0.7490
22276SOL    HW268270   4.359   3.135   5.735 -0.2908 -0.3974 -0.3151
22277SOL     OW68271   2.655   2.597   6.084  0.4233  0.3858  0.1758
22277SOL    HW168272   2.683   2.688   6.089  0.1115  0.6269 -1.6638
22277SOL    HW268273   2.718   2.556   6.025 -0.8749  0.0321 -1.0040
22278SOL     OW68274   6.561   5.769   1.090  0.5252 -0.2928 -0.3548
22278SOL    HW168275   6.607   5.742   1.169  1.4188 -2.1778 -1.4447
22278SOL    HW268276   6.474   5.731   1.098  0.6930 -0.6817 -0.3867
22279SOL     OW68277   0.633   2.315   7.125 -0.9285  0.0492  0.1053
22279SOL    HW168278   0.544   2.350   7.116 -0.8455 -0.2099 -2.8754
22279SOL    HW268279   0.690   2.393   7.123 -1.0249  0.1984  1.7827
22280SOL     OW68280   5.161   2.697   3.380 -0.1327  0.3997  0.8427
22280SOL    HW168281   5.106   2.757   3.331  0.0040  0.2939  0.5545
22280SOL    HW268282   5.156   2.615   3.332 -0.2612  0.1994  1.1933
22281SOL     OW68283   0.684   3.106   6.978  1.0943  0.0839  0.5314
22281SOL    HW168284   0.736   3.029   7.001  2.1773  0.4457 -0.5731
22281SOL    HW268285   0.621   3.074   6.914 -1.1344 -0.6723  2.9397
22282SOL     OW68286   6.292   7.324   4.887  0.4664  0.2128 -0.1832
22282SOL    HW168287   6.261   7.395   4.830  2.4676  0.5945 -0.8887
22282SOL    HW268288   6.338   7.265   4.827 -0.5335 -1.3235  0.5152
22283SOL     OW68289   6.510   4.769   4.540  0.0227 -0.0614  0.1815
22283SOL    HW168290   6.493   4.763   4.634 -2.3612 -0.2292 -0.1969
22283SOL    HW268291   6.474   4.688   4.504  0.0881  0.4053 -0.9536
22284SOL     OW68292   4.979   0.122   2.846  0.2661  0.4453  0.2292
22284SOL    HW168293   5.037   0.194   2.820  1.0838 -0.8762 -1.8930
22284SOL    HW268294   4.924   0.106   2.769 -1.6811  0.4265  1.5461
22285SOL     OW68295   5.337   4.611   0.971  0.2667 -0.2939 -0.6359
22285SOL    HW168296   5.350   4.650   1.057  2.3076 -1.6224 -0.2706
22285SOL    HW268297   5.358   4.682   0.910  2.4416 -0.3206  0.0073
22286SOL     OW68298   1.609   4.023   6.100 -0.0243 -0.4920  0.3488
22286SOL    HW168299   1.591   4.028   6.194 -0.5231 -0.3224  0.2473
22286SOL    HW268300   1.698   4.058   6.091 -0.5290  0.9407  0.5954
22287SOL     OW68301   5.971   7.023   1.275  0.5075 -0.2519  0.3863
22287SOL    HW168302   5.937   6.966   1.344  0.4677  0.9124  1.3824
22287SOL    HW268303   5.916   7.005   1.199  0.5133 -1.5263  0.6700
22288SOL     OW68304   2.235   4.440   4.660 -0.1480 -0.0226 -0.2770
22288SOL    HW168305   2.195   4.523   4.634 -0.5738  0.1402  0.8544
22288SOL    HW268306   2.282   4.411   4.582  0.6579  1.6671 -0.4591
22289SOL     OW68307   6.901   4.176  10.167  0.2716 -0.3642  0.0091
22289SOL    HW168308   6.945   4.093  10.186  1.8369  0.1166 -1.3630
22289SOL    HW268309   6.945   4.239  10.224  1.3516  0.1029 -1.3078
22290SOL     OW68310   1.036   5.412   8.252 -0.7428 -0.3903  0.4675
22290SOL    HW168311   1.123   5.418   8.291 -0.1815  0.3315 -0.8313
22290SOL    HW268312   0.976   5.403   8.327  0.3717 -0.0902  1.4173
22291SOL     OW68313   0.052   5.811   7.023 -0.0231  0.4214 -0.7608
22291SOL    HW168314   0.017   5.747   7.085  1.1121  1.4904  1.0868
22291SOL    HW268315   0.114   5.762   6.969  0.3297 -0.1906  0.1837
22292SOL     OW68316   7.657   1.279   1.802 -0.0259  0.4980 -0.2391
22292SOL    HW168317   7.618   1.192   1.812  2.0456 -0.2599  2.1165
22292SOL    HW268318   7.731   1.266   1.743  1.8641 -0.0032  2.0914
22293SOL     OW68319   3.543   5.585  12.187 -0.8320 -0.4947  0.2330
22293SOL    HW168320   3.619   5.607  12.134 -2.3001  0.2580 -1.7090
22293SOL    HW268321   3.549   5.643  12.263  0.6995 -0.7212  0.3076
22294SOL     OW68322   2.317   1.984   5.835 -0.4548 -0.0344 -0.3665
22294SOL    HW168323   2.395   1.931   5.819 -0.2405  0.0908  0.2352
22294SOL    HW268324   2.340   2.070   5.800 -0.5115 -0.1362 -0.6503
22295SOL     OW68325   2.631   7.274   5.034 -0.5397  0.1672 -0.2833
22295SOL    HW168326   2.540   7.304   5.040 -0.4559  0.7641 -1.6711
22295SOL    HW268327   2.680   7.352   5.009  0.3330 -0.2098  0.1980
22296SOL     OW68328   2.170   7.104   3.400 -0.1975  0.1462  0.2757
22296SOL    HW168329   2.262   7.131   3.405 -0.1720 -0.0107  0.7300
22296SOL    HW268330   2.165   7.052   3.320 -0.1390  1.0741 -0.3351
22297SOL     OW68331   3.127   1.029   7.304 -0.1336 -0.0717 -0.0161
22297SOL    HW168332   3.198   1.060   7.360  0.3891  0.0254 -0.7189
22297SOL    HW268333   3.165   0.955   7.256  0.1263  1.1618 -1.8078
22298SOL     OW68334   5.276   7.769   4.755  0.5983 -0.0495  0.0171
22298SOL    HW168335   5.316   7.852   4.782  0.2658  0.2866 -0.4970
22298SOL    HW268336   5.183   7.778   4.778  0.3174  0.2326 -1.1827
22299SOL     OW68337   5.093   5.990  11.147  0.0030 -0.4483  0.3104
22299SOL    HW168338   5.189   5.989  11.153 -0.0664 -0.7240  2.2369
22299SOL    HW268339   5.068   5.898  11.153 -0.3868 -0.3958 -0.4384
22300SOL     OW68340   1.585   5.945  10.527  0.2641  0.1233 -0.6411
22300SOL    HW168341   1.590   6.013  10.594  0.0230 -0.5914  0.1226
22300SOL    HW268342   1.500   5.957  10.486  0.3028  0.3938 -0.6432
22301SOL     OW68343   7.354   3.847   5.065 -0.1584  0.0190 -0.1604
22301SOL    HW168344   7.370   3.757   5.092 -2.4603 -0.6255 -0.6993
22301SOL    HW268345   7.334   3.893   5.146  0.2477 -0.1290  0.0274
22302SOL     OW68346   4.011   7.806   6.496 -0.2397  0.6975  0.5206
22302SOL    HW168347   4.062   7.805   6.577 -0.5096  1.2061  0.6951
22302SOL    HW268348   4.002   7.714   6.473  0.1532  0.5676  0.8699
22303SOL     OW68349   2.098   5.673   0.562  0.0882 -0.1590 -0.1335
22303SOL    HW168350   2.156   5.735   0.519  0.7081 -1.5898 -1.4490
22303SOL    HW268351   2.015   5.721   0.572  0.9281  1.2977  0.1436
22304SOL     OW68352   3.772   7.652   9.224 -0.5353 -0.5265 -0.2074
22304SOL    HW168353   3.763   7.744   9.248 -2.6306 -0.7572  0.0373
22304SOL    HW268354   3.778   7.653   9.128 -0.3108 -0.1363 -0.1928
22305SOL     OW68355   1.314   2.640   5.436  0.0048  0.0411 -0.3381
22305SOL    HW168356   1.382   2.652   5.503  0.3811 -0.9701 -0.5256
22305SOL    HW268357   1.241   2.694   5.467  0.7979  0.9724 -0.0192
22306SOL     OW68358   1.371   4.039  10.863 -0.0482 -0.3199  0.2143
22306SOL    HW168359   1.433   4.021  10.793  0.5066 -1.1287  0.9050
22306SOL    HW268360   1.399   4.123  10.899 -0.2536  0.0334 -0.4269
22307SOL     OW68361   2.189   3.903   5.815  0.4986 -0.6793  0.0229
22307SOL    HW168362   2.163   3.973   5.875  2.3313  0.9256 -0.9233
22307SOL    HW268363   2.237   3.841   5.869 -2.3392 -2.0637  1.1608
22308SOL     OW68364   4.585   2.654   5.903  0.1091 -0.0213 -0.5043
22308SOL    HW168365   4.612   2.582   5.960 -0.5939  0.3267  0.2893
22308SOL    HW268366   4.585   2.731   5.960 -0.4026  0.3748 -1.0230
22309SOL     OW68367   1.872   5.946   2.150 -0.2389  0.6673 -0.7958
22309SOL    HW168368   1.933   5.881   2.185  2.0440  2.0767 -1.8756
22309SOL    HW268369   1.785   5.915   2.175  0.8777 -1.7861  0.2943
22310SOL     OW68370   0.272   2.554   2.395  0.1967 -0.6515 -0.3354
22310SOL    HW168371   0.362   2.582   2.377  0.0904 -0.8475 -1.2185
22310SOL    HW268372   0.241   2.614   2.463  1.6148 -1.7647  1.3816
22311SOL     OW68373   1.817   4.874   2.039  0.5697  0.0924 -0.2931
22311SOL    HW168374   1.776   4.921   1.966 -0.6892 -0.2369  0.1843
22311SOL    HW268375   1.831   4.942   2.106  1.6949  0.3881 -0.7975
22312SOL     OW68376   1.595   5.745   5.972  0.3209  0.3290  0.3565
22312SOL    HW168377   1.564   5.666   5.926 -0.2189  0.2693  0.8088
22312SOL    HW268378   1.536   5.814   5.943  0.0005  0.2986  0.9228
22313SOL     OW68379   1.069   6.417  10.746 -0.0827  0.2598 -0.0389
22313SOL    HW168380   1.050   6.438  10.654  0.7149  0.9524 -0.0560
22313SOL    HW268381   0.994   6.452  10.794 -0.1225  0.6130 -0.3493
22314SOL     OW68382   3.036   6.245   7.907 -0.1973 -0.4692  0.4400
22314SOL    HW168383   2.992   6.257   7.823  0.7439 -0.5671 -0.0752
22314SOL    HW268384   3.116   6.296   7.900 -0.1763 -0.3586  1.3447
22315SOL     OW68385   6.713   7.668   7.274 -0.4246  0.0076  0.5740
22315SOL    HW168386   6.770   7.739   7.301 -0.7449 -0.3612  2.4382
22315SOL    HW268387   6.765   7.589   7.289 -0.6345 -0.2298  0.0762
22316SOL     OW68388   5.241   4.081  11.542 -0.1787  0.4359 -0.4400
22316SOL    HW168389   5.189   4.020  11.595  0.7324 -2.0064 -2.1294
22316SOL    HW268390   5.312   4.108  11.600 -0.9461  0.3566  0.5549
22317SOL     OW68391   3.432   5.705   8.058 -0.3675 -0.2754  0.1235
22317SOL    HW168392   3.481   5.657   8.125 -2.4075 -2.7274  0.0063
22317SOL    HW268393   3.495   5.767   8.022  1.9315 -1.6205  1.5721
22318SOL     OW68394   6.324   0.593   7.315  0.0555  0.1212 -0.8800
22318SOL    HW168395   6.362   0.525   7.259 -1.7235  0.0027 -2.0467
22318SOL    HW268396   6.230   0.589   7.296 -0.3393  1.5464  0.5564
22319SOL     OW68397   4.527   3.463   8.128  0.1262  0.6675 -0.7157
22319SOL    HW168398   4.457   3.451   8.192 -0.2193 -2.2218 -1.4995
22319SOL    HW268399   4.501   3.540   8.078 -1.3148  1.0005  0.4922
22320SOL     OW68400   3.653   1.163   5.330  0.4368 -0.5082  0.6368
22320SOL    HW168401   3.622   1.199   5.247 -0.0834 -0.7177  0.7347
22320SOL    HW268402   3.737   1.122   5.309 -0.9263 -2.9744 -0.3981
22321SOL     OW68403   7.444   4.042  11.989 -0.0436  0.4656  0.2063
22321SOL    HW168404   7.352   4.018  12.004  0.7056 -2.0274  1.4103
22321SOL    HW268405   7.448   4.062  11.895 -1.9479  1.3749  0.2846
22322SOL     OW68406   7.884   7.118   0.538 -0.0574  0.3104 -0.7226
22322SOL    HW168407   7.856   7.049   0.598  0.0138 -0.3232 -1.3979
22322SOL    HW268408   7.865   7.199   0.584 -0.7393 -0.1476 -0.1711
22323SOL     OW68409   1.924   2.621   8.895  0.0185 -0.1176 -0.4291
22323SOL    HW168410   1.848   2.658   8.850 -0.8037 -0.6343  0.4967
22323SOL    HW268411   1.998   2.675   8.866 -0.9083  1.2670 -0.2782
22324SOL     OW68412   4.204   6.840   5.750  0.0011 -0.1551 -0.3848
22324SOL    HW168413   4.247   6.759   5.722 -0.0899 -0.3908  0.1570
22324SOL    HW268414   4.266   6.880   5.811  0.3791  0.5625 -1.2196
22325SOL     OW68415   3.086   3.968  12.415  0.1385  0.1697  0.0605
22325SOL    HW168416   3.044   4.037  12.364 -0.2770 -0.3406 -0.2905
22325SOL    HW268417   3.083   3.891  12.359  0.2697 -0.2327  0.5975
22326SOL     OW68418   1.442   0.368   7.159  0.6614  0.1774  0.2191
22326SOL    HW168419   1.494   0.407   7.229 -1.2725 -1.0476  2.4986
22326SOL    HW268420   1.433   0.276   7.183 -0.8600 -0.0942 -1.1376
22327SOL     OW68421   7.962   7.050  11.966 -0.1679 -0.3303 -0.0932
22327SOL    HW168422   8.017   7.005  11.901 -0.2381 -0.0602 -0.3436
22327SOL    HW268423   7.987   7.142  11.958  0.8762 -0.4645  1.2830
22328SOL     OW68424   4.951   1.975   2.479  0.9339 -0.2347 -0.2178
22328SOL    HW168425   4.999   2.021   2.548  1.7609 -1.6757  0.2182
22328SOL    HW268426   4.919   1.895   2.521 -1.9502  0.6529 -0.4823
22329SOL     OW68427   1.673   3.298   2.007  0.1550 -0.2948 -0.2769
22329SOL    HW168428   1.767   3.314   2.005  0.0896  0.0080 -1.0775
22329SOL    HW268429   1.638   3.368   2.062  0.4710 -0.8516  0.6622
22330SOL     OW68430   1.971   3.347   5.075 -0.4448  0.5771 -0.6463
22330SOL    HW168431   1.933   3.301   5.150 -0.6749 -0.1687 -1.2164
22330SOL    HW268432   2.028   3.414   5.115  0.5446 -0.7193  0.2008
22331SOL     OW68433   5.587   5.459   1.872  0.8474  0.0983  0.4550
22331SOL    HW168434   5.598   5.488   1.782  0.2064  0.4286  0.4771
22331SOL    HW268435   5.567   5.540   1.921  0.0855 -0.2243  0.6994
22332SOL     OW68436   1.421   0.125   5.172 -0.0557  0.0274  0.0792
22332SOL    HW168437   1.453   0.178   5.099 -0.1237  0.0336  0.0539
22332SOL    HW268438   1.332   0.101   5.147 -0.1929  0.2979  0.3085
22333SOL     OW68439   3.898   0.443  10.786 -0.3491 -0.2931 -0.6743
22333SOL    HW168440   3.889   0.444  10.881 -0.9685  0.4702 -0.7290
22333SOL    HW268441   3.992   0.445  10.770  0.0175 -4.0502 -0.0766
22334SOL     OW68442   2.615   2.269  10.637 -0.2019  0.3184 -0.5627
22334SOL    HW168443   2.534   2.222  10.618 -0.0184 -0.2550  0.0441
22334SOL    HW268444   2.626   2.329  10.563 -1.5304  0.8819 -0.3253
22335SOL     OW68445   7.783   3.501   3.536  0.1202 -0.4171 -0.8478
22335SOL    HW168446   7.703   3.549   3.556 -0.6073 -1.5880 -0.8043
22335SOL    HW268447   7.825   3.551   3.466  2.1277  3.1448  2.5597
22336SOL     OW68448   6.847   3.837   3.303  0.3653 -0.6691  0.2213
22336SOL    HW168449   6.756   3.830   3.330  0.2192 -2.1637 -0.5833
22336SOL    HW268450   6.888   3.890   3.372 -1.5568  2.0501 -0.5805
22337SOL     OW68451   3.340   0.427  11.382  0.2800  0.1723  0.6629
22337SOL    HW168452   3.320   0.514  11.348  3.8992  1.3036  1.0190
22337SOL    HW268453   3.378   0.444  11.468 -2.0017 -2.1158  2.2772
22338SOL     OW68454   6.158   3.252   0.905 -0.2244  0.4808  0.1239
22338SOL    HW168455   6.088   3.200   0.868 -1.3694  2.0002  0.0605
22338SOL    HW268456   6.189   3.306   0.832 -1.0938  2.0015  0.8269
22339SOL     OW68457   6.393   7.268   5.763  0.1001 -0.1895 -0.0944
22339SOL    HW168458   6.409   7.239   5.853 -0.9312  0.4478  0.3255
22339SOL    HW268459   6.298   7.256   5.751  0.2590 -0.4568 -1.1690
22340SOL     OW68460   7.062   1.303   1.761  0.1982  0.4444  0.0014
22340SOL    HW168461   7.000   1.241   1.721 -0.3789  2.3430 -2.2434
22340SOL    HW268462   7.148   1.275   1.730  0.2172 -0.4816  0.8083
22341SOL     OW68463   7.831   2.223   4.424 -0.0994  0.0896 -0.5105
22341SOL    HW168464   7.809   2.258   4.338 -0.6663 -1.0482 -0.8577
22341SOL    HW268465   7.920   2.254   4.441  0.4914 -0.6599 -2.0480
22342SOL     OW68466   2.289   3.256   3.232 -0.5061  0.2399 -0.0686
22342SOL    HW168467   2.345   3.244   3.154  0.2946  1.6902  0.2534
22342SOL    HW268468   2.240   3.174   3.238  0.7230 -0.6158 -1.0663
22343SOL     OW68469   7.064   0.897   9.845 -0.0488  0.3055 -0.0937
22343SOL    HW168470   6.970   0.887   9.827 -0.5141  1.1447  1.6330
22343SOL    HW268471   7.086   0.822   9.900 -0.1292  0.9588  0.8655
22344SOL     OW68472   0.918   7.617   1.198 -0.2357 -0.5448  0.1471
22344SOL    HW168473   0.953   7.702   1.172  0.7669 -1.0405 -0.1955
22344SOL    HW268474   0.957   7.555   1.137 -1.0578 -1.2429  0.3075
22345SOL     OW68475   5.915   3.647   9.749 -0.5074  0.3395 -0.1152
22345SOL    HW168476   5.851   3.666   9.680 -1.6825 -2.5269  0.0590
22345SOL    HW268477   5.876   3.575   9.799  1.5106  0.5570  1.9198
22346SOL     OW68478   4.849   5.960  10.489  0.0084  0.0834 -0.4431
22346SOL    HW168479   4.832   5.867  10.473 -0.5691  0.4629 -2.2626
22346SOL    HW268480   4.938   5.974  10.456 -0.1531  0.3096 -0.7840
22347SOL     OW68481   7.802   3.144   9.267 -0.4568 -0.2511 -0.0396
22347SOL    HW168482   7.893   3.145   9.298 -0.9000 -0.8892  1.3838
22347SOL    HW268483   7.807   3.104   9.180  0.6596  0.0584 -0.1385
22348SOL     OW68484   6.340   0.749   4.522  0.3709  0.0386  0.1219
22348SOL    HW168485   6.423   0.744   4.474  0.7180 -1.4855  0.8304
22348SOL    HW268486   6.277   0.703   4.468  0.5804 -0.9915  0.7332
22349SOL     OW68487   4.508   0.844  12.132 -0.0958 -0.4837  0.1787
22349SOL    HW168488   4.516   0.892  12.050 -1.3389 -0.4652  0.0458
22349SOL    HW268489   4.598   0.835  12.164  0.1571  2.1578  0.3654
22350SOL     OW68490   1.922   1.304   7.322 -0.5994 -0.4962 -0.3463
22350SOL    HW168491   1.963   1.230   7.278  1.8513  0.5101  0.0535
22350SOL    HW268492   1.993   1.367   7.333 -1.6664  0.3704  2.6863
22351SOL     OW68493   3.955   6.258   9.532 -0.2989  0.2399 -0.5271
22351SOL    HW168494   3.914   6.342   9.552  1.3730  1.0289 -0.2145
22351SOL    HW268495   3.936   6.243   9.439  0.5201  1.6647 -0.9493
22352SOL     OW68496   1.494   6.459   4.168 -0.1084 -0.5816  0.0945
22352SOL    HW168497   1.551   6.475   4.092 -1.3404  0.4661 -0.6456
22352SOL    HW268498   1.554   6.458   4.242  1.0095 -0.5657 -0.7737
22353SOL     OW68499   4.309   5.481   3.859  0.2521  0.0821 -0.1710
22353SOL    HW168500   4.385   5.528   3.894  2.6801 -2.3494 -1.7640
22353SOL    HW268501   4.309   5.501   3.766 -1.0050 -0.0954 -0.2260
22354SOL     OW68502   5.379   0.738   2.547 -0.3626  0.4686  0.4458
22354SOL    HW168503   5.403   0.770   2.460 -4.9875  0.1011 -1.2600
22354SOL    HW268504   5.356   0.818   2.596 -2.7649  0.5002 -0.5876
22355SOL     OW68505   1.769   2.895   0.239 -0.1012  0.0942 -0.1676
22355SOL    HW168506   1.747   2.975   0.191 -0.5895  1.0302  1.5413
22355SOL    HW268507   1.848   2.917   0.288  1.3192 -1.3613 -1.6804
22356SOL     OW68508   3.949   6.359   3.146 -0.3591 -0.3480 -0.3799
22356SOL    HW168509   3.986   6.285   3.098  1.2760 -0.0963  0.4377
22356SOL    HW268510   3.933   6.425   3.079  0.6846 -0.4667 -0.7587
22357SOL     OW68511   3.353   5.686   8.749 -0.2507  0.0922  0.4594
22357SOL    HW168512   3.356   5.726   8.662 -0.7973 -0.0853  0.3574
22357SOL    HW268513   3.370   5.758   8.810  0.5087  0.1484  0.1931
22358SOL     OW68514   5.399   2.400   7.639 -0.4379  0.4431  0.4985
22358SOL    HW168515   5.413   2.494   7.656 -0.6891  0.6829 -0.5480
22358SOL    HW268516   5.332   2.398   7.571  1.2607 -0.4155 -1.2376
22359SOL     OW68517   7.908   6.329   4.603  0.0885  0.3706  0.1473
22359SOL    HW168518   7.880   6.251   4.651  0.4351  0.2044  0.0806
22359SOL    HW268519   7.898   6.401   4.665  0.4779  0.1670  0.4492
22360SOL     OW68520   7.314   6.754   6.926  0.2309  0.3853 -0.9038
22360SOL    HW168521   7.274   6.786   7.007  0.2404  0.1667 -0.8098
22360SOL    HW268522   7.255   6.684   6.897 -1.5806  2.5691 -2.8504
22361SOL     OW68523   0.939   3.863   5.267  0.6850  0.1625  0.8706
22361SOL    HW168524   0.932   3.776   5.228 -2.9818  0.7614 -0.2536
22361SOL    HW268525   1.032   3.881   5.270  1.5011 -3.1403 -0.3223
22362SOL     OW68526   0.543   0.895   2.594 -0.5399  0.8216  0.3427
22362SOL    HW168527   0.465   0.950   2.599  0.2578  2.1592 -0.8673
22362SOL    HW268528   0.529   0.841   2.516  0.8862  3.1265 -1.6718
22363SOL     OW68529   3.679   6.042  10.285 -0.0690 -0.3383  0.0335
22363SOL    HW168530   3.649   6.129  10.259  0.0875 -0.3176 -0.0769
22363SOL    HW268531   3.614   5.983  10.247 -0.6300 -0.2238  0.7916
22364SOL     OW68532   1.128   1.623   7.876 -0.4170  0.2517  0.0725
22364SOL    HW168533   1.081   1.690   7.926 -0.7102  0.5544 -0.5966
22364SOL    HW268534   1.209   1.666   7.850 -1.4686  1.1020 -2.1000
22365SOL     OW68535   3.775   3.729  10.758  0.8580  0.2556  0.1132
22365SOL    HW168536   3.801   3.765  10.673  0.1504 -1.0842 -0.6951
22365SOL    HW268537   3.787   3.635  10.749 -0.5583 -0.0434  1.0104
22366SOL     OW68538   2.295   1.126  12.120  0.4942 -0.2913  0.4653
22366SOL    HW168539   2.335   1.213  12.115  0.6729 -0.4151 -0.3329
22366SOL    HW268540   2.369   1.065  12.119  0.3138 -0.5443 -1.5302
22367SOL     OW68541   0.100   3.955  11.340  0.4801 -0.0193  0.5343
22367SOL    HW168542   0.133   3.877  11.385 -0.4259 -0.6446  0.1458
22367SOL    HW268543   0.167   3.975  11.275  1.1627  0.0925  1.2592
22368SOL     OW68544   0.919   1.849  10.905 -0.3023  0.6039  0.1042
22368SOL    HW168545   0.997   1.902  10.889  1.0825 -0.9120  1.3611
22368SOL    HW268546   0.947   1.759  10.887 -1.8388  0.0336  0.3794
22369SOL     OW68547   2.984   0.578   8.132 -0.1950 -0.4280  0.0940
22369SOL    HW168548   2.949   0.627   8.207  1.5926 -0.1034  0.7850
22369SOL    HW268549   2.971   0.486   8.154  1.7853 -0.4059  1.6609
22370SOL     OW68550   7.372   3.596  11.126 -0.0562 -1.0170  0.2853
22370SOL    HW168551   7.303   3.546  11.082 -0.4984 -1.3189  1.3096
22370SOL    HW268552   7.331   3.631  11.204  0.3193  0.7528 -0.2605
22371SOL     OW68553   4.936   6.799  10.334 -0.3590  0.2935 -0.4648
22371SOL    HW168554   4.936   6.754  10.419 -1.5953  1.1628  0.0225
22371SOL    HW268555   5.029   6.809  10.313  0.0723  1.9599  1.8333
22372SOL     OW68556   3.106   3.333   5.498  0.7902 -0.4284  0.6426
22372SOL    HW168557   3.136   3.344   5.588  2.5065  1.4641 -0.0555
22372SOL    HW268558   3.050   3.409   5.482  0.6268 -0.6637  0.0645
22373SOL     OW68559   7.981   5.131  11.341 -0.3947 -0.2696  0.4237
22373SOL    HW168560   7.992   5.225  11.354 -0.2525 -0.1918 -0.2281
22373SOL    HW268561   7.938   5.101  11.420  1.3461  0.0016  1.5280
22374SOL     OW68562   4.828   2.914   4.150  0.2763 -0.0111 -0.2701
22374SOL    HW168563   4.745   2.951   4.119 -0.2032 -0.0507  0.9175
22374SOL    HW268564   4.812   2.820   4.157  0.0641  0.0921  0.9419
22375SOL     OW68565   5.842   6.181  10.742  0.1833  0.6273  0.0317
22375SOL    HW168566   5.825   6.107  10.684 -0.6290  1.3916 -0.7216
22375SOL    HW268567   5.757   6.205  10.777  0.3843  1.4769 -0.0529
22376SOL     OW68568   4.126   5.025   1.562 -0.0944  0.1531 -0.3432
22376SOL    HW168569   4.140   4.951   1.502 -0.8916  1.1642 -1.8353
22376SOL    HW268570   4.103   5.098   1.505 -2.4690  0.7886  1.2852
22377SOL     OW68571   7.571   1.534   3.074  0.5121  0.3466  0.3128
22377SOL    HW168572   7.533   1.448   3.054  1.8579 -0.2797  0.3228
22377SOL    HW268573   7.537   1.591   3.005 -0.1373 -0.2661  0.1100
22378SOL     OW68574   4.131   0.264   6.420 -0.1981  0.2920  0.0593
22378SOL    HW168575   4.143   0.341   6.364 -2.1371  1.0852  0.6407
22378SOL    HW268576   4.203   0.268   6.483  0.9429  0.4180 -1.2111
22379SOL     OW68577   4.046   7.733   7.426  0.5432 -0.3812 -0.1801
22379SOL    HW168578   3.977   7.715   7.363 -1.3662  1.9311  1.0798
22379SOL    HW268579   4.105   7.794   7.381  0.4578 -0.5097 -0.4661
22380SOL     OW68580   6.388   3.490   5.259  0.3679 -0.9838  0.7887
22380SOL    HW168581   6.409   3.553   5.328 -3.1014  0.6411  0.5746
22380SOL    HW268582   6.442   3.517   5.185  0.7829  0.1560  1.4798
22381SOL     OW68583   0.170   0.832   5.492  0.4419  0.9496 -0.6948
22381SOL    HW168584   0.242   0.769   5.498 -0.2969  0.0267 -1.1482
22381SOL    HW268585   0.091   0.778   5.502 -0.1760  2.2400  2.4754
22382SOL     OW68586   3.730   4.772   2.849 -0.4530 -0.2010  0.2846
22382SOL    HW168587   3.655   4.824   2.879 -1.5982 -2.1252  0.8924
22382SOL    HW268588   3.775   4.745   2.929  0.5275  0.3916 -0.0540
22383SOL     OW68589   2.201   1.072   3.484 -0.0578 -0.4136  0.6600
22383SOL    HW168590   2.197   1.071   3.389  2.1157  1.6749  0.4476
22383SOL    HW268591   2.126   1.124   3.512  0.6362  1.0625 -0.1173
22384SOL     OW68592   7.202   5.247   3.595  0.5135  0.2199 -0.3553
22384SOL    HW168593   7.115   5.214   3.572 -0.0849  2.1666 -1.1340
22384SOL    HW268594   7.188   5.297   3.676  1.0146  0.0634 -0.1715
22385SOL     OW68595   5.921   5.516  11.363  0.6508  0.2040  0.1166
22385SOL    HW168596   5.924   5.589  11.302  1.5016  0.2233  0.1592
22385SOL    HW268597   5.989   5.536  11.428 -0.0725  0.0645  0.9321
22386SOL     OW68598   3.848   1.135  10.250 -0.3377 -0.6817 -0.0531
22386SOL    HW168599   3.853   1.075  10.176  0.5967 -0.6430 -0.0291
22386SOL    HW268600   3.789   1.204  10.221  0.6096 -0.2669 -1.0594
22387SOL     OW68601   7.734   3.748   4.405  0.1730 -0.0973  0.7940
22387SOL    HW168602   7.773   3.833   4.424  0.9884 -0.0470 -0.9481
22387SOL    HW268603   7.807   3.692   4.382 -0.5720 -0.5626 -0.5459
22388SOL     OW68604   0.446   7.201   1.128  0.2276 -0.0054  1.0419
22388SOL    HW168605   0.487   7.223   1.212 -1.0721  0.6076  1.5409
22388SOL    HW268606   0.379   7.268   1.116 -0.1364 -0.5553 -0.1091
22389SOL     OW68607   6.187   6.182   0.336 -0.2156 -0.3285 -0.3022
22389SOL    HW168608   6.185   6.115   0.405  0.2069 -3.5176 -3.1647
22389SOL    HW268609   6.098   6.184   0.302 -0.0408 -0.0221 -0.7502
22390SOL     OW68610   2.085   4.720   3.413  0.5049  0.4505 -0.0028
22390SOL    HW168611   1.995   4.700   3.386 -0.1033  1.2164  1.3806
22390SOL    HW268612   2.112   4.790   3.354  0.8753 -0.9369 -1.5900
22391SOL     OW68613   0.441   3.782   7.950  0.4702 -0.2042  0.1649
22391SOL    HW168614   0.368   3.724   7.969  0.0818  0.2025 -0.0612
22391SOL    HW268615   0.501   3.729   7.897 -0.0311 -0.3062 -0.3125
22392SOL     OW68616   2.339   3.765   5.210 -0.2425 -0.2166 -0.3716
22392SOL    HW168617   2.406   3.760   5.279  1.0770 -0.7411 -1.6257
22392SOL    HW268618   2.383   3.811   5.138 -1.6321  0.4367 -0.8261
22393SOL     OW68619   7.464   0.029   9.278  0.0432  0.3805 -0.0299
22393SOL    HW168620   7.549  -0.015   9.281 -1.6744 -3.1869  0.8004
22393SOL    HW268621   7.439   0.040   9.370 -0.6660  0.8416 -0.2679
22394SOL     OW68622   5.713   4.173  12.039 -0.5214  0.2523 -0.5156
22394SOL    HW168623   5.751   4.118  12.108 -0.9301  0.8252  0.1862
22394SOL    HW268624   5.732   4.126  11.958  0.7048 -0.0236 -0.0918
22395SOL     OW68625   5.699   3.073   9.368  0.1698 -0.9012  0.2373
22395SOL    HW168626   5.767   3.044   9.427  1.0288  0.3698 -0.0955
22395SOL    HW268627   5.743   3.131   9.306 -0.4209 -3.0973 -2.4441
22396SOL     OW68628   5.963   2.200   4.889 -0.0895  0.0532  1.0942
22396SOL    HW168629   5.949   2.121   4.839 -1.1728  1.0835 -0.3081
22396SOL    HW268630   5.893   2.200   4.955  0.5791 -0.6708  1.8302
22397SOL     OW68631   6.260   5.172   4.801 -0.0411  0.0391  0.0529
22397SOL    HW168632   6.261   5.169   4.706 -1.3547  0.5215 -0.0033
22397SOL    HW268633   6.253   5.080   4.828 -2.8442  0.0234 -0.4542
22398SOL     OW68634   7.020   0.737  11.949 -0.6203  0.5829  0.2884
22398SOL    HW168635   7.077   0.672  11.989  1.6202  1.1591 -1.7452
22398SOL    HW268636   7.064   0.821  11.966 -1.8600  1.2522  0.2810
22399SOL     OW68637   3.307   6.325   6.658  0.6941  0.0771 -0.3405
22399SOL    HW168638   3.289   6.258   6.593  2.5633 -0.1833 -0.6514
22399SOL    HW268639   3.396   6.305   6.688  0.4619  1.1317  1.1425
22400SOL     OW68640   6.941   0.897   6.043 -0.1314 -0.1795  0.2686
22400SOL    HW168641   6.948   0.965   5.976  0.2011 -1.2739 -0.8392
22400SOL    HW268642   6.905   0.942   6.119  1.3553  1.5222  0.0093
22401SOL     OW68643   0.798   0.714   2.644  0.1275  0.2300  0.2447
22401SOL    HW168644   0.705   0.692   2.654  0.1855 -0.3300 -0.3767
22401SOL    HW268645   0.813   0.783   2.708 -1.3024  1.9855 -1.1874
22402SOL     OW68646   4.201   4.536   4.979  0.4681 -0.1878  0.3921
22402SOL    HW168647   4.147   4.485   4.919 -1.1840  1.3785  0.4605
22402SOL    HW268648   4.255   4.471   5.024  0.8165 -1.5296 -1.8119
22403SOL     OW68649   1.516   0.696  11.853 -0.4153 -0.1162 -0.1525
22403SOL    HW168650   1.581   0.727  11.916 -0.2530  0.7487 -0.7222
22403SOL    HW268651   1.433   0.700  11.899 -0.1813 -0.3957  0.3020
22404SOL     OW68652   2.824   0.197   7.144 -0.5093  0.0480  0.4505
22404SOL    HW168653   2.861   0.249   7.072  1.1506  0.2185  1.3602
22404SOL    HW268654   2.897   0.142   7.173 -0.8338  0.6561  2.5928
22405SOL     OW68655   5.212   5.964   4.478  0.5003  0.3012 -0.2492
22405SOL    HW168656   5.150   5.892   4.487 -2.3225  2.5381 -0.1493
22405SOL    HW268657   5.257   5.968   4.562 -0.1229 -0.6256  0.1420
22406SOL     OW68658   5.840   3.195   4.351 -0.7901  0.2410 -0.1307
22406SOL    HW168659   5.835   3.277   4.302 -0.6104 -0.0004 -0.5627
22406SOL    HW268660   5.868   3.221   4.438 -2.3920  0.8276  0.2471
22407SOL     OW68661   5.241   3.980   9.783  0.1866 -0.0889 -0.3437
22407SOL    HW168662   5.157   3.980   9.829  0.6558  0.0225  0.5302
22407SOL    HW268663   5.244   3.895   9.739  0.2550 -0.7094  0.8262
22408SOL     OW68664   1.910   4.685   8.856  0.3014  0.3764  0.2746
22408SOL    HW168665   1.926   4.625   8.928  2.1353  1.3982  0.7805
22408SOL    HW268666   1.815   4.696   8.855 -0.0174 -1.9330  0.6009
22409SOL     OW68667   6.241   1.713   8.164 -0.5889  0.3860 -0.5084
22409SOL    HW168668   6.304   1.720   8.236 -0.7997  2.6237 -0.4580
22409SOL    HW268669   6.293   1.685   8.089 -0.2236 -1.1964  0.2846
22410SOL     OW68670   4.679   7.933   1.126  0.1744 -0.2576  0.2773
22410SOL    HW168671   4.626   7.944   1.204  0.6576 -0.7286  0.6850
22410SOL    HW268672   4.768   7.955   1.154  0.5103 -1.3366  0.1316
22411SOL     OW68673   5.744   6.650   2.438  0.4965  0.3731 -0.5360
22411SOL    HW168674   5.767   6.742   2.450  1.5936  0.0575 -0.0791
22411SOL    HW268675   5.726   6.642   2.345  1.3920  0.8487 -0.7642
22412SOL     OW68676   6.887   0.630   1.289  0.3140 -0.2213  0.2746
22412SOL    HW168677   6.899   0.559   1.352 -0.0144 -0.4910  0.0320
22412SOL    HW268678   6.800   0.665   1.308  0.0481 -0.5639 -0.2863
22413SOL     OW68679   1.628   0.321   6.186 -0.4096 -0.7728 -0.4817
22413SOL    HW168680   1.708   0.272   6.166 -0.8274 -1.6074 -0.1438
22413SOL    HW268681   1.640   0.351   6.276  1.3287  2.7116 -1.6741
22414SOL     OW68682   1.625   6.167   5.725  0.3755 -0.1929  0.6771
22414SOL    HW168683   1.643   6.245   5.672 -2.7854 -0.3372 -0.8448
22414SOL    HW268684   1.644   6.094   5.667  2.3126 -0.6192  1.7537
22415SOL     OW68685   1.184   1.209   1.171 -0.2061  0.0751 -0.1923
22415SOL    HW168686   1.218   1.234   1.257 -1.1510 -2.0451  0.8804
22415SOL    HW268687   1.184   1.113   1.172 -1.2680 -0.0069 -2.1496
22416SOL     OW68688   2.912   3.827   8.941 -0.3616  0.4130  0.3002
22416SOL    HW168689   2.876   3.757   8.994 -0.2350 -0.6826 -0.9990
22416SOL    HW268690   2.967   3.782   8.877 -0.1869  1.7092 -0.4931
22417SOL     OW68691   7.949   5.384   6.967 -0.3312 -0.1249 -0.4160
22417SOL    HW168692   7.990   5.313   7.014  3.5505  1.3132 -1.2744
22417SOL    HW268693   7.954   5.358   6.875  1.7921  1.3939 -0.8085
22418SOL     OW68694   2.800   1.284   6.939  0.2234  0.2442 -0.0556
22418SOL    HW168695   2.706   1.289   6.919  0.0968 -0.4424  0.3233
22418SOL    HW268696   2.803   1.238   7.023  0.8933  0.4406  0.0288
22419SOL     OW68697   3.753   1.559   2.168 -0.1068  0.3064  0.5838
22419SOL    HW168698   3.777   1.543   2.259  1.0015  2.4963  0.7432
22419SOL    HW268699   3.798   1.641   2.145 -1.9526  0.8874 -1.3066
22420SOL     OW68700   4.091   6.287   6.711 -0.7252  0.0631  0.1961
22420SOL    HW168701   4.022   6.346   6.678 -1.8436 -0.7740  0.9660
22420SOL    HW268702   4.081   6.207   6.659 -0.8035 -0.3193  0.7916
22421SOL     OW68703   1.854   6.923  12.038 -0.1395 -0.4075  0.1424
22421SOL    HW168704   1.772   6.972  12.040 -0.5360 -1.0644  0.2885
22421SOL    HW268705   1.895   6.940  12.123  0.2312  0.4863 -0.1917
22422SOL     OW68706   5.722   6.917   2.486 -0.3142  0.4118  0.5166
22422SOL    HW168707   5.784   6.979   2.449  0.0258 -0.0724  0.2634
22422SOL    HW268708   5.637   6.960   2.479 -0.2260  0.4172 -0.6143
22423SOL     OW68709   6.656   0.320   1.606 -0.0694 -0.6817 -0.0954
22423SOL    HW168710   6.573   0.340   1.562  0.1994  1.3020  0.1963
22423SOL    HW268711   6.644   0.351   1.696  1.0931 -0.0323 -0.1440
22424SOL     OW68712   6.775   7.110   2.469 -0.4819  0.0353  0.3806
22424SOL    HW168713   6.816   7.178   2.522  1.7814 -1.0011  0.0715
22424SOL    HW268714   6.682   7.134   2.466 -0.1391  1.7918  2.1994
22425SOL     OW68715   6.031   7.983   6.529  0.1937 -0.5382  0.1134
22425SOL    HW168716   5.975   8.000   6.605 -0.8638 -2.3507 -0.1771
22425SOL    HW268717   6.027   8.063   6.478 -0.8687 -0.0496  0.9050
22426SOL     OW68718   4.245   5.633  11.610 -0.0127 -0.4240 -0.4343
22426SOL    HW168719   4.322   5.664  11.562  1.0228 -0.1993  1.2774
22426SOL    HW268720   4.200   5.575  11.548  2.3550 -1.7808 -1.0183
22427SOL     OW68721   0.944   0.186   5.782  0.5895 -0.0706 -0.6507
22427SOL    HW168722   1.003   0.259   5.761  0.9254 -0.3686 -0.7583
22427SOL    HW268723   0.899   0.168   5.700 -0.2454  0.6785 -0.3735
22428SOL     OW68724   1.936   3.506   8.913  0.3853  0.2818  0.2485
22428SOL    HW168725   1.899   3.593   8.901  0.2752  0.2422  0.2996
22428SOL    HW268726   1.928   3.489   9.007 -1.1837 -0.4858  0.0068
22429SOL     OW68727   4.851   0.242   0.990 -0.0439  0.0502 -0.0253
22429SOL    HW168728   4.797   0.178   0.943  0.8165 -0.0733 -0.8678
22429SOL    HW268729   4.937   0.201   0.995  0.5124  1.1185 -0.5295
22430SOL     OW68730   4.396   3.697   8.056  0.6667  0.5974  0.3636
22430SOL    HW168731   4.302   3.686   8.041  0.9254  0.4637 -1.4304
22430SOL    HW268732   4.403   3.769   8.119 -0.6459  0.1867  1.0020
22431SOL     OW68733   4.329   5.133  11.997 -0.2814  0.1562 -0.2808
22431SOL    HW168734   4.404   5.073  11.994 -1.1158 -0.9553  0.4125
22431SOL    HW268735   4.307   5.148  11.905  0.1122 -0.3866 -0.4696
22432SOL     OW68736   7.435   0.754   1.943  0.4242 -0.0148  0.3741
22432SOL    HW168737   7.386   0.672   1.950 -1.8267  0.8553 -2.7212
22432SOL    HW268738   7.395   0.799   1.869  3.0787  2.8895  0.4941
22433SOL     OW68739   5.593   6.606   1.837  0.0094 -0.1939 -0.0754
22433SOL    HW168740   5.536   6.568   1.904  0.1791 -1.1452 -0.4475
22433SOL    HW268741   5.533   6.654   1.780 -0.5744 -1.8374 -0.9196
22434SOL     OW68742   4.436   6.245   1.893 -0.1954 -0.2948  0.1263
22434SOL    HW168743   4.409   6.254   1.801 -0.5108 -0.4406  0.2030
22434SOL    HW268744   4.458   6.153   1.902  1.4543  0.0365 -0.2321
22435SOL     OW68745   0.695   6.423   6.198  0.2442  0.0312  0.0636
22435SOL    HW168746   0.744   6.441   6.117  0.6261 -1.1837  0.0054
22435SOL    HW268747   0.623   6.486   6.196  0.0287 -0.2097 -1.4223
22436SOL     OW68748   7.445   6.328   7.360 -0.0450  0.2579  0.0367
22436SOL    HW168749   7.468   6.408   7.407 -0.5017  0.3061  0.1844
22436SOL    HW268750   7.442   6.354   7.268 -1.6799  0.7929  0.2005
22437SOL     OW68751   5.425   4.911   5.084  0.0188  0.0345  0.5103
22437SOL    HW168752   5.465   4.922   5.171  0.6045  1.5618  0.0756
22437SOL    HW268753   5.463   4.830   5.050  1.3040  0.4672  0.8827
22438SOL     OW68754   7.555   5.580   8.247 -0.4788  0.2047 -0.2987
22438SOL    HW168755   7.615   5.647   8.213  0.4449 -0.6538 -0.4178
22438SOL    HW268756   7.612   5.506   8.268 -1.6233 -1.0478 -1.4291
22439SOL     OW68757   2.173   1.785   8.121  0.0381 -0.7709 -0.0125
22439SOL    HW168758   2.268   1.801   8.117 -0.3898  2.3882 -0.1224
22439SOL    HW268759   2.150   1.756   8.032  0.7079 -0.0904 -0.4249
22440SOL     OW68760   2.327   4.153   7.060 -0.0082  0.1680 -0.2178
22440SOL    HW168761   2.369   4.091   7.000 -0.8296 -0.9491  0.3339
22440SOL    HW268762   2.239   4.165   7.024 -0.5990 -0.7147  0.8907
22441SOL     OW68763   2.549   1.384   7.884  0.0259 -0.2224  0.3011
22441SOL    HW168764   2.526   1.475   7.904 -2.3330 -0.6140 -0.3392
22441SOL    HW268765   2.644   1.385   7.874  0.0455  2.1854  0.2119
22442SOL     OW68766   7.191   6.399   9.815  0.3489  0.3612  0.3520
22442SOL    HW168767   7.222   6.379   9.726 -0.6643 -0.9333  0.2600
22442SOL    HW268768   7.145   6.482   9.806  2.4153  1.5509  0.2002
22443SOL     OW68769   6.431   0.262  10.450 -0.5395 -0.4948 -0.1086
22443SOL    HW168770   6.393   0.195  10.393 -1.0922 -0.3873  0.1316
22443SOL    HW268771   6.381   0.256  10.531 -0.6627  0.2816 -0.1253
22444SOL     OW68772   3.481   7.633   6.357  0.1085  0.4890  0.0997
22444SOL    HW168773   3.447   7.702   6.413  0.8396 -0.3097  1.6045
22444SOL    HW268774   3.516   7.678   6.281 -0.1451  1.7009  0.6877
22445SOL     OW68775   1.421   5.685   0.624 -0.2335 -0.0227 -0.2008
22445SOL    HW168776   1.364   5.741   0.677 -0.3663  0.0919 -0.4623
22445SOL    HW268777   1.463   5.745   0.563  0.0500 -0.1301 -0.1118
22446SOL     OW68778   0.470   7.215   5.664  0.6550  0.1401  0.1903
22446SOL    HW168779   0.533   7.198   5.594  1.0859  0.9526  0.3774
22446SOL    HW268780   0.507   7.287   5.713 -0.2354  0.3681  0.5465
22447SOL     OW68781   6.661   0.300   8.195 -0.0805 -0.7829 -0.5990
22447SOL    HW168782   6.608   0.303   8.116 -0.1840  0.5683 -0.5072
22447SOL    HW268783   6.735   0.244   8.172  0.4115  0.3890 -2.0027
22448SOL     OW68784   4.362   4.884   7.415 -0.2439  0.6917 -0.8000
22448SOL    HW168785   4.427   4.886   7.345  0.2826  0.2794 -0.3350
22448SOL    HW268786   4.287   4.839   7.376  0.4489 -0.5195 -0.7831
22449SOL     OW68787   1.964   6.133  11.468  0.6249  0.3184  0.4975
22449SOL    HW168788   1.874   6.165  11.459  1.5112  2.8116 -0.7400
22449SOL    HW268789   1.992   6.115  11.378  1.3909 -0.3106  0.8534
22450SOL     OW68790   1.327   4.668   6.512  0.0105  0.0758  0.5290
22450SOL    HW168791   1.271   4.594   6.538  1.6704 -2.3003 -2.0448
22450SOL    HW268792   1.416   4.638   6.527  0.7967  0.9248 -1.8747
22451SOL     OW68793   7.933   6.988   7.645 -0.2539  0.1058  0.0518
22451SOL    HW168794   7.892   6.948   7.568 -0.1286  0.0792 -0.0019
22451SOL    HW268795   7.973   6.915   7.691 -1.3961 -0.0611  0.8173
22452SOL     OW68796   0.259   5.667   7.436  0.1512  0.4516 -0.1446
22452SOL    HW168797   0.234   5.749   7.393  0.2007  0.7895  0.4624
22452SOL    HW268798   0.274   5.606   7.364  0.0792  0.9645 -0.6011
22453SOL     OW68799   0.859   6.485   3.124 -0.3119  0.2138  0.4560
22453SOL    HW168800   0.879   6.393   3.140  2.1074  0.5243 -0.4019
22453SOL    HW268801   0.914   6.533   3.186 -0.1182  1.1008 -0.3687
22454SOL     OW68802   0.068   4.746   9.300 -0.0128 -0.3615  0.1029
22454SOL    HW168803   0.072   4.771   9.208 -0.1440 -0.8186 -0.0313
22454SOL    HW268804   0.008   4.671   9.302 -1.0397  0.4347  0.7266
22455SOL     OW68805   2.232   7.114   1.814 -0.0983  0.0305  0.3437
22455SOL    HW168806   2.208   7.069   1.732 -0.1136 -1.2728  1.0352
22455SOL    HW268807   2.157   7.100   1.871  0.3456  0.0261  0.9327
22456SOL     OW68808   7.766   3.285   8.325 -0.3116  0.3466 -0.7004
22456SOL    HW168809   7.742   3.249   8.411 -0.9471 -0.0410 -1.0397
22456SOL    HW268810   7.774   3.379   8.340  1.2459  0.1240  0.1740
22457SOL     OW68811   3.868   6.989   8.231  0.2305 -0.0605 -0.4188
22457SOL    HW168812   3.925   6.916   8.254  0.5469  0.4173  0.3402
22457SOL    HW268813   3.922   7.045   8.175 -0.4016 -1.0019 -2.0794
22458SOL     OW68814   3.262   4.546   5.354  0.6552 -0.0587 -0.4703
22458SOL    HW168815   3.342   4.497   5.373  1.5140  1.4779  0.0180
22458SOL    HW268816   3.287   4.607   5.285  0.2199  1.1910  0.4556
22459SOL     OW68817   0.997   5.002   9.485 -0.5566  0.1127 -0.1306
22459SOL    HW168818   1.016   5.061   9.558  1.3570 -0.2067 -0.2976
22459SOL    HW268819   0.925   5.043   9.438 -0.5721  1.2831  0.8775
22460SOL     OW68820   6.950   6.149  10.330 -0.4172 -0.4127  0.1251
22460SOL    HW168821   6.880   6.089  10.302 -1.2627  0.1569  0.9502
22460SOL    HW268822   6.905   6.214  10.384  0.4236  1.1961 -1.0495
22461SOL     OW68823   1.110   0.210   9.958  0.1572 -0.5003 -0.0076
22461SOL    HW168824   1.088   0.207  10.051  1.3996  0.0665  0.3288
22461SOL    HW268825   1.144   0.123   9.939 -0.0589 -0.6050  0.0884
22462SOL     OW68826   2.888   2.841   4.001  0.3082 -0.1672  0.6396
22462SOL    HW168827   2.923   2.752   4.007  0.8250  0.0415  0.7848
22462SOL    HW268828   2.927   2.876   3.920 -0.8768 -0.4905 -0.0962
22463SOL     OW68829   0.738   1.107   1.698 -0.3923 -0.2123  0.0421
22463SOL    HW168830   0.706   1.197   1.703 -0.5887 -0.1792 -1.4097
22463SOL    HW268831   0.755   1.093   1.605 -1.5138 -2.0474  0.0639
22464SOL     OW68832   3.099   4.219   3.898 -0.5189 -0.2625  0.3645
22464SOL    HW168833   3.062   4.160   3.963 -1.5811 -1.9179 -1.6545
22464SOL    HW268834   3.193   4.197   3.897 -0.7906 -1.4749  0.1116
22465SOL     OW68835   3.873   4.671   3.342  0.0328 -0.5053 -0.0970
22465SOL    HW168836   3.888   4.749   3.395  0.2656 -0.6663  0.0714
22465SOL    HW268837   3.789   4.637   3.374 -0.3834  0.0194 -0.5929
22466SOL     OW68838   3.409   3.155   2.428 -0.1410  0.5246  0.3695
22466SOL    HW168839   3.352   3.189   2.360 -0.0985 -0.8642 -0.4089
22466SOL    HW268840   3.384   3.063   2.436  0.3264  0.4955  1.7504
22467SOL     OW68841   7.269   7.843   1.343 -0.5706  0.5024 -0.1867
22467SOL    HW168842   7.226   7.765   1.309  1.5930 -0.2645 -1.3449
22467SOL    HW268843   7.230   7.857   1.429 -1.5918 -1.3583 -0.3030
22468SOL     OW68844   4.592   7.417   4.429  0.1388  0.3464 -0.0387
22468SOL    HW168845   4.663   7.365   4.390 -0.7376  0.0425 -1.2725
22468SOL    HW268846   4.532   7.434   4.356  0.7717  3.8202  0.0824
22469SOL     OW68847   0.797   0.370   1.336  0.5893  0.1600  0.0439
22469SOL    HW168848   0.759   0.401   1.254 -1.5129  0.3314  1.0271
22469SOL    HW268849   0.756   0.285   1.352  1.4664 -0.1737  0.5910
22470SOL     OW68850   1.932   0.346  11.552 -0.1235  0.5325 -0.7310
22470SOL    HW168851   2.017   0.345  11.595 -0.4855 -0.0876 -0.0065
22470SOL    HW268852   1.873   0.307  11.615 -0.8677  0.5554 -1.3996
22471SOL     OW68853   5.627   4.161   3.439 -0.3060  0.0096 -0.4196
22471SOL    HW168854   5.687   4.231   3.464 -0.5487 -0.0067  0.2167
22471SOL    HW268855   5.549   4.175   3.493 -0.0497 -1.2123  0.2958
22472SOL     OW68856   5.533   3.609   6.301 -0.1018 -0.4740  0.3962
22472SOL    HW168857   5.501   3.587   6.214  1.7557  0.4661 -0.5984
22472SOL    HW268858   5.601   3.544   6.319  0.9931  0.5625  0.1801
22473SOL     OW68859   0.749   5.518   0.221  0.2543 -0.5315  0.3912
22473SOL    HW168860   0.786   5.606   0.226 -0.3017 -0.0241 -2.6561
22473SOL    HW268861   0.817   5.465   0.179  0.0253 -1.2300  0.8655
22474SOL     OW68862   6.884   2.283  11.403  0.0716 -0.1007  0.5212
22474SOL    HW168863   6.920   2.289  11.315  0.1358 -0.0853  0.5487
22474SOL    HW268864   6.804   2.231  11.394 -0.8153  1.2368  0.1799
22475SOL     OW68865   3.398   2.557   2.372  0.1199 -0.0746  0.1629
22475SOL    HW168866   3.445   2.597   2.445  1.2196 -0.0626 -0.5276
22475SOL    HW268867   3.434   2.598   2.294 -2.0629  0.9781 -0.3768
22476SOL     OW68868   7.451   7.873   8.597 -0.0702 -0.6661  0.2701
22476SOL    HW168869   7.529   7.904   8.552 -0.5243  0.6168  0.3091
22476SOL    HW268870   7.477   7.791   8.638  1.4452  0.0439  0.8022
22477SOL     OW68871   6.443   5.700  11.782  0.1343 -0.5396  0.6814
22477SOL    HW168872   6.499   5.677  11.708 -0.2773 -0.4142  0.3273
22477SOL    HW268873   6.383   5.766  11.747 -0.7634 -1.2614  0.8387
22478SOL     OW68874   7.061   6.886   8.067 -0.3370 -0.2512 -0.7449
22478SOL    HW168875   7.046   6.848   8.153 -0.2558  0.1686 -0.5439
22478SOL    HW268876   7.154   6.910   8.067 -0.7646  1.5052 -0.2383
22479SOL     OW68877   6.935   7.540   0.468 -0.2697 -0.1995 -0.1555
22479SOL    HW168878   6.844   7.534   0.496  0.0995  1.2812  1.5905
22479SOL    HW268879   6.971   7.453   0.483 -1.3280 -0.7522 -0.7044
22480SOL     OW68880   1.454   3.279   0.668  0.1959  0.7623 -0.0323
22480SOL    HW168881   1.445   3.369   0.698  0.8661  0.3784  1.4165
22480SOL    HW268882   1.439   3.226   0.746  0.7786 -0.3429 -0.6390
22481SOL     OW68883   3.310   6.929   9.673  0.0284  0.0523 -0.1143
22481SOL    HW168884   3.239   6.886   9.721 -0.4777  0.3656 -0.5714
22481SOL    HW268885   3.291   7.022   9.681  0.8237  0.1817  0.4123
22482SOL     OW68886   0.727   1.857  10.699 -0.2992  0.0776 -0.3821
22482SOL    HW168887   0.805   1.875  10.752 -0.5680  1.0032 -0.2779
22482SOL    HW268888   0.756   1.791  10.636  0.3906 -0.0655  0.0728
22483SOL     OW68889   2.120   6.381   2.457  0.8784 -0.2026  0.0217
22483SOL    HW168890   2.187   6.428   2.507  2.0862 -1.9076  0.1074
22483SOL    HW268891   2.164   6.302   2.426 -0.8950 -1.0267 -0.5597
22484SOL     OW68892   5.332   7.012  10.636  0.0855  0.2025 -0.9432
22484SOL    HW168893   5.338   6.976  10.547  2.6013  1.4941 -1.3848
22484SOL    HW268894   5.421   7.004  10.671 -0.9641 -0.8933  1.7683
22485SOL     OW68895   1.466   1.710  11.746 -0.2238 -0.3450  0.4812
22485SOL    HW168896   1.384   1.759  11.748  0.7600  1.4923 -0.5115
22485SOL    HW268897   1.518   1.754  11.678  1.9312 -0.8159  1.7255
22486SOL     OW68898   5.971   1.744   8.161 -0.0427  0.2775 -0.2719
22486SOL    HW168899   5.957   1.773   8.251 -0.6189  0.8228 -0.5333
22486SOL    HW268900   6.067   1.742   8.152  0.0170  1.0013  0.1046
22487SOL     OW68901   3.227   5.102   0.532  0.0009  0.2560 -0.8914
22487SOL    HW168902   3.307   5.149   0.553  1.2245 -1.8247 -0.6647
22487SOL    HW268903   3.236   5.018   0.577 -2.3235 -0.0432 -0.8612
22488SOL     OW68904   2.297   4.123   8.087  0.1389 -0.1103  0.3186
22488SOL    HW168905   2.287   4.063   8.160 -1.1933  0.1382  0.3666
22488SOL    HW268906   2.304   4.210   8.128  2.3011 -0.2056  0.2642
22489SOL     OW68907   4.189   4.778  11.287 -0.1178  0.1765  0.3027
22489SOL    HW168908   4.258   4.749  11.346  0.6733  0.2848 -0.5570
22489SOL    HW268909   4.119   4.714  11.299  0.8575 -1.0100 -0.1611
22490SOL     OW68910   5.294   2.508   7.320 -0.7958 -0.2796  0.4766
22490SOL    HW168911   5.237   2.549   7.255 -0.9595 -1.5981 -0.2619
22490SOL    HW268912   5.244   2.432   7.351  0.8228 -1.9440 -0.7889
22491SOL     OW68913   3.386   4.584   4.178 -0.0963 -0.0155 -0.2641
22491SOL    HW168914   3.352   4.671   4.154  0.7508  0.1152 -1.0476
22491SOL    HW268915   3.379   4.582   4.274 -1.7424  0.2224 -0.3466
22492SOL     OW68916   1.777   7.432   8.050 -0.3964  0.2104 -0.4254
22492SOL    HW168917   1.782   7.467   8.139 -0.1723  0.6101 -0.5927
22492SOL    HW268918   1.866   7.442   8.015  0.2395 -2.4005  0.2209
22493SOL     OW68919   1.116   3.050   0.847 -0.4592  0.0804  0.3814
22493SOL    HW168920   1.117   3.142   0.819  0.6011  0.2584  0.9982
22493SOL    HW268921   1.071   3.051   0.931  0.2500  0.1403  0.7593
22494SOL     OW68922   1.682   7.393  11.617  0.6558  0.3479  0.6567
22494SOL    HW168923   1.621   7.406  11.690  0.2732 -0.9367  0.5795
22494SOL    HW268924   1.640   7.327  11.562  0.2278  2.3250 -1.5429
22495SOL     OW68925   5.646   3.267   8.222  0.0617 -0.4774 -0.2735
22495SOL    HW168926   5.597   3.198   8.178 -0.1152 -0.8374  0.4739
22495SOL    HW268927   5.582   3.309   8.279  0.5692 -0.8471  0.5880
22496SOL     OW68928   2.426   5.766   7.589  0.1653 -0.5476 -0.0377
22496SOL    HW168929   2.348   5.722   7.622 -0.0320  0.0107  0.2553
22496SOL    HW268930   2.395   5.817   7.514  0.4477 -1.1252 -0.5579
22497SOL     OW68931   1.770   3.270  11.560  0.1808 -0.3021  0.1964
22497SOL    HW168932   1.848   3.220  11.585 -0.1187 -1.2177 -0.6015
22497SOL    HW268933   1.803   3.338  11.502  0.3627 -0.9516 -0.4852
22498SOL     OW68934   3.178   5.739   2.077 -0.6370 -0.1911 -0.4871
22498SOL    HW168935   3.253   5.708   2.127  0.4588  1.0293 -1.3175
22498SOL    HW268936   3.180   5.688   1.997  0.5481  1.2027 -1.3946
22499SOL     OW68937   7.985   3.478   9.003 -0.0192  0.1718  0.7882
22499SOL    HW168938   7.978   3.447   8.913  1.6961  0.8930  0.3791
22499SOL    HW268939   8.048   3.419   9.044  1.3798  1.5566  0.6982
22500SOL     OW68940   5.554   7.411   8.399  0.2614 -0.2216  0.1997
22500SOL    HW168941   5.533   7.453   8.315 -0.6352 -2.2131 -0.6385
22500SOL    HW268942   5.550   7.482   8.463 -0.2322  1.1330 -1.2680
22501SOL     OW68943   7.112   5.015   0.865 -0.6256 -0.6939  0.5544
22501SOL    HW168944   7.070   4.943   0.818 -0.6896 -0.3471  0.0676
22501SOL    HW268945   7.185   5.041   0.809 -0.2591 -0.7428  0.9970
22502SOL     OW68946   7.398   1.672   4.196  0.0855 -0.0460  0.2560
22502SOL    HW168947   7.384   1.745   4.256 -0.4668 -2.3655  3.1455
22502SOL    HW268948   7.315   1.624   4.196  0.5113 -0.8641 -1.3584
22503SOL     OW68949   3.057   1.643  10.458 -0.2047  0.5055 -0.0337
22503SOL    HW168950   3.042   1.665  10.366  0.1722  1.6511  0.1579
22503SOL    HW268951   3.107   1.717  10.492  0.5830 -0.3948  0.8309
22504SOL     OW68952   4.030   6.655   1.425 -0.7683  0.7451 -0.0437
22504SOL    HW168953   4.113   6.678   1.467 -1.6709  3.1426  0.6139
22504SOL    HW268954   3.992   6.588   1.482 -1.1378  2.6440  2.0733
22505SOL     OW68955   1.128   5.293  11.459  0.5724 -0.3382  0.2298
22505SOL    HW168956   1.058   5.332  11.511 -0.3812 -1.3621 -0.2264
22505SOL    HW268957   1.185   5.250  11.524 -0.6037 -1.6000  0.4868
22506SOL     OW68958   0.425   5.335  11.947  0.4135  0.1012 -0.0422
22506SOL    HW168959   0.379   5.417  11.965  2.0504  0.8677  0.9113
22506SOL    HW268960   0.517   5.358  11.951  0.9398 -1.9738  1.1293
22507SOL     OW68961   5.755   4.476  11.068  0.8506 -0.0266  0.1086
22507SOL    HW168962   5.775   4.466  11.161  2.2195 -0.7746 -0.2263
22507SOL    HW268963   5.735   4.387  11.039  0.6946  0.1617 -0.3621
22508SOL     OW68964   2.870   7.686  10.988 -0.3468 -0.1219 -0.2171
22508SOL    HW168965   2.852   7.654  10.900  0.0177 -1.9904  0.3376
22508SOL    HW268966   2.965   7.700  10.989 -0.1258 -1.4671  0.2511
22509SOL     OW68967   5.249   3.752   4.432 -0.1503  0.0238  0.1383
22509SOL    HW168968   5.159   3.729   4.456  0.3831 -0.5995  1.6210
22509SOL    HW268969   5.279   3.811   4.501  0.7128 -0.1111 -0.1016
22510SOL     OW68970   0.921   5.372   7.004  0.0209  0.0417 -0.1482
22510SOL    HW168971   0.923   5.418   7.088  0.2941  0.5503 -0.4243
22510SOL    HW268972   0.963   5.288   7.021  1.6445  0.8062 -0.1491
22511SOL     OW68973   0.793   0.845   5.012 -0.4935 -0.3775  1.0493
22511SOL    HW168974   0.780   0.775   5.077  2.0611  0.6257  2.8141
22511SOL    HW268975   0.790   0.926   5.063 -1.5005  0.7042 -0.6496
22512SOL     OW68976   2.948   3.545   9.840 -0.5807  0.2147 -0.0314
22512SOL    HW168977   2.887   3.618   9.855  0.5847  0.8294  2.0889
22512SOL    HW268978   3.029   3.571   9.883 -0.2352 -2.4952  1.2096
22513SOL     OW68979   6.868   0.567   5.275 -0.2989 -0.7493 -0.4202
22513SOL    HW168980   6.950   0.613   5.256  0.1620 -0.4047  2.0067
22513SOL    HW268981   6.809   0.636   5.304 -0.8626 -1.2168 -0.4532
22514SOL     OW68982   3.446   2.810   1.734 -0.1530  0.3070 -0.3398
22514SOL    HW168983   3.433   2.897   1.697  2.1426  0.3553 -1.1766
22514SOL    HW268984   3.464   2.754   1.659 -2.7710 -1.2335  0.0532
22515SOL     OW68985   2.085   6.311  10.597  0.1586  0.7300  0.3326
22515SOL    HW168986   2.179   6.330  10.603  0.3639 -0.4272  1.1939
22515SOL    HW268987   2.044   6.397  10.585  1.4133  1.1118 -1.6514
22516SOL     OW68988   1.620   5.708  10.837  0.0620  0.3041  0.1028
22516SOL    HW168989   1.689   5.774  10.846 -0.5714  0.8337  1.4008
22516SOL    HW268990   1.664   5.625  10.855  0.5480  0.5267 -0.0231
22517SOL     OW68991   0.173   2.771  10.187  0.0163  0.9300  0.2522
22517SOL    HW168992   0.149   2.692  10.235 -0.1369  1.5091  1.1603
22517SOL    HW268993   0.268   2.774  10.191  0.1411 -0.0736 -1.2339
22518SOL     OW68994   3.444   4.994   2.572  0.8626  0.0839 -0.1460
22518SOL    HW168995   3.352   5.012   2.589  0.9182 -0.8931  1.3385
22518SOL    HW268996   3.443   4.911   2.524  0.9396  0.6868 -1.2402
22519SOL     OW68997   5.186   2.114   2.839  0.1112 -0.2023  0.1099
22519SOL    HW168998   5.216   2.195   2.880 -3.6085  1.4133  0.1240
22519SOL    HW268999   5.203   2.127   2.745  2.5619 -0.9898  0.3740
22520SOL     OW69000   5.512   7.048   3.572  0.6171  0.3726  0.0448
22520SOL    HW169001   5.582   7.039   3.506  1.0584  0.7466  0.4558
22520SOL    HW269002   5.440   6.996   3.537  0.4800  1.3671 -1.2450
22521SOL     OW69003   5.898   5.276   8.579 -0.0144 -0.2811 -0.2292
22521SOL    HW169004   5.880   5.295   8.487  1.0968  0.7082 -0.2590
22521SOL    HW269005   5.854   5.192   8.595  1.0302 -1.2299 -2.0610
22522SOL     OW69006   7.474   5.941  11.021 -0.3781  0.1385  0.5540
22522SOL    HW169007   7.439   6.018  11.066 -1.8544 -0.0071 -0.2544
22522SOL    HW269008   7.423   5.867  11.055 -0.9816 -0.0737 -0.7393
22523SOL     OW69009   7.660   5.008   6.816 -0.5321  0.4966 -0.4759
22523SOL    HW169010   7.597   5.020   6.887  0.6689 -0.8017  0.8834
22523SOL    HW269011   7.614   5.038   6.737 -2.4576  0.5409  0.6089
22524SOL     OW69012   1.717   0.688   2.415  0.4148 -0.7027  0.3811
22524SOL    HW169013   1.756   0.661   2.498  1.7877 -0.0896 -0.0352
22524SOL    HW269014   1.716   0.784   2.419  1.7578 -0.6043 -0.8334
22525SOL     OW69015   3.949   6.563   5.870 -0.1738  0.5869 -0.2969
22525SOL    HW169016   3.946   6.532   5.961 -0.4743  0.3256 -0.3917
22525SOL    HW269017   3.890   6.504   5.823 -0.3410  0.9799 -0.5845
22526SOL     OW69018   2.785   7.035   3.164  0.5495 -0.0801 -0.4291
22526SOL    HW169019   2.788   6.969   3.233  1.9906  0.0755 -0.3098
22526SOL    HW269020   2.720   7.002   3.102 -0.3280 -0.5164  0.6959
22527SOL     OW69021   3.760   1.634   1.250 -0.1643 -0.5391 -0.3193
22527SOL    HW169022   3.825   1.566   1.268  0.1552 -0.4934 -1.2427
22527SOL    HW269023   3.682   1.606   1.299 -0.0304 -1.5706 -0.6674
22528SOL     OW69024   6.003   6.898  10.396 -0.4062 -0.3467  0.5903
22528SOL    HW169025   5.962   6.869  10.478  0.1854  0.6388  1.2529
22528SOL    HW269026   6.097   6.900  10.414 -0.2490 -0.2845 -0.1690
22529SOL     OW69027   1.414   2.020   0.553 -0.0337  0.1585 -0.0066
22529SOL    HW169028   1.459   2.102   0.532 -0.9050  1.1130  1.6499
22529SOL    HW269029   1.322   2.038   0.532 -0.7408  0.7220  3.1254
22530SOL     OW69030   5.582   1.487   1.517  0.2719 -0.3077 -0.0003
22530SOL    HW169031   5.525   1.496   1.593  2.9189 -1.0901  2.2390
22530SOL    HW269032   5.664   1.530   1.543  1.1945 -0.3612 -2.5459
22531SOL     OW69033   6.013   3.890   9.714  0.0460 -0.2779 -0.6677
22531SOL    HW169034   5.981   3.803   9.737 -0.0468  0.1452  0.9104
22531SOL    HW269035   6.108   3.884   9.723  0.0718 -0.3335 -0.9820
22532SOL     OW69036   0.976   4.011   6.225 -0.0954 -0.4090  0.2917
22532SOL    HW169037   0.937   3.976   6.144  0.7985  0.2545 -0.4345
22532SOL    HW269038   0.924   4.089   6.245 -0.0360 -0.3230  0.1113
22533SOL     OW69039   6.534   7.883   2.653 -0.0167 -0.4811  0.0344
22533SOL    HW169040   6.470   7.835   2.706 -1.3541 -0.6632 -1.6691
22533SOL    HW269041   6.592   7.816   2.619  0.0228 -0.5119  0.1593
22534SOL     OW69042   5.600   4.147  10.599 -0.4088 -0.2066 -0.0285
22534SOL    HW169043   5.505   4.157  10.591 -0.3862  0.3923  0.3637
22534SOL    HW269044   5.616   4.139  10.693 -0.1207 -0.9234 -0.1318
22535SOL     OW69045   2.645   4.432   7.450  0.1912  0.0598 -0.0378
22535SOL    HW169046   2.618   4.485   7.525  0.4118  1.0245 -0.6210
22535SOL    HW269047   2.685   4.495   7.389  1.9517 -1.0047 -0.0551
22536SOL     OW69048   5.308   2.008   1.385  0.1967  0.0832 -0.1646
22536SOL    HW169049   5.388   1.963   1.412 -0.1690  0.4375  1.6266
22536SOL    HW269050   5.329   2.101   1.393 -0.5900  0.1744  0.9853
22537SOL     OW69051   2.872   4.039   3.019 -0.0517  0.1711 -0.5469
22537SOL    HW169052   2.964   4.032   2.994 -0.0867 -1.0080 -0.4232
22537SOL    HW269053   2.824   4.036   2.936 -0.0174 -0.1809 -0.5544
22538SOL     OW69054   6.628   5.155   7.562  0.1624  0.3438  0.9858
22538SOL    HW169055   6.669   5.160   7.475  1.7579 -0.2168  1.6675
22538SOL    HW269056   6.638   5.242   7.599  1.4494  0.0244  1.4331
22539SOL     OW69057   4.994   3.605   4.800  0.0053  0.1815 -0.1352
22539SOL    HW169058   4.922   3.658   4.836 -1.6148 -0.6813 -1.9007
22539SOL    HW269059   4.995   3.627   4.707  0.0505 -2.0157 -0.6935
22540SOL     OW69060   7.754   1.184   4.585  0.0602  0.2867  0.0365
22540SOL    HW169061   7.770   1.132   4.664 -0.5170 -0.1130 -0.1069
22540SOL    HW269062   7.757   1.275   4.615  0.4091  0.1545  0.4110
22541SOL     OW69063   4.211   4.913   8.526  0.1187 -0.0886 -0.4422
22541SOL    HW169064   4.150   4.845   8.555 -0.6898  0.4867 -0.7569
22541SOL    HW269065   4.198   4.985   8.588  1.6285 -0.5369  0.4474
22542SOL     OW69066   0.421   1.778   6.911  0.1304 -0.3793 -0.5518
22542SOL    HW169067   0.362   1.837   6.958 -0.6777 -1.5775  0.0082
22542SOL    HW269068   0.469   1.835   6.851 -1.8289  0.6195 -1.2877
22543SOL     OW69069   2.212   3.942   3.578 -0.1194  0.4198  0.3227
22543SOL    HW169070   2.203   3.886   3.501 -1.5921 -1.4878  1.7887
22543SOL    HW269071   2.268   4.014   3.549 -1.8031  0.5814 -2.9362
22544SOL     OW69072   2.272   0.593   0.622 -0.2310  0.1370  0.2826
22544SOL    HW169073   2.223   0.562   0.546  0.5240  0.0849 -0.1934
22544SOL    HW269074   2.358   0.551   0.613  1.0804  2.8471 -0.7648
22545SOL     OW69075   0.296   7.744  11.403  0.0845 -0.2028  0.3505
22545SOL    HW169076   0.328   7.721  11.490  0.6730 -1.5650 -0.2000
22545SOL    HW269077   0.363   7.712  11.343 -0.8572 -0.3557 -0.6675
22546SOL     OW69078   2.519   6.555   6.949 -0.4424  0.9560  0.1529
22546SOL    HW169079   2.459   6.520   7.016 -0.2892 -3.2575 -1.6116
22546SOL    HW269080   2.462   6.600   6.887 -1.3124  0.3896  0.5115
22547SOL     OW69081   7.845   6.469   2.704  0.2869  0.2985 -0.3159
22547SOL    HW169082   7.827   6.510   2.619  0.5420  2.1327  0.4592
22547SOL    HW269083   7.931   6.429   2.693 -0.1901 -0.4802 -1.2619
22548SOL     OW69084   3.838   0.493   8.363  0.4061 -0.2552 -0.2032
22548SOL    HW169085   3.912   0.551   8.348  0.9534 -1.0683 -0.6753
22548SOL    HW269086   3.761   0.549   8.352  0.9416  0.8575  1.3740
22549SOL     OW69087   7.595   6.589   5.633 -0.6486  0.1527  0.6329
22549SOL    HW169088   7.608   6.684   5.634  1.6377 -0.0967  0.4209
22549SOL    HW269089   7.513   6.577   5.585 -0.0261  1.9528 -1.0526
22550SOL     OW69090   1.469   2.235   9.451  0.2608  0.1109  0.3193
22550SOL    HW169091   1.424   2.151   9.445  1.1522 -0.4486  1.1642
22550SOL    HW269092   1.435   2.285   9.377 -0.8666 -0.6974  0.2524
22551SOL     OW69093   3.763   4.311  10.461  0.2785 -0.1815  0.6480
22551SOL    HW169094   3.836   4.253  10.441 -0.3330 -0.8483  0.3257
22551SOL    HW269095   3.685   4.260  10.441 -0.2800  1.2403 -1.0675
22552SOL     OW69096   3.139   6.301   8.493  0.9985 -0.1775 -0.2266
22552SOL    HW169097   3.089   6.379   8.516 -0.0951 -0.9634  0.1279
22552SOL    HW269098   3.138   6.298   8.398 -0.9081 -0.9589 -0.2202
22553SOL     OW69099   1.500   0.072   7.261  0.3668  0.2554 -0.2611
22553SOL    HW169100   1.572   0.109   7.312  0.6937 -2.5537  1.5200
22553SOL    HW269101   1.517  -0.022   7.260 -1.8542 -0.2261 -2.1518
22554SOL     OW69102   2.353   6.879   0.878  0.7099 -0.8992  0.3782
22554SOL    HW169103   2.352   6.817   0.805 -0.5730 -2.2349  1.4431
22554SOL    HW269104   2.299   6.952   0.849 -0.1582 -1.6234  0.1216
22555SOL     OW69105   5.961   5.986   6.358 -0.1574 -0.1805  0.0444
22555SOL    HW169106   5.991   6.015   6.272 -1.3892  0.0784 -0.3222
22555SOL    HW269107   5.955   6.066   6.410 -0.4245 -0.1958  0.0394
22556SOL     OW69108   5.822   3.771   6.627 -0.0417  0.9471  0.3300
22556SOL    HW169109   5.798   3.839   6.690  1.2734  0.9901  0.8150
22556SOL    HW269110   5.749   3.709   6.630 -0.6464  1.6619  0.8610
22557SOL     OW69111   6.378   6.210   8.154 -0.5186 -0.1584 -0.0806
22557SOL    HW169112   6.292   6.197   8.194  0.0663 -1.9801  0.7353
22557SOL    HW269113   6.366   6.188   8.062 -0.5194 -2.7177  0.4494
22558SOL     OW69114   2.613   3.479   7.261  0.1965 -0.1286  0.8011
22558SOL    HW169115   2.706   3.480   7.281  0.2571  1.1751  0.5290
22558SOL    HW269116   2.600   3.397   7.214  2.0107  1.2979 -2.5908
22559SOL     OW69117   0.714   2.975   9.617  0.0122  0.0432  0.2746
22559SOL    HW169118   0.808   2.986   9.601 -0.0451 -1.2256 -1.1790
22559SOL    HW269119   0.686   3.059   9.654  1.2017  1.5293 -1.9566
22560SOL     OW69120   0.678   6.085  10.653  0.1153  0.3761  0.0947
22560SOL    HW169121   0.643   6.149  10.592  1.0093  0.1450 -0.6791
22560SOL    HW269122   0.628   6.005  10.636 -0.5952  0.6834  0.6563
22561SOL     OW69123   4.260   7.722  11.858  0.0039  0.2350 -0.5750
22561SOL    HW169124   4.267   7.626  11.862  1.4629  0.3425 -0.1700
22561SOL    HW269125   4.339   7.754  11.901  0.3792  1.6207 -2.1993
22562SOL     OW69126   3.788   6.768  12.016 -0.4654 -0.2051  0.4486
22562SOL    HW169127   3.770   6.752  11.923 -1.8752  0.0718  0.6472
22562SOL    HW269128   3.794   6.681  12.054  0.7913 -0.3352  0.0006
22563SOL     OW69129   2.927   7.621   7.181  0.2906 -0.0702  0.0087
22563SOL    HW169130   2.941   7.612   7.276  0.9651 -0.0276 -0.0796
22563SOL    HW269131   3.015   7.636   7.146  0.3621 -2.2606 -0.8813
22564SOL     OW69132   5.538   4.698   4.976 -0.0712  0.2113  0.4335
22564SOL    HW169133   5.627   4.665   4.959 -0.7555 -0.9491 -1.2287
22564SOL    HW269134   5.485   4.618   4.982 -1.1255  0.9154  0.5962
22565SOL     OW69135   7.537   1.998   3.534  0.0607 -0.1365  0.1012
22565SOL    HW169136   7.469   2.064   3.523  0.7393  0.7975  1.3170
22565SOL    HW269137   7.493   1.926   3.579 -0.0500  0.6349  1.2699
22566SOL     OW69138   6.172   1.936  10.476  0.3341 -0.1908 -0.3409
22566SOL    HW169139   6.077   1.932  10.464  0.3633  1.4985 -1.4509
22566SOL    HW269140   6.184   1.988  10.556  0.3315 -0.2515 -0.3005
22567SOL     OW69141   7.016   2.655   4.669 -0.1181 -0.1688  0.4373
22567SOL    HW169142   6.921   2.646   4.672 -0.0620 -1.9825 -1.5715
22567SOL    HW269143   7.031   2.741   4.628 -0.7808  1.1981  2.8142
22568SOL     OW69144   4.363   4.676   2.505  0.2594 -0.3322  0.2922
22568SOL    HW169145   4.367   4.752   2.562 -0.7190 -1.2354  1.6403
22568SOL    HW269146   4.270   4.651   2.505  0.5615 -1.5386 -0.0753
22569SOL     OW69147   1.190   0.966   9.354 -0.0508  0.0107 -0.2686
22569SOL    HW169148   1.113   1.016   9.327 -0.0275  1.8889  2.6374
22569SOL    HW269149   1.156   0.904   9.419  0.7402  0.5169  0.6672
22570SOL     OW69150   5.720   1.221   0.959  0.4468  0.4111 -0.1080
22570SOL    HW169151   5.667   1.257   0.888  0.8810  1.9919  0.3185
22570SOL    HW269152   5.800   1.273   0.957  1.1301 -0.5872  0.5429
22571SOL     OW69153   1.108   2.761   5.536  0.2438  0.2743  0.1727
22571SOL    HW169154   1.084   2.680   5.582  1.9829  0.8045  2.1067
22571SOL    HW269155   1.103   2.829   5.602  2.3735  1.1532 -0.5058
22572SOL     OW69156   5.869   3.020   9.652 -0.1319  0.0347 -0.0277
22572SOL    HW169157   5.826   3.099   9.682  2.7723  1.5767  0.5014
22572SOL    HW269158   5.830   2.949   9.703 -3.3287  0.9117 -1.0414
22573SOL     OW69159   4.631   1.428   6.176 -0.0705  0.0933  0.1308
22573SOL    HW169160   4.551   1.421   6.124 -0.5598 -0.0132  0.8715
22573SOL    HW269161   4.656   1.338   6.194 -0.8686  0.1024  1.4799
22574SOL     OW69162   4.508   4.053   3.750  0.1033 -0.6729  0.5614
22574SOL    HW169163   4.595   4.075   3.784 -0.5360 -0.9228  2.4438
22574SOL    HW269164   4.456   4.035   3.828 -2.0163  0.7919 -0.4224
22575SOL     OW69165   1.472   0.582   5.353  0.2354 -0.1370 -0.8937
22575SOL    HW169166   1.524   0.517   5.400  0.9701  0.3174 -1.0480
22575SOL    HW269167   1.423   0.628   5.421 -0.7408 -1.2326 -0.8447
22576SOL     OW69168   3.527   1.489   9.913  0.2640 -0.2495  0.1765
22576SOL    HW169169   3.491   1.488   9.824 -2.7618 -1.3475  1.2914
22576SOL    HW269170   3.534   1.582   9.935 -1.2296  0.0241 -0.3985
22577SOL     OW69171   5.261   1.873  12.066 -0.3540  0.3673 -0.1279
22577SOL    HW169172   5.197   1.815  12.107  0.0789  0.2334  0.3696
22577SOL    HW269173   5.265   1.949  12.124  1.2605 -0.4071  0.8829
22578SOL     OW69174   5.119   7.029   0.443  0.1397 -0.0473 -0.3757
22578SOL    HW169175   5.058   6.981   0.387  0.2813  0.4228 -0.9484
22578SOL    HW269176   5.133   7.112   0.396  0.5648  0.1906  0.1684
22579SOL     OW69177   0.813   7.346   9.596  0.1604  0.7014 -0.3970
22579SOL    HW169178   0.852   7.358   9.509  1.1248  3.1305  0.3034
22579SOL    HW269179   0.752   7.418   9.605 -0.0932  0.3488  0.8757
22580SOL     OW69180   4.448   5.147   6.792  0.5366 -0.0126 -0.5076
22580SOL    HW169181   4.396   5.105   6.723  2.3546 -1.1633 -1.2262
22580SOL    HW269182   4.537   5.114   6.780  0.8692 -0.6305  2.6876
22581SOL     OW69183   1.465   7.351   1.990 -0.0098 -0.0136  0.2113
22581SOL    HW169184   1.503   7.309   2.067 -1.0859 -1.9401 -0.2434
22581SOL    HW269185   1.498   7.300   1.916 -1.1162  0.1053 -0.3896
22582SOL     OW69186   7.004   1.261   7.274 -0.3492  0.0606 -0.4489
22582SOL    HW169187   7.037   1.337   7.227 -2.4659  0.3631 -1.5802
22582SOL    HW269188   7.003   1.191   7.209 -0.2007 -0.4260  0.0624
22583SOL     OW69189   5.584   0.605   6.337 -0.5498 -0.7421 -0.2648
22583SOL    HW169190   5.609   0.519   6.369  0.8022 -1.0959 -2.1125
22583SOL    HW269191   5.511   0.589   6.278 -1.0436 -0.4635  0.2588
22584SOL     OW69192   0.143   1.273   5.001  0.3324  0.0006  0.1910
22584SOL    HW169193   0.211   1.255   5.066  1.3490  2.7258 -0.0204
22584SOL    HW269194   0.132   1.189   4.955  2.7883 -0.8290  0.9249
22585SOL     OW69195   0.934   0.086   9.079  0.3073  0.3668 -0.0975
22585SOL    HW169196   0.921   0.179   9.061  1.7963  0.7376  0.5404
22585SOL    HW269197   1.009   0.084   9.139  0.3930 -1.2521 -0.2172
22586SOL     OW69198   1.320   1.272   5.274  0.0497 -0.2131  0.0589
22586SOL    HW169199   1.315   1.366   5.287  0.0678 -0.4237  1.9033
22586SOL    HW269200   1.402   1.246   5.316  0.3164 -0.9934 -0.9060
22587SOL     OW69201   0.054   0.194   2.504  0.4558  0.0294  0.0944
22587SOL    HW169202  -0.004   0.140   2.558 -1.2811  0.0011 -1.6788
22587SOL    HW269203   0.124   0.134   2.478  0.2052 -0.5185  0.6470
22588SOL     OW69204   0.122   4.402   1.938 -0.4978  0.0278 -0.3553
22588SOL    HW169205   0.194   4.341   1.955  1.2957  1.3556 -2.5710
22588SOL    HW269206   0.046   4.347   1.922  0.1525 -1.4454  1.3045
22589SOL     OW69207   1.753   6.925  11.193  0.4369 -0.4305  0.1543
22589SOL    HW169208   1.731   6.963  11.278 -0.9231 -1.1563  0.1609
22589SOL    HW269209   1.841   6.889  11.204  0.0571 -1.0114  1.4332
22590SOL     OW69210   2.567   2.168   4.811  0.4503  0.4506 -0.1857
22590SOL    HW169211   2.626   2.238   4.785  1.5285 -0.7964 -1.2416
22590SOL    HW269212   2.592   2.148   4.901  0.3072  1.2324  0.0341
22591SOL     OW69213   0.411   6.886   4.705  0.4978  0.3011 -0.0695
22591SOL    HW169214   0.406   6.791   4.693 -2.4875  0.1163  1.5903
22591SOL    HW269215   0.505   6.906   4.703  1.2192 -2.6632 -0.4549
22592SOL     OW69216   7.277   0.359  11.142 -0.5132 -0.5260 -0.1000
22592SOL    HW169217   7.210   0.333  11.079 -0.9051 -1.7884  0.7895
22592SOL    HW269218   7.275   0.455  11.142 -2.2093 -0.5365 -0.2154
22593SOL     OW69219   5.365   4.314   0.366  0.3112  0.8146 -0.5874
22593SOL    HW169220   5.366   4.220   0.350 -0.2928  0.7298 -0.1546
22593SOL    HW269221   5.363   4.354   0.279 -1.8576  0.3935 -0.7873
22594SOL     OW69222   7.501   6.147   7.006  0.2803 -0.0438 -0.3100
22594SOL    HW169223   7.546   6.147   6.921  0.6337  0.9786 -0.1396
22594SOL    HW269224   7.529   6.066   7.048 -0.1329 -0.7078 -1.2833
22595SOL     OW69225   7.456   4.234   4.747  0.1596  0.2963  0.0069
22595SOL    HW169226   7.539   4.200   4.713  1.3287  3.8574 -1.1195
22595SOL    HW269227   7.403   4.251   4.669 -0.6515  0.3680  0.5564
22596SOL     OW69228   6.236   0.796  12.429 -0.5956  0.0102 -0.4423
22596SOL    HW169229   6.176   0.870  12.414  0.0919  1.6248  3.6384
22596SOL    HW269230   6.193   0.744  12.497  1.0909 -0.7338  0.0865
22597SOL     OW69231   6.375   1.434   8.821 -0.2444 -0.1992 -0.3801
22597SOL    HW169232   6.446   1.466   8.766 -0.4076  0.3876 -0.2531
22597SOL    HW269233   6.361   1.503   8.886 -1.1141 -0.1787 -0.5707
22598SOL     OW69234   6.946   6.241   6.390  0.3134 -0.0537 -0.2139
22598SOL    HW169235   6.876   6.203   6.443  0.7317 -0.9051 -0.2567
22598SOL    HW269236   6.930   6.335   6.394  1.2904  0.0961  2.8241
22599SOL     OW69237   0.925   5.367   0.597  0.0254 -0.0298 -0.2163
22599SOL    HW169238   0.998   5.416   0.636  0.3596  1.5705 -2.5813
22599SOL    HW269239   0.869   5.435   0.560  0.5460 -1.3018 -3.7723
22600SOL     OW69240   7.280   2.294   1.686 -0.7858 -0.2219  0.1086
22600SOL    HW169241   7.253   2.376   1.646 -1.4946 -0.4976  0.0018
22600SOL    HW269242   7.311   2.240   1.613  1.8272  0.7075  0.4039
22601SOL     OW69243   1.868   0.065  10.701  1.1192 -0.1630 -0.3929
22601SOL    HW169244   1.898   0.147  10.740  0.5974  0.5583 -1.4767
22601SOL    HW269245   1.930   0.049  10.630  1.0175 -0.5369 -0.3991
22602SOL     OW69246   7.240   7.411   9.539 -0.5143 -0.1762 -0.0895
22602SOL    HW169247   7.146   7.394   9.546 -0.4521 -0.9143 -0.9054
22602SOL    HW269248   7.255   7.423   9.445 -0.0572  1.5869  0.1702
22603SOL     OW69249   1.057   2.321   6.771 -0.6275  0.5497  0.5429
22603SOL    HW169250   0.995   2.285   6.707  0.4877 -0.3833 -0.0659
22603SOL    HW269251   1.094   2.244   6.814  0.5823  1.0518  0.4326
22604SOL     OW69252   0.735   6.011   4.842 -0.7191 -0.2228  0.2061
22604SOL    HW169253   0.701   6.058   4.766 -0.2982  0.6004  0.5104
22604SOL    HW269254   0.825   6.042   4.852 -1.2949  1.0732  2.0791
22605SOL     OW69255   0.748   7.484   8.054 -0.2795 -0.2479  0.0990
22605SOL    HW169256   0.780   7.459   8.141  0.2877  0.6138  0.1502
22605SOL    HW269257   0.687   7.555   8.070 -0.2382 -0.1420 -0.1997
22606SOL     OW69258   2.476   6.865  10.440 -0.0666  0.4745  0.1747
22606SOL    HW169259   2.566   6.863  10.408 -0.8674 -1.4109 -2.2191
22606SOL    HW269260   2.472   6.797  10.506  0.1801  0.3316  0.0425
22607SOL     OW69261   0.910   4.183   7.900 -0.2774 -0.5941 -0.3526
22607SOL    HW169262   0.896   4.241   7.825 -0.2344  0.3618  0.3564
22607SOL    HW269263   0.834   4.198   7.957  0.1916 -0.5374  0.2713
22608SOL     OW69264   2.723   2.191   3.881  0.0563  0.4932  0.3686
22608SOL    HW169265   2.642   2.227   3.844  0.2889  1.0767  0.4193
22608SOL    HW269266   2.792   2.226   3.824  0.3363  0.6275  0.7900
22609SOL     OW69267   3.264   2.177   1.307 -0.2890 -0.5133  0.4379
22609SOL    HW169268   3.237   2.112   1.372  0.2737 -1.6412 -0.4130
22609SOL    HW269269   3.242   2.138   1.223  3.0650 -1.1730 -0.3005
22610SOL     OW69270   6.450   5.453   6.605  0.3158 -0.4460  0.1481
22610SOL    HW169271   6.488   5.458   6.692  1.8075 -3.6052 -0.1727
22610SOL    HW269272   6.398   5.533   6.596  2.2983  1.2960  2.8351
22611SOL     OW69273   1.292   0.776   2.369  0.1611  0.0551  0.2663
22611SOL    HW169274   1.245   0.795   2.450 -0.5440  1.8909 -0.5035
22611SOL    HW269275   1.353   0.849   2.360  0.3785 -0.2436 -0.7530
22612SOL     OW69276   7.141   6.930  11.135 -0.1069  0.3592  0.5201
22612SOL    HW169277   7.227   6.957  11.168  0.7867 -0.6176 -0.8424
22612SOL    HW269278   7.147   6.834  11.130 -1.6665  0.1876  1.3716
22613SOL     OW69279   5.645   0.784  11.839  0.2802  0.2982  0.0692
22613SOL    HW169280   5.715   0.726  11.810  1.9797  1.6911  1.2358
22613SOL    HW269281   5.681   0.830  11.915 -1.9750  0.9160  0.8428
22614SOL     OW69282   1.316   7.061   2.370 -0.2339 -0.4411  0.2459
22614SOL    HW169283   1.361   7.002   2.311  0.6320 -0.5085  0.9518
22614SOL    HW269284   1.385   7.100   2.423 -0.5332  2.7378 -1.4824
22615SOL     OW69285   2.850   7.283   8.538  0.1607 -0.5634  0.0586
22615SOL    HW169286   2.826   7.357   8.483  1.0890 -0.9095 -0.8433
22615SOL    HW269287   2.773   7.226   8.536 -0.0864 -0.2281 -0.2868
22616SOL     OW69288   0.690   0.128   6.635  0.4463 -0.6342 -0.1949
22616SOL    HW169289   0.605   0.165   6.614  0.4209 -0.7262 -0.2587
22616SOL    HW269290   0.749   0.167   6.570  0.6992  0.4077  0.6328
22617SOL     OW69291   5.135   0.352   0.958  0.3087 -0.0224 -0.4320
22617SOL    HW169292   5.186   0.299   0.896  1.5999  1.0819 -0.3498
22617SOL    HW269293   5.159   0.442   0.938 -1.4573  0.5327 -0.2125
22618SOL     OW69294   0.886   3.395   3.997 -0.2282 -0.8561 -0.1144
22618SOL    HW169295   0.892   3.489   3.985 -1.2328 -0.8613 -0.7811
22618SOL    HW269296   0.928   3.378   4.082 -3.0684  0.6064  1.7188
22619SOL     OW69297   7.353   3.635   1.586 -0.3795  0.0139 -0.1181
22619SOL    HW169298   7.401   3.635   1.669  0.4246 -0.1951 -0.5763
22619SOL    HW269299   7.384   3.713   1.540 -0.7927  0.1069 -0.2461
22620SOL     OW69300   2.919   2.067   9.605 -0.5774  0.4531 -0.1480
22620SOL    HW169301   2.972   2.121   9.663 -0.6943  2.3502 -1.6978
22620SOL    HW269302   2.835   2.058   9.651 -0.1238  0.4664  0.7029
22621SOL     OW69303   6.639   1.560   8.365 -0.3521  0.2507  0.3861
22621SOL    HW169304   6.610   1.537   8.276 -0.5978 -1.2071  0.8140
22621SOL    HW269305   6.712   1.501   8.382  0.4238  1.2936  0.7522
22622SOL     OW69306   7.191   7.659  11.524  0.1689  0.3439  0.0586
22622SOL    HW169307   7.110   7.706  11.545  0.1981  0.0035  0.9859
22622SOL    HW269308   7.167   7.602  11.450 -0.1565  0.9879 -0.3425
22623SOL     OW69309   5.385   2.125   3.602  0.2123 -0.0589  0.5397
22623SOL    HW169310   5.458   2.186   3.602 -0.1502  0.3908  1.2765
22623SOL    HW269311   5.308   2.180   3.584  0.1130 -0.6142 -0.8480
22624SOL     OW69312   4.436   6.466   3.634 -0.6698  0.0464 -0.4106
22624SOL    HW169313   4.380   6.486   3.709 -0.8997 -1.0740 -0.2547
22624SOL    HW269314   4.524   6.463   3.671 -0.7056  0.1516 -0.3162
22625SOL     OW69315   7.869   3.177   1.694 -0.1503  0.8066 -0.0241
22625SOL    HW169316   7.808   3.158   1.765  0.1415  0.4357  0.1363
22625SOL    HW269317   7.818   3.165   1.614  0.2539 -1.8367 -0.0034
22626SOL     OW69318   3.548   7.614  10.502 -0.3677 -0.2116  0.3012
22626SOL    HW169319   3.541   7.674  10.577 -1.7823 -0.5237  0.4542
22626SOL    HW269320   3.562   7.528  10.541  1.2593 -0.0742  0.0939
22627SOL     OW69321   6.774   7.151   9.407  0.8749 -0.2028  0.5415
22627SOL    HW169322   6.699   7.119   9.358  0.5821 -0.8116  1.3564
22627SOL    HW269323   6.754   7.242   9.426 -0.0469 -0.5778  1.4499
22628SOL     OW69324   0.870   1.446   5.366  0.1985  0.1445  0.3746
22628SOL    HW169325   0.888   1.500   5.443 -1.8886 -0.4142  1.3369
22628SOL    HW269326   0.890   1.503   5.291  1.4714  0.9816  1.3082
22629SOL     OW69327   2.529   4.814   1.612  0.5460  0.6910 -0.2276
22629SOL    HW169328   2.539   4.816   1.516  0.8894  1.9286 -0.1850
22629SOL    HW269329   2.569   4.896   1.641  2.9484 -0.8780  1.2405
22630SOL     OW69330   5.025   5.501   1.259  0.7014  0.2569 -0.1373
22630SOL    HW169331   4.980   5.574   1.215  0.3672  0.2544  0.1988
22630SOL    HW269332   5.085   5.467   1.193 -0.9150 -0.7723 -1.1551
22631SOL     OW69333   4.422   5.446   4.951  0.2500  0.2813 -0.3649
22631SOL    HW169334   4.362   5.419   5.021 -0.3649 -1.1837 -1.4015
22631SOL    HW269335   4.509   5.430   4.987 -0.0656 -0.6772  0.0093
22632SOL     OW69336   1.950   7.534   8.902  0.2882  0.1533  0.7232
22632SOL    HW169337   1.985   7.505   8.986  0.2842  1.3460  1.1513
22632SOL    HW269338   2.020   7.585   8.862  0.0794  0.0834  0.2588
22633SOL     OW69339   6.922   3.708   7.967  0.4738 -0.0901  0.0467
22633SOL    HW169340   6.930   3.645   7.895  1.5251 -0.6627  0.6367
22633SOL    HW269341   6.858   3.668   8.026 -0.3169  0.3347 -0.4986
22634SOL     OW69342   5.716   6.620   4.770  0.0575 -0.2802  0.1181
22634SOL    HW169343   5.692   6.712   4.772 -1.5384 -0.6619  0.0905
22634SOL    HW269344   5.808   6.618   4.797  0.1378  1.3099  0.0446
22635SOL     OW69345   0.206   3.406   0.458 -0.1534 -0.0841 -0.4166
22635SOL    HW169346   0.270   3.335   0.452  1.8274  1.6584 -1.4778
22635SOL    HW269347   0.248   3.479   0.413 -1.2955  2.3381  2.1531
22636SOL     OW69348   5.139   3.905   3.472 -0.6165  0.4144  0.4082
22636SOL    HW169349   5.063   3.905   3.415 -0.5028  0.5844  0.2562
22636SOL    HW269350   5.106   3.875   3.557 -0.7098 -0.2293  0.1516
22637SOL     OW69351   3.492   3.948   6.760 -0.3303  0.2457 -0.7720
22637SOL    HW169352   3.520   4.029   6.803  1.5618 -0.0838 -1.2705
22637SOL    HW269353   3.419   3.917   6.813 -0.2131  1.5728  0.2287
22638SOL     OW69354   4.467   6.057   4.000  0.2640 -0.2470  0.4433
22638SOL    HW169355   4.412   5.980   3.989  0.7967 -0.4447 -1.0628
22638SOL    HW269356   4.542   6.027   4.050  1.9651 -1.5561 -2.6085
22639SOL     OW69357   7.057   0.807   1.086 -0.2445  0.1053  0.4261
22639SOL    HW169358   7.131   0.861   1.116  1.8746 -1.0232 -2.3742
22639SOL    HW269359   7.095   0.720   1.072 -1.0886  0.2644 -4.3798
22640SOL     OW69360   6.158   3.892   2.590 -0.3234  0.5706 -0.3628
22640SOL    HW169361   6.068   3.913   2.564 -0.8153 -1.1180 -0.1291
22640SOL    HW269362   6.205   3.883   2.507 -0.3618  1.4419 -0.4858
22641SOL     OW69363   6.441   1.562   5.793 -0.5485  0.1731 -0.0567
22641SOL    HW169364   6.475   1.642   5.833  0.5608 -0.4124  0.2154
22641SOL    HW269365   6.519   1.508   5.777 -1.1989 -0.5587 -0.8979
22642SOL     OW69366   3.043   1.220  10.170 -0.5500  0.7981  0.4306
22642SOL    HW169367   2.960   1.266  10.184 -1.4248 -0.8919  1.0110
22642SOL    HW269368   3.099   1.251  10.241 -1.1929  0.8247  0.9396
22643SOL     OW69369   6.326   2.516   6.269 -0.0934 -1.1001  0.4273
22643SOL    HW169370   6.354   2.425   6.277  2.0219 -0.6788 -1.0578
22643SOL    HW269371   6.279   2.519   6.186 -0.2397 -0.8694  0.5181
22644SOL     OW69372   4.808   0.781   2.988 -0.2805 -0.3413  0.7590
22644SOL    HW169373   4.884   0.838   2.997 -0.2355 -0.5239  1.6467
22644SOL    HW269374   4.769   0.805   2.904  1.0339 -0.5906  0.0504
22645SOL     OW69375   7.235   0.761  11.691  0.3670  0.3250 -0.6569
22645SOL    HW169376   7.210   0.702  11.620 -0.5132 -1.0805  0.7607
22645SOL    HW269377   7.330   0.752  11.698  0.3614 -0.1228 -1.1415
22646SOL     OW69378   2.662   7.976   3.576  0.2452  0.5967  0.0447
22646SOL    HW169379   2.745   8.008   3.609  2.1104 -3.5039 -0.0175
22646SOL    HW269380   2.674   7.968   3.482 -0.2030 -0.0393  0.0329
22647SOL     OW69381   3.933   7.547   8.004 -0.4720 -0.4545  0.1753
22647SOL    HW169382   3.865   7.595   7.956  1.5160  1.4444 -0.8994
22647SOL    HW269383   3.945   7.466   7.955  0.1015  0.5548 -1.4018
22648SOL     OW69384   3.572   7.175   3.257 -0.3878 -0.4165  0.0697
22648SOL    HW169385   3.483   7.206   3.275  0.0632  0.5186  0.7907
22648SOL    HW269386   3.623   7.255   3.242  0.2637 -0.9556 -0.7241
22649SOL     OW69387   2.320   3.804   0.232  0.0632  0.0803 -0.3374
22649SOL    HW169388   2.374   3.880   0.208  0.8628 -0.5962 -0.7434
22649SOL    HW269389   2.367   3.764   0.306  0.5700 -0.9643 -1.1959
22650SOL     OW69390   2.172   5.070   6.177 -0.3494  0.0187  0.0556
22650SOL    HW169391   2.096   5.065   6.119 -1.3792  0.9071  1.2739
22650SOL    HW269392   2.246   5.043   6.122 -1.0396  2.1987 -2.1028
22651SOL     OW69393   3.309   5.658   4.323  0.1391  0.1216 -0.6634
22651SOL    HW169394   3.376   5.699   4.269  0.4485  0.6879  0.1234
22651SOL    HW269395   3.359   5.610   4.390 -0.2408  0.5936 -0.0399
22652SOL     OW69396   2.710   7.251   3.744  0.4713  0.4826 -0.0562
22652SOL    HW169397   2.780   7.314   3.727  0.4171  0.5051 -0.1996
22652SOL    HW269398   2.700   7.203   3.662  1.5716 -0.7738  0.4957
22653SOL     OW69399   3.670   4.978   4.738 -0.0845 -0.2213  0.0217
22653SOL    HW169400   3.598   4.939   4.689 -0.0168  0.1694 -0.4006
22653SOL    HW269401   3.720   5.027   4.672  0.8798 -0.9283  0.1974
22654SOL     OW69402   6.494   0.828   0.739  0.3261  0.3524  0.4360
22654SOL    HW169403   6.542   0.825   0.657 -0.7651 -1.0952 -0.1917
22654SOL    HW269404   6.471   0.920   0.750 -0.2542  0.4520 -1.3315
22655SOL     OW69405   5.046   2.657   3.024 -0.0303  0.2926 -0.4946
22655SOL    HW169406   5.007   2.741   3.048  0.0342  0.0714  0.4107
22655SOL    HW269407   5.112   2.679   2.957  1.0298  1.1659  0.7812
22656SOL     OW69408   1.111   3.281  11.855  0.4254 -0.1393  0.1590
22656SOL    HW169409   1.071   3.285  11.768 -0.0745 -0.1449  0.3815
22656SOL    HW269410   1.047   3.232  11.908  0.9227 -0.5059  0.4233
22657SOL     OW69411   4.973   4.743   5.873 -0.1967 -0.3240  0.1980
22657SOL    HW169412   5.045   4.733   5.936 -0.1949  0.8634  0.4100
22657SOL    HW269413   4.897   4.708   5.918  0.2032 -1.4191  0.0445
22658SOL     OW69414   2.289   1.661  11.388  0.2012  0.5562  0.4058
22658SOL    HW169415   2.282   1.610  11.307  0.3244 -0.7435  1.1921
22658SOL    HW269416   2.199   1.668  11.420  0.1721  0.9297  0.2431
22659SOL     OW69417   4.218   5.679   5.211  0.0806 -0.0786 -0.0033
22659SOL    HW169418   4.210   5.653   5.119  0.4873 -0.7397  0.1410
22659SOL    HW269419   4.127   5.691   5.240 -0.1113 -1.0299 -0.1721
22660SOL     OW69420   4.594   7.689   8.666  0.1840 -0.0478 -0.4598
22660SOL    HW169421   4.633   7.754   8.609 -0.0401 -0.7472 -1.4310
22660SOL    HW269422   4.537   7.638   8.609 -1.8124  0.6516  0.8311
22661SOL     OW69423   4.869   5.679   0.654  0.1765  0.6849 -0.1083
22661SOL    HW169424   4.879   5.620   0.728 -2.3345 -0.1710 -0.3502
22661SOL    HW269425   4.948   5.666   0.602  0.2406 -1.6107  0.4608
22662SOL     OW69426   6.764   4.438  10.855 -0.8155  0.3005  0.1043
22662SOL    HW169427   6.677   4.404  10.833 -1.0263 -2.1863  3.8064
22662SOL    HW269428   6.747   4.524  10.892 -2.0441 -0.7271  2.1411
22663SOL     OW69429   7.012   6.196   8.750 -0.2666  0.3579 -0.1999
22663SOL    HW169430   7.088   6.190   8.693 -0.2963 -1.4909 -0.0898
22663SOL    HW269431   7.043   6.169   8.836 -0.9627 -0.1757 -0.0994
22664SOL     OW69432   5.444   5.393   4.418  0.3539  0.7428  0.1317
22664SOL    HW169433   5.488   5.335   4.355 -0.7952 -0.4004  0.3357
22664SOL    HW269434   5.500   5.391   4.495 -0.9222 -2.3120  1.1481
22665SOL     OW69435   0.094   5.272  12.336 -0.3298  0.4662 -0.0104
22665SOL    HW169436   0.019   5.223  12.369 -0.2663  0.8913  0.8121
22665SOL    HW269437   0.162   5.259  12.403  0.7671 -0.8984 -1.2962
22666SOL     OW69438   4.764   5.892   3.808  0.0386 -0.7453  0.4744
22666SOL    HW169439   4.817   5.837   3.750  1.1193  1.1031 -0.3649
22666SOL    HW269440   4.692   5.922   3.753  0.6187  0.3531  0.2906
22667SOL     OW69441   5.487   4.559  10.466  0.1200  0.7236  0.2016
22667SOL    HW169442   5.425   4.626  10.492 -0.2035  1.3787 -2.0440
22667SOL    HW269443   5.432   4.486  10.435  0.3792  1.2034 -1.5383
22668SOL     OW69444   5.509   2.484   3.188  0.4073  0.1264 -0.3634
22668SOL    HW169445   5.413   2.479   3.187  0.4487 -0.7450 -1.0410
22668SOL    HW269446   5.537   2.418   3.126  1.4486  0.7304 -0.5609
22669SOL     OW69447   3.850   5.046   6.378 -0.2470 -1.2719  0.2348
22669SOL    HW169448   3.876   5.039   6.287 -0.3786 -0.3799  0.1261
22669SOL    HW269449   3.894   4.972   6.421  3.0022  0.4599  0.1778
22670SOL     OW69450   5.304   1.731   9.796 -0.0150 -0.4591  0.3139
22670SOL    HW169451   5.390   1.722   9.757 -0.3977  0.0842 -0.7094
22670SOL    HW269452   5.292   1.826   9.805  0.0266 -0.5657  1.7007
22671SOL     OW69453   0.582   2.282   5.213  0.1792 -0.2688  0.2135
22671SOL    HW169454   0.624   2.241   5.138  0.3903  1.3734 -0.6231
22671SOL    HW269455   0.492   2.252   5.210 -0.1064  0.6372 -1.3977
22672SOL     OW69456   0.826   3.720   8.979 -0.5866 -0.0876  0.0013
22672SOL    HW169457   0.882   3.798   8.989 -0.1748 -0.3062 -0.5634
22672SOL    HW269458   0.847   3.667   9.056 -0.8397  0.3383  0.3705
22673SOL     OW69459   0.190   7.853   5.474  0.1724  0.4347  0.3420
22673SOL    HW169460   0.192   7.758   5.472  1.4388  0.4403 -1.1528
22673SOL    HW269461   0.274   7.878   5.513 -0.3610  0.9426  1.1852
22674SOL     OW69462   5.017   3.392   5.125 -0.0929  0.3230 -0.4194
22674SOL    HW169463   4.961   3.317   5.109 -1.0866  1.0236 -0.3086
22674SOL    HW269464   5.099   3.355   5.157 -1.4364 -0.6378  2.1799
22675SOL     OW69465   0.524   5.138  11.235 -0.0315  0.3586 -0.2588
22675SOL    HW169466   0.440   5.092  11.236 -0.0532  0.3979  0.6257
22675SOL    HW269467   0.556   5.128  11.146 -1.7038  1.6783 -1.0648
22676SOL     OW69468   1.733   7.941  11.428  0.1524  0.6774 -0.4927
22676SOL    HW169469   1.696   7.853  11.436  0.3250  0.5263 -1.2329
22676SOL    HW269470   1.657   7.999  11.425  0.0148  0.4890 -0.6782
22677SOL     OW69471   3.160   3.199   2.285 -0.3223 -0.1376  0.6340
22677SOL    HW169472   3.158   3.122   2.229  0.0955  0.4396 -0.1960
22677SOL    HW269473   3.137   3.166   2.372  0.6943 -1.3448  0.4691
22678SOL     OW69474   3.211   6.170   8.880  0.1226 -0.1198 -0.6928
22678SOL    HW169475   3.134   6.200   8.927  0.7599 -0.2450  0.4747
22678SOL    HW269476   3.227   6.237   8.814 -1.5883 -0.6253 -1.6653
22679SOL     OW69477   4.098   6.411   0.523 -0.1414 -0.0003 -0.1869
22679SOL    HW169478   4.059   6.488   0.482  0.4422  0.1025 -0.5687
22679SOL    HW269479   4.115   6.438   0.614 -0.4070  0.1493 -0.1825
22680SOL     OW69480   1.480   7.561   6.207 -0.1504 -0.0825 -0.4218
22680SOL    HW169481   1.553   7.620   6.229  0.4371 -0.7213 -0.6014
22680SOL    HW269482   1.523   7.479   6.182 -0.9294 -0.3615 -0.8707
22681SOL     OW69483   2.161   7.189   3.809  0.1482 -0.3300  0.0961
22681SOL    HW169484   2.198   7.223   3.891 -1.0791  0.0526  0.5134
22681SOL    HW269485   2.113   7.111   3.835 -2.4516  1.2233  0.2273
22682SOL     OW69486   2.049   1.278   5.662 -0.0183 -0.2341  0.7794
22682SOL    HW169487   2.116   1.342   5.636  0.3755 -0.3493  1.4763
22682SOL    HW269488   2.096   1.195   5.663 -0.4472 -0.4886  0.2125
22683SOL     OW69489   3.949   2.409   9.237 -0.1165  0.2230 -0.2162
22683SOL    HW169490   3.975   2.445   9.152 -0.6543  2.0620  0.3584
22683SOL    HW269491   3.886   2.472   9.271 -0.5556 -0.9318  1.1916
22684SOL     OW69492   3.215   1.304  11.283  0.4763 -0.5763  0.0817
22684SOL    HW169493   3.160   1.267  11.352 -0.6824 -1.9315 -1.5045
22684SOL    HW269494   3.237   1.392  11.315 -1.0225 -0.7049  1.6296
22685SOL     OW69495   5.166   5.976   7.237 -0.2436  0.2484  0.0028
22685SOL    HW169496   5.128   5.894   7.267  0.4854  0.2244  0.9270
22685SOL    HW269497   5.256   5.954   7.214  0.6741  1.1442  2.3693
22686SOL     OW69498   6.233   1.257   2.809  0.2557  0.0696  0.0150
22686SOL    HW169499   6.279   1.297   2.736 -0.1687  0.8523  0.1669
22686SOL    HW269500   6.191   1.330   2.854 -1.3608 -0.6274 -0.2798
22687SOL     OW69501   6.477   0.514   9.303 -0.8297  0.3747  0.2759
22687SOL    HW169502   6.497   0.603   9.333  2.8391  0.4940 -1.8608
22687SOL    HW269503   6.499   0.458   9.378  0.8359  1.0987  0.3777
22688SOL     OW69504   5.971   1.729   4.933  0.6712  0.1352  0.3021
22688SOL    HW169505   5.908   1.686   4.990 -0.1753  1.1906  0.1985
22688SOL    HW269506   5.951   1.697   4.845 -0.6799  1.4845  0.0663
22689SOL     OW69507   5.312   1.342  10.161  0.4600  0.0588  0.3978
22689SOL    HW169508   5.363   1.379  10.089  1.0700 -1.3004  0.1044
22689SOL    HW269509   5.265   1.417  10.199  0.7815  0.9252 -0.8755
22690SOL     OW69510   1.629   5.138   3.535  0.1549 -0.3969  0.4169
22690SOL    HW169511   1.540   5.171   3.524  1.0205  1.7835 -0.5667
22690SOL    HW269512   1.637   5.068   3.469 -0.8673 -0.7829  0.6768
22691SOL     OW69513   4.479   6.500   3.969 -0.3128  0.1725 -0.4260
22691SOL    HW169514   4.481   6.592   3.942 -0.4634  0.6813  1.2180
22691SOL    HW269515   4.387   6.483   3.991 -0.5182 -0.7438 -1.8238
22692SOL     OW69516   4.946   1.679   3.606  0.3449 -0.8215 -0.1579
22692SOL    HW169517   4.960   1.748   3.542  0.7871 -1.1237 -0.3960
22692SOL    HW269518   5.031   1.669   3.649  0.6928 -2.1624 -1.0817
22693SOL     OW69519   1.046   5.658   9.033 -0.5524  0.3498  0.3773
22693SOL    HW169520   1.073   5.750   9.030  0.4147  0.0492 -0.7732
22693SOL    HW269521   1.107   5.617   9.094  0.9496 -0.0969 -1.3541
22694SOL     OW69522   3.024   5.496   4.457  1.0748  0.0263 -0.1839
22694SOL    HW169523   2.942   5.492   4.409  0.7315 -4.6779  0.3375
22694SOL    HW269524   3.021   5.580   4.504 -3.6923 -0.1161  0.2152
22695SOL     OW69525   7.580   5.727   4.210  0.0834  0.5151 -0.6868
22695SOL    HW169526   7.498   5.679   4.201  0.0021  0.3839  0.6650
22695SOL    HW269527   7.555   5.819   4.204 -0.2923  0.5086  0.4956
22696SOL     OW69528   4.265   4.272   1.996  0.5746  0.2677  0.4882
22696SOL    HW169529   4.256   4.319   1.913 -2.0196 -1.4354 -0.3032
22696SOL    HW269530   4.208   4.320   2.057  0.7719  0.2406  0.6943
22697SOL     OW69531   6.546   0.782   9.344 -0.6674  0.6428 -0.8078
22697SOL    HW169532   6.451   0.794   9.344 -0.4936  2.2147 -0.1957
22697SOL    HW269533   6.569   0.783   9.437 -0.0448  0.2651 -0.9574
22698SOL     OW69534   1.453   3.899  11.508 -0.1408 -0.1143  0.6026
22698SOL    HW169535   1.457   3.911  11.602 -2.4158 -0.5327  0.8031
22698SOL    HW269536   1.391   3.828  11.495 -1.1012  0.9750 -1.2427
22699SOL     OW69537   1.831   7.629  10.915 -0.1381  0.5587 -0.2844
22699SOL    HW169538   1.859   7.647  11.004 -1.8713 -2.1716  0.9488
22699SOL    HW269539   1.909   7.597  10.870  0.4944  0.8456  0.6100
22700SOL     OW69540   6.736   6.098   9.073 -0.0052  0.3711 -0.2687
22700SOL    HW169541   6.691   6.068   8.994 -0.2785  0.2351 -0.0618
22700SOL    HW269542   6.666   6.112   9.137  0.1891  0.7463 -0.1362
22701SOL     OW69543   6.616   5.164   3.406 -0.2448 -0.2056  0.5822
22701SOL    HW169544   6.530   5.147   3.445  0.7159 -0.6173  2.6518
22701SOL    HW269545   6.627   5.095   3.341 -0.8383 -1.1163  1.4222
22702SOL     OW69546   4.822   3.807   9.868 -0.1533  0.0453 -0.5490
22702SOL    HW169547   4.728   3.804   9.885  0.0442  2.1919  1.2761
22702SOL    HW269548   4.853   3.719   9.889 -1.1777  0.3918  3.0172
22703SOL     OW69549   5.788   5.765   4.523  0.2586 -0.1427 -0.4804
22703SOL    HW169550   5.807   5.696   4.587 -1.4046 -0.0275  0.2090
22703SOL    HW269551   5.694   5.756   4.506  0.4873  0.4038 -2.2667
22704SOL     OW69552   6.255   2.525  12.351 -0.1250 -0.5724 -0.0213
22704SOL    HW169553   6.196   2.524  12.275  1.4839 -0.2352 -1.3547
22704SOL    HW269554   6.226   2.451  12.405  0.6074 -2.9325 -2.5950
22705SOL     OW69555   7.442   4.170   2.935 -0.0539 -0.3501 -1.0133
22705SOL    HW169556   7.486   4.149   3.018 -0.5335  0.7171 -0.4625
22705SOL    HW269557   7.465   4.098   2.876  1.7010 -0.2779 -0.4738
22706SOL     OW69558   1.637   4.819  12.054 -0.0489 -0.2457 -0.5551
22706SOL    HW169559   1.698   4.751  12.025  0.1844  1.0450 -3.4965
22706SOL    HW269560   1.670   4.847  12.139  1.1792 -2.1825 -0.3315
22707SOL     OW69561   3.778   0.787   4.384 -0.3325 -0.4144  0.2909
22707SOL    HW169562   3.726   0.713   4.416 -0.7746 -0.6737 -0.9606
22707SOL    HW269563   3.751   0.861   4.438 -2.6710 -0.3446 -0.8566
22708SOL     OW69564   7.308   4.495   5.278  0.5266  0.0794 -0.1622
22708SOL    HW169565   7.253   4.545   5.217  1.7349  1.7539  0.0856
22708SOL    HW269566   7.247   4.431   5.317 -1.8169  3.1557  1.6527
22709SOL     OW69567   3.070   1.355   6.974  0.1140 -0.4433 -0.6552
22709SOL    HW169568   3.055   1.442   7.012 -0.7475 -0.6958 -0.3927
22709SOL    HW269569   2.982   1.318   6.964  0.4732 -1.2724 -0.7941
22710SOL     OW69570   2.007   3.667  11.624  0.0126  0.2051  0.1555
22710SOL    HW169571   1.990   3.761  11.615  1.3921  0.2535 -3.9484
22710SOL    HW269572   2.085   3.662  11.680  1.3112  1.7814 -1.3887
22711SOL     OW69573   5.397   6.625   7.134 -0.0572 -0.0797 -0.3643
22711SOL    HW169574   5.338   6.697   7.112  0.5440  0.8111  0.8815
22711SOL    HW269575   5.476   6.667   7.166  0.8575 -1.2817 -0.9709
22712SOL     OW69576   1.109   6.403   2.677  0.6507  0.4888 -0.0722
22712SOL    HW169577   1.081   6.350   2.603  0.3915 -1.2557  1.2058
22712SOL    HW269578   1.028   6.438   2.714  0.7404  0.9796 -0.3345
22713SOL     OW69579   0.762   1.883   9.907 -0.4745 -0.0615  0.1627
22713SOL    HW169580   0.744   1.789   9.904 -0.3029 -0.0913  0.0304
22713SOL    HW269581   0.685   1.921   9.950 -0.0409 -0.3776  1.2289
22714SOL     OW69582   6.419   5.274   7.891  0.4155  0.7412 -0.3891
22714SOL    HW169583   6.499   5.229   7.865  1.7738  1.7557  1.8222
22714SOL    HW269584   6.428   5.361   7.852 -0.0863  0.5720 -0.9046
22715SOL     OW69585   7.304   1.584   6.480  0.0776 -0.4959 -0.5083
22715SOL    HW169586   7.248   1.526   6.530 -0.1425  0.1861  0.0492
22715SOL    HW269587   7.372   1.612   6.542  0.9016 -1.1102 -1.0985
22716SOL     OW69588   7.672   2.950   7.384  0.0564 -0.1427  0.2537
22716SOL    HW169589   7.693   3.020   7.322 -0.8555 -0.7095 -0.7454
22716SOL    HW269590   7.750   2.941   7.439  0.2115  1.5845  0.3470
22717SOL     OW69591   2.522   0.501   0.548 -0.2803  0.1188  0.0629
22717SOL    HW169592   2.547   0.419   0.506  0.7444  0.1528  0.5869
22717SOL    HW269593   2.590   0.517   0.613  0.8009  2.5295 -1.5043
22718SOL     OW69594   5.431   1.134   7.316  0.3774 -0.3202 -0.4763
22718SOL    HW169595   5.461   1.223   7.332  0.3566 -0.3834 -0.0509
22718SOL    HW269596   5.363   1.120   7.382  0.5075 -0.7076 -0.4195
22719SOL     OW69597   6.646   7.511   6.019  0.0281 -0.2598 -1.1309
22719SOL    HW169598   6.580   7.567   6.062  0.4178 -0.3524 -0.3942
22719SOL    HW269599   6.617   7.422   6.037  0.8163 -0.3142 -0.0380
22720SOL     OW69600   2.504   5.834   4.286  0.2002 -0.2255 -0.0861
22720SOL    HW169601   2.600   5.836   4.281  0.2479 -0.0484  0.7193
22720SOL    HW269602   2.481   5.744   4.266  0.4858 -0.1043 -0.9989
22721SOL     OW69603   7.422   0.633   6.623  0.0707  0.0708 -0.0767
22721SOL    HW169604   7.433   0.673   6.709  0.3477 -0.1442 -0.0113
22721SOL    HW269605   7.475   0.553   6.626  0.2522  0.1694 -0.5177
22722SOL     OW69606   6.921   0.646   8.736 -0.5917 -0.4209 -1.0426
22722SOL    HW169607   6.889   0.584   8.670  1.4682  0.1870 -2.7266
22722SOL    HW269608   6.964   0.715   8.685  0.6142  0.3704  0.9359
22723SOL     OW69609   5.149   6.423   0.534 -0.0729 -0.5412  0.8389
22723SOL    HW169610   5.218   6.386   0.589 -0.8171 -1.0165  1.4690
22723SOL    HW269611   5.113   6.495   0.585  1.3036  1.0838 -0.3417
22724SOL     OW69612   1.946   1.203   4.322  0.3364 -0.4244 -0.3650
22724SOL    HW169613   1.893   1.151   4.383  1.2091 -2.1988 -1.0406
22724SOL    HW269614   1.896   1.284   4.310 -1.0580 -1.0602  0.7940
22725SOL     OW69615   7.105   1.188   4.079 -0.1798  0.4890  0.0240
22725SOL    HW169616   7.011   1.170   4.078 -0.0815 -0.0335 -1.0656
22725SOL    HW269617   7.134   1.160   4.166 -0.9632  0.3160  0.2354
22726SOL     OW69618   1.843   5.847   0.729 -0.4611 -0.0392  0.1455
22726SOL    HW169619   1.833   5.841   0.634 -0.8400  0.7868  0.1242
22726SOL    HW269620   1.779   5.784   0.763  1.1648 -1.9534 -0.1549
22727SOL     OW69621   6.644   7.270   1.575  0.0956  0.4232 -0.5364
22727SOL    HW169622   6.645   7.188   1.623 -1.9928 -0.1291 -1.3112
22727SOL    HW269623   6.660   7.245   1.484 -0.4819  0.8565 -0.7673
22728SOL     OW69624   1.707   0.948   2.353 -0.3664 -0.4952  0.3902
22728SOL    HW169625   1.615   0.972   2.339 -0.3524 -1.0098 -0.6297
22728SOL    HW269626   1.737   0.916   2.268  0.3936 -1.5339  1.0193
22729SOL     OW69627   2.353   5.123   3.896  0.1753 -0.0654  0.0484
22729SOL    HW169628   2.416   5.072   3.845 -0.2314  0.1779 -0.7043
22729SOL    HW269629   2.332   5.198   3.841  1.2243  1.2736  1.3794
22730SOL     OW69630   6.139   5.928  11.244 -0.3963 -0.6397  0.0809
22730SOL    HW169631   6.186   5.845  11.256 -0.3658 -0.4192  1.7369
22730SOL    HW269632   6.091   5.940  11.326  1.1459  1.9363  0.7355
22731SOL     OW69633   0.085   3.614  11.239  0.0255 -0.3520  0.0436
22731SOL    HW169634   0.055   3.530  11.273  1.1788 -1.2552 -1.0929
22731SOL    HW269635   0.169   3.595  11.197  0.1530  1.3046 -0.5368
22732SOL     OW69636   2.899   0.502   0.905 -0.2762  0.2531  0.1849
22732SOL    HW169637   2.886   0.518   0.812  0.9719 -1.4198 -0.3389
22732SOL    HW269638   2.835   0.436   0.928 -1.5233  1.6530  0.9013
22733SOL     OW69639   6.612   0.088   0.690 -0.0791  0.1188  0.1992
22733SOL    HW169640   6.627   0.027   0.763  1.5595  0.5683  0.2839
22733SOL    HW269641   6.680   0.155   0.701 -0.3106  0.6295 -1.2871
22734SOL     OW69642   6.731   0.745  11.726  0.2279  0.0466  0.2785
22734SOL    HW169643   6.745   0.774  11.636  1.4688 -0.9616  0.1174
22734SOL    HW269644   6.730   0.826  11.777 -0.3025  0.6161 -0.6102
22735SOL     OW69645   1.456   7.673   4.908  0.2272  0.3556  0.0905
22735SOL    HW169646   1.511   7.712   4.840 -0.4281 -1.8877 -1.8870
22735SOL    HW269647   1.518   7.636   4.971  1.1466 -1.9178 -1.9708
22736SOL     OW69648   6.445   0.574   5.192  0.5575  0.9297 -0.3786
22736SOL    HW169649   6.370   0.625   5.162 -0.5649 -0.9802 -1.0229
22736SOL    HW269650   6.518   0.606   5.140  0.0116  2.1870 -0.4143
22737SOL     OW69651   6.716   3.377   7.453 -0.5569 -0.1038  0.1704
22737SOL    HW169652   6.657   3.318   7.501  1.3430  0.6528  3.7738
22737SOL    HW269653   6.803   3.340   7.466  0.2063  0.8831 -1.7573
22738SOL     OW69654   3.069   7.102   9.322 -0.8840  0.4141 -0.1258
22738SOL    HW169655   3.164   7.086   9.324 -0.8528  0.6176  0.0478
22738SOL    HW269656   3.061   7.193   9.292 -1.0617  0.0570 -1.1815
22739SOL     OW69657   2.837   0.937   9.863  0.4979 -1.1516  0.6565
22739SOL    HW169658   2.860   0.960   9.773  0.6847 -0.4668  0.8676
22739SOL    HW269659   2.827   1.021   9.907  1.7556 -1.4812  1.6112
22740SOL     OW69660   2.219   0.623  11.127 -0.2835  0.1419 -0.2714
22740SOL    HW169661   2.156   0.551  11.115 -0.1510  0.3537 -2.8512
22740SOL    HW269662   2.283   0.610  11.056  0.0466  2.4747 -0.4630
22741SOL     OW69663   4.611   2.424   1.962 -0.2654 -0.1200  0.0240
22741SOL    HW169664   4.579   2.433   1.872  0.5225 -0.5151 -0.3058
22741SOL    HW269665   4.544   2.373   2.007 -0.2179 -0.7285 -0.5872
22742SOL     OW69666   6.529   0.735  12.391 -0.1614  0.4966 -0.0261
22742SOL    HW169667   6.442   0.717  12.427 -0.6368  1.0572 -0.8686
22742SOL    HW269668   6.515   0.747  12.297  0.7706  0.9891 -0.1192
22743SOL     OW69669   6.063   0.201   0.432  0.0186  0.2381  0.1269
22743SOL    HW169670   6.107   0.155   0.361  1.9164  0.2807  1.2136
22743SOL    HW269671   5.987   0.146   0.453 -0.9638  0.5560 -2.2981
22744SOL     OW69672   1.219   7.311   3.154  0.1500  0.2068 -0.3083
22744SOL    HW169673   1.176   7.369   3.092 -0.9620 -0.0722  0.1879
22744SOL    HW269674   1.280   7.368   3.202 -0.6863  0.8950 -0.0486
22745SOL     OW69675   7.710   5.659  12.308  0.3844 -0.1325 -0.2269
22745SOL    HW169676   7.712   5.737  12.364  1.3028  0.7342 -1.4159
22745SOL    HW269677   7.663   5.688  12.230 -1.2155 -1.4338  0.2098
22746SOL     OW69678   2.459   1.340   4.394 -0.1785  0.1181 -0.7660
22746SOL    HW169679   2.552   1.338   4.370 -0.2876 -0.4487 -1.1500
22746SOL    HW269680   2.421   1.408   4.339 -0.0209  0.2480 -0.7149
22747SOL     OW69681   7.367   1.821   5.811 -0.0439 -0.2743 -0.1657
22747SOL    HW169682   7.347   1.915   5.812 -0.1340 -0.1829 -2.6420
22747SOL    HW269683   7.437   1.811   5.875  1.1492  1.8447 -1.0072
22748SOL     OW69684   4.892   0.462   5.542  0.2794 -0.6724 -0.8488
22748SOL    HW169685   4.863   0.548   5.511  1.1875 -0.5043 -1.2722
22748SOL    HW269686   4.815   0.425   5.586  0.1845  0.7919  0.2834
22749SOL     OW69687   5.199   5.480  10.011  0.2938 -0.2641 -0.6175
22749SOL    HW169688   5.117   5.460  10.057  1.2413  1.9312  2.3624
22749SOL    HW269689   5.173   5.490   9.919 -2.8741  0.6842  0.2418
22750SOL     OW69690   0.786   3.070  11.124  0.4055  0.2754 -0.5244
22750SOL    HW169691   0.881   3.056  11.131  0.3249 -0.7827 -1.3453
22750SOL    HW269692   0.767   3.059  11.031 -0.3575  1.6874 -0.5609
22751SOL     OW69693   7.482   1.923   4.308 -0.4173  0.3983  0.2283
22751SOL    HW169694   7.410   1.930   4.370 -2.6922 -0.7160 -2.1019
22751SOL    HW269695   7.474   2.001   4.252 -1.0818 -0.6644 -1.2225
22752SOL     OW69696   0.208   7.386  10.466  0.2173  0.3172  0.2962
22752SOL    HW169697   0.268   7.416  10.534  1.0591  0.0770 -0.3220
22752SOL    HW269698   0.141   7.454  10.461  1.0343  1.1402  0.2581
22753SOL     OW69699   2.973   3.870   6.927  0.1728 -0.1011 -0.4842
22753SOL    HW169700   2.937   3.835   7.009 -1.3801 -0.2897 -1.2144
22753SOL    HW269701   3.020   3.796   6.888  0.4328 -0.1695 -0.0566
22754SOL     OW69702   0.485   4.641  11.900 -0.1337 -0.3962  0.3986
22754SOL    HW169703   0.394   4.641  11.870 -0.3987  0.1136  1.1571
22754SOL    HW269704   0.491   4.564  11.956 -0.9188  1.0390  2.6066
22755SOL     OW69705   4.546   5.432   1.297  0.5331  0.2066 -0.2914
22755SOL    HW169706   4.626   5.411   1.249  0.8230 -0.1139  0.3173
22755SOL    HW269707   4.554   5.526   1.315  0.4126  0.3299 -0.8886
22756SOL     OW69708   1.595   7.134  11.490  0.2783  0.2157 -0.4016
22756SOL    HW169709   1.514   7.175  11.459 -0.6922 -2.6138 -2.0985
22756SOL    HW269710   1.571   7.043  11.505  2.2476  0.1256  3.1549
22757SOL     OW69711   1.039   0.839   5.101 -0.5219 -0.3244  0.2651
22757SOL    HW169712   1.010   0.760   5.054  0.1906 -0.1894 -0.4201
22757SOL    HW269713   1.132   0.825   5.116 -0.6226 -0.0940  1.1324
22758SOL     OW69714   4.831   1.599   0.921 -0.8061  0.4892 -0.2249
22758SOL    HW169715   4.847   1.664   0.852 -0.8200  1.6841  0.8691
22758SOL    HW269716   4.742   1.618   0.952 -1.2545 -0.8075 -0.6649
22759SOL     OW69717   0.605   3.512   5.046  0.1275 -0.3801  0.2503
22759SOL    HW169718   0.599   3.538   4.954  1.2248  1.1131  0.5690
22759SOL    HW269719   0.573   3.422   5.047  1.4307 -0.9455 -1.8326
22760SOL     OW69720   3.843   2.875   3.397  0.1593  0.3227  0.2178
22760SOL    HW169721   3.845   2.970   3.412 -2.6459  0.4021  0.6208
22760SOL    HW269722   3.885   2.864   3.312  2.7939  1.5876  1.2466
22761SOL     OW69723   3.085   3.119  12.050  0.0624 -0.4813 -0.2612
22761SOL    HW169724   3.024   3.045  12.050 -0.4698 -0.1612 -2.9139
22761SOL    HW269725   3.170   3.080  12.030  0.2998 -0.6468  1.0053
22762SOL     OW69726   6.321   4.122   1.014 -0.3242 -0.4381  0.0649
22762SOL    HW169727   6.240   4.075   0.995  0.8789 -3.5480  1.9026
22762SOL    HW269728   6.310   4.155   1.103  0.5535 -1.2715  0.4986
22763SOL     OW69729   0.372   5.966   7.499  0.2999 -0.0754 -0.3877
22763SOL    HW169730   0.309   5.933   7.435 -2.1383  1.3749  1.0947
22763SOL    HW269731   0.395   6.054   7.467  0.9699 -0.2726 -0.4761
22764SOL     OW69732   5.204   4.254   6.324  0.3982 -0.1097 -0.0921
22764SOL    HW169733   5.285   4.206   6.309  0.6113  0.6099 -1.3919
22764SOL    HW269734   5.136   4.202   6.281  0.5275  0.4157 -0.9386
22765SOL     OW69735   4.225   0.846   6.276 -0.3461  0.0854 -0.6348
22765SOL    HW169736   4.314   0.814   6.263  0.2101  0.9673  0.7080
22765SOL    HW269737   4.232   0.904   6.352 -2.4006 -1.1456  0.5530
22766SOL     OW69738   0.185   2.689   5.430  0.2697  0.1052  0.3766
22766SOL    HW169739   0.277   2.670   5.411 -0.0888 -0.5698 -0.7372
22766SOL    HW269740   0.137   2.657   5.354 -1.0992 -1.3859  1.8052
22767SOL     OW69741   4.613   6.525   2.859 -0.4762  0.2472  0.3565
22767SOL    HW169742   4.530   6.511   2.904 -1.4609  1.1255 -1.1037
22767SOL    HW269743   4.589   6.541   2.767  1.3334  0.0638 -0.2069
22768SOL     OW69744   3.446   4.340   4.616 -0.2521  0.7340  0.0054
22768SOL    HW169745   3.416   4.318   4.527  4.0499  0.7819 -1.7192
22768SOL    HW269746   3.448   4.257   4.662  1.8568 -0.2353 -1.6200
22769SOL     OW69747   0.766   3.552   0.977 -0.1091 -0.0042  0.7905
22769SOL    HW169748   0.832   3.483   0.985 -0.9052 -0.7297  1.1318
22769SOL    HW269749   0.753   3.562   0.883 -1.0232 -1.3151  0.7635
22770SOL     OW69750   6.553   7.177   9.244  0.2697 -0.7149  0.1643
22770SOL    HW169751   6.575   7.084   9.248 -0.6903 -0.9998 -0.6170
22770SOL    HW269752   6.458   7.179   9.233  0.2995  0.3489 -0.0518
22771SOL     OW69753   7.490   4.325   5.198  0.0874  0.1411 -0.1474
22771SOL    HW169754   7.423   4.392   5.210  0.6447  0.8178 -0.7030
22771SOL    HW269755   7.442   4.246   5.172 -0.4976  0.6104 -0.5057
22772SOL     OW69756   6.028   4.387  12.248  0.2879  0.4365  0.2253
22772SOL    HW169757   5.961   4.328  12.213 -0.5582  0.5283  1.6148
22772SOL    HW269758   6.103   4.330  12.266 -0.2976 -0.1122  0.9579
22773SOL     OW69759   7.342   6.069   4.010  0.2346  0.7482 -0.1045
22773SOL    HW169760   7.311   6.124   3.938 -0.4584  2.3754  1.3626
22773SOL    HW269761   7.281   5.995   4.012 -0.2082  1.0847 -0.7134
22774SOL     OW69762   1.684   5.397   0.669  0.5798  0.4823 -0.0312
22774SOL    HW169763   1.597   5.392   0.710  0.2012  0.4904 -0.8164
22774SOL    HW269764   1.710   5.306   0.655  1.2295  0.4382  1.2619
22775SOL     OW69765   4.446   3.966   1.421  0.7776 -0.2043 -0.6207
22775SOL    HW169766   4.365   3.915   1.422  0.2357  0.6072 -1.0453
22775SOL    HW269767   4.498   3.927   1.352  1.4976 -1.8072  0.7620
22776SOL     OW69768   6.020   7.918   9.003  0.2669 -0.4610  0.2051
22776SOL    HW169769   6.095   7.970   8.977  0.1970 -0.8986 -0.9308
22776SOL    HW269770   6.045   7.828   8.982  0.2327 -0.8588  1.7578
22777SOL     OW69771   6.151   3.016  10.498 -0.2636 -0.1509 -0.3615
22777SOL    HW169772   6.111   3.036  10.583 -0.5951 -0.5974 -0.4101
22777SOL    HW269773   6.233   3.065  10.498  0.8654 -1.9040  1.1684
22778SOL     OW69774   2.063   6.570   7.234  0.3238 -0.8007 -0.0918
22778SOL    HW169775   1.972   6.551   7.212  0.7284 -0.6397 -2.1090
22778SOL    HW269776   2.059   6.654   7.281 -0.5923 -1.0054  0.2171
22779SOL     OW69777   5.250   5.009   0.589  0.3109 -0.8368  0.0884
22779SOL    HW169778   5.234   4.922   0.627 -0.5934 -0.7644 -0.1055
22779SOL    HW269779   5.166   5.055   0.597  0.6528 -0.1376 -0.2251
22780SOL     OW69780   0.226   6.478   5.280 -0.3414 -0.6098 -0.8402
22780SOL    HW169781   0.201   6.403   5.226 -0.3813 -2.0939  1.1150
22780SOL    HW269782   0.157   6.483   5.347  1.2888 -0.8888  0.9625
22781SOL     OW69783   0.634   4.442   3.342  0.7511 -0.4888  0.2430
22781SOL    HW169784   0.666   4.459   3.431 -2.9894 -0.7797  1.8191
22781SOL    HW269785   0.636   4.527   3.299  1.8583 -0.1891  0.8304
22782SOL     OW69786   3.883   5.062  10.744 -0.3850 -0.1533  0.0274
22782SOL    HW169787   3.931   5.038  10.665  0.3296 -3.1961  1.2436
22782SOL    HW269788   3.939   5.127  10.787  1.2170 -1.3921 -0.0908
22783SOL     OW69789   5.036   3.126  11.580 -0.1316 -0.6887  0.4612
22783SOL    HW169790   5.034   3.170  11.665 -2.0596  0.5813 -0.1865
22783SOL    HW269791   5.008   3.036  11.599 -1.7647 -0.0807  1.0266
22784SOL     OW69792   4.480   0.788   9.906 -0.0839 -0.1404 -0.2533
22784SOL    HW169793   4.426   0.862   9.933 -2.4592 -1.1844 -1.7782
22784SOL    HW269794   4.457   0.718   9.966  0.7234 -0.1886  0.0066
22785SOL     OW69795   1.028   7.097   2.802  0.7013  0.2108  0.5810
22785SOL    HW169796   1.030   7.038   2.878 -1.0356 -1.5661 -0.6541
22785SOL    HW269797   1.097   7.064   2.744 -0.8464 -1.2872 -0.5061
22786SOL     OW69798   6.107   5.487  12.305  0.1332 -0.0207 -0.2854
22786SOL    HW169799   6.074   5.532  12.228  0.5929  0.4675 -0.2048
22786SOL    HW269800   6.164   5.418  12.270 -0.0520 -0.1200 -0.3920
22787SOL     OW69801   6.209   5.252   9.242 -0.5006 -0.2987 -0.2887
22787SOL    HW169802   6.178   5.303   9.317 -1.5168  0.4386 -1.1594
22787SOL    HW269803   6.133   5.199   9.217 -0.2105 -0.4609 -0.8400
22788SOL     OW69804   5.402   0.645   4.063 -0.4153 -0.9712  0.1521
22788SOL    HW169805   5.450   0.563   4.073  0.5182 -0.1525  3.2621
22788SOL    HW269806   5.371   0.667   4.151 -1.5189  1.5150 -0.7478
22789SOL     OW69807   6.365   1.485  12.290 -0.6855  0.6516  0.5848
22789SOL    HW169808   6.280   1.448  12.311 -0.3495 -0.7371 -0.3303
22789SOL    HW269809   6.387   1.448  12.204  0.0204  2.4347 -0.0562
22790SOL     OW69810   7.640   3.816   2.376 -0.4660 -0.1957  0.4981
22790SOL    HW169811   7.591   3.882   2.327  0.3259  0.5385  0.6539
22790SOL    HW269812   7.597   3.733   2.356 -0.7933  0.2282 -0.6113
22791SOL     OW69813   0.828   3.234   4.790 -0.0793 -0.4361 -0.0239
22791SOL    HW169814   0.794   3.204   4.705  1.6989  0.2942 -1.0626
22791SOL    HW269815   0.923   3.223   4.783  0.1352 -0.0698  1.7745
22792SOL     OW69816   6.860   2.689  11.133  0.1600 -0.4789 -0.2672
22792SOL    HW169817   6.804   2.614  11.115 -1.4649  1.1309 -2.5819
22792SOL    HW269818   6.819   2.762  11.086  1.5950  1.9232  1.8944
22793SOL     OW69819   6.067   4.143   4.535  0.1821 -0.1235 -0.0001
22793SOL    HW169820   6.078   4.135   4.630 -1.0179  1.3301  0.2961
22793SOL    HW269821   6.154   4.165   4.503  0.3297  0.7547  0.9533
22794SOL     OW69822   1.779   6.553   3.055 -0.2950  0.2720  0.2501
22794SOL    HW169823   1.692   6.583   3.082 -0.3836 -0.0757  0.3503
22794SOL    HW269824   1.784   6.463   3.086  0.2112  0.3817  0.4847
22795SOL     OW69825   7.555   3.749   1.357 -0.0283  0.2990  0.1738
22795SOL    HW169826   7.592   3.830   1.392 -0.3181  0.6956 -0.4306
22795SOL    HW269827   7.462   3.769   1.344 -0.2336 -0.3277  0.6104
22796SOL     OW69828   7.027   2.068  11.095 -0.0225  0.0475 -0.4746
22796SOL    HW169829   7.042   2.032  11.008  0.8941 -0.7305 -0.0181
22796SOL    HW269830   6.967   2.006  11.137  0.9333 -0.5615  0.0393
22797SOL     OW69831   7.148   2.473   0.811 -0.3207  0.2348  0.5176
22797SOL    HW169832   7.215   2.421   0.856 -0.1002 -0.2053 -0.3032
22797SOL    HW269833   7.127   2.422   0.733 -0.5876  1.0575  0.0412
22798SOL     OW69834   7.243   7.048   1.149  0.6059  0.0152  0.3978
22798SOL    HW169835   7.207   7.051   1.238 -1.7669  1.4196 -0.4986
22798SOL    HW269836   7.320   7.105   1.152 -0.3364  1.3119  1.2524
22799SOL     OW69837   4.468   6.177   6.488  0.1381  0.3877  0.8590
22799SOL    HW169838   4.515   6.101   6.521  0.5064  0.3329  0.2243
22799SOL    HW269839   4.432   6.220   6.566  2.0598  0.9917  1.4615
22800SOL     OW69840   1.214   4.364   7.731 -0.6771 -0.0451  0.3433
22800SOL    HW169841   1.239   4.303   7.800  0.5291  1.0431  0.9262
22800SOL    HW269842   1.220   4.314   7.650  1.3709 -0.4472  0.6959
22801SOL     OW69843   2.912   7.483   6.520 -0.3358  0.1847 -0.4721
22801SOL    HW169844   2.969   7.560   6.523 -0.5032  0.3087  1.7880
22801SOL    HW269845   2.953   7.421   6.581 -1.4798 -0.5478 -0.4150
22802SOL     OW69846   3.800   0.449  11.932  0.4133 -0.0079 -0.2008
22802SOL    HW169847   3.822   0.390  12.003  0.0122  0.8910  0.6909
22802SOL    HW269848   3.838   0.408  11.854  1.8353 -0.4472  0.6889
22803SOL     OW69849   7.668   2.890   9.656 -0.2401  0.2635 -0.5371
22803SOL    HW169850   7.747   2.939   9.681  0.5732 -0.9940 -0.5171
22803SOL    HW269851   7.640   2.928   9.573 -1.0788  2.3594  0.6316
22804SOL     OW69852   6.240   5.472   1.626  0.1192  0.9772  0.2320
22804SOL    HW169853   6.194   5.527   1.690  0.4135  1.5593 -0.0498
22804SOL    HW269854   6.276   5.400   1.678 -1.0778  0.5190  0.4676
22805SOL     OW69855   2.275   7.518   5.227  0.4728  0.5705 -0.0569
22805SOL    HW169856   2.283   7.510   5.322 -1.1001  1.5096  0.2017
22805SOL    HW269857   2.293   7.610   5.208 -0.4125  0.6756 -0.4877
22806SOL     OW69858   7.471   5.573   9.029  0.2029 -0.1039  0.3929
22806SOL    HW169859   7.494   5.610   9.114 -1.8739 -0.4767  1.1861
22806SOL    HW269860   7.379   5.598   9.016  1.0192  1.7154 -2.7313
22807SOL     OW69861   5.211   0.811   7.187  0.1534  0.1550 -0.3242
22807SOL    HW169862   5.294   0.791   7.231 -0.2681 -0.8639  0.0320
22807SOL    HW269863   5.215   0.905   7.171  1.3439  0.1405 -0.2374
22808SOL     OW69864   7.329   1.660   8.820 -0.0977 -0.5049  0.5692
22808SOL    HW169865   7.350   1.727   8.756 -0.1403 -0.8273  0.2110
22808SOL    HW269866   7.413   1.632   8.855  0.0424 -1.2135 -0.2668
22809SOL     OW69867   1.667   2.321   0.409  0.0504 -0.0804 -0.1696
22809SOL    HW169868   1.653   2.406   0.367 -1.3293  0.6970  1.7346
22809SOL    HW269869   1.760   2.303   0.394 -0.1467  0.5885 -2.6311
22810SOL     OW69870   4.339   6.357   9.594 -0.1617 -0.4383 -0.0789
22810SOL    HW169871   4.265   6.381   9.649  1.5557  0.6005  1.9279
22810SOL    HW269872   4.358   6.266   9.619 -1.6168 -1.2674 -1.7285
22811SOL     OW69873   1.253   2.828  10.983 -0.2002  0.1464  0.4400
22811SOL    HW169874   1.229   2.736  10.996  2.0407 -0.3986  1.2352
22811SOL    HW269875   1.249   2.865  11.071 -2.2742  1.1761 -0.0428
22812SOL     OW69876   2.002   2.967   0.375  0.4534  0.2955 -0.1732
22812SOL    HW169877   2.067   2.915   0.328 -1.3439 -0.0662 -2.4066
22812SOL    HW269878   2.053   3.037   0.417  2.4456 -1.0060 -0.3011
22813SOL     OW69879   1.510   7.068   3.584 -0.3910 -0.6772  0.6969
22813SOL    HW169880   1.551   7.062   3.498 -2.3111  1.6785 -0.5115
22813SOL    HW269881   1.456   6.990   3.590 -1.7037  0.0214 -1.1476
22814SOL     OW69882   0.234   3.343   8.612  0.4263  0.7296 -0.0412
22814SOL    HW169883   0.202   3.295   8.535  1.4127  0.3355 -0.2239
22814SOL    HW269884   0.246   3.433   8.581 -0.7188  0.9450  0.1001
22815SOL     OW69885   4.481   0.647  10.359 -0.4208 -0.0426  0.2192
22815SOL    HW169886   4.494   0.736  10.392 -0.8796 -0.1555  0.7184
22815SOL    HW269887   4.509   0.590  10.430  1.2985 -0.3366 -0.6378
22816SOL     OW69888   1.968   0.190  10.177  0.1805 -0.4437  0.8425
22816SOL    HW169889   2.003   0.223  10.095  0.2137 -2.7198 -0.1320
22816SOL    HW269890   1.873   0.197  10.168  0.1560 -1.2937  0.2953
22817SOL     OW69891   3.587   0.822   0.856 -0.1692 -1.1215 -0.4827
22817SOL    HW169892   3.666   0.813   0.803 -0.7582  0.5702 -1.7562
22817SOL    HW269893   3.519   0.776   0.806 -0.5579 -0.1963 -0.8350
22818SOL     OW69894   2.109   3.884  12.189  0.4952 -0.2703  0.0444
22818SOL    HW169895   2.042   3.845  12.245  0.2597  1.2097  0.8585
22818SOL    HW269896   2.188   3.833  12.207 -0.3868 -2.1233 -1.0249
22819SOL     OW69897   0.281   7.861   5.821 -0.3922  0.0639  0.7476
22819SOL    HW169898   0.329   7.874   5.739 -0.5709  0.2741  0.6779
22819SOL    HW269899   0.318   7.780   5.857  0.5442  0.6260  1.0671
22820SOL     OW69900   6.496   5.511   5.286 -0.4848 -0.7310 -0.1261
22820SOL    HW169901   6.541   5.435   5.248  0.3294 -1.1792  1.6421
22820SOL    HW269902   6.565   5.562   5.328 -1.2855 -0.0110  0.3464
22821SOL     OW69903   1.646   4.662  11.535  0.2171 -0.3061 -0.1333
22821SOL    HW169904   1.560   4.671  11.494  0.1958 -1.9309 -0.4926
22821SOL    HW269905   1.627   4.638  11.626  0.2628 -2.1037 -0.5690
22822SOL     OW69906   2.970   2.795   1.711  0.1934 -0.4741  0.1688
22822SOL    HW169907   3.045   2.744   1.743  0.5269 -1.3064 -1.8311
22822SOL    HW269908   3.007   2.855   1.647 -0.3800  1.6060  1.6720
22823SOL     OW69909   4.658   5.478   0.219 -0.3885  0.4383  0.3852
22823SOL    HW169910   4.574   5.521   0.236 -2.0631 -2.3433 -0.1854
22823SOL    HW269911   4.651   5.394   0.264  2.8221  0.7281  1.6753
22824SOL     OW69912   6.739   5.301   2.845 -0.4585 -0.1865  0.2780
22824SOL    HW169913   6.813   5.292   2.905 -0.3882  0.4379  0.2968
22824SOL    HW269914   6.730   5.215   2.805  1.5301  0.2247 -1.1879
22825SOL     OW69915   1.600   5.320   9.599 -0.2092 -0.3412 -0.8455
22825SOL    HW169916   1.648   5.237   9.607 -0.6299 -0.5980 -0.9497
22825SOL    HW269917   1.542   5.321   9.674 -2.1467 -1.4350 -2.2364
22826SOL     OW69918   6.865   5.584   6.053 -0.0497  0.5468 -0.1726
22826SOL    HW169919   6.878   5.648   5.983  0.1923  0.2587 -0.3903
22826SOL    HW269920   6.834   5.506   6.008  1.0070  0.0577 -0.0601
22827SOL     OW69921   6.577   0.370  10.001 -0.1915 -0.3319  0.1427
22827SOL    HW169922   6.605   0.387  10.090 -0.0379 -1.4149  0.3111
22827SOL    HW269923   6.483   0.387  10.002 -0.2646 -0.7514  0.6165
22828SOL     OW69924   1.294   4.577   9.920  0.5143 -0.5161  0.2389
22828SOL    HW169925   1.241   4.657   9.919  0.8398 -0.2799  1.4630
22828SOL    HW269926   1.232   4.508   9.896 -0.3788 -0.2372  1.6156
22829SOL     OW69927   1.017   6.152  10.849 -0.0461 -0.8669 -0.4242
22829SOL    HW169928   1.049   6.232  10.808  2.6404 -1.5453  0.1328
22829SOL    HW269929   1.096   6.101  10.865 -1.4898 -2.7526  1.0993
22830SOL     OW69930   4.796   4.734   2.579 -0.6203  0.8110  0.3687
22830SOL    HW169931   4.862   4.801   2.560 -1.6127  1.8901  0.5683
22830SOL    HW269932   4.813   4.664   2.517 -0.5262  1.9487 -0.9445
22831SOL     OW69933   1.487   0.979   6.895 -0.3210 -0.3992  0.2810
22831SOL    HW169934   1.493   1.060   6.946  1.2499 -1.1225  1.3460
22831SOL    HW269935   1.401   0.982   6.855  0.0915  2.2859 -0.5835
22832SOL     OW69936   4.549   4.256   8.776  0.4224  0.3722 -0.0238
22832SOL    HW169937   4.600   4.226   8.851  0.7094 -3.8009 -1.6267
22832SOL    HW269938   4.465   4.211   8.784 -1.9168  4.4277  0.7201
22833SOL     OW69939   5.329   6.448   7.327  0.0396 -0.1795 -0.3088
22833SOL    HW169940   5.353   6.521   7.270 -1.3872  0.4143 -0.1859
22833SOL    HW269941   5.337   6.483   7.416  1.0771 -0.7414 -0.1536
22834SOL     OW69942   5.914   5.565   6.316  0.2842  0.2534  0.4760
22834SOL    HW169943   5.890   5.506   6.245  0.0238 -0.9580  1.5302
22834SOL    HW269944   5.831   5.584   6.360  0.5224  0.4534  0.8441
22835SOL     OW69945   2.933   0.572   1.353 -0.0506 -0.0490 -0.2562
22835SOL    HW169946   2.958   0.631   1.423 -1.6761 -0.8108  1.0235
22835SOL    HW269947   2.912   0.629   1.279  1.5109  0.7664 -0.0917
22836SOL     OW69948   4.464   5.588   8.782 -0.3109 -0.2192 -0.0340
22836SOL    HW169949   4.467   5.560   8.873 -2.0456 -0.9936 -0.1642
22836SOL    HW269950   4.449   5.507   8.732  0.9977  0.1322 -1.0605
22837SOL     OW69951   0.461   2.370   8.387 -0.0566  0.1981 -0.6947
22837SOL    HW169952   0.396   2.324   8.335  0.1172  0.4930 -1.1771
22837SOL    HW269953   0.539   2.374   8.332 -0.5764  2.5778 -1.4005
22838SOL     OW69954   2.693   2.433   1.481  0.1811  0.1651  0.8797
22838SOL    HW169955   2.672   2.509   1.427 -1.4926  0.7900  2.3335
22838SOL    HW269956   2.744   2.468   1.554 -0.7095 -0.0612  1.6274
22839SOL     OW69957   6.653   3.644   7.414  1.0446  0.3575 -0.6042
22839SOL    HW169958   6.679   3.555   7.439 -0.1832  0.6423  2.0549
22839SOL    HW269959   6.597   3.633   7.338 -2.0621 -1.6361  1.7256
22840SOL     OW69960   4.889   2.661   2.687  0.1784  0.0771  0.1809
22840SOL    HW169961   4.862   2.640   2.776 -0.3215  0.0764  0.0300
22840SOL    HW269962   4.919   2.752   2.692  2.1023 -0.5273  0.7799
22841SOL     OW69963   2.343   1.063   6.781 -0.7695 -0.6923 -0.3456
22841SOL    HW169964   2.288   1.092   6.854  1.1056 -1.9481  1.6994
22841SOL    HW269965   2.381   1.144   6.746 -0.9523 -0.1477  0.6872
22842SOL     OW69966   7.681   4.323   8.291  0.1474  0.1816  0.0783
22842SOL    HW169967   7.659   4.400   8.239 -0.6067 -0.3610 -0.4176
22842SOL    HW269968   7.619   4.256   8.263  0.0460 -0.2778  1.3135
22843SOL     OW69969   0.602   3.353  12.359  0.0968 -0.1916 -0.6044
22843SOL    HW169970   0.656   3.431  12.369  1.1800 -0.8474 -1.1025
22843SOL    HW269971   0.513   3.386  12.350  0.5083  0.9715 -0.5723
22844SOL     OW69972   2.646   6.884   4.107  0.2839  0.2084  0.2458
22844SOL    HW169973   2.614   6.901   4.018  0.5496 -1.3699 -0.1770
22844SOL    HW269974   2.736   6.854   4.095 -0.2456 -1.7517  0.8734
22845SOL     OW69975   0.506   0.668   0.681 -0.3323 -0.2348 -0.1066
22845SOL    HW169976   0.513   0.734   0.750 -0.8042  0.5751 -0.8112
22845SOL    HW269977   0.420   0.683   0.643 -0.6944 -1.6716  0.1165
22846SOL     OW69978   0.042   2.574   4.424 -0.2919  0.3745 -0.1515
22846SOL    HW169979   0.122   2.557   4.475 -1.1271  1.2503  1.5359
22846SOL    HW269980  -0.027   2.530   4.473 -1.0468  0.6810 -0.9221
22847SOL     OW69981   4.686   3.186   3.016 -0.0251 -0.4712 -0.3946
22847SOL    HW169982   4.760   3.236   2.981 -0.8702  1.4287  0.4225
22847SOL    HW269983   4.635   3.162   2.938  0.0016  0.6059 -0.7607
22848SOL     OW69984   6.094   0.665   7.555  0.1594  0.4082  0.4143
22848SOL    HW169985   6.060   0.728   7.492 -0.3541 -0.1558  0.1133
22848SOL    HW269986   6.173   0.706   7.590  0.1167  0.9885 -0.1497
22849SOL     OW69987   1.261   5.320   5.340 -0.1299 -0.0351  0.1892
22849SOL    HW169988   1.237   5.253   5.276  2.3495 -1.0195  0.1915
22849SOL    HW269989   1.354   5.304   5.358  0.6570  3.6355 -0.0242
22850SOL     OW69990   0.421   3.357   1.211 -0.2511  0.0412  0.4121
22850SOL    HW169991   0.463   3.420   1.270 -0.0997 -0.7229  1.1507
22850SOL    HW269992   0.411   3.278   1.265  0.1752 -0.7783 -0.6755
22851SOL     OW69993   7.115   4.085   8.591  0.1231 -0.4979  0.5697
22851SOL    HW169994   7.185   4.028   8.559  0.9933  0.0617  1.4154
22851SOL    HW269995   7.108   4.154   8.525  1.3151  0.1830  1.1247
22852SOL     OW69996   7.034   4.860   3.280  0.3376  0.1610 -0.3695
22852SOL    HW169997   7.095   4.833   3.211  0.4986  1.6809 -0.8609
22852SOL    HW269998   7.089   4.873   3.357  0.2286 -1.0544 -0.0676
22853SOL     OW69999   6.686   6.771   6.690  0.3408 -0.2008  0.3404
22853SOL    HW170000   6.618   6.715   6.728  0.7280  0.0373  1.3912
22853SOL    HW270001   6.644   6.810   6.613 -0.2983 -1.0373  0.2515
22854SOL     OW70002   7.949   2.626   3.978  0.1506 -0.1875 -0.2936
22854SOL    HW170003   7.871   2.659   4.022  0.6364  1.8554 -0.8740
22854SOL    HW270004   7.924   2.620   3.886  0.3658 -0.5092 -0.3332
22855SOL     OW70005   0.649   3.928  11.962 -0.1152 -0.3328 -0.4488
22855SOL    HW170006   0.666   4.022  11.956 -0.8017 -0.2120 -0.5633
22855SOL    HW270007   0.734   3.887  11.945  0.3672  0.2753  0.4441
22856SOL     OW70008   5.076   4.850   8.002  0.1407 -0.3005 -0.2404
22856SOL    HW170009   5.143   4.842   8.070 -0.1074  0.5495  0.1228
22856SOL    HW270010   5.039   4.762   7.994  0.4966 -0.5131  0.3960
22857SOL     OW70011   5.322   0.327   9.920 -0.5155  0.2230 -1.0096
22857SOL    HW170012   5.302   0.292   9.833 -0.0141 -0.5788 -0.8056
22857SOL    HW270013   5.387   0.396   9.904  2.7669 -2.6176 -0.9732
22858SOL     OW70014   3.656   1.360   1.412 -0.1453  0.2396 -0.2722
22858SOL    HW170015   3.662   1.379   1.506  0.5114 -0.0879 -0.2443
22858SOL    HW270016   3.702   1.277   1.401  1.9049  1.4383 -1.2253
22859SOL     OW70017   7.916   4.322   4.950 -0.3713 -0.4791 -0.3205
22859SOL    HW170018   7.990   4.262   4.959  0.4959  0.6222  0.2140
22859SOL    HW270019   7.844   4.280   4.996 -0.0650 -1.5508 -0.8078
22860SOL     OW70020   3.185   7.948   3.088  0.1617  0.2777 -0.1790
22860SOL    HW170021   3.155   7.978   3.173 -0.2917 -2.3545  0.6715
22860SOL    HW270022   3.276   7.977   3.083 -0.0118  1.0612  0.8729
22861SOL     OW70023   0.177   5.803   8.736 -0.2991 -0.1405 -0.0910
22861SOL    HW170024   0.208   5.870   8.797 -1.4906 -0.1287  0.5207
22861SOL    HW270025   0.125   5.851   8.672  0.5814 -0.2145 -0.8878
22862SOL     OW70026   6.375   4.880   8.078 -0.2090 -0.4921  0.7204
22862SOL    HW170027   6.312   4.876   8.150 -1.7678  0.0308 -0.5386
22862SOL    HW270028   6.363   4.967   8.041  2.5131  0.2874  1.4573
22863SOL     OW70029   3.063   7.792   1.928  0.2109 -0.5298  0.2816
22863SOL    HW170030   3.027   7.835   2.006 -0.3082  1.1169 -0.8117
22863SOL    HW270031   3.157   7.808   1.933 -0.0157  1.2215 -0.3395
22864SOL     OW70032   3.266   0.543   4.220  0.0563 -0.3342  0.1710
22864SOL    HW170033   3.197   0.536   4.154 -1.6569 -2.5118  2.0074
22864SOL    HW270034   3.334   0.482   4.191 -0.2441 -0.5632 -0.0606
22865SOL     OW70035   1.321   2.748   2.034  0.1899 -0.4555  0.2435
22865SOL    HW170036   1.380   2.756   2.110 -0.0100 -0.1102  0.3645
22865SOL    HW270037   1.265   2.673   2.055  0.6556 -0.8540  0.0788
22866SOL     OW70038   4.066   6.531   6.958  0.4734  0.5600  0.0424
22866SOL    HW170039   4.038   6.469   6.891 -0.7022 -0.4227  1.3919
22866SOL    HW270040   3.996   6.596   6.962  0.0797  0.0938  0.9497
22867SOL     OW70041   5.527   0.485  11.471 -0.0853  0.0167  0.1983
22867SOL    HW170042   5.480   0.568  11.471  0.5567  0.4090  1.5192
22867SOL    HW270043   5.605   0.501  11.523 -0.0898 -1.4969  0.7312
22868SOL     OW70044   2.233   5.406   8.567  0.0583 -0.4806 -0.5033
22868SOL    HW170045   2.259   5.345   8.635  0.1544 -0.0235 -0.1226
22868SOL    HW270046   2.141   5.386   8.550  0.3102 -1.2659 -0.9595
22869SOL     OW70047   3.843   1.679   6.110 -0.7664  0.1679 -0.1259
22869SOL    HW170048   3.782   1.751   6.094 -2.2385 -0.1665  3.2301
22869SOL    HW270049   3.795   1.600   6.083 -0.8141  0.1056  0.1418
22870SOL     OW70050   5.289   3.619  11.147 -0.2085 -0.0232  0.5233
22870SOL    HW170051   5.217   3.600  11.208 -0.8844 -2.0310 -0.7999
22870SOL    HW270052   5.338   3.537  11.142  1.3077  0.8632  0.2200
22871SOL     OW70053   4.648   5.911   7.202  0.0471 -0.5183 -0.0495
22871SOL    HW170054   4.570   5.860   7.181 -0.8099  0.8196 -0.2184
22871SOL    HW270055   4.714   5.879   7.140 -1.3133  0.6041 -2.1984
22872SOL     OW70056   5.212   2.009   7.685 -0.1920  0.5548 -0.2576
22872SOL    HW170057   5.184   1.938   7.627  0.9492  0.3062 -0.5305
22872SOL    HW270058   5.287   2.048   7.640  1.5193 -0.4290  1.5795
22873SOL     OW70059   3.515   2.963   2.774 -0.3555  0.2227 -0.0302
22873SOL    HW170060   3.546   2.957   2.864 -0.6144 -1.3976 -0.0240
22873SOL    HW270061   3.571   3.031   2.734 -0.4481  1.1828  1.3964
22874SOL     OW70062   1.234   4.590   5.713 -0.2295 -0.0057 -0.6944
22874SOL    HW170063   1.251   4.683   5.697  1.2127 -0.3661 -1.4335
22874SOL    HW270064   1.317   4.547   5.693 -1.0194 -1.5152 -0.8502
22875SOL     OW70065   3.935   5.566   2.952 -0.3885  0.7571  0.8788
22875SOL    HW170066   3.972   5.653   2.968 -0.8400  0.9409  0.9437
22875SOL    HW270067   3.996   5.506   2.995  0.0050  1.0300  0.7080
22876SOL     OW70068   0.002   6.613   1.194  0.6555  0.4050 -0.4324
22876SOL    HW170069  -0.003   6.698   1.239 -0.2081 -0.3787  1.0277
22876SOL    HW270070   0.096   6.596   1.186  0.8595  0.1676  1.9378
22877SOL     OW70071   5.103   3.748   2.173  0.1038 -0.4596 -0.6585
22877SOL    HW170072   5.121   3.654   2.169 -1.5260 -0.9005  0.9127
22877SOL    HW270073   5.062   3.768   2.089  0.3959 -1.1471 -0.9770
22878SOL     OW70074   0.676   6.883   8.737  0.1796 -0.3113  0.5388
22878SOL    HW170075   0.754   6.926   8.703  1.0331 -1.2756  1.2005
22878SOL    HW270076   0.603   6.935   8.704  1.1345  1.2128  0.7437
22879SOL     OW70077   4.718   3.461   1.924 -0.1138 -0.0578  0.5888
22879SOL    HW170078   4.701   3.555   1.932 -2.8363 -0.3273 -0.6336
22879SOL    HW270079   4.777   3.453   1.850  0.0375  0.6956  0.6271
22880SOL     OW70080   6.064   1.706   8.690  0.5289 -0.4275 -0.2092
22880SOL    HW170081   6.014   1.696   8.771  1.5456 -1.1160  0.3579
22880SOL    HW270082   5.999   1.695   8.620 -0.4795  0.8695  0.4870
22881SOL     OW70083   0.525   2.778   7.601  0.0849  0.7451 -0.1225
22881SOL    HW170084   0.566   2.851   7.556  0.6284 -0.1939 -1.2310
22881SOL    HW270085   0.439   2.770   7.559  0.2045  0.4768 -0.3204
22882SOL     OW70086   7.299   4.256   7.487 -0.6141  0.1901 -0.0054
22882SOL    HW170087   7.231   4.254   7.554 -3.2321 -0.7077 -2.5028
22882SOL    HW270088   7.323   4.164   7.475  0.2007  0.3940  0.0057
22883SOL     OW70089   3.044   4.131  11.372  0.0922 -0.5359 -0.0169
22883SOL    HW170090   3.003   4.055  11.413  1.3762  0.0404  2.5327
22883SOL    HW270091   3.126   4.098  11.336 -0.4516 -0.7866 -1.0744
22884SOL     OW70092   6.969   0.680   7.257  0.1889  0.0699 -0.0578
22884SOL    HW170093   7.007   0.665   7.344 -3.5680 -0.4143  1.6859
22884SOL    HW270094   6.945   0.772   7.257 -2.3184 -0.5041  0.6621
22885SOL     OW70095   3.742   2.606   9.288  0.6840  0.0805  0.6598
22885SOL    HW170096   3.757   2.621   9.195  1.9378 -2.3186  0.3788
22885SOL    HW270097   3.693   2.682   9.318 -0.5603  0.4954 -2.1422
22886SOL     OW70098   3.791   6.772   0.358 -0.3492 -0.0917  0.4708
22886SOL    HW170099   3.738   6.849   0.380 -0.2061 -0.0899  0.8263
22886SOL    HW270100   3.728   6.701   0.354 -0.7225  0.3041 -1.4526
22887SOL     OW70101   2.617   2.142   6.558 -0.0453 -0.2110  0.2272
22887SOL    HW170102   2.562   2.082   6.507 -0.6033 -0.4070  1.0298
22887SOL    HW270103   2.707   2.118   6.535 -0.2504  0.8615 -1.9707
22888SOL     OW70104   3.228   4.311   3.031 -0.0447 -0.1106 -0.2683
22888SOL    HW170105   3.189   4.224   3.035  0.2605 -0.2865 -1.0058
22888SOL    HW270106   3.304   4.306   3.088 -0.4049 -0.1244  0.2184
22889SOL     OW70107   7.551   3.290   3.934  0.0809 -0.8342 -0.5029
22889SOL    HW170108   7.464   3.268   3.902 -0.0018  1.0434 -1.6977
22889SOL    HW270109   7.608   3.283   3.857 -0.1361  3.8622 -1.3855
22890SOL     OW70110   0.417   7.939   3.481  0.5989  0.4514 -0.0585
22890SOL    HW170111   0.389   8.020   3.523  0.7666  0.0619  0.8220
22890SOL    HW270112   0.361   7.931   3.404 -0.3708  0.6974  0.5975
22891SOL     OW70113   2.275   3.235   8.586  0.1184  0.1667  0.7902
22891SOL    HW170114   2.317   3.295   8.648 -1.4776  0.3403  1.7419
22891SOL    HW270115   2.207   3.191   8.636  0.8306 -2.0356 -0.0453
22892SOL     OW70116   6.743   2.359   0.625 -0.0940 -0.2978  0.5074
22892SOL    HW170117   6.721   2.415   0.551 -0.6305 -1.2843 -0.1135
22892SOL    HW270118   6.712   2.406   0.702 -0.9659  0.0460 -0.0396
22893SOL     OW70119   6.836   1.379   7.447  0.0730  0.0945  0.9666
22893SOL    HW170120   6.828   1.471   7.421 -0.2219  0.2036  1.4281
22893SOL    HW270121   6.906   1.345   7.392 -0.1242  0.4770  0.4701
22894SOL     OW70122   2.817   7.598  10.739  0.4868 -0.1376 -0.6814
22894SOL    HW170123   2.847   7.593  10.648  2.7839  1.1329 -0.0685
22894SOL    HW270124   2.729   7.636  10.734  0.8582  0.5846 -2.3314
22895SOL     OW70125   5.318   4.056   1.491 -0.6546  0.0346 -0.5255
22895SOL    HW170126   5.406   4.064   1.527 -0.7763  1.9253 -0.5736
22895SOL    HW270127   5.272   3.998   1.552 -0.0880  1.0538  0.9332
22896SOL     OW70128   6.056   6.558  10.182  0.1660 -0.0280  0.7032
22896SOL    HW170129   5.988   6.570  10.249  0.5185  0.4580  0.9805
22896SOL    HW270130   6.137   6.587  10.225  0.4333  0.0550  0.1449
22897SOL     OW70131   6.450   2.244   6.316  0.2948 -0.1617  0.2299
22897SOL    HW170132   6.494   2.159   6.306  0.8611  0.1568 -0.0773
22897SOL    HW270133   6.432   2.252   6.409 -2.4891 -1.9448 -0.0514
22898SOL     OW70134   1.249   2.792   6.924 -0.0242  0.6413  0.5667
22898SOL    HW170135   1.206   2.715   6.887  0.8078  0.1721  0.5658
22898SOL    HW270136   1.249   2.776   7.018  1.4291 -0.0480  0.4676
22899SOL     OW70137   5.468   2.706   7.426  0.4893 -0.3357  0.1350
22899SOL    HW170138   5.400   2.645   7.397  0.1989 -1.1245  2.2626
22899SOL    HW270139   5.421   2.787   7.444 -0.1495 -1.1251  2.4238
22900SOL     OW70140   6.322   3.519   9.885  0.1799 -0.1334  0.0835
22900SOL    HW170141   6.397   3.574   9.862  0.2885 -0.9721 -1.7242
22900SOL    HW270142   6.269   3.515   9.805 -0.3848 -1.7716  0.5013
22901SOL     OW70143   6.900   6.383   0.597  0.1735  0.0081 -0.2219
22901SOL    HW170144   6.850   6.307   0.626 -2.6248  1.8471  0.1437
22901SOL    HW270145   6.915   6.368   0.504  1.2912 -1.7830  0.1997
22902SOL     OW70146   0.296   6.412   4.918 -0.2414 -0.0102 -0.3833
22902SOL    HW170147   0.276   6.354   4.845  0.9515 -4.0702  2.1828
22902SOL    HW270148   0.293   6.356   4.995  1.8359  3.2232  2.3505
22903SOL     OW70149   2.539   6.409   4.433 -0.1536 -0.3094  0.2210
22903SOL    HW170150   2.629   6.437   4.418 -0.1706  0.0440  0.7497
22903SOL    HW270151   2.543   6.314   4.435  0.5638 -0.2690  2.3273
22904SOL     OW70152   7.255   5.132   9.769 -0.0760  0.0925 -0.1355
22904SOL    HW170153   7.232   5.047   9.732 -2.6756  0.2355  0.9567
22904SOL    HW270154   7.238   5.194   9.698  0.6985 -0.1632 -0.5585
22905SOL     OW70155   3.221   7.013   2.621 -0.3211  0.0944 -0.1107
22905SOL    HW170156   3.211   7.089   2.564  0.1033  0.3037  0.0869
22905SOL    HW270157   3.219   7.049   2.710  1.4496  0.0941 -0.0363
22906SOL     OW70158   7.627   6.161   1.345  0.1102  0.2501  0.6414
22906SOL    HW170159   7.698   6.220   1.371  0.0161  1.4237 -1.5194
22906SOL    HW270160   7.672   6.085   1.307  0.2133 -0.0063  1.2677
22907SOL     OW70161   7.705   3.246  11.156  0.3069 -0.1591 -0.1249
22907SOL    HW170162   7.635   3.298  11.116 -0.7086 -2.5072 -1.6210
22907SOL    HW270163   7.771   3.311  11.181 -1.9802  2.1019  0.6097
22908SOL     OW70164   1.849   4.327  11.843  0.3662 -0.4192 -0.0481
22908SOL    HW170165   1.925   4.280  11.807  0.6552 -0.4971  0.6394
22908SOL    HW270166   1.796   4.349  11.766  0.7032 -1.0316 -0.4733
22909SOL     OW70167   3.276   6.668   6.175 -0.6207  0.2688  0.0462
22909SOL    HW170168   3.300   6.704   6.090  1.4737  0.5201  0.6851
22909SOL    HW270169   3.254   6.576   6.158 -1.3001  0.5986 -0.8973
22910SOL     OW70170   4.775   1.531   5.716  0.3694  0.1784  0.4480
22910SOL    HW170171   4.829   1.540   5.638  0.1555 -0.3053  0.2397
22910SOL    HW270172   4.701   1.478   5.688 -1.1010  2.1673  0.2791
22911SOL     OW70173   2.697   6.343   0.793  0.0502  0.6690 -0.6185
22911SOL    HW170174   2.668   6.259   0.829  0.2116  0.0390 -1.9093
22911SOL    HW270175   2.764   6.373   0.854 -1.1631  0.6846  0.7595
22912SOL     OW70176   5.219   5.168   7.542 -0.0858 -0.0614  0.0615
22912SOL    HW170177   5.296   5.128   7.501  1.4773 -1.2394  3.7074
22912SOL    HW270178   5.176   5.095   7.589 -0.2050  1.4877  2.5506
22913SOL     OW70179   6.012   4.116  11.808  0.1323 -0.1476  0.9424
22913SOL    HW170180   6.028   4.161  11.726  1.9969  0.0598  1.3701
22913SOL    HW270181   5.933   4.064  11.793  0.3730 -0.0140 -0.9220
22914SOL     OW70182   6.030   4.736   0.486  0.0319  0.4167  0.2934
22914SOL    HW170183   5.977   4.672   0.535  1.3313 -3.0279 -2.3881
22914SOL    HW270184   5.986   4.742   0.401  2.2057 -0.2684 -0.9565
22915SOL     OW70185   3.135   5.537   8.769  0.7767  0.0302 -0.3765
22915SOL    HW170186   3.066   5.602   8.761 -0.4880 -1.0454  1.1153
22915SOL    HW270187   3.216   5.588   8.769 -0.0988  1.4684 -0.5473
22916SOL     OW70188   6.346   4.345   5.239 -0.2889 -0.1033  0.1484
22916SOL    HW170189   6.357   4.285   5.312  2.2151  2.2124  1.8769
22916SOL    HW270190   6.436   4.365   5.211 -1.1309  0.1179 -2.7465
22917SOL     OW70191   6.367   4.726   0.177 -0.6931  0.8870 -0.6042
22917SOL    HW170192   6.336   4.785   0.109  1.7865  1.0700 -1.6883
22917SOL    HW270193   6.438   4.773   0.220  0.4966 -0.7757 -0.6442
22918SOL     OW70194   7.609   7.303   0.264 -0.2628 -0.7285  0.0421
22918SOL    HW170195   7.543   7.277   0.329  0.1623 -0.0273  0.7671
22918SOL    HW270196   7.598   7.240   0.193  0.6961 -2.8758  1.6953
22919SOL     OW70197   0.419   3.703   3.276 -0.6944 -0.1700 -0.1523
22919SOL    HW170198   0.514   3.713   3.280 -0.7727  0.3697  0.3928
22919SOL    HW270199   0.405   3.608   3.283 -0.1192 -0.4400 -1.9796
22920SOL     OW70200   1.193   4.228   0.162 -0.7497  0.0905 -0.0904
22920SOL    HW170201   1.223   4.260   0.247 -0.5624  0.4780 -0.3009
22920SOL    HW270202   1.269   4.184   0.124 -0.3437  1.2937 -0.7340
22921SOL     OW70203   4.667   0.187   1.303  0.5101  0.3813  0.0954
22921SOL    HW170204   4.655   0.266   1.250 -0.7823  0.8256  0.9793
22921SOL    HW270205   4.753   0.153   1.278  1.1745  2.1735 -0.1671
22922SOL     OW70206   6.376   1.757   3.940  0.3652  0.4765 -0.2039
22922SOL    HW170207   6.298   1.702   3.928  0.7882 -0.3910  0.7899
22922SOL    HW270208   6.399   1.785   3.852 -0.4105 -0.2004 -0.6422
22923SOL     OW70209   7.846   3.865   9.550  1.0181  0.5073 -0.1981
22923SOL    HW170210   7.774   3.806   9.527  1.0237 -0.1404  1.3457
22923SOL    HW270211   7.824   3.897   9.637  0.7429  3.2757 -1.1861
22924SOL     OW70212   4.695   3.892   6.559  0.2790 -0.3540  0.6272
22924SOL    HW170213   4.736   3.806   6.570  1.0321 -0.0717  0.1409
22924SOL    HW270214   4.677   3.898   6.465  0.2226  0.0143  0.6603
22925SOL     OW70215   2.154   4.137   1.341  0.1312  0.5301 -0.6172
22925SOL    HW170216   2.168   4.057   1.290 -0.0140 -1.1754  1.8384
22925SOL    HW270217   2.072   4.122   1.388  1.2160  1.0821  1.6140
22926SOL     OW70218   3.260   1.020   9.668  0.5469 -0.3725  0.3130
22926SOL    HW170219   3.266   1.115   9.675 -3.5847  0.1515 -0.9120
22926SOL    HW270220   3.228   0.990   9.753  0.2586 -0.4707  0.1713
22927SOL     OW70221   2.670   2.590  11.583  0.2794  0.0670  0.1102
22927SOL    HW170222   2.593   2.534  11.581  0.5351 -0.4546  2.6009
22927SOL    HW270223   2.739   2.536  11.621  1.0494  1.4776  0.8061
22928SOL     OW70224   0.912   6.084   6.302  0.4813  0.8276  0.0162
22928SOL    HW170225   0.928   5.995   6.335  0.4224  0.2583 -1.4088
22928SOL    HW270226   0.832   6.076   6.251 -1.1303  2.3538  2.1508
22929SOL     OW70227   5.810   7.281   4.285 -1.0014  0.3357  0.0473
22929SOL    HW170228   5.879   7.266   4.351 -0.6570  0.8195 -0.2049
22929SOL    HW270229   5.785   7.372   4.296  0.4281  0.9991 -1.7846
22930SOL     OW70230   1.641   2.678  10.574 -0.2072  0.2710 -0.0553
22930SOL    HW170231   1.652   2.704  10.666  0.4702  0.4497 -0.1828
22930SOL    HW270232   1.626   2.760  10.528 -1.7518  0.0752  0.0488
22931SOL     OW70233   6.442   6.372  12.368 -0.1422  0.2706  0.1428
22931SOL    HW170234   6.503   6.347  12.437 -1.5689 -0.3342  1.2174
22931SOL    HW270235   6.355   6.352  12.403 -0.8840 -1.2011 -2.2492
22932SOL     OW70236   3.256   2.678   9.835  0.5873  0.5049 -0.8331
22932SOL    HW170237   3.255   2.742   9.764 -0.4938  1.6818  0.1982
22932SOL    HW270238   3.165   2.670   9.862  0.9671  0.0411  0.3885
22933SOL     OW70239   6.864   1.621   3.176  0.8248  0.4488 -0.1452
22933SOL    HW170240   6.914   1.634   3.257 -1.3050 -0.5122  1.4454
22933SOL    HW270241   6.844   1.527   3.176 -0.7163  0.7504 -0.8358
22934SOL     OW70242   3.997   5.700   0.321  0.0377 -0.2298  0.2323
22934SOL    HW170243   3.907   5.680   0.295 -0.0525 -1.8002  1.5146
22934SOL    HW270244   4.044   5.715   0.239 -0.8560 -1.9185 -0.6393
22935SOL     OW70245   7.151   6.783  12.244  0.1189 -0.3135  0.0165
22935SOL    HW170246   7.066   6.763  12.284 -0.6289  0.4372 -1.1337
22935SOL    HW270247   7.186   6.855  12.296 -0.2826 -0.1509  0.0670
22936SOL     OW70248   4.088   3.056   4.711  0.5264 -0.1269  0.2899
22936SOL    HW170249   4.130   3.034   4.628  0.7290  0.8744  0.1258
22936SOL    HW270250   4.160   3.073   4.771  0.4179  2.7332 -0.2907
22937SOL     OW70251   0.964   6.778   0.429  0.5540 -0.3647  0.3940
22937SOL    HW170252   1.023   6.719   0.383  1.5069 -0.0542  1.1752
22937SOL    HW270253   0.879   6.734   0.427  1.0642 -1.3676  0.2580
22938SOL     OW70254   2.713   6.295  10.500 -0.5334 -0.4141  0.2834
22938SOL    HW170255   2.710   6.205  10.533 -1.7703 -0.3639  0.3586
22938SOL    HW270256   2.733   6.286  10.407  0.0545 -0.7175  0.4301
22939SOL     OW70257   1.980   3.028   8.999  0.2762  0.3325  0.0357
22939SOL    HW170258   2.025   3.098   8.951 -1.1052  2.5002  1.7172
22939SOL    HW270259   1.893   3.023   8.958  0.2749 -0.2569  0.0990
22940SOL     OW70260   7.576   4.990   7.110  0.0360 -0.2539 -0.2796
22940SOL    HW170261   7.544   5.076   7.135  0.7682 -0.0139 -0.1437
22940SOL    HW270262   7.671   4.997   7.117  0.1102 -1.0139 -0.4566
22941SOL     OW70263   0.699   6.864   7.893  0.2310  0.0411 -0.8570
22941SOL    HW170264   0.703   6.929   7.823 -0.0144  0.2059 -0.7195
22941SOL    HW270265   0.775   6.884   7.948 -0.0291  0.4225 -0.6335
22942SOL     OW70266   2.983   4.264   7.393  0.0705  0.1174 -0.6166
22942SOL    HW170267   3.011   4.185   7.438 -1.7921 -0.4438 -0.3875
22942SOL    HW270268   3.002   4.335   7.454 -2.2979 -0.6174  1.1011
22943SOL     OW70269   0.249   4.909   1.054 -0.1896  0.3592 -0.0958
22943SOL    HW170270   0.325   4.906   1.113 -0.9459  1.3971  0.9820
22943SOL    HW270271   0.177   4.874   1.106 -0.5853 -0.0417 -0.9006
22944SOL     OW70272   0.452   3.466   2.703 -0.7504 -0.2631 -0.5854
22944SOL    HW170273   0.392   3.518   2.651 -0.6482 -0.2841 -0.7245
22944SOL    HW270274   0.480   3.396   2.645  0.0059  0.1866 -0.7722
22945SOL     OW70275   5.053   0.147   4.976  0.1635 -0.3736  0.4201
22945SOL    HW170276   5.027   0.216   4.915 -0.6070 -0.2033  0.9243
22945SOL    HW270277   5.132   0.182   5.018 -0.5721  0.4959  1.1255
22946SOL     OW70278   2.933   6.981   5.682 -0.2031 -0.4489 -0.0358
22946SOL    HW170279   2.882   6.991   5.602  0.0298 -0.5725 -0.2018
22946SOL    HW270280   2.908   7.055   5.736 -1.8198 -1.3885  0.5792
22947SOL     OW70281   7.437   7.966   6.781  0.3287 -0.7877  0.1600
22947SOL    HW170282   7.444   8.016   6.700 -1.7862 -0.1148  0.3280
22947SOL    HW270283   7.468   8.026   6.849 -0.1408 -0.4942  0.1151
22948SOL     OW70284   3.453   7.074   4.474 -0.4649 -0.0097  0.4495
22948SOL    HW170285   3.539   7.043   4.502 -0.5647 -0.6943  0.0123
22948SOL    HW270286   3.395   7.051   4.546 -0.2572  0.6142  0.8244
22949SOL     OW70287   4.319   1.809   9.325 -0.3242 -0.3531 -0.0269
22949SOL    HW170288   4.403   1.763   9.321 -0.2815 -0.1952 -2.5061
22949SOL    HW270289   4.329   1.883   9.264 -1.8361  0.4196  0.6130
22950SOL     OW70290   2.026   5.314   5.392  0.1865  0.3114  0.4870
22950SOL    HW170291   1.958   5.380   5.401 -0.7022 -0.5805  0.4914
22950SOL    HW270292   1.979   5.234   5.368  1.1602 -0.4676  1.0764
22951SOL     OW70293   3.051   1.290   3.896 -0.6206 -0.2128 -0.1488
22951SOL    HW170294   3.125   1.286   3.835 -1.2782  0.7475 -1.0612
22951SOL    HW270295   3.065   1.218   3.956  1.3355  0.2622  0.0317
22952SOL     OW70296   5.910   0.118   4.783  0.3125  0.2597  0.3903
22952SOL    HW170297   6.004   0.128   4.769  0.4905 -0.9885  0.5808
22952SOL    HW270298   5.903   0.063   4.861 -0.5465 -0.4079 -0.1346
22953SOL     OW70299   5.323   6.052   2.770  0.3746 -0.4901 -0.3069
22953SOL    HW170300   5.270   6.089   2.700 -0.4544 -2.2789 -0.6766
22953SOL    HW270301   5.283   6.087   2.850  0.1355  0.0609 -0.6559
22954SOL     OW70302   1.051   0.625   1.631  0.3043  0.1166 -0.1828
22954SOL    HW170303   1.117   0.597   1.695  0.6811 -0.1868 -0.7008
22954SOL    HW270304   1.010   0.544   1.601 -0.2367  0.2986  0.0620
22955SOL     OW70305   6.008   6.484   5.398  0.2283 -0.3640 -0.2881
22955SOL    HW170306   5.950   6.543   5.446  1.1479  1.7414 -1.6080
22955SOL    HW270307   5.951   6.413   5.368 -1.1545  0.4249  0.3880
22956SOL     OW70308   5.853   6.432   7.130 -0.1283 -0.0350  0.2758
22956SOL    HW170309   5.800   6.507   7.157  0.6774  0.6197  0.0932
22956SOL    HW270310   5.790   6.362   7.116 -1.1289  1.1251 -1.4167
22957SOL     OW70311   0.172   3.304   9.119  0.5694  0.7167 -0.4035
22957SOL    HW170312   0.253   3.301   9.068  2.4544 -1.8464  2.4067
22957SOL    HW270313   0.150   3.213   9.136 -0.1815  1.3411  2.8032
22958SOL     OW70314   5.110   1.093  10.970 -0.5515 -0.4974 -0.1794
22958SOL    HW170315   5.168   1.049  11.033 -1.0609 -2.0033 -0.7281
22958SOL    HW270316   5.128   1.049  10.886 -1.9063 -0.4375 -0.5197
22959SOL     OW70317   0.137   0.140   4.571 -0.1399 -0.0772  0.2314
22959SOL    HW170318   0.193   0.217   4.579 -0.4935  0.1104  0.9815
22959SOL    HW270319   0.053   0.173   4.540  0.0021 -0.2896 -0.3864
22960SOL     OW70320   1.421   4.582   2.934 -0.2953  0.7479 -0.1141
22960SOL    HW170321   1.381   4.500   2.962 -0.3812  0.8382  0.0289
22960SOL    HW270322   1.515   4.566   2.938 -0.2872 -0.1265 -2.3384
22961SOL     OW70323   7.677   5.185  11.309  0.6925  0.6162 -0.7345
22961SOL    HW170324   7.594   5.213  11.348 -0.0147 -2.2346  0.0166
22961SOL    HW270325   7.653   5.152  11.222  0.9391 -0.5910 -0.3592
22962SOL     OW70326   4.209   5.652   4.934  0.2656 -0.6494  0.0022
22962SOL    HW170327   4.171   5.636   4.848  0.0848 -2.6282  0.3888
22962SOL    HW270328   4.269   5.578   4.948  1.9140  0.7427  0.7160
22963SOL     OW70329   6.066   0.195  10.271  0.1665  0.2431 -0.0861
22963SOL    HW170330   6.132   0.126  10.276 -0.1406 -0.0156  0.5091
22963SOL    HW270331   5.984   0.148  10.258 -0.2152  0.3900  1.5517
22964SOL     OW70332   3.658   3.977   3.462 -0.5956  0.4479  0.1647
22964SOL    HW170333   3.740   4.011   3.427 -0.6880  0.9685  0.4492
22964SOL    HW270334   3.670   3.882   3.461 -0.2712  0.4868 -0.4728
22965SOL     OW70335   1.262   1.876   4.933  0.7071 -0.6844  0.0791
22965SOL    HW170336   1.340   1.821   4.931 -0.3228 -2.2068  0.5466
22965SOL    HW270337   1.189   1.815   4.923 -0.4333  0.7242 -0.5401
22966SOL     OW70338   6.473   1.869   1.449  0.4534 -0.0715  0.6165
22966SOL    HW170339   6.400   1.932   1.449  1.5524  1.2544 -0.1282
22966SOL    HW270340   6.443   1.798   1.392 -0.1482  0.5959  0.0689
22967SOL     OW70341   1.548   1.453   3.410  0.1697  0.0727  0.2688
22967SOL    HW170342   1.590   1.538   3.426  0.3362  0.0664 -0.1360
22967SOL    HW270343   1.476   1.473   3.350  2.2561 -0.5422 -2.6519
22968SOL     OW70344   2.710   2.329   1.946  0.0546 -0.1199 -0.2504
22968SOL    HW170345   2.659   2.260   1.902 -0.0443 -1.8054  2.3069
22968SOL    HW270346   2.645   2.392   1.975  0.0770  0.7606 -1.9647
22969SOL     OW70347   7.856   5.690   0.487 -0.2231 -0.0668  0.0464
22969SOL    HW170348   7.866   5.675   0.581 -1.3373  0.7059  0.3046
22969SOL    HW270349   7.869   5.604   0.448 -2.1644 -0.9071  1.1174
22970SOL     OW70350   6.447   3.848   0.786  0.0313  0.0555 -0.2855
22970SOL    HW170351   6.419   3.939   0.796  0.3215 -0.0054  1.4722
22970SOL    HW270352   6.538   3.854   0.755 -0.4385  0.3149 -1.6748
22971SOL     OW70353   7.402   0.402   5.115  0.0049 -0.0061 -0.1809
22971SOL    HW170354   7.316   0.403   5.157  0.1362  0.6902  0.0826
22971SOL    HW270355   7.463   0.378   5.185 -0.1485 -2.3423 -0.7567
22972SOL     OW70356   1.771   2.703  10.262 -0.2464 -0.0146  0.3235
22972SOL    HW170357   1.683   2.666  10.276 -0.1013 -1.2343 -1.7024
22972SOL    HW270358   1.819   2.681  10.342 -1.6198  0.2849  1.2783
22973SOL     OW70359   1.493   7.081   3.958  0.5164  0.0268 -0.2215
22973SOL    HW170360   1.427   7.054   3.895 -0.7479 -0.9144  1.4135
22973SOL    HW270361   1.464   7.167   3.988 -0.6153 -0.8022  1.2250
22974SOL     OW70362   5.624   1.378   9.954 -0.2067 -0.0056 -0.0303
22974SOL    HW170363   5.682   1.400   9.881 -0.4499  0.1022 -0.1908
22974SOL    HW270364   5.536   1.398   9.922 -0.4932 -1.6471 -0.3389
22975SOL     OW70365   2.545   7.439   2.919  0.0772 -0.0489 -0.2450
22975SOL    HW170366   2.492   7.468   2.993  1.7561  0.4752  0.7956
22975SOL    HW270367   2.515   7.349   2.902  0.8344 -0.8396  2.2321
22976SOL     OW70368   1.981   3.731   3.112 -0.0278 -0.0730  0.3927
22976SOL    HW170369   2.042   3.731   3.038 -0.1608 -0.8606  0.2759
22976SOL    HW270370   2.030   3.773   3.183  0.1246  0.6245 -0.1226
22977SOL     OW70371   4.603   6.695   1.781  0.0873 -0.1723 -0.4633
22977SOL    HW170372   4.565   6.626   1.834 -0.4992  0.5893  0.1170
22977SOL    HW270373   4.599   6.773   1.835  2.0292  0.0527 -0.5681
22978SOL     OW70374   7.834   7.620   6.161 -0.0336  0.0165 -0.5661
22978SOL    HW170375   7.856   7.633   6.068  1.8053  0.7086 -0.0671
22978SOL    HW270376   7.916   7.632   6.207 -1.0805  0.5779  1.2528
22979SOL     OW70377   1.442   0.969   8.142  0.2184  0.1622  0.2644
22979SOL    HW170378   1.510   0.922   8.191  1.2685  0.1771 -1.1175
22979SOL    HW270379   1.490   1.037   8.095 -0.9827  1.1520  0.4288
22980SOL     OW70380   0.976   7.498   8.685 -0.3732 -0.1944  0.6684
22980SOL    HW170381   0.899   7.485   8.630 -1.0078 -1.1838  1.7457
22980SOL    HW270382   1.046   7.451   8.640 -0.9496 -1.2217  0.8118
22981SOL     OW70383   7.307   6.206   1.947  0.0200 -0.2857  0.4003
22981SOL    HW170384   7.338   6.172   1.863 -1.4142 -1.1166  0.1617
22981SOL    HW270385   7.223   6.161   1.961 -0.2696  0.6228  1.7748
22982SOL     OW70386   4.277   6.467  12.225  0.2621 -0.6046  0.1640
22982SOL    HW170387   4.236   6.550  12.202 -2.2780 -1.3758  1.6004
22982SOL    HW270388   4.258   6.410  12.151 -1.7609 -1.0809  1.0013
22983SOL     OW70389   2.468   5.016   0.003  0.1467 -0.1353 -0.3221
22983SOL    HW170390   2.396   4.962  -0.029  0.3344 -1.0541  0.7515
22983SOL    HW270391   2.505   4.967   0.076  1.1390  0.8586 -0.1204
22984SOL     OW70392   2.048   4.245  11.074  0.2165  0.5074  0.7656
22984SOL    HW170393   2.051   4.299  10.996  1.5251  1.1415  1.2331
22984SOL    HW270394   1.966   4.270  11.117 -0.6448 -0.0307 -0.4900
22985SOL     OW70395   6.184   4.332   7.126 -0.2991 -0.0682  0.1512
22985SOL    HW170396   6.212   4.349   7.037  0.2875 -1.2438  0.0991
22985SOL    HW270397   6.261   4.350   7.180 -0.3758 -0.2609  0.3277
22986SOL     OW70398   2.267   7.529   2.277 -0.6845 -0.3184  0.5862
22986SOL    HW170399   2.353   7.489   2.285 -0.9126 -0.7524  0.9084
22986SOL    HW270400   2.206   7.460   2.302 -1.1629 -0.2169 -0.2666
22987SOL     OW70401   7.690   1.724  11.086 -0.2864  0.7617  0.4535
22987SOL    HW170402   7.749   1.734  11.012  0.2218  2.1520  1.0042
22987SOL    HW270403   7.625   1.660  11.057  1.0020 -0.1780 -0.4687
22988SOL     OW70404   1.929   2.076   8.119  0.2515 -0.1829  0.3709
22988SOL    HW170405   1.912   2.040   8.031 -0.6376  0.0298  0.4475
22988SOL    HW270406   1.928   2.171   8.106 -0.1252 -0.1466  0.6464
22989SOL     OW70407   6.944   0.415   7.216  0.4884 -0.3895 -0.1068
22989SOL    HW170408   6.947   0.510   7.229 -0.2962 -0.4745  0.7545
22989SOL    HW270409   7.005   0.380   7.280  1.5218 -0.4219 -1.0832
22990SOL     OW70410   0.710   4.054   8.488 -0.0583  0.3405  0.6451
22990SOL    HW170411   0.760   4.040   8.408 -0.7230 -0.6527  0.3903
22990SOL    HW270412   0.629   4.004   8.476 -0.5838  0.9391  1.5467
22991SOL     OW70413   4.859   0.950   8.648 -0.2355  0.7635  0.0522
22991SOL    HW170414   4.878   1.029   8.597  0.4641  0.7075  0.2147
22991SOL    HW270415   4.877   0.877   8.589 -0.8323  0.7169 -0.0810
22992SOL     OW70416   1.689   4.280   5.902 -0.3892  0.2903 -0.3368
22992SOL    HW170417   1.627   4.352   5.916 -3.3199 -2.3445  1.8156
22992SOL    HW270418   1.657   4.236   5.823  0.2885  0.3061 -0.6249
22993SOL     OW70419   7.610   5.535   1.158  0.1516  0.1387  0.2277
22993SOL    HW170420   7.689   5.501   1.199  1.9281  2.4908 -0.9877
22993SOL    HW270421   7.576   5.599   1.221  0.0348  0.1650  0.1374
22994SOL     OW70422   0.245   2.353   6.015 -0.1012 -0.2140  0.2959
22994SOL    HW170423   0.222   2.273   6.063  0.9273 -0.0745  1.0632
22994SOL    HW270424   0.288   2.408   6.080 -2.4122  1.7797  0.2754
22995SOL     OW70425   4.339   0.698   7.309 -0.3412 -0.5099 -0.1613
22995SOL    HW170426   4.341   0.607   7.278 -1.4432 -0.0675 -1.6878
22995SOL    HW270427   4.372   0.694   7.399  3.8663 -1.7760 -1.5713
22996SOL     OW70428   2.375   6.191   6.833  0.6132  0.2184 -0.6990
22996SOL    HW170429   2.383   6.267   6.776  0.1571  1.7958  1.2460
22996SOL    HW270430   2.282   6.185   6.853  0.9814  1.0542  1.5588
22997SOL     OW70431   3.063   6.163   5.724  0.8839  0.1389 -0.3194
22997SOL    HW170432   3.000   6.234   5.717  0.0237 -0.4317  1.1668
22997SOL    HW270433   3.139   6.192   5.673 -0.4854  0.9212 -1.9922
22998SOL     OW70434   7.868   2.139   9.403 -0.5683 -0.0837 -0.1198
22998SOL    HW170435   7.872   2.232   9.427 -1.0837 -0.4161  1.3216
22998SOL    HW270436   7.957   2.117   9.377  0.3162  0.0666  2.5044
22999SOL     OW70437   7.186   3.537   1.783  0.7476 -0.3168 -0.1707
22999SOL    HW170438   7.231   3.534   1.699  1.3354  0.6540  0.0954
22999SOL    HW270439   7.257   3.534   1.848  0.3143 -0.7933  0.2891
23000SOL     OW70440   1.130   2.414   8.134 -0.3629  0.7290 -0.3831
23000SOL    HW170441   1.086   2.484   8.085 -0.8356  0.2344 -0.6705
23000SOL    HW270442   1.070   2.393   8.206 -0.3450  0.4295 -0.4554
23001SOL     OW70443   5.195   5.496   4.473  0.1815  0.4480  0.6619
23001SOL    HW170444   5.156   5.415   4.507  1.2225 -0.3945 -0.0765
23001SOL    HW270445   5.290   5.482   4.481  0.3800  1.4309  0.1483
23002SOL     OW70446   0.294   4.152   2.807 -0.2070 -0.2349 -0.7936
23002SOL    HW170447   0.289   4.221   2.873 -0.6253  0.2230 -1.2936
23002SOL    HW270448   0.254   4.076   2.850  0.6690 -0.3116 -0.0794
23003SOL     OW70449   3.913   2.571   7.202 -0.3123  0.0694  0.0407
23003SOL    HW170450   3.829   2.564   7.248  1.0137  1.2531  2.9536
23003SOL    HW270451   3.941   2.662   7.217  0.5707  0.3223 -2.6616
23004SOL     OW70452   7.104   3.842   3.147  0.1709 -0.6435  0.1681
23004SOL    HW170453   7.043   3.768   3.148 -1.3550  0.5658  1.3749
23004SOL    HW270454   7.135   3.849   3.237 -0.9537  1.1490  0.4542
23005SOL     OW70455   5.758   2.185   5.077  0.1960  0.2945  0.1624
23005SOL    HW170456   5.766   2.258   5.137 -1.8860 -0.0891  1.0121
23005SOL    HW270457   5.710   2.118   5.126  0.0747 -0.7714 -1.3153
23006SOL     OW70458   5.181   6.152   3.880 -0.7443 -0.0643 -0.2446
23006SOL    HW170459   5.087   6.158   3.899 -0.9258  0.1074 -1.1577
23006SOL    HW270460   5.220   6.222   3.932 -1.4356  1.5470 -1.7762
23007SOL     OW70461   0.451   7.170   9.743 -0.1168  0.0015 -0.3473
23007SOL    HW170462   0.437   7.079   9.718  3.3092  0.1140 -3.3366
23007SOL    HW270463   0.379   7.218   9.701 -2.3123 -1.2342  1.7662
23008SOL     OW70464   0.044   0.612  10.294 -0.1121  0.7203 -0.3540
23008SOL    HW170465   0.001   0.687  10.253 -1.0191  0.0733 -0.6170
23008SOL    HW270466   0.127   0.646  10.325 -1.4398  2.4167  1.6016
23009SOL     OW70467   2.915   4.610   7.622  0.5320 -0.5218  0.1635
23009SOL    HW170468   2.897   4.516   7.630 -1.4100 -0.0856  1.6922
23009SOL    HW270469   2.912   4.642   7.712 -2.4487  1.5404 -0.5080
23010SOL     OW70470   4.786   4.364   8.190  0.2305  0.0147 -0.3173
23010SOL    HW170471   4.839   4.368   8.269 -1.0203 -2.6318  0.7848
23010SOL    HW270472   4.746   4.451   8.184  1.9667  0.9513  0.7236
23011SOL     OW70473   5.070   6.475   2.997  0.5600  0.1577  0.3974
23011SOL    HW170474   5.020   6.525   2.933 -1.0971  0.5446  1.9199
23011SOL    HW270475   5.119   6.542   3.046  1.0470 -0.0515  0.2079
23012SOL     OW70476   6.513   1.816   4.404  0.1938 -0.4484  0.1149
23012SOL    HW170477   6.496   1.747   4.467 -0.1766  0.3070  0.8631
23012SOL    HW270478   6.463   1.792   4.326 -1.2891 -0.1742  0.9595
23013SOL     OW70479   5.346   0.751   5.307  0.2871 -0.5539  0.5456
23013SOL    HW170480   5.291   0.821   5.274 -0.0525 -0.8854  0.4063
23013SOL    HW270481   5.285   0.679   5.326  0.6999 -1.0268  0.1118
23014SOL     OW70482   6.448   1.252   1.376  0.2620  0.1757  0.4401
23014SOL    HW170483   6.493   1.185   1.325 -0.7390 -0.7316  0.7207
23014SOL    HW270484   6.421   1.317   1.311 -0.2861 -0.5678 -0.0909
23015SOL     OW70485   2.163   3.560   8.170 -0.3814  0.1536 -0.0426
23015SOL    HW170486   2.142   3.498   8.240 -1.4374 -2.1678 -2.2178
23015SOL    HW270487   2.084   3.560   8.114  0.3863  1.9086 -1.2304
23016SOL     OW70488   0.465   3.209   4.728 -0.3330  0.4344 -0.0917
23016SOL    HW170489   0.402   3.237   4.661 -0.3888  0.3776 -0.0620
23016SOL    HW270490   0.489   3.120   4.702 -1.5516 -0.1956  0.8521
23017SOL     OW70491   4.776   5.353  12.243  0.0928 -0.7553 -0.1630
23017SOL    HW170492   4.753   5.400  12.322  1.1160 -2.3866  1.1910
23017SOL    HW270493   4.759   5.414  12.172 -0.7788  0.7875  1.3149
23018SOL     OW70494   4.463   2.835   1.391 -0.5074 -0.0362 -0.0530
23018SOL    HW170495   4.509   2.760   1.428 -2.4674 -1.3580 -0.1995
23018SOL    HW270496   4.534   2.892   1.358  1.0393 -1.5448  0.5161
23019SOL     OW70497   4.662   5.654   9.689 -0.4388 -0.2323 -0.3327
23019SOL    HW170498   4.645   5.738   9.645  1.0690  1.1773  1.6081
23019SOL    HW270499   4.576   5.621   9.711 -1.0881  0.6260 -1.4337
23020SOL     OW70500   3.544   2.176   0.108  0.1579 -0.0919 -0.1314
23020SOL    HW170501   3.514   2.149   0.195 -0.1658  1.6775  0.3341
23020SOL    HW270502   3.605   2.107   0.082 -1.1313 -1.6011  0.6931
23021SOL     OW70503   3.658   6.586  11.333  0.1260  0.2061 -0.3448
23021SOL    HW170504   3.676   6.600  11.240 -1.5311 -0.4060 -0.7870
23021SOL    HW270505   3.709   6.508  11.355  2.6367  1.8342 -0.0126
23022SOL     OW70506   7.802   6.896  11.173  0.1481  0.1037  0.0672
23022SOL    HW170507   7.851   6.978  11.161 -1.8196  1.7212  2.2948
23022SOL    HW270508   7.723   6.922  11.220 -1.8267 -2.7309 -1.4070
23023SOL     OW70509   4.894   0.404   4.397 -0.0118 -0.1858  0.0263
23023SOL    HW170510   4.821   0.421   4.337  0.3451  0.9004 -0.1383
23023SOL    HW270511   4.855   0.407   4.484 -0.2669 -0.1639 -0.0883
23024SOL     OW70512   0.391   2.016   5.853 -0.3576  0.5391  0.0406
23024SOL    HW170513   0.472   2.066   5.844 -0.1877  0.1443 -0.6836
23024SOL    HW270514   0.388   1.993   5.946  1.1879 -0.7973 -0.1941
23025SOL     OW70515   5.509   2.267   1.327  0.2822  0.0986  0.0665
23025SOL    HW170516   5.455   2.343   1.308  0.6948  0.1289 -1.0738
23025SOL    HW270517   5.542   2.281   1.416  0.6319  1.4127 -0.2596
23026SOL     OW70518   4.168   6.374   6.100 -0.7777 -0.4139 -0.4954
23026SOL    HW170519   4.246   6.415   6.136 -0.2608 -1.7764  0.0124
23026SOL    HW270520   4.096   6.409   6.152 -0.3040 -0.4976  0.2281
23027SOL     OW70521   1.495   4.170  11.384 -0.2262  0.1290 -0.4367
23027SOL    HW170522   1.517   4.134  11.298  0.6437  0.4599 -0.3665
23027SOL    HW270523   1.428   4.110  11.419 -1.3059  0.5464 -1.7345
23028SOL     OW70524   4.787   1.216  11.482  0.5563 -0.5833 -0.0588
23028SOL    HW170525   4.857   1.281  11.489  1.9325 -2.1024  0.7938
23028SOL    HW270526   4.826   1.134  11.512 -0.7190 -2.1607 -2.4179
23029SOL     OW70527   5.481   3.268   9.209 -0.4729 -0.0961 -0.2260
23029SOL    HW170528   5.486   3.363   9.196 -1.6054  0.0020 -0.0144
23029SOL    HW270529   5.549   3.233   9.151  2.6517  1.0118  2.4193
23030SOL     OW70530   7.884   7.117   5.951 -0.1715  0.0407 -0.5566
23030SOL    HW170531   7.824   7.133   6.024 -0.6575 -0.0670 -0.9308
23030SOL    HW270532   7.910   7.026   5.962 -0.4495 -0.0526 -0.6702
23031SOL     OW70533   1.292   3.935   6.484 -0.0720  0.0822 -0.8646
23031SOL    HW170534   1.276   3.840   6.480  2.3910 -0.3879 -2.0516
23031SOL    HW270535   1.225   3.968   6.542  0.4746 -2.7893  1.6807
23032SOL     OW70536   0.561   5.408  11.198  0.7833 -0.3775 -0.2456
23032SOL    HW170537   0.642   5.448  11.230 -0.6497  1.0221  1.9529
23032SOL    HW270538   0.565   5.317  11.228  1.2549 -0.1489  0.3934
23033SOL     OW70539   4.916   7.164  10.132 -0.8179 -0.0958 -0.1329
23033SOL    HW170540   4.937   7.137  10.043 -2.1799 -2.1126  0.0920
23033SOL    HW270541   4.863   7.243  10.122 -0.3750  0.0867 -1.0687
23034SOL     OW70542   5.128   4.256   3.944 -0.5034  0.0055 -0.1836
23034SOL    HW170543   5.217   4.220   3.942 -0.5849 -0.1897 -0.2670
23034SOL    HW270544   5.099   4.254   3.853 -1.1016 -1.1871  0.0214
23035SOL     OW70545   0.249   7.020   0.677  0.0927 -0.2931 -0.8638
23035SOL    HW170546   0.167   6.985   0.713  0.9959 -0.5371  1.0656
23035SOL    HW270547   0.280   7.081   0.744  0.8438  0.7996 -2.1678
23036SOL     OW70548   6.829   3.934  12.209 -0.3696 -0.1190 -0.1149
23036SOL    HW170549   6.851   3.943  12.116  1.2898  0.8161  0.3343
23036SOL    HW270550   6.746   3.887  12.209 -0.6722  0.3277 -2.0853
23037SOL     OW70551   6.370   1.958   9.374 -0.4277  0.5329 -0.9728
23037SOL    HW170552   6.356   1.867   9.400 -0.0521  0.2731 -1.6482
23037SOL    HW270553   6.462   1.975   9.393 -0.4737  0.7370 -0.9355
23038SOL     OW70554   1.663   5.897   7.706  0.1738  0.0319 -0.1001
23038SOL    HW170555   1.572   5.902   7.678  0.1965  2.4198  0.0213
23038SOL    HW270556   1.700   5.823   7.659 -2.0702 -1.6411  0.6336
23039SOL     OW70557   6.426   5.804   5.893  0.2959 -0.0531 -0.4993
23039SOL    HW170558   6.446   5.768   5.979  1.8024  0.5209 -0.5812
23039SOL    HW270559   6.357   5.869   5.909  0.4720 -0.0468  0.2386
23040SOL     OW70560   1.596   4.277   7.201 -0.7051  0.0759  0.7108
23040SOL    HW170561   1.535   4.350   7.211  0.1185  1.6271 -3.5518
23040SOL    HW270562   1.682   4.318   7.193  0.4342 -1.7732  2.4519
23041SOL     OW70563   2.303   2.668   9.916  0.4167  0.2352 -0.7786
23041SOL    HW170564   2.383   2.644   9.870  0.9574 -1.2975  0.8676
23041SOL    HW270565   2.304   2.764   9.918  2.8156  0.2476  0.1857
23042SOL     OW70566   5.210   1.217  12.013  0.3099  0.1968  0.0819
23042SOL    HW170567   5.272   1.190  11.945  1.5733  1.1152  0.8270
23042SOL    HW270568   5.238   1.169  12.091  1.1589  1.8495  0.8415
23043SOL     OW70569   3.056   3.552   3.323 -0.1518 -0.0388 -0.0894
23043SOL    HW170570   2.978   3.502   3.348  0.1984 -2.0803 -2.6088
23043SOL    HW270571   3.027   3.605   3.248  0.5654  0.2479 -0.1725
23044SOL     OW70572   0.440   5.379   2.209  0.3219  0.0703  0.2099
23044SOL    HW170573   0.422   5.317   2.138  2.2821  0.1735 -0.4212
23044SOL    HW270574   0.380   5.353   2.278 -1.9870  0.2378 -1.5849
23045SOL     OW70575   1.421   4.792   9.088  0.2283  0.0131  0.2980
23045SOL    HW170576   1.332   4.806   9.120 -0.2240 -1.1031 -0.4219
23045SOL    HW270577   1.422   4.832   9.001  0.4978  0.1919  0.3804
23046SOL     OW70578   2.195   1.239   8.743  0.0328  0.1875 -0.3011
23046SOL    HW170579   2.139   1.303   8.699 -0.2359  0.7285  0.7919
23046SOL    HW270580   2.280   1.250   8.701 -0.2251  0.6472 -0.7249
23047SOL     OW70581   1.014   2.717   3.994  0.0910  0.5293  0.2776
23047SOL    HW170582   0.969   2.640   3.959 -0.3176 -0.3076  2.4634
23047SOL    HW270583   1.107   2.699   3.979  0.0614 -0.8281  1.4701
23048SOL     OW70584   0.412   0.799   4.162 -0.2053  0.0587 -0.5855
23048SOL    HW170585   0.457   0.723   4.198 -0.6031  1.0273  2.2229
23048SOL    HW270586   0.328   0.764   4.131 -0.4329 -0.6686  0.7628
23049SOL     OW70587   3.216   0.372   6.321  0.5490 -0.1310 -0.2303
23049SOL    HW170588   3.135   0.321   6.330 -0.4307  1.3131 -0.4584
23049SOL    HW270589   3.240   0.363   6.229  1.0009 -1.0506 -0.0319
23050SOL     OW70590   7.423   1.561   7.747  0.1297 -0.4439  0.4650
23050SOL    HW170591   7.517   1.579   7.743 -0.0458  0.3376 -0.4742
23050SOL    HW270592   7.417   1.468   7.769  1.1082 -0.2925  1.4323
23051SOL     OW70593   1.219   0.780   0.537 -0.6505  0.3678 -0.0048
23051SOL    HW170594   1.164   0.826   0.600 -1.3848 -1.1052  0.4677
23051SOL    HW270595   1.173   0.698   0.520  0.1241  0.2298 -1.5793
23052SOL     OW70596   1.981   0.238   0.757  0.3102  0.2922 -0.7455
23052SOL    HW170597   1.889   0.227   0.733 -0.0010  2.4890 -0.7716
23052SOL    HW270598   1.979   0.261   0.850  0.6991  1.5099 -1.0187
23053SOL     OW70599   6.822   5.002  10.739 -0.4848  0.3415  0.3732
23053SOL    HW170600   6.780   5.042  10.663 -2.0017 -0.7590  0.6010
23053SOL    HW270601   6.750   4.968  10.791  0.5652  0.5713  2.0448
23054SOL     OW70602   2.504   7.986   5.453  0.1055 -1.0666 -0.0549
23054SOL    HW170603   2.417   7.945   5.454  0.0708 -1.0168 -0.6529
23054SOL    HW270604   2.539   7.966   5.366 -0.0196  0.4130 -0.4573
23055SOL     OW70605   1.316   2.943  11.237 -0.3157  1.2072 -0.0875
23055SOL    HW170606   1.394   2.997  11.252 -0.0629  0.6723  0.5987
23055SOL    HW270607   1.328   2.868  11.296 -0.6144  0.3559 -1.0900
23056SOL     OW70608   5.311   1.392   1.108 -0.4459 -0.5811 -0.3118
23056SOL    HW170609   5.391   1.411   1.156 -0.4889  0.1609 -0.5223
23056SOL    HW270610   5.339   1.340   1.033 -0.0001  0.5752 -0.9751
23057SOL     OW70611   1.887   0.549   3.892 -0.7136 -0.1468 -0.1583
23057SOL    HW170612   1.895   0.641   3.868  0.7876  0.0890  1.0611
23057SOL    HW270613   1.922   0.545   3.981 -0.8259 -1.8799 -0.1658
23058SOL     OW70614   5.772   6.816   9.135 -0.4280 -0.0527 -0.1138
23058SOL    HW170615   5.804   6.786   9.049 -1.9121 -1.9640 -0.0811
23058SOL    HW270616   5.806   6.751   9.196 -0.3493  0.6422  0.5849
23059SOL     OW70617   4.687   0.867   9.055 -0.7257 -0.0598  0.0482
23059SOL    HW170618   4.617   0.912   9.102 -0.3277  2.5131 -1.5830
23059SOL    HW270619   4.757   0.933   9.049  0.9285 -1.7779 -0.3554
23060SOL     OW70620   3.672   2.784   0.713 -0.1444  0.8717 -0.2469
23060SOL    HW170621   3.706   2.802   0.801 -1.6832  1.0246  0.3530
23060SOL    HW270622   3.692   2.692   0.698  2.4271  1.4617 -0.8363
23061SOL     OW70623   5.594   1.647   0.020  0.6034 -0.1750 -0.0199
23061SOL    HW170624   5.550   1.701  -0.046 -3.2504 -1.0159  1.5994
23061SOL    HW270625   5.608   1.562  -0.024 -1.5398 -0.5983  0.0291
23062SOL     OW70626   2.167   3.034  10.888  0.4061 -0.1294  0.2757
23062SOL    HW170627   2.243   3.033  10.947 -0.7562 -0.0198  1.8412
23062SOL    HW270628   2.195   3.086  10.813  2.2446 -1.0307  0.2766
23063SOL     OW70629   0.422   1.349   7.364  0.1038  0.0643 -0.1043
23063SOL    HW170630   0.484   1.414   7.396 -0.5644 -0.2357  1.9690
23063SOL    HW270631   0.474   1.269   7.354  0.6363  0.5365 -1.3361
23064SOL     OW70632   4.927   5.990   6.582 -0.0389  0.1250  0.0178
23064SOL    HW170633   4.981   6.058   6.622 -1.5103  0.8186  0.9373
23064SOL    HW270634   4.955   5.909   6.626 -0.6635  0.6745  1.5024
23065SOL     OW70635   7.535   2.172   9.612  0.3414 -0.0475 -0.1379
23065SOL    HW170636   7.514   2.252   9.662  0.5159 -0.4107  0.5252
23065SOL    HW270637   7.619   2.143   9.647  0.2876 -0.5144 -0.3909
23066SOL     OW70638   2.850   5.799   8.038 -0.0838  0.3429  0.1663
23066SOL    HW170639   2.796   5.854   8.096  2.4691  0.8006  2.2777
23066SOL    HW270640   2.825   5.710   8.059 -1.3266  0.5681 -0.2715
23067SOL     OW70641   2.284   4.567   9.767  0.4842 -0.4670 -0.2304
23067SOL    HW170642   2.327   4.565   9.852  0.0211 -0.0904  0.0221
23067SOL    HW270643   2.238   4.483   9.761  2.1848 -1.3826 -1.0160
23068SOL     OW70644   3.141   2.772   9.174 -0.1396 -0.1165  0.0070
23068SOL    HW170645   3.237   2.771   9.176 -0.1484 -1.6219  0.4465
23068SOL    HW270646   3.118   2.857   9.211  1.0355  0.9933 -1.6585
23069SOL     OW70647   3.457   1.430  10.804 -0.0624 -0.0149 -0.2807
23069SOL    HW170648   3.370   1.446  10.840  0.1104 -0.8980  0.5769
23069SOL    HW270649   3.517   1.470  10.867  0.1395  1.3952 -1.3330
23070SOL     OW70650   2.333   5.811   3.415 -0.1813  0.3577  0.4503
23070SOL    HW170651   2.389   5.793   3.339 -1.7242  0.5086 -0.7709
23070SOL    HW270652   2.323   5.727   3.458 -1.2246 -0.2515 -0.9117
23071SOL     OW70653   3.748   7.724   5.614  0.6366  0.2772  0.5401
23071SOL    HW170654   3.843   7.737   5.619  0.7352 -0.4832  0.6660
23071SOL    HW270655   3.725   7.682   5.696  0.0187  1.4104  0.9695
23072SOL     OW70656   4.227   5.897   1.814 -0.1948  0.5062  0.3627
23072SOL    HW170657   4.206   5.822   1.869 -1.4062  0.1280 -0.5636
23072SOL    HW270658   4.155   5.959   1.827 -0.0188  0.8132 -0.0701
23073SOL     OW70659   1.489   0.943   1.915  0.6720  0.5102 -0.6452
23073SOL    HW170660   1.504   0.979   1.828  0.4511  1.6332 -0.2451
23073SOL    HW270661   1.423   0.875   1.903 -2.4310  3.2943 -0.8837
23074SOL     OW70662   5.513   4.936   5.374  0.3868  0.1503  0.1898
23074SOL    HW170663   5.527   4.842   5.371  1.3399  0.3168 -1.7055
23074SOL    HW270664   5.589   4.970   5.421  1.1963  0.1331 -1.0561
23075SOL     OW70665   2.429   1.704   8.511 -0.5318  0.4948 -0.6170
23075SOL    HW170666   2.453   1.794   8.534 -1.1040  0.1614  1.4779
23075SOL    HW270667   2.334   1.707   8.498 -0.7924 -0.0789  1.0142
23076SOL     OW70668   1.744   2.157   1.424  0.6401  0.6006  0.5434
23076SOL    HW170669   1.832   2.120   1.437 -0.2265 -1.8813 -0.2351
23076SOL    HW270670   1.703   2.151   1.510  1.4273  2.5179  1.1129
23077SOL     OW70671   5.987   5.984   0.456 -0.4900  0.3781  0.7556
23077SOL    HW170672   5.899   5.955   0.476 -0.7660  0.8016  0.1831
23077SOL    HW270673   5.976   6.053   0.390  0.2333  0.8166  1.0750
23078SOL     OW70674   6.542   2.908   5.631  1.0267  0.0703 -0.0436
23078SOL    HW170675   6.506   2.966   5.698 -0.1961 -0.8852  0.1713
23078SOL    HW270676   6.611   2.858   5.676 -0.7799 -1.6373  1.0013
23079SOL     OW70677   5.526   7.193   8.528  0.1232 -0.2864 -0.5493
23079SOL    HW170678   5.545   7.273   8.479  2.1191 -0.2209  0.2354
23079SOL    HW270679   5.491   7.224   8.612  0.9452 -0.2122 -0.2250
23080SOL     OW70680   3.512   7.632  11.548  0.2659 -0.0807  0.1336
23080SOL    HW170681   3.607   7.642  11.540  0.1685  0.8032 -0.0298
23080SOL    HW270682   3.483   7.614  11.459  0.3509 -1.1013  0.2996
23081SOL     OW70683   3.981   0.218   9.453 -0.7816  0.2860  0.1019
23081SOL    HW170684   3.885   0.213   9.460 -0.7709 -0.6180 -0.2561
23081SOL    HW270685   4.000   0.191   9.364 -0.1655 -0.0400  0.3258
23082SOL     OW70686   7.510   2.251   7.997 -0.2054  0.2635 -0.6432
23082SOL    HW170687   7.426   2.222   8.032 -0.1343 -1.8523 -2.0075
23082SOL    HW270688   7.495   2.259   7.903  1.9509 -4.1284 -1.6234
23083SOL     OW70689   1.289   5.554   8.300  0.1549  0.3801 -0.2736
23083SOL    HW170690   1.311   5.577   8.210 -1.1909 -0.4369 -0.8311
23083SOL    HW270691   1.216   5.612   8.322  0.3702  0.4620  0.2581
23084SOL     OW70692   4.574   5.212  11.627 -0.1974  0.3977  0.1100
23084SOL    HW170693   4.497   5.258  11.594  0.3923  0.0546 -1.8649
23084SOL    HW270694   4.545   5.122  11.642 -0.0760  0.1144 -1.2185
23085SOL     OW70695   0.194   0.259   3.215 -0.0689  0.3777  0.7585
23085SOL    HW170696   0.150   0.268   3.299  0.3791  1.3772  0.8946
23085SOL    HW270697   0.198   0.348   3.180 -2.2270 -0.2425 -1.3496
23086SOL     OW70698   2.697   2.491   0.303  0.5297 -0.3100 -0.3098
23086SOL    HW170699   2.638   2.447   0.241 -3.1349 -0.1036  2.6454
23086SOL    HW270700   2.737   2.419   0.352  0.9042 -0.4140 -0.7563
23087SOL     OW70701   5.251   1.817  11.667 -0.3061  0.1566  0.0377
23087SOL    HW170702   5.304   1.889  11.701  1.3059 -1.9876  2.4310
23087SOL    HW270703   5.307   1.775  11.601 -0.4135 -0.1201  0.1222
23088SOL     OW70704   2.564   6.190   7.062  0.2957  0.4248 -0.1079
23088SOL    HW170705   2.504   6.184   6.988  0.9810 -0.8613 -0.5855
23088SOL    HW270706   2.565   6.102   7.100  1.2727  0.6283  0.3737
23089SOL     OW70707   3.356   2.349   2.632 -0.0502  0.3032  0.1741
23089SOL    HW170708   3.450   2.354   2.644 -0.0227  1.7786 -0.3600
23089SOL    HW270709   3.332   2.436   2.599 -1.4963 -0.2529 -0.3251
23090SOL     OW70710   0.148   0.321   1.152  0.3255 -0.4041  0.3672
23090SOL    HW170711   0.194   0.349   1.073 -1.5814 -0.5811 -0.8787
23090SOL    HW270712   0.123   0.231   1.134  1.3461 -1.0484  1.9352
23091SOL     OW70713   2.203   7.366  12.085  0.2118  0.0794  0.0388
23091SOL    HW170714   2.287   7.322  12.097  0.6726  1.0854  0.5844
23091SOL    HW270715   2.138   7.297  12.099  0.9266 -0.9839 -1.5335
23092SOL     OW70716   0.043   5.667   7.668 -0.5862 -0.3668  0.2944
23092SOL    HW170717   0.092   5.658   7.585 -0.4200 -0.5102  0.4058
23092SOL    HW270718   0.095   5.617   7.731 -0.5892 -0.0597  0.5391
23093SOL     OW70719   2.384   2.254   6.698 -0.4896 -0.2311 -0.1611
23093SOL    HW170720   2.376   2.160   6.714  0.4054 -0.1447  0.9060
23093SOL    HW270721   2.463   2.262   6.646  1.9827  0.2110  3.3472
23094SOL     OW70722   5.470   6.792   6.653  0.1088  0.1114 -0.7885
23094SOL    HW170723   5.475   6.775   6.559  0.5269 -0.8154 -0.6055
23094SOL    HW270724   5.554   6.833   6.674  0.5119 -0.7903 -0.6081
23095SOL     OW70725   6.958   5.472   9.596  0.0456 -0.3606 -1.0036
23095SOL    HW170726   6.945   5.566   9.611  2.4947 -0.1474  0.1599
23095SOL    HW270727   6.908   5.454   9.515 -0.9880  1.7655 -0.9172
23096SOL     OW70728   1.404   7.251   8.608 -0.2796 -0.2297  0.0664
23096SOL    HW170729   1.469   7.285   8.546 -0.4529  0.6635  0.3614
23096SOL    HW270730   1.419   7.156   8.608  0.9945 -0.0493  0.0997
23097SOL     OW70731   3.148   6.089   9.400  0.2198  0.4296 -0.2839
23097SOL    HW170732   3.203   6.046   9.335  3.3244  0.2723  2.2122
23097SOL    HW270733   3.145   6.181   9.372  3.3127  0.8189  0.3011
23098SOL     OW70734   0.150   7.642  11.772 -0.2489 -0.5637 -0.2039
23098SOL    HW170735   0.208   7.574  11.736  0.6108 -0.4463  0.8981
23098SOL    HW270736   0.135   7.702  11.700 -2.9947 -3.1163 -1.9890
23099SOL     OW70737   1.216   2.347   0.059  0.1991  0.7617 -0.0259
23099SOL    HW170738   1.204   2.322   0.150 -0.9631 -0.4906 -0.4887
23099SOL    HW270739   1.252   2.435   0.063  2.1038  0.0093  1.6610
23100SOL     OW70740   7.074   6.192   6.704  0.3102 -0.3867 -0.3153
23100SOL    HW170741   6.995   6.190   6.651  0.1117 -0.2184 -0.0307
23100SOL    HW270742   7.120   6.270   6.676  0.3165 -0.4193 -0.3968
23101SOL     OW70743   4.642   3.698   5.109  0.4516  0.4004 -0.0021
23101SOL    HW170744   4.729   3.696   5.149  0.3597  0.3709  0.1949
23101SOL    HW270745   4.587   3.649   5.169  0.0491  1.4171  0.4827
23102SOL     OW70746   2.756   7.148   5.812 -0.2399  0.0054  0.0295
23102SOL    HW170747   2.742   7.188   5.726  1.0907 -1.1557 -0.7761
23102SOL    HW270748   2.695   7.193   5.870  0.2107  2.2069 -1.1073
23103SOL     OW70749   1.599   7.431   0.349 -0.0185  0.2969  0.3868
23103SOL    HW170750   1.588   7.337   0.364  0.0686  0.1027 -0.6683
23103SOL    HW270751   1.515   7.459   0.312  0.8830  0.0239 -2.0336
23104SOL     OW70752   6.877   4.499   0.711  0.1188 -0.2814  0.3324
23104SOL    HW170753   6.865   4.575   0.768  2.0337 -1.2553  2.2176
23104SOL    HW270754   6.930   4.531   0.638 -0.7829  0.5942  0.0457
23105SOL     OW70755   0.094   0.769   4.337  0.2429 -0.0582 -0.2245
23105SOL    HW170756   0.097   0.864   4.344  1.0844 -0.1529  0.9279
23105SOL    HW270757   0.082   0.752   4.243 -1.0893  1.1821 -0.3240
23106SOL     OW70758   0.368   4.494   1.745 -0.5039  0.0646 -0.4141
23106SOL    HW170759   0.329   4.542   1.819 -0.1055  1.2923 -0.9672
23106SOL    HW270760   0.440   4.444   1.784 -0.2259  0.7909  0.0350
23107SOL     OW70761   7.276   6.270   4.966  0.1342 -0.7499  0.2203
23107SOL    HW170762   7.191   6.298   4.999  0.7727 -0.1429  1.4119
23107SOL    HW270763   7.332   6.347   4.974  0.2290 -0.3537 -2.8681
23108SOL     OW70764   1.285   3.717   6.184  0.3189 -0.3351 -0.8056
23108SOL    HW170765   1.241   3.763   6.113  1.7745  0.7092 -1.0712
23108SOL    HW270766   1.339   3.651   6.140  0.7955 -0.0523 -0.6629
23109SOL     OW70767   7.281   2.797  10.981 -0.0100  0.2645 -0.0450
23109SOL    HW170768   7.363   2.748  10.974 -1.1101 -1.4783 -1.7302
23109SOL    HW270769   7.292   2.871  10.922 -0.3434 -1.0985 -1.8885
23110SOL     OW70770   7.278   6.978   2.710  0.1058 -0.2473  0.4018
23110SOL    HW170771   7.197   6.983   2.761  0.1515 -1.4194  0.6098
23110SOL    HW270772   7.346   6.963   2.776  0.2339 -1.2504  0.0505
23111SOL     OW70773   1.349   3.773   1.689  0.2752  0.3767  0.2535
23111SOL    HW170774   1.414   3.734   1.630 -0.7571 -0.6575 -0.2227
23111SOL    HW270775   1.393   3.774   1.774  0.9409 -0.2703 -0.0652
23112SOL     OW70776   6.624   3.617  10.476  0.0854 -0.0710 -0.6900
23112SOL    HW170777   6.630   3.701  10.521  0.3344 -0.8417  0.7821
23112SOL    HW270778   6.715   3.596  10.451 -0.1435  0.7203 -2.3186
23113SOL     OW70779   7.442   6.811   6.660  0.3347  0.1056  0.0912
23113SOL    HW170780   7.482   6.728   6.634  0.1299 -0.2868  0.9829
23113SOL    HW270781   7.401   6.792   6.744  0.5628  1.1980  0.4605
23114SOL     OW70782   0.968   0.923   1.303  0.4311 -0.2749  0.7555
23114SOL    HW170783   0.941   0.848   1.356  1.1970 -0.0944  1.4021
23114SOL    HW270784   0.991   0.991   1.366  0.1234  0.3793  0.1781
23115SOL     OW70785   3.048   1.324  11.610 -0.8076 -0.0926 -0.4474
23115SOL    HW170786   3.050   1.242  11.562  0.1880 -0.8393  0.7839
23115SOL    HW270787   3.138   1.355  11.609 -1.3169  1.5208 -1.6943
23116SOL     OW70788   0.638   7.459   3.124  0.0178  0.0134 -0.0588
23116SOL    HW170789   0.661   7.546   3.091  0.7588 -0.1782 -0.0508
23116SOL    HW270790   0.542   7.460   3.127  0.0019  0.6671 -0.4939
23117SOL     OW70791   1.798   4.168   0.460  0.2663 -0.4272 -0.1908
23117SOL    HW170792   1.879   4.151   0.412  0.4134  1.4403 -0.6605
23117SOL    HW270793   1.729   4.156   0.395  0.2767 -0.3282 -0.2187
23118SOL     OW70794   3.696   1.996   7.922 -0.1642  0.1397  0.3906
23118SOL    HW170795   3.645   2.077   7.926 -0.1616  0.1550  0.1260
23118SOL    HW270796   3.707   1.979   7.829  0.7695  0.4204  0.4429
23119SOL     OW70797   7.237   0.079   0.925  0.1807 -0.3383 -0.0757
23119SOL    HW170798   7.267   0.124   0.846 -0.0726 -0.1421 -0.0624
23119SOL    HW270799   7.317   0.049   0.967  0.2973 -0.7363 -0.5766
23120SOL     OW70800   5.228   5.841   5.604 -0.4271  0.1750  0.2114
23120SOL    HW170801   5.178   5.899   5.547  0.3383  1.7561  1.0594
23120SOL    HW270802   5.166   5.813   5.672 -0.7953  0.0261 -0.1852
23121SOL     OW70803   7.419   2.434   0.422 -0.3678  0.3887  0.2055
23121SOL    HW170804   7.389   2.474   0.340 -0.1050  1.3064  0.5550
23121SOL    HW270805   7.368   2.478   0.490 -2.6238 -2.2458  0.4123
23122SOL     OW70806   0.021   6.339  12.214 -0.2754 -0.7671 -0.1594
23122SOL    HW170807  -0.044   6.269  12.204 -2.0506  0.6350  1.1711
23122SOL    HW270808   0.016   6.387  12.131  0.3467 -1.6465 -0.7395
23123SOL     OW70809   6.938   1.074   3.848 -0.4587 -0.0303 -0.2668
23123SOL    HW170810   6.958   1.091   3.756 -0.6384  1.1409 -0.0955
23123SOL    HW270811   7.023   1.063   3.889 -0.3002  1.1244 -0.2646
23124SOL     OW70812   7.570   3.532   6.757  0.5763 -0.2759  0.5635
23124SOL    HW170813   7.625   3.542   6.679 -1.4087  1.0284 -0.7644
23124SOL    HW270814   7.552   3.622   6.784 -0.2355 -0.6959  1.4423
23125SOL     OW70815   1.707   4.890  11.127  0.2986  0.4806  0.7460
23125SOL    HW170816   1.745   4.914  11.212 -0.1136  1.9211  0.5483
23125SOL    HW270817   1.742   4.956  11.066  0.3279 -0.3386 -0.1376
23126SOL     OW70818   5.763   0.137   8.142  0.2465  0.6364  0.0399
23126SOL    HW170819   5.736   0.051   8.109  0.6444 -0.0284  1.3730
23126SOL    HW270820   5.773   0.191   8.063 -0.8787 -0.2705 -0.7657
23127SOL     OW70821   4.877   0.662   5.277 -0.0212 -0.1590  0.2130
23127SOL    HW170822   4.814   0.598   5.244  0.4799  0.2149 -1.5620
23127SOL    HW270823   4.824   0.737   5.302 -0.2960  0.4732 -2.0350
23128SOL     OW70824   2.849   3.079   2.201 -0.8914 -0.0109 -0.4247
23128SOL    HW170825   2.935   3.086   2.242 -1.1664  3.0358 -0.1287
23128SOL    HW270826   2.866   3.090   2.108 -0.8342 -0.9541 -0.5314
23129SOL     OW70827   1.896   7.115   5.218 -0.0342  0.8051  0.1910
23129SOL    HW170828   1.913   7.123   5.124 -1.0224 -0.7461 -0.1554
23129SOL    HW270829   1.983   7.116   5.258  0.3553  4.1694 -0.4067
23130SOL     OW70830   4.460   5.139   1.110  0.0824 -0.0797  0.2964
23130SOL    HW170831   4.476   5.052   1.072 -1.0466  0.6031 -1.9090
23130SOL    HW270832   4.382   5.127   1.165  0.1799 -0.5324  0.3408
23131SOL     OW70833   4.943   5.430   0.229  0.4538 -0.2121  0.2473
23131SOL    HW170834   4.983   5.410   0.313  1.4031  0.5464 -0.0032
23131SOL    HW270835   4.867   5.485   0.251  0.1552 -0.7747  0.6530
23132SOL     OW70836   6.127   7.184   5.068 -0.4611 -0.1821  0.6233
23132SOL    HW170837   6.053   7.206   5.012 -0.3990 -0.6063  0.3725
23132SOL    HW270838   6.205   7.204   5.015 -0.4011 -0.2673  0.6779
23133SOL     OW70839   3.380   1.337   7.638  0.0277 -0.0806  0.0218
23133SOL    HW170840   3.370   1.432   7.629 -0.1513 -0.2214 -1.6810
23133SOL    HW270841   3.294   1.306   7.667  0.2053  0.3026  0.9875
23134SOL     OW70842   4.651   6.332   0.403  0.5605  0.5223 -0.2940
23134SOL    HW170843   4.628   6.284   0.483  0.6820 -0.3950 -0.7983
23134SOL    HW270844   4.627   6.423   0.422 -0.6636  0.1002  0.2892
23135SOL     OW70845   1.456   4.271   6.490 -0.3345  0.1573  0.4855
23135SOL    HW170846   1.530   4.319   6.527  0.3895 -0.1223 -0.5514
23135SOL    HW270847   1.457   4.294   6.397 -1.5987  0.1976  0.4551
23136SOL     OW70848   3.569   4.005   4.295 -0.1146  0.1273 -0.4703
23136SOL    HW170849   3.510   3.945   4.342  0.0962  1.0850  1.1013
23136SOL    HW270850   3.651   4.000   4.344  0.9198 -0.6260 -2.1924
23137SOL     OW70851   4.090   5.779   3.291 -0.0133 -0.2485  0.2411
23137SOL    HW170852   4.180   5.759   3.318  0.9936  2.1470 -0.9729
23137SOL    HW270853   4.045   5.801   3.373  1.8162  2.8177  0.5847
23138SOL     OW70854   3.173   6.747   3.291 -0.0630  0.0106 -0.2864
23138SOL    HW170855   3.212   6.828   3.257 -0.5112  0.7362  0.8308
23138SOL    HW270856   3.164   6.764   3.385  0.4292 -1.6016  0.0829
23139SOL     OW70857   1.585   4.486   3.214 -0.1646  0.1138 -0.0554
23139SOL    HW170858   1.637   4.441   3.147  0.2442  1.1728 -0.4783
23139SOL    HW270859   1.601   4.437   3.294  0.0655 -0.6374 -0.5470
23140SOL     OW70860   2.731   2.203   5.026 -0.6672  0.2243 -0.1444
23140SOL    HW170861   2.715   2.262   5.099  3.3602  0.3433  0.8897
23140SOL    HW270862   2.798   2.142   5.059 -0.5797 -1.3434 -2.9343
23141SOL     OW70863   2.929   3.869   4.957  0.3035 -0.0604  0.7413
23141SOL    HW170864   2.887   3.954   4.944  0.2564 -0.3997 -1.6337
23141SOL    HW270865   2.921   3.825   4.873  2.4071 -1.4901  1.2247
23142SOL     OW70866   6.227   3.116   9.263 -0.4699 -0.3140  0.1352
23142SOL    HW170867   6.144   3.131   9.308 -0.0403  0.5905  0.6468
23142SOL    HW270868   6.286   3.088   9.332  0.0010  0.3582  0.0102
23143SOL     OW70869   7.013   7.762  10.095 -0.1238 -0.5300 -0.5494
23143SOL    HW170870   7.076   7.692  10.076 -0.1928 -0.6628 -0.2903
23143SOL    HW270871   6.929   7.717  10.102 -0.3474 -0.2846 -1.4510
23144SOL     OW70872   7.254   0.134  11.674 -0.3629 -0.0061  0.3477
23144SOL    HW170873   7.186   0.165  11.733 -1.0520 -0.6113 -0.1201
23144SOL    HW270874   7.234   0.042  11.660 -0.1301  0.0939 -0.7114
23145SOL     OW70875   7.583   4.937   8.411 -0.7921 -0.0769 -0.1595
23145SOL    HW170876   7.524   5.012   8.412 -1.1835 -0.3771  0.7461
23145SOL    HW270877   7.670   4.975   8.424 -0.9925  0.2297  0.3226
23146SOL     OW70878   6.729   2.966   0.723  0.4672  1.1662 -0.3168
23146SOL    HW170879   6.743   3.045   0.672  1.2810  1.3915  0.2465
23146SOL    HW270880   6.729   2.895   0.659  1.2550  1.4705 -0.6550
23147SOL     OW70881   7.832   4.077  10.550 -0.1291  0.3426  0.4806
23147SOL    HW170882   7.928   4.075  10.553 -0.0547  0.0294 -1.3765
23147SOL    HW270883   7.806   4.086  10.642  1.6380 -2.1870  1.3457
23148SOL     OW70884   5.060   6.873   7.529  0.3448 -0.0344  0.0470
23148SOL    HW170885   5.147   6.915   7.530  0.7472 -0.8362 -0.5418
23148SOL    HW270886   5.061   6.815   7.605  0.1132  0.3550  0.3532
23149SOL     OW70887   6.468   1.790   6.101  0.2251  0.4239 -0.2505
23149SOL    HW170888   6.520   1.773   6.023 -0.3077 -0.6918 -0.3775
23149SOL    HW270889   6.516   1.747   6.172  1.2891  2.3551  0.2703
23150SOL     OW70890   4.065   3.246   3.015  0.0133 -0.0341 -0.3666
23150SOL    HW170891   4.116   3.326   3.030 -1.2806  0.9770 -1.0935
23150SOL    HW270892   4.014   3.265   2.936  0.7628 -2.1590 -1.4380
23151SOL     OW70893   4.833   4.730   9.486  0.1953 -0.0455  0.1076
23151SOL    HW170894   4.928   4.732   9.495  0.4801 -2.0924 -1.6261
23151SOL    HW270895   4.804   4.667   9.553  0.2844 -0.7819 -0.5297
23152SOL     OW70896   7.446   3.494  11.619 -0.5493  0.8085  0.1956
23152SOL    HW170897   7.389   3.424  11.651  0.4954 -0.0101  0.3347
23152SOL    HW270898   7.535   3.458  11.627  0.1421  2.6493  1.6199
23153SOL     OW70899   3.802   1.497   9.476 -0.0387 -0.0552 -0.3005
23153SOL    HW170900   3.888   1.531   9.499 -0.3562  1.1528 -0.8145
23153SOL    HW270901   3.814   1.458   9.389  0.4723 -1.9288  0.5498
23154SOL     OW70902   3.097   1.811  11.724 -0.1530 -0.6422  1.1830
23154SOL    HW170903   3.128   1.901  11.712 -0.9590 -0.6222 -1.3426
23154SOL    HW270904   3.018   1.820  11.778 -0.5702  0.2836  0.4637
23155SOL     OW70905   0.248   0.677  10.464 -0.3186 -0.4068 -0.0923
23155SOL    HW170906   0.264   0.583  10.477 -0.2391 -0.1654  1.7212
23155SOL    HW270907   0.210   0.707  10.546 -0.1765  1.2016 -0.5853
23156SOL     OW70908   1.544   0.445   6.603 -0.0629 -0.1707 -0.1495
23156SOL    HW170909   1.639   0.444   6.612 -0.0217 -0.9233 -0.5722
23156SOL    HW270910   1.512   0.426   6.692  0.2472 -2.5463 -0.4660
23157SOL     OW70911   7.395   7.059   1.968 -0.1199  0.1588 -0.4534
23157SOL    HW170912   7.478   7.061   1.921 -0.2336 -1.0739 -0.7579
23157SOL    HW270913   7.418   7.020   2.053 -0.4919 -0.8457 -0.8037
23158SOL     OW70914   6.242   6.388  11.848 -0.3189 -0.2820  0.2881
23158SOL    HW170915   6.239   6.352  11.759 -1.5570  1.3300 -0.3641
23158SOL    HW270916   6.331   6.423  11.856 -0.8848  1.6871 -1.2496
23159SOL     OW70917   5.983   1.786  11.565 -0.6459  0.3302 -0.3000
23159SOL    HW170918   5.938   1.747  11.490 -0.1408  1.1742 -1.0561
23159SOL    HW270919   6.055   1.836  11.527 -0.0235  0.3013  0.7901
23160SOL     OW70920   4.118   0.828   3.638 -0.2402  0.2657  0.0933
23160SOL    HW170921   4.200   0.877   3.638  1.1431 -1.8970 -0.2560
23160SOL    HW270922   4.103   0.806   3.730 -0.1745  0.2738  0.1061
23161SOL     OW70923   2.256   7.595   6.354  0.3626 -0.3707 -0.2778
23161SOL    HW170924   2.233   7.509   6.389 -0.6991  0.0325  0.0460
23161SOL    HW270925   2.309   7.635   6.422  0.7625 -0.7052 -0.3803
23162SOL     OW70926   6.027   4.675   9.358  0.1724  0.4622 -0.1482
23162SOL    HW170927   6.082   4.613   9.309  2.7687  1.5314  1.2522
23162SOL    HW270928   5.952   4.622   9.386  1.4518 -1.6210 -0.4160
23163SOL     OW70929   3.655   7.902   1.120  0.5454 -0.1510  0.2049
23163SOL    HW170930   3.681   7.831   1.061 -0.0752 -2.0921  2.1414
23163SOL    HW270931   3.565   7.882   1.143  0.3655  1.2787  0.8392
23164SOL     OW70932   5.065   4.999   1.135  0.0814 -0.6491 -0.8258
23164SOL    HW170933   4.992   5.058   1.154  0.2421  0.1181 -2.3808
23164SOL    HW270934   5.116   4.997   1.216 -1.0391 -0.2847 -0.0854
23165SOL     OW70935   0.217   4.210   7.810 -0.1819 -0.2429  0.4299
23165SOL    HW170936   0.238   4.261   7.888  0.3719 -1.3406  1.0143
23165SOL    HW270937   0.293   4.223   7.752  0.7189 -1.6666  1.2431
23166SOL     OW70938   1.654   1.288   0.537  0.0022  0.1510  0.2317
23166SOL    HW170939   1.701   1.209   0.510  0.8300  0.0340  1.8895
23166SOL    HW270940   1.695   1.358   0.486  0.9490 -0.1707  0.5194
23167SOL     OW70941   3.925   6.412   1.552 -0.1442 -0.3325 -1.0573
23167SOL    HW170942   3.846   6.409   1.606  1.9606 -3.9122  2.3346
23167SOL    HW270943   3.902   6.365   1.472 -1.6532 -0.5392 -0.5364
23168SOL     OW70944   6.787   0.865   2.953 -0.2057  0.5649 -0.3565
23168SOL    HW170945   6.722   0.868   3.023  1.1762 -0.3841  1.0600
23168SOL    HW270946   6.854   0.928   2.980  1.4980 -1.4677  0.5028
23169SOL     OW70947   3.227   3.672   2.223  0.0472  0.2397 -0.6619
23169SOL    HW170948   3.151   3.696   2.277 -0.1365  2.4898 -1.8292
23169SOL    HW270949   3.213   3.579   2.204 -1.4040  0.1211  0.7278
23170SOL     OW70950   2.193   7.686   8.890 -0.4216  0.3873 -0.6741
23170SOL    HW170951   2.284   7.695   8.921 -0.6438 -0.9499  0.4659
23170SOL    HW270952   2.187   7.748   8.818  1.4024  0.5167 -0.7793
23171SOL     OW70953   7.610   2.749   8.067 -0.0854  0.3098 -0.0664
23171SOL    HW170954   7.648   2.668   8.033 -0.3317 -0.1123  0.6328
23171SOL    HW270955   7.516   2.733   8.066 -0.1193  0.4763  0.3392
23172SOL     OW70956   1.056   4.311   2.848  0.5102 -0.3823  0.4742
23172SOL    HW170957   1.075   4.292   2.756 -0.6687  1.2958 -0.1518
23172SOL    HW270958   1.126   4.371   2.875  0.1025  0.2022  0.2534
23173SOL     OW70959   6.883   5.214   0.950 -0.2635 -0.3136 -0.3240
23173SOL    HW170960   6.956   5.257   0.996 -0.1272 -0.8203 -0.0607
23173SOL    HW270961   6.878   5.127   0.990 -1.3460 -0.1044  0.0135
23174SOL     OW70962   6.436   1.570   4.144 -0.3639 -0.0880 -0.3649
23174SOL    HW170963   6.365   1.597   4.203 -1.4244  0.2642 -1.7398
23174SOL    HW270964   6.427   1.628   4.068  0.5603 -0.9458 -1.1582
23175SOL     OW70965   1.399   5.071   1.306 -0.0567  0.5072 -0.2484
23175SOL    HW170966   1.354   5.072   1.391 -0.2330 -1.0315 -0.3054
23175SOL    HW270967   1.483   5.114   1.324  0.6232 -1.2790  1.1426
23176SOL     OW70968   5.415   4.055   0.834  0.0589 -0.2779 -0.3469
23176SOL    HW170969   5.511   4.057   0.826  0.0565  0.3979 -0.2950
23176SOL    HW270970   5.384   4.084   0.748 -0.1286 -1.4847 -0.7085
23177SOL     OW70971   0.602   5.310   5.297 -0.1625  0.1158  0.1173
23177SOL    HW170972   0.632   5.219   5.285 -0.2516 -0.3201  2.5816
23177SOL    HW270973   0.674   5.363   5.262  1.1572 -0.9324  1.1001
23178SOL     OW70974   3.643   6.514   0.983  0.0690  0.1963 -0.1122
23178SOL    HW170975   3.677   6.567   0.910  0.1169  0.1887 -0.0954
23178SOL    HW270976   3.714   6.454   1.004  0.5213  1.0237  0.7600
23179SOL     OW70977   1.267   7.956  11.894  0.2321  0.0128  0.2465
23179SOL    HW170978   1.201   7.967  11.962 -0.0409  2.7854 -0.3505
23179SOL    HW270979   1.349   7.946  11.942 -0.3594 -1.9936  0.9670
23180SOL     OW70980   0.781   2.488   7.478 -0.4509 -0.1339  0.1446
23180SOL    HW170981   0.773   2.396   7.501 -2.0390  0.5090  2.3866
23180SOL    HW270982   0.696   2.512   7.442  0.1927  0.3156 -1.1579
23181SOL     OW70983   7.980   6.668   0.724 -0.1751  0.2203 -0.0763
23181SOL    HW170984   7.987   6.750   0.674  0.2524 -0.8840 -1.8984
23181SOL    HW270985   7.933   6.609   0.667 -1.0116 -0.6651  1.4639
23182SOL     OW70986   2.786   7.332  11.403  0.1732 -0.0344  0.1972
23182SOL    HW170987   2.838   7.405  11.438  0.0189  0.0113  0.3294
23182SOL    HW270988   2.713   7.323  11.464  0.5439 -0.7243  0.5567
23183SOL     OW70989   3.127   5.643   2.733  1.2743 -0.2540  0.1273
23183SOL    HW170990   3.173   5.609   2.656  2.0333 -0.9026  0.8528
23183SOL    HW270991   3.128   5.570   2.795 -2.2765 -0.9219 -0.4295
23184SOL     OW70992   6.873   1.007   4.813  0.0094 -0.0152 -0.1645
23184SOL    HW170993   6.897   1.044   4.898 -0.0757 -0.9655  0.2813
23184SOL    HW270994   6.802   0.946   4.832 -0.7569  0.5699 -1.0702
23185SOL     OW70995   5.812   7.959   9.900  0.5384 -0.0808 -0.5815
23185SOL    HW170996   5.877   7.895   9.870  0.7021 -0.4925  0.5957
23185SOL    HW270997   5.728   7.919   9.880  0.6188  0.4843 -2.1792
23186SOL     OW70998   4.654   0.328   6.584 -0.0341  0.2322  0.4498
23186SOL    HW170999   4.655   0.251   6.641 -1.3342  0.2180  0.4700
23186SOL    HW271000   4.651   0.293   6.495 -0.0081  0.2644  0.4358
23187SOL     OW71001   5.973   3.292   3.803  0.0202 -0.1300 -0.5608
23187SOL    HW171002   5.990   3.257   3.891  0.2965  0.5459 -0.3393
23187SOL    HW271003   5.879   3.305   3.800  0.1924  1.5910  0.3218
23188SOL     OW71004   3.121   5.774   0.959 -0.2066  1.0039 -0.1795
23188SOL    HW171005   3.057   5.760   1.028  1.7849 -0.6919  1.4313
23188SOL    HW271006   3.160   5.688   0.943 -0.6648  1.2582 -3.5877
23189SOL     OW71007   6.826   4.747   4.559 -0.1829  0.5042  0.3024
23189SOL    HW171008   6.823   4.670   4.615  2.2218  0.8535  1.0247
23189SOL    HW271009   6.811   4.714   4.471 -1.4747 -0.4192  0.8463
23190SOL     OW71010   6.266   1.685  10.690 -0.1636  0.1009 -0.3196
23190SOL    HW171011   6.283   1.600  10.730  0.7390  0.0734 -0.7414
23190SOL    HW271012   6.222   1.665  10.607 -1.0525  0.1087  0.1413
23191SOL     OW71013   6.691   0.530  11.878 -0.4179 -0.0704  0.5294
23191SOL    HW171014   6.686   0.617  11.837  1.7317 -0.8354 -1.5949
23191SOL    HW271015   6.666   0.470  11.808 -0.0405 -1.2780  1.4107
23192SOL     OW71016   0.288   0.346   7.524  0.0646  0.0210 -0.2003
23192SOL    HW171017   0.270   0.439   7.511  1.0925  0.3536  0.6053
23192SOL    HW271018   0.205   0.302   7.506 -0.1096  0.9619 -1.8653
23193SOL     OW71019   2.325   7.496  10.524  0.2783  0.0613 -0.7235
23193SOL    HW171020   2.394   7.460  10.468  1.8160  0.0842  1.0541
23193SOL    HW271021   2.345   7.462  10.611 -2.2229 -0.2302 -0.2036
23194SOL     OW71022   6.554   3.420   7.799  0.1107 -0.2309 -0.3806
23194SOL    HW171023   6.465   3.387   7.809 -0.0816  0.5443  0.6453
23194SOL    HW271024   6.544   3.512   7.774  0.5554  0.5309  1.9665
23195SOL     OW71025   0.779   1.262   7.717 -0.4666 -0.6365 -0.5035
23195SOL    HW171026   0.807   1.180   7.757 -1.8774 -0.2959  1.2745
23195SOL    HW271027   0.853   1.322   7.730  0.3947 -1.4647 -1.4230
23196SOL     OW71028   2.508   3.335   3.907 -0.1974 -0.4397  0.0522
23196SOL    HW171029   2.532   3.420   3.944 -0.6658 -0.6010  0.7444
23196SOL    HW271030   2.551   3.333   3.821  0.4234  0.1854  0.3414
23197SOL     OW71031   0.958   4.505   0.054  0.0334 -0.0283 -0.0220
23197SOL    HW171032   1.044   4.546   0.042  0.8071 -1.7210 -0.5540
23197SOL    HW271033   0.896   4.577   0.043  1.3560  1.1472 -0.1183
23198SOL     OW71034   1.648   6.267   8.081 -0.0650 -0.2587  0.0866
23198SOL    HW171035   1.722   6.215   8.113 -0.7339 -0.0156  2.2291
23198SOL    HW271036   1.632   6.235   7.992  0.6479 -2.5017  0.6999
23199SOL     OW71037   7.131   2.433   4.807 -0.8432 -0.0694  0.1856
23199SOL    HW171038   7.068   2.426   4.879  0.6540  1.0031  1.6667
23199SOL    HW271039   7.132   2.526   4.785 -0.1622 -0.1497 -0.1578
23200SOL     OW71040   0.650   2.097   5.498 -0.1651 -0.2710  0.3733
23200SOL    HW171041   0.717   2.082   5.564 -0.5780 -0.3259  0.7884
23200SOL    HW271042   0.698   2.132   5.422  0.7094 -2.7897 -0.3173
23201SOL     OW71043   2.420   5.814   3.165 -0.2588  0.8710  0.2161
23201SOL    HW171044   2.502   5.835   3.210 -0.1498 -1.4737  1.3021
23201SOL    HW271045   2.442   5.818   3.072  1.0864  0.3840  0.4851
23202SOL     OW71046   5.735   1.746   7.235  0.3649  0.2593  0.1355
23202SOL    HW171047   5.777   1.785   7.312 -0.3594 -0.7372  1.0683
23202SOL    HW271048   5.643   1.769   7.244 -0.0082 -1.2786  0.4853
23203SOL     OW71049   0.880   1.873   5.269  0.1121 -0.9857  0.8764
23203SOL    HW171050   0.863   1.964   5.295  1.8220 -0.2509 -0.4102
23203SOL    HW271051   0.795   1.840   5.242 -0.3795  0.5655  0.4178
23204SOL     OW71052   6.513   3.682   5.404  0.1508 -0.3808  0.4545
23204SOL    HW171053   6.545   3.692   5.493  0.8810 -1.7523  0.3587
23204SOL    HW271054   6.585   3.643   5.356  0.1296  1.2499 -1.0040
23205SOL     OW71055   0.127   1.294   7.602  0.3115 -0.0048 -0.0866
23205SOL    HW171056   0.180   1.243   7.663  0.0345  0.6935  0.7623
23205SOL    HW271057   0.142   1.253   7.517  0.0222 -1.5526  0.5770
23206SOL     OW71058   5.953   2.733   1.409 -0.1912  0.4381  0.3117
23206SOL    HW171059   5.970   2.781   1.329 -0.4974  0.3084  0.1696
23206SOL    HW271060   6.001   2.781   1.477 -0.9931  1.3056  0.2828
23207SOL     OW71061   5.084   5.424   6.545  0.3259  0.0827  0.3131
23207SOL    HW171062   5.060   5.331   6.549 -0.9783  0.3864  0.1536
23207SOL    HW271063   5.105   5.447   6.636 -0.7547 -0.0373  0.6112
23208SOL     OW71064   2.439   7.691  12.206 -0.7301 -0.3942  0.3204
23208SOL    HW171065   2.345   7.676  12.212 -0.8255  0.0290 -0.0556
23208SOL    HW271066   2.478   7.623  12.261 -1.2900 -0.0808  1.1132
23209SOL     OW71067   1.320   7.623  10.067  0.3352 -0.9800 -0.1902
23209SOL    HW171068   1.304   7.667   9.984 -1.3124 -0.1856  0.5318
23209SOL    HW271069   1.314   7.691  10.134 -1.1069 -2.0518  0.8379
23210SOL     OW71070   1.721   6.486   3.991  0.4493 -0.1358 -0.4606
23210SOL    HW171071   1.701   6.467   3.899 -1.0367 -0.2087 -0.1408
23210SOL    HW271072   1.817   6.477   3.996  0.3960 -1.9849 -1.5877
23211SOL     OW71073   2.393   3.548   7.629  0.1333 -0.1359 -0.1002
23211SOL    HW171074   2.426   3.632   7.663 -0.5779  0.4701 -0.8547
23211SOL    HW271075   2.361   3.502   7.707  3.4214 -1.1418  0.8167
23212SOL     OW71076   3.517   4.650   8.179  0.1318  0.2228 -0.4536
23212SOL    HW171077   3.436   4.632   8.131  0.6833 -0.7134 -1.0651
23212SOL    HW271078   3.492   4.642   8.272 -0.7945  1.4234 -0.5881
23213SOL     OW71079   6.268   1.502   3.767  0.7790 -0.0135  0.3288
23213SOL    HW171080   6.255   1.416   3.807  0.9915  0.0372  0.5080
23213SOL    HW271081   6.356   1.499   3.732  0.9972  0.3299  0.8346
23214SOL     OW71082   5.808   6.132   7.714  0.1222  0.3848 -0.3776
23214SOL    HW171083   5.807   6.190   7.638  0.6960  1.1298  0.1652
23214SOL    HW271084   5.783   6.188   7.788  1.7260  0.2234  0.3274
23215SOL     OW71085   7.622   3.235   9.511  0.4884  0.0425 -0.0272
23215SOL    HW171086   7.616   3.329   9.528 -0.7555 -0.0662  0.2153
23215SOL    HW271087   7.584   3.224   9.424 -0.4936 -0.3648  0.4362
23216SOL     OW71088   2.301   6.715  11.266 -0.0843 -0.1160 -0.4196
23216SOL    HW171089   2.305   6.629  11.308 -0.3528  0.7273  1.4452
23216SOL    HW271090   2.392   6.737  11.247  0.6860  1.3241  3.8726
23217SOL     OW71091   7.495   0.284   2.890  0.0331  0.3332 -0.0664
23217SOL    HW171092   7.482   0.227   2.814 -2.4943  1.9685 -0.9660
23217SOL    HW271093   7.508   0.224   2.963 -0.0741 -1.3351 -1.3598
23218SOL     OW71094   1.857   7.323   2.886  0.1632  0.2622 -0.5072
23218SOL    HW171095   1.803   7.286   2.956  0.8279 -0.0806 -0.1638
23218SOL    HW271096   1.947   7.312   2.917  0.5635 -1.1764 -1.9904
23219SOL     OW71097   0.910   2.891   0.315 -0.1334  0.0777 -0.6506
23219SOL    HW171098   0.845   2.886   0.385  2.6906 -0.0104  2.1232
23219SOL    HW271099   0.914   2.802   0.280 -0.8568 -0.1219 -0.2468
23220SOL     OW71100   7.169   5.336   6.038  0.1103  0.3074  0.8056
23220SOL    HW171101   7.099   5.316   6.101  0.3949  0.5321  1.1943
23220SOL    HW271102   7.126   5.392   5.973  0.2915  1.7005  1.8598
23221SOL     OW71103   7.782   3.775   0.102  0.0194 -0.1074 -0.2914
23221SOL    HW171104   7.732   3.851   0.131 -0.9678 -1.1973  0.9742
23221SOL    HW271105   7.720   3.724   0.049 -0.5530 -1.8721  1.9427
23222SOL     OW71106   7.274   1.878   1.133 -0.2275  0.0267  0.3513
23222SOL    HW171107   7.287   1.853   1.042  0.3933 -0.3314  0.5318
23222SOL    HW271108   7.262   1.973   1.131 -0.8537 -0.0618 -0.1636
23223SOL     OW71109   3.271   2.291   0.946 -0.0892  0.0597 -0.0644
23223SOL    HW171110   3.224   2.284   0.862 -3.1886  1.4345  1.4085
23223SOL    HW271111   3.286   2.384   0.958  0.2057 -0.1071  0.9641
23224SOL     OW71112   7.662   0.353   3.245 -0.2636  0.0785 -0.4470
23224SOL    HW171113   7.658   0.413   3.170  0.4447 -0.0446 -0.5879
23224SOL    HW271114   7.706   0.275   3.212 -0.9316 -0.4215 -0.1873
23225SOL     OW71115   2.712   3.650   9.601  0.6754 -0.1794 -0.0701
23225SOL    HW171116   2.725   3.675   9.510  1.4414 -0.8077 -0.1482
23225SOL    HW271117   2.768   3.710   9.651  1.3171 -0.7067 -0.1351
23226SOL     OW71118   3.407   4.571   5.920 -0.3805 -0.4166  0.2834
23226SOL    HW171119   3.384   4.541   6.007 -1.7543 -0.7340 -0.1644
23226SOL    HW271120   3.362   4.655   5.910  1.0585  0.4100  0.4441
23227SOL     OW71121   4.495   2.002   3.347  0.3086 -1.0648 -0.1445
23227SOL    HW171122   4.444   1.975   3.423 -2.3815 -2.3032 -2.2420
23227SOL    HW271123   4.565   1.937   3.340 -0.3332 -1.8288  0.4055
23228SOL     OW71124   4.518   7.297   0.014 -0.2284  0.6439 -0.3875
23228SOL    HW171125   4.436   7.302   0.062 -0.7848  0.9279 -1.3544
23228SOL    HW271126   4.556   7.385   0.024  0.7441  0.0817  1.3692
23229SOL     OW71127   7.923   5.268   7.786 -0.1528 -0.2304 -0.0057
23229SOL    HW171128   7.997   5.289   7.728 -1.4087  1.0713 -1.2277
23229SOL    HW271129   7.895   5.180   7.759  1.2537 -0.9816  0.8594
23230SOL     OW71130   0.437   4.350  10.971  0.2742 -0.3852 -0.3408
23230SOL    HW171131   0.495   4.278  10.993 -3.0842 -2.5521  2.4605
23230SOL    HW271132   0.368   4.310  10.917 -1.0205  0.9695  0.2226
23231SOL     OW71133   0.274   0.517   3.150 -0.1964 -0.1237  0.0997
23231SOL    HW171134   0.364   0.550   3.143 -0.5730  0.8245 -0.5392
23231SOL    HW271135   0.253   0.525   3.243  0.2447  0.0282  0.1893
23232SOL     OW71136   7.813   1.970   3.565  0.0950  0.1566 -0.4511
23232SOL    HW171137   7.840   2.061   3.578 -1.3307  0.5289 -0.0075
23232SOL    HW271138   7.723   1.975   3.534 -0.0133 -1.1085 -0.4012
23233SOL     OW71139   1.186   3.928   5.335 -0.4404 -0.0156 -0.0176
23233SOL    HW171140   1.200   3.964   5.423 -3.4240  0.2057  0.4819
23233SOL    HW271141   1.223   3.993   5.277  1.6978 -0.2146  1.0380
23234SOL     OW71142   3.007   4.818   5.201  0.0651  0.1624 -0.2150
23234SOL    HW171143   2.964   4.875   5.138  0.6016  0.5296 -0.2582
23234SOL    HW271144   3.095   4.804   5.165 -0.1038 -0.8086 -0.2793
23235SOL     OW71145   3.957   7.079  11.302 -0.7654 -0.1663 -0.5109
23235SOL    HW171146   3.893   7.008  11.295 -1.0146  0.1476 -1.5958
23235SOL    HW271147   4.036   7.044  11.262 -0.6824 -0.0608 -0.4408
23236SOL     OW71148   5.560   3.973   9.605 -0.0227  0.4412 -0.2515
23236SOL    HW171149   5.564   3.972   9.509  0.0528  1.5843 -0.2742
23236SOL    HW271150   5.586   3.885   9.631  2.1904  0.7172 -1.2306
23237SOL     OW71151   1.979   4.139   7.712  0.0009  0.2057 -0.4906
23237SOL    HW171152   2.060   4.104   7.750  1.4532  1.3198 -2.3358
23237SOL    HW271153   1.961   4.082   7.638 -2.0345 -1.1431  0.9521
23238SOL     OW71154   4.198   2.307  10.174 -0.4059  0.2967  0.0690
23238SOL    HW171155   4.158   2.222  10.193  0.7950 -0.2589  0.2175
23238SOL    HW271156   4.261   2.320  10.246 -0.3900  1.1911 -0.0954
23239SOL     OW71157   1.403   2.581   8.935  0.0705  0.0298  0.9719
23239SOL    HW171158   1.443   2.536   8.860  1.1635 -2.2975  2.8310
23239SOL    HW271159   1.312   2.550   8.935 -0.5458  1.6492 -0.4970
23240SOL     OW71160   4.987   7.396  10.401  0.4097  0.5464 -0.4156
23240SOL    HW171161   5.031   7.315  10.377  0.6124  0.7666 -0.8026
23240SOL    HW271162   4.915   7.369  10.458  1.0727  0.1911  0.2587
23241SOL     OW71163   6.037   0.918   7.944  0.1831 -0.3307  0.2742
23241SOL    HW171164   6.015   1.005   7.977  0.0008 -0.0378 -0.5858
23241SOL    HW271165   5.953   0.879   7.921  0.2340 -0.8999  1.0454
23242SOL     OW71166   2.888   5.602  12.345 -0.1193 -0.0354 -0.0797
23242SOL    HW171167   2.930   5.687  12.357 -1.8252  0.6751  1.3490
23242SOL    HW271168   2.924   5.548  12.415 -1.4255  0.5485  1.0927
23243SOL     OW71169   1.818   5.080   1.578 -0.5471  0.0851  0.7677
23243SOL    HW171170   1.849   5.157   1.626  2.0108  0.2346 -0.9301
23243SOL    HW271171   1.872   5.008   1.610 -0.6928 -0.3466  0.0707
23244SOL     OW71172   6.668   3.901   1.822 -0.1222  0.0917 -0.0826
23244SOL    HW171173   6.624   3.928   1.903  0.3221  2.5351 -0.5852
23244SOL    HW271174   6.598   3.899   1.757 -0.5591 -2.2833  0.3616
23245SOL     OW71175   0.119   6.917   3.532  0.2068 -0.4989  0.0480
23245SOL    HW171176   0.111   6.854   3.604  0.8637 -1.0243 -0.3230
23245SOL    HW271177   0.198   6.967   3.552 -1.3722  1.6277  1.3914
23246SOL     OW71178   2.546   5.149  10.020  0.1585  0.4193 -0.3685
23246SOL    HW171179   2.592   5.198  10.088  0.9228  0.5253 -0.9496
23246SOL    HW271180   2.455   5.177  10.029 -0.1524 -1.0146  1.8638
23247SOL     OW71181   7.528   1.266  10.586  0.0799 -0.0306 -0.0460
23247SOL    HW171182   7.566   1.226  10.507  0.1019 -0.3903  0.1411
23247SOL    HW271183   7.544   1.360  10.576  1.6040 -0.2265  0.3176
23248SOL     OW71184   6.932   2.721   8.639 -0.3212 -0.3703 -0.5007
23248SOL    HW171185   6.841   2.713   8.614 -0.1263  1.1232 -1.8255
23248SOL    HW271186   6.954   2.812   8.622  0.9634 -0.2396  1.4230
23249SOL     OW71187   0.137   1.325   6.890  0.2797  0.8611 -0.1644
23249SOL    HW171188   0.064   1.270   6.920  0.3688  0.2798 -0.9622
23249SOL    HW271189   0.126   1.328   6.794  1.1295  1.0143 -0.2595
23250SOL     OW71190   7.155   4.226   1.663  0.2473  0.2284  0.5653
23250SOL    HW171191   7.160   4.135   1.693  1.7187 -0.1727 -0.7459
23250SOL    HW271192   7.237   4.265   1.692  0.4117  0.6207 -0.3812
23251SOL     OW71193   1.276   0.951   4.250  0.0550  0.3117 -0.0059
23251SOL    HW171194   1.293   1.020   4.314  0.0601 -0.0528  0.3910
23251SOL    HW271195   1.228   0.884   4.299 -3.6002  1.7465 -1.3003
23252SOL     OW71196   1.596   1.647   7.460  0.2152  0.1551 -0.2334
23252SOL    HW171197   1.545   1.705   7.516 -0.6198 -0.5133 -0.2789
23252SOL    HW271198   1.649   1.706   7.406 -0.0155  0.8432  0.2732
23253SOL     OW71199   2.959   1.505   7.589 -0.6585  0.0462 -0.5022
23253SOL    HW171200   2.977   1.583   7.536  0.2301 -1.9945 -3.4651
23253SOL    HW271201   2.865   1.489   7.578 -0.2149 -1.3978 -3.3096
23254SOL     OW71202   1.021   0.295  11.340 -0.3552  0.2582 -0.4738
23254SOL    HW171203   0.999   0.226  11.278  0.7156 -1.5014  1.0274
23254SOL    HW271204   1.108   0.324  11.313 -1.0795  1.5868 -1.5263
23255SOL     OW71205   3.091   7.482   9.080  0.0658  0.4943  0.5153
23255SOL    HW171206   3.088   7.491   9.176 -0.6154  1.3979  0.4206
23255SOL    HW271207   3.011   7.435   9.058  0.6868 -0.5724  0.4556
23256SOL     OW71208   6.716   7.978   9.979 -0.0240 -0.1590  0.3359
23256SOL    HW171209   6.761   7.952   9.899  1.8950 -0.9259  1.6015
23256SOL    HW271210   6.640   7.920   9.984  0.4585 -0.8626 -0.3546
23257SOL     OW71211   7.388   2.581   8.071 -0.5057 -0.0606  0.4256
23257SOL    HW171212   7.365   2.499   8.115  1.0555 -1.5843 -1.3990
23257SOL    HW271213   7.303   2.624   8.055 -1.3213 -1.0900  1.8080
23258SOL     OW71214   4.657   0.520   4.334 -0.0238 -0.0289 -0.2979
23258SOL    HW171215   4.572   0.559   4.353 -0.2421  0.0179 -1.3440
23258SOL    HW271216   4.708   0.590   4.294  0.5102 -0.0609  0.3059
23259SOL     OW71217   3.735   1.958   3.565 -0.4906 -0.4923  0.0942
23259SOL    HW171218   3.794   1.882   3.563  0.4437  0.2170 -0.3980
23259SOL    HW271219   3.778   2.022   3.509 -1.2689  0.4009  0.4996
23260SOL     OW71220   6.237   7.402   6.692 -0.1448 -0.3689  0.4654
23260SOL    HW171221   6.325   7.372   6.669  0.0634  1.2854 -1.2265
23260SOL    HW271222   6.244   7.498   6.693 -2.1169 -0.1516 -0.7372
23261SOL     OW71223   2.680   0.884   8.463 -0.0776 -0.2621 -0.0581
23261SOL    HW171224   2.593   0.888   8.504 -0.2382  0.4046 -0.4567
23261SOL    HW271225   2.720   0.968   8.483  1.9891 -1.8144  3.3179
23262SOL     OW71226   5.975   7.842  12.033  0.1661 -0.7639  0.8920
23262SOL    HW171227   6.052   7.886  12.069  0.1917 -0.3642  0.3748
23262SOL    HW271228   5.925   7.814  12.109  1.7834 -2.7937  1.2889
23263SOL     OW71229   5.394   1.848   7.010 -0.0639 -0.5486  0.3750
23263SOL    HW171230   5.369   1.934   7.044  1.5893  0.0289  0.1898
23263SOL    HW271231   5.336   1.835   6.934 -1.9251 -0.6726  1.7521
23264SOL     OW71232   4.695   1.818   3.361  0.5886 -0.1043  0.0272
23264SOL    HW171233   4.682   1.755   3.432  0.4476 -1.0955 -0.8419
23264SOL    HW271234   4.762   1.778   3.306  0.5782  0.5657 -0.4825
23265SOL     OW71235   5.826   0.766   6.235  0.4735 -0.2439  0.1851
23265SOL    HW171236   5.829   0.853   6.275  1.9149  0.4274 -1.2549
23265SOL    HW271237   5.741   0.730   6.260 -0.3567  1.7797  0.3987
23266SOL     OW71238   7.227   3.517   0.065  0.4197 -0.4429  0.2525
23266SOL    HW171239   7.133   3.527   0.079  0.2389 -1.1519 -0.4224
23266SOL    HW271240   7.267   3.574   0.132 -0.4862  0.3983  0.1092
23267SOL     OW71241   4.838   0.728   4.568 -0.0851 -0.5467  0.6116
23267SOL    HW171242   4.826   0.648   4.517 -0.5802  0.2824 -0.6059
23267SOL    HW271243   4.751   0.749   4.600  0.2313 -1.0934  1.8885
23268SOL     OW71244   3.203   2.037   3.260 -0.1652 -0.0345 -0.3696
23268SOL    HW171245   3.192   1.972   3.191  2.0628 -0.0390 -0.7868
23268SOL    HW271246   3.139   2.012   3.327 -0.0915 -2.0391 -0.9832
23269SOL     OW71247   5.030   7.504  11.321 -0.7069 -0.1619 -0.1413
23269SOL    HW171248   5.065   7.556  11.394  0.5819  1.6401 -1.9411
23269SOL    HW271249   4.944   7.475  11.352 -0.3839  0.8608  1.9258
23270SOL     OW71250   0.998   5.768   4.629  0.3885  0.3626  0.6143
23270SOL    HW171251   1.012   5.716   4.707  0.4393 -0.6935 -0.0832
23270SOL    HW271252   1.063   5.735   4.566 -0.2269  0.5926 -0.1625
23271SOL     OW71253   5.998   7.239   5.569  0.2800 -0.6713 -0.5125
23271SOL    HW171254   5.998   7.333   5.552 -0.5272 -0.9392 -2.2488
23271SOL    HW271255   6.036   7.200   5.490  0.2011 -1.8349 -0.0058
23272SOL     OW71256   5.255   3.911   6.558  0.4484  0.0053  0.2873
23272SOL    HW171257   5.246   3.870   6.644 -0.1889 -0.9370 -0.2182
23272SOL    HW271258   5.165   3.934   6.533  0.7825  1.7526  0.5646
23273SOL     OW71259   4.358   4.535   4.339  0.4542  0.2365  0.4343
23273SOL    HW171260   4.388   4.450   4.307  0.9025 -0.3176  2.2442
23273SOL    HW271261   4.292   4.515   4.404 -0.2934  1.3293  0.0421
23274SOL     OW71262   2.811   5.265   4.894  0.0648  0.0312  0.4953
23274SOL    HW171263   2.761   5.310   4.962  0.9710  3.7392 -1.0279
23274SOL    HW271264   2.749   5.254   4.821 -0.0997 -1.1543  0.7884
23275SOL     OW71265   6.737   6.204   4.073  0.4690 -0.5282  0.2782
23275SOL    HW171266   6.674   6.145   4.115  0.1643 -0.1892  0.3017
23275SOL    HW271267   6.685   6.254   4.010  0.9231 -1.0395 -0.5187
23276SOL     OW71268   2.457   7.685   4.296 -0.6508 -0.4542  0.6480
23276SOL    HW171269   2.492   7.712   4.381 -0.0802  0.0142  0.2738
23276SOL    HW271270   2.501   7.602   4.277  0.0874  0.0086  0.2936
23277SOL     OW71271   0.101   1.976   7.263  0.8916  0.0496 -0.4467
23277SOL    HW171272   0.036   2.046   7.253  0.3530 -0.6192 -1.9361
23277SOL    HW271273   0.055   1.908   7.312 -0.3263 -1.2660 -3.1913
23278SOL     OW71274   4.533   4.431   4.589  0.6264 -0.3368  0.0585
23278SOL    HW171275   4.539   4.415   4.495 -0.4515  2.0437 -0.5124
23278SOL    HW271276   4.577   4.515   4.602  0.0724 -0.2372  1.5369
23279SOL     OW71277   1.315   0.831   5.197  0.3507 -0.1372 -0.7345
23279SOL    HW171278   1.386   0.851   5.258 -0.6068  0.0609  0.3390
23279SOL    HW271279   1.358   0.786   5.124  1.5804  0.0213 -0.1286
23280SOL     OW71280   6.380   7.793   8.830  0.1902  0.0067  0.1176
23280SOL    HW171281   6.404   7.741   8.907  0.6680  0.7918  0.5047
23280SOL    HW271282   6.337   7.871   8.865 -1.4184 -0.5558 -0.5027
23281SOL     OW71283   1.638   0.653  11.409 -0.2314  0.4256  0.2017
23281SOL    HW171284   1.619   0.687  11.322 -2.5181  0.0772  0.5120
23281SOL    HW271285   1.617   0.726  11.468 -0.6725  0.0015  0.5775
23282SOL     OW71286   5.400   5.631   5.482 -0.2496 -0.3732  0.0494
23282SOL    HW171287   5.333   5.698   5.478  0.1062  0.0161  0.4949
23282SOL    HW271288   5.372   5.573   5.553 -1.1015 -1.3073 -1.0157
23283SOL     OW71289   1.914   6.706   2.062 -0.3557  0.3855 -0.2527
23283SOL    HW171290   1.821   6.686   2.053 -0.3890  1.1211 -2.0826
23283SOL    HW271291   1.953   6.672   1.981  0.6536  1.6240 -0.3169
23284SOL     OW71292   5.679   6.553   6.359 -0.0786 -0.5085 -0.0671
23284SOL    HW171293   5.737   6.589   6.293 -0.5589 -1.6305 -1.1372
23284SOL    HW271294   5.724   6.568   6.442  0.5667  0.8565 -0.6410
23285SOL     OW71295   1.424   2.758   2.282  0.6165 -0.1662 -0.0640
23285SOL    HW171296   1.332   2.783   2.295 -0.2800 -2.3604 -1.6166
23285SOL    HW271297   1.456   2.737   2.369 -0.4963  0.2271  0.4565
23286SOL     OW71298   1.424   2.344  10.107  0.2901 -0.5826  0.5467
23286SOL    HW171299   1.371   2.368  10.183  0.5826 -3.2832  1.7470
23286SOL    HW271300   1.471   2.424  10.083 -2.1211  1.1506  1.2190
23287SOL     OW71301   5.936   4.716   5.758  0.3951  0.2996  0.0054
23287SOL    HW171302   5.842   4.719   5.779  0.2994 -0.7573 -0.2037
23287SOL    HW271303   5.940   4.667   5.676  1.2380 -0.9380  0.7647
23288SOL     OW71304   4.370   3.763  11.405  0.0816 -0.4842  0.0703
23288SOL    HW171305   4.321   3.846  11.407  3.0189  1.4033  1.6653
23288SOL    HW271306   4.363   3.733  11.315 -1.6077  1.1772 -0.4056
23289SOL     OW71307   3.839   5.739  10.053 -0.0264  0.4589 -0.0937
23289SOL    HW171308   3.897   5.792  10.108  1.2161  0.0121 -0.9232
23289SOL    HW271309   3.885   5.656  10.042 -1.7348 -0.6676  0.8213
23290SOL     OW71310   5.681   0.052   3.006  0.1802 -0.1382 -0.2415
23290SOL    HW171311   5.668   0.124   3.068  0.3042 -0.8530  0.6416
23290SOL    HW271312   5.635   0.080   2.927 -1.7231 -0.0701  0.8427
23291SOL     OW71313   6.141   4.612   2.405 -0.1015 -0.3732  0.1036
23291SOL    HW171314   6.124   4.674   2.334  0.1489 -0.2977  0.1088
23291SOL    HW271315   6.142   4.666   2.484  1.7887 -0.0992 -0.0551
23292SOL     OW71316   7.292   5.074   2.315 -0.0085 -0.0640  0.3115
23292SOL    HW171317   7.238   5.130   2.258 -0.7457 -1.3373 -0.2862
23292SOL    HW271318   7.239   4.995   2.327  1.3306 -0.9469  0.5213
23293SOL     OW71319   1.633   1.453  10.102  0.2600 -0.6714  0.0242
23293SOL    HW171320   1.651   1.420  10.014 -1.4139  1.5926 -1.2993
23293SOL    HW271321   1.593   1.539  10.087 -0.5854 -0.4318  3.0039
23294SOL     OW71322   5.017   5.164   0.688  0.6462 -0.2674 -0.5590
23294SOL    HW171323   5.050   5.136   0.773  0.1910  0.8811  0.0050
23294SOL    HW271324   4.997   5.257   0.698 -0.1509 -0.2890 -1.6887
23295SOL     OW71325   2.418   2.604   6.202  0.1207 -0.1873  0.6868
23295SOL    HW171326   2.482   2.572   6.138 -0.1881  0.2759  0.1268
23295SOL    HW271327   2.439   2.696   6.214 -0.3482 -0.0628  0.6017
23296SOL     OW71328   0.992   7.953   5.052 -0.2758 -0.2864  0.9124
23296SOL    HW171329   1.083   7.933   5.028 -0.5620 -1.8081  0.9939
23296SOL    HW271330   0.944   7.873   5.031 -1.7578  0.7716  0.1145
23297SOL     OW71331   0.456   1.390   1.319 -0.4931 -0.3594 -0.2686
23297SOL    HW171332   0.401   1.324   1.361 -0.5024 -1.5577 -2.0559
23297SOL    HW271333   0.445   1.375   1.225  0.8249  1.1111 -0.7102
23298SOL     OW71334   6.014   2.109   3.202 -0.3586  0.2528 -0.0390
23298SOL    HW171335   6.035   2.135   3.112  0.2370  0.4285  0.1490
23298SOL    HW271336   6.074   2.159   3.257  0.8599 -1.5251  0.3270
23299SOL     OW71337   2.960   6.793  12.278 -0.2163  0.8370 -0.0521
23299SOL    HW171338   2.905   6.819  12.204 -0.8488  0.6496  0.3441
23299SOL    HW271339   2.949   6.863  12.342 -1.2968  0.0302  0.6897
23300SOL     OW71340   5.992   1.067   3.902  0.1434  0.6123  0.4785
23300SOL    HW171341   5.925   1.117   3.857  0.2885  0.2404 -0.1640
23300SOL    HW271342   5.974   1.081   3.995 -0.0107  1.5859  0.3099
23301SOL     OW71343   5.103   2.035   7.382 -0.4975 -0.3155  0.3220
23301SOL    HW171344   5.075   2.070   7.297  0.7395  1.0138  0.4152
23301SOL    HW271345   5.158   1.960   7.361 -0.2680 -0.0426 -0.0506
23302SOL     OW71346   5.317   2.737   0.246 -0.5894 -0.0289 -0.1742
23302SOL    HW171347   5.287   2.826   0.263  1.7447  1.2113 -2.0316
23302SOL    HW271348   5.236   2.685   0.242 -2.0894  2.1594  0.0051
23303SOL     OW71349   7.249   6.802   2.980 -0.1750 -0.8552  0.0238
23303SOL    HW171350   7.250   6.716   2.939 -0.2126 -1.2700  0.8618
23303SOL    HW271351   7.175   6.798   3.042  1.1648 -1.0313  1.7004
23304SOL     OW71352   1.735   6.378  11.367 -0.3790 -0.1822  0.4574
23304SOL    HW171353   1.751   6.347  11.278  0.8141 -0.0854  0.6285
23304SOL    HW271354   1.646   6.413  11.364 -0.6991 -1.0359 -0.4546
23305SOL     OW71355   4.217   1.636  10.657  0.3101  0.2441 -0.8455
23305SOL    HW171356   4.308   1.632  10.628  0.2582 -0.6105 -0.9297
23305SOL    HW271357   4.204   1.554  10.706  0.2941  1.4593  1.3386
23306SOL     OW71358   7.242   3.919   8.897  0.4807 -0.0500 -0.1121
23306SOL    HW171359   7.275   4.008   8.886  2.1966 -0.7948 -1.6109
23306SOL    HW271360   7.205   3.896   8.812 -1.6664 -0.1783  0.7917
23307SOL     OW71361   0.202   1.725  10.436 -0.2795  0.1878 -0.1572
23307SOL    HW171362   0.229   1.735  10.527 -1.5665 -0.1368  0.2724
23307SOL    HW271363   0.279   1.686  10.393  0.5119  0.7993  0.6613
23308SOL     OW71364   0.750   2.265   2.919  0.2046 -0.3716  0.2055
23308SOL    HW171365   0.776   2.299   3.005 -1.8675  1.4724  0.1922
23308SOL    HW271366   0.662   2.228   2.934 -1.2089  2.0594 -1.4861
23309SOL     OW71367   4.125   2.665   2.355 -0.2309 -0.3554  0.4877
23309SOL    HW171368   4.160   2.750   2.383 -2.1616  0.5137  0.4059
23309SOL    HW271369   4.143   2.607   2.429  1.4558 -0.0253  0.3970
23310SOL     OW71370   7.499   5.629  11.626  0.1499  0.0235 -0.3640
23310SOL    HW171371   7.461   5.704  11.581  0.5256  0.1782 -0.4273
23310SOL    HW271372   7.436   5.558  11.612 -1.2524  0.8230  1.4442
23311SOL     OW71373   5.286   3.171   7.008  0.2379 -0.3922  0.5900
23311SOL    HW171374   5.307   3.259   7.039  1.4191 -1.6043  3.6079
23311SOL    HW271375   5.371   3.130   6.995 -0.2834 -0.9649 -1.5354
23312SOL     OW71376   5.655   0.917  10.841 -0.4014  0.0102 -0.3401
23312SOL    HW171377   5.636   0.931  10.934 -1.3854  0.1360 -0.5538
23312SOL    HW271378   5.723   0.850  10.840 -0.9015 -0.5217  0.4519
23313SOL     OW71379   3.744   0.346  11.457 -0.0590  0.2095  0.1982
23313SOL    HW171380   3.803   0.324  11.385  0.5160  0.2062  0.6648
23313SOL    HW271381   3.740   0.442  11.456 -1.6225  0.1785 -1.0771
23314SOL     OW71382   4.200   7.901   2.896  0.2081  0.2800  0.7348
23314SOL    HW171383   4.220   7.989   2.926  0.4402  0.4397  0.1031
23314SOL    HW271384   4.265   7.846   2.939  1.0882  0.6163 -0.1451
23315SOL     OW71385   5.131   1.732   6.317 -0.2453  0.9233 -0.0996
23315SOL    HW171386   5.187   1.808   6.330  0.8720  0.3814 -1.4556
23315SOL    HW271387   5.112   1.700   6.405 -0.3485  2.4752  0.4643
23316SOL     OW71388   0.369   4.930   4.668 -0.1744  0.1644  0.3005
23316SOL    HW171389   0.354   4.873   4.593  1.1570  0.7568 -0.4435
23316SOL    HW271390   0.399   4.871   4.738 -1.8079 -0.4438  0.5297
23317SOL     OW71391   5.819   3.835   0.503  0.4749 -0.6048  0.0667
23317SOL    HW171392   5.725   3.848   0.505  0.6908  1.6953 -1.0243
23317SOL    HW271393   5.834   3.778   0.428  0.0001  0.0471 -0.5378
23318SOL     OW71394   4.968   3.632  11.924 -0.4057  0.1547 -0.4212
23318SOL    HW171395   4.940   3.649  12.014 -0.9797 -3.1860  0.1375
23318SOL    HW271396   5.062   3.618  11.931 -0.4545 -0.1318 -0.3445
23319SOL     OW71397   2.794   7.450   2.419  0.1785 -0.1608  0.2170
23319SOL    HW171398   2.797   7.447   2.515 -0.2666 -0.0958  0.2371
23319SOL    HW271399   2.758   7.364   2.395 -1.9743  0.6700  0.2348
23320SOL     OW71400   4.951   0.234   8.227 -0.1349  0.7445  0.0487
23320SOL    HW171401   4.935   0.286   8.305 -0.3000  0.5573  0.1404
23320SOL    HW271402   4.995   0.294   8.167 -1.0071  1.2232 -0.1413
23321SOL     OW71403   0.579   6.116  12.384 -0.3234  0.0226 -0.1247
23321SOL    HW171404   0.545   6.075  12.304  0.3876 -2.0618  0.5795
23321SOL    HW271405   0.527   6.079  12.455  0.7351 -0.1739  0.5873
23322SOL     OW71406   4.800   6.023   8.871 -0.0488 -0.1756  0.9149
23322SOL    HW171407   4.827   6.114   8.880 -0.6572  0.3344 -1.7149
23322SOL    HW271408   4.759   6.018   8.785  1.3972 -3.2696  0.2516
23323SOL     OW71409   0.986   4.443   1.730  0.0241 -0.3386  0.1595
23323SOL    HW171410   1.045   4.439   1.654  0.0894  2.7731 -0.0703
23323SOL    HW271411   0.901   4.418   1.695  0.6695 -2.3437 -0.0988
23324SOL     OW71412   4.644   0.770   2.761  0.1550 -0.6516  0.3047
23324SOL    HW171413   4.560   0.796   2.798  0.6352 -0.4952  1.2903
23324SOL    HW271414   4.635   0.787   2.667  0.0398  1.9840  0.7367
23325SOL     OW71415   4.766   6.130   2.758  0.1172 -0.2549  0.3297
23325SOL    HW171416   4.746   6.036   2.764  0.3862 -0.2974  0.6243
23325SOL    HW271417   4.740   6.165   2.843 -1.6763  0.2880 -0.4082
23326SOL     OW71418   7.695   5.492   2.033 -0.1613  0.3425  0.5475
23326SOL    HW171419   7.658   5.542   1.961 -0.2864 -1.2690 -0.5514
23326SOL    HW271420   7.788   5.484   2.011 -0.1364  0.1161  0.7327
23327SOL     OW71421   5.123   0.341   2.791  0.9244  0.4205 -0.3315
23327SOL    HW171422   5.179   0.343   2.713  2.0318 -1.5778  0.3492
23327SOL    HW271423   5.180   0.367   2.863  0.0508  1.6900 -0.0435
23328SOL     OW71424   0.324   4.285  11.278  0.2868 -0.1952  0.2229
23328SOL    HW171425   0.309   4.200  11.236  1.6289 -1.4514  2.1114
23328SOL    HW271426   0.418   4.300  11.269  0.0063  1.3417 -0.4472
23329SOL     OW71427   6.639   4.954  11.618 -0.3736  0.0266  0.0242
23329SOL    HW171428   6.636   4.941  11.524  0.9456 -0.3363  0.0123
23329SOL    HW271429   6.606   5.043  11.632 -0.9082 -0.0499 -0.7405
23330SOL     OW71430   2.852   7.700   9.352  0.5313  0.0952  0.1656
23330SOL    HW171431   2.941   7.692   9.386  0.3770  0.2908  0.6266
23330SOL    HW271432   2.855   7.777   9.294  1.3047 -1.4360 -1.9644
23331SOL     OW71433   0.004   3.765   9.994 -0.7510 -0.4634 -0.3767
23331SOL    HW171434   0.041   3.848  10.025  0.0440 -0.4402 -1.3146
23331SOL    HW271435  -0.021   3.719  10.073  1.1687 -0.3913  0.3324
23332SOL     OW71436   7.688   3.551   6.510  0.1550  0.2245 -0.3075
23332SOL    HW171437   7.688   3.643   6.486  0.5397  0.5210  0.8010
23332SOL    HW271438   7.767   3.515   6.468 -0.0663  0.3569 -0.8468
23333SOL     OW71439   7.404   5.284  11.371 -0.1806  0.1102 -0.3093
23333SOL    HW171440   7.355   5.202  11.361  0.1916  0.1072 -2.5577
23333SOL    HW271441   7.377   5.337  11.297  0.1447  1.7751  0.7175
23334SOL     OW71442   1.261   6.937   6.016 -0.4173  0.0273  0.2281
23334SOL    HW171443   1.210   6.973   5.944  3.3472  0.1581 -2.6904
23334SOL    HW271444   1.270   7.009   6.079 -0.1167  1.4307 -1.3642
23335SOL     OW71445   6.306   3.975   5.137 -0.1266 -0.1170  0.1026
23335SOL    HW171446   6.401   3.963   5.128 -0.3532 -2.0981 -0.1486
23335SOL    HW271447   6.280   3.909   5.201 -1.3687  0.2309 -0.0234
23336SOL     OW71448   7.773   1.434  10.899  0.1489  0.0334 -0.2195
23336SOL    HW171449   7.697   1.492  10.897 -0.5040 -0.8045 -1.9188
23336SOL    HW271450   7.750   1.366  10.963 -0.4844 -0.1378 -0.6208
23337SOL     OW71451   0.876   3.649   3.886 -0.0371 -0.6851 -0.4312
23337SOL    HW171452   0.855   3.735   3.849  0.2790  0.4265  1.8083
23337SOL    HW271453   0.969   3.655   3.907 -0.6762 -0.2493  2.8046
23338SOL     OW71454   3.963   0.664   3.361  0.4128 -0.0771 -0.3594
23338SOL    HW171455   3.991   0.582   3.321  1.0130  0.4068 -0.9342
23338SOL    HW271456   3.900   0.700   3.300  0.3972  0.0547 -0.2646
23339SOL     OW71457   0.987   1.315   7.265  0.4063 -0.0629 -0.0977
23339SOL    HW171458   1.061   1.361   7.305  0.0225 -0.1248  0.6965
23339SOL    HW271459   0.941   1.383   7.215 -1.1328  0.8697  2.4171
23340SOL     OW71460   4.695   4.066   2.145 -0.2904 -0.0904 -0.0619
23340SOL    HW171461   4.666   4.061   2.054 -1.1274  0.1246  0.1847
23340SOL    HW271462   4.777   4.017   2.147 -1.1480 -1.5852 -0.5666
23341SOL     OW71463   2.463   7.762   1.436 -0.1831  0.0399  0.4345
23341SOL    HW171464   2.391   7.780   1.497 -0.6584  0.3650 -0.2083
23341SOL    HW271465   2.477   7.667   1.443 -1.8368 -0.3267 -0.6677
23342SOL     OW71466   5.802   4.857   5.481 -0.5413 -0.0052 -0.0650
23342SOL    HW171467   5.750   4.812   5.414  0.7123  2.2468 -2.7576
23342SOL    HW271468   5.745   4.928   5.511  0.0816  1.0723 -1.3416
23343SOL     OW71469   4.477   2.209   8.300 -0.0987  0.5676  0.1314
23343SOL    HW171470   4.413   2.268   8.340 -0.8890 -1.3725  1.8757
23343SOL    HW271471   4.467   2.126   8.347  0.6924 -1.1259 -2.4530
23344SOL     OW71472   2.388   2.485   1.102 -0.1205  0.6852  0.1093
23344SOL    HW171473   2.446   2.409   1.113 -1.0558 -0.3106 -1.4136
23344SOL    HW271474   2.448   2.559   1.097  0.9928 -0.2171 -0.6401
23345SOL     OW71475   0.560   3.723  12.119 -0.5270  0.2124  0.3762
23345SOL    HW171476   0.563   3.799  12.061 -1.5525 -0.3407 -0.4543
23345SOL    HW271477   0.621   3.660  12.080  0.5405  0.6950  1.2245
23346SOL     OW71478   6.232   0.227   0.030 -0.9171  0.1210 -0.0608
23346SOL    HW171479   6.241   0.168   0.106 -1.2514 -1.7650 -1.4045
23346SOL    HW271480   6.156   0.281   0.051 -0.9749 -0.3277  0.9742
23347SOL     OW71481   5.068   0.899   3.944  0.1461 -0.4821 -0.0261
23347SOL    HW171482   5.077   0.897   3.848  2.0227  0.0478  0.1005
23347SOL    HW271483   5.136   0.961   3.973 -0.9066 -0.0378  1.6008
23348SOL     OW71484   7.711   5.187   8.824  0.2500 -0.5833  0.2162
23348SOL    HW171485   7.656   5.196   8.747  0.2432  0.4923  0.3364
23348SOL    HW271486   7.663   5.233   8.893  0.1148 -1.7695  0.9481
23349SOL     OW71487   2.223   4.853  12.405  0.5258  0.1578 -0.3794
23349SOL    HW171488   2.210   4.836  12.312 -0.2851  0.8309 -0.4096
23349SOL    HW271489   2.216   4.767  12.447 -4.9813  0.2318 -0.3324
23350SOL     OW71490   3.564   2.838   4.750  0.0010  0.1819 -0.1728
23350SOL    HW171491   3.494   2.824   4.815  0.0093  0.5908 -0.0779
23350SOL    HW271492   3.581   2.750   4.715 -0.3354  0.0304  0.0363
23351SOL     OW71493   6.463   3.857   1.631 -0.3202  0.0984 -0.1797
23351SOL    HW171494   6.380   3.864   1.677 -0.3437 -0.6589 -0.1019
23351SOL    HW271495   6.442   3.880   1.540 -0.2271  1.8275  0.2075
23352SOL     OW71496   4.991   1.179   3.409 -0.7141  0.0396 -0.4329
23352SOL    HW171497   5.071   1.208   3.365  0.3678 -0.8387  0.8424
23352SOL    HW271498   4.956   1.258   3.451 -0.9119  0.5652 -1.5571
23353SOL     OW71499   6.839   6.168   1.877 -0.2228  0.0614  0.0876
23353SOL    HW171500   6.842   6.115   1.797 -1.3059  0.0371  0.0461
23353SOL    HW271501   6.915   6.138   1.928  0.2821 -0.1616 -0.7746
23354SOL     OW71502   6.396   2.146  10.756  0.2165 -0.0039  0.2045
23354SOL    HW171503   6.442   2.076  10.802  0.9363  0.4518  0.1981
23354SOL    HW271504   6.465   2.194  10.711 -0.3984 -0.0423 -0.8258
23355SOL     OW71505   0.042   0.984  10.754 -0.0346  0.1667 -0.2784
23355SOL    HW171506   0.075   1.070  10.780 -0.5707 -0.2068  1.7781
23355SOL    HW271507  -0.030   1.003  10.694 -0.8795  1.2027  1.0175
23356SOL     OW71508   2.074   2.731   3.600  0.3769 -0.2859 -0.0042
23356SOL    HW171509   2.082   2.826   3.608 -0.2708 -0.1360 -1.0632
23356SOL    HW271510   2.040   2.717   3.512 -0.8592 -1.4365  0.6363
23357SOL     OW71511   4.446   4.662  11.248 -0.3994 -0.0295  0.0076
23357SOL    HW171512   4.464   4.591  11.186  1.4742 -1.0062  1.5416
23357SOL    HW271513   4.377   4.628  11.305  0.6993 -0.8126  0.9241
23358SOL     OW71514   0.944   2.104   6.545  0.2679  0.3638  0.4159
23358SOL    HW171515   0.915   2.023   6.589 -0.7445 -0.4411 -1.6003
23358SOL    HW271516   1.004   2.074   6.478  1.6060  1.5538  1.0433
23359SOL     OW71517   3.476   0.359  12.454 -0.6065 -0.2190  0.3506
23359SOL    HW171518   3.554   0.415  12.451 -1.6304  1.2365 -0.2613
23359SOL    HW271519   3.491   0.301  12.529  0.3418  1.1196  1.2516
23360SOL     OW71520   3.255   1.577  11.809 -0.6447  0.2144  0.2130
23360SOL    HW171521   3.215   1.559  11.894  0.4590 -0.3653  0.6299
23360SOL    HW271522   3.208   1.654  11.777 -0.9793  0.5451  1.4224
23361SOL     OW71523   3.076   1.615  11.136 -0.3082  0.3918 -0.0314
23361SOL    HW171524   3.077   1.594  11.230  1.3935 -0.4997 -0.1913
23361SOL    HW271525   3.091   1.709  11.132  0.5528  0.2960  0.6013
23362SOL     OW71526   6.020   0.842   9.849  0.0542 -0.1802  0.2163
23362SOL    HW171527   5.963   0.836   9.772  1.5003  0.3556 -0.9701
23362SOL    HW271528   5.961   0.842   9.924 -1.4579  0.0481 -0.9309
23363SOL     OW71529   5.642   6.146  10.364 -0.2019 -0.4736  0.0383
23363SOL    HW171530   5.574   6.142  10.297 -0.5338  0.4034  0.3190
23363SOL    HW271531   5.690   6.064  10.353  0.4541  0.1083 -2.0165
23364SOL     OW71532   6.994   0.786   4.614  0.3276  0.3631  0.2833
23364SOL    HW171533   7.063   0.742   4.564  0.0191 -0.4545  0.5514
23364SOL    HW271534   7.040   0.850   4.668  0.6591  1.2656 -1.0464
23365SOL     OW71535   2.949   0.024   6.377 -0.0250  0.1554  0.4088
23365SOL    HW171536   2.961   0.084   6.451 -0.4829  0.6456  0.0995
23365SOL    HW271537   2.858   0.039   6.349 -0.4745 -1.3825  0.9272
23366SOL     OW71538   6.525   4.359  10.155  0.0986  0.1996 -0.0216
23366SOL    HW171539   6.555   4.275  10.189  0.6315  0.7027  0.8040
23366SOL    HW271540   6.430   4.352  10.152  0.0797 -0.1235  0.9230
23367SOL     OW71541   1.953   3.417   2.269 -0.0712  0.1269 -0.1115
23367SOL    HW171542   1.907   3.463   2.199 -1.0027 -1.6165 -0.7085
23367SOL    HW271543   1.999   3.345   2.225  2.3579  1.1056  0.6234
23368SOL     OW71544   6.329   5.949   3.770 -0.5337 -0.5721 -0.0223
23368SOL    HW171545   6.235   5.940   3.756 -0.5027 -1.6376  0.3758
23368SOL    HW271546   6.354   5.871   3.818  1.0029 -1.6404 -2.3726
23369SOL     OW71547   5.928   7.662   4.716 -0.5543 -0.6995  0.6603
23369SOL    HW171548   5.886   7.698   4.639 -2.5401  0.2576  2.1089
23369SOL    HW271549   5.877   7.583   4.736 -0.9791 -0.1616  1.7789
23370SOL     OW71550   7.826   4.348   3.012  0.2609 -0.1566 -0.1093
23370SOL    HW171551   7.810   4.410   2.941  0.3924  0.4449  0.3760
23370SOL    HW271552   7.875   4.398   3.077 -0.5928 -0.4408  0.7812
23371SOL     OW71553   3.456   6.575   0.649  0.0879 -0.1419 -0.5793
23371SOL    HW171554   3.456   6.481   0.635 -0.8891 -0.0577 -1.2200
23371SOL    HW271555   3.377   6.592   0.700 -0.3035  0.4290 -1.3393
23372SOL     OW71556   1.977   0.040   7.546 -0.7124 -0.5768 -0.0175
23372SOL    HW171557   2.020   0.104   7.490 -1.1968 -0.6474 -0.4751
23372SOL    HW271558   1.970   0.083   7.631 -0.0475 -0.4397 -0.0295
23373SOL     OW71559   4.983   2.506   8.902  0.7434  0.0487  0.4723
23373SOL    HW171560   4.914   2.571   8.920  1.2357  0.5657  0.5158
23373SOL    HW271561   5.058   2.558   8.873  0.7235 -0.5919 -0.8072
23374SOL     OW71562   4.024   2.337   6.062 -0.2120 -0.4441  0.0011
23374SOL    HW171563   3.952   2.375   6.112  0.9218  0.0347  1.3282
23374SOL    HW271564   4.042   2.401   5.994  0.1407  0.3094  0.7857
23375SOL     OW71565   4.482   2.369  10.866  0.5125  0.4009 -0.2130
23375SOL    HW171566   4.446   2.347  10.779  0.4044  0.6560 -0.2335
23375SOL    HW271567   4.449   2.300  10.923 -2.2132  2.0086  0.3147
23376SOL     OW71568   5.073   5.678  10.788  0.1780 -0.2599 -0.5270
23376SOL    HW171569   5.152   5.731  10.776 -0.7370  1.3648  0.3548
23376SOL    HW271570   5.084   5.604  10.727  3.9326 -1.9941  1.9277
23377SOL     OW71571   0.654   4.545   9.262 -0.3575 -0.2672  0.0734
23377SOL    HW171572   0.730   4.510   9.214 -2.5508 -2.5602 -2.0160
23377SOL    HW271573   0.633   4.626   9.216 -0.7007 -0.9854 -1.0994
23378SOL     OW71574   6.571   6.934   7.948 -0.3210 -0.2757  0.0939
23378SOL    HW171575   6.606   6.911   8.034  1.5190  1.0057 -0.2426
23378SOL    HW271576   6.546   6.850   7.909 -0.2261 -0.9752  1.4622
23379SOL     OW71577   7.968   2.461   5.501  0.1293 -0.4213  0.1641
23379SOL    HW171578   7.917   2.419   5.570  0.0981 -0.4394  0.1297
23379SOL    HW271579   8.057   2.463   5.536 -0.0954  0.6449  0.7051
23380SOL     OW71580   3.283   0.938  12.191 -0.2827  0.2565  0.4110
23380SOL    HW171581   3.351   0.905  12.249 -0.0835 -0.7527 -0.3682
23380SOL    HW271582   3.288   0.882  12.113 -0.5414  1.5681 -0.5824
23381SOL     OW71583   5.533   6.855   4.675  0.0091  0.0497 -0.8829
23381SOL    HW171584   5.523   6.944   4.640  1.4105  0.6851  0.2169
23381SOL    HW271585   5.460   6.844   4.735 -1.7015 -0.5824 -2.9854
23382SOL     OW71586   6.270   1.902   4.561 -0.0386 -0.0463 -0.3799
23382SOL    HW171587   6.185   1.877   4.525  0.0801 -1.1283  0.0404
23382SOL    HW271588   6.325   1.921   4.485 -0.2505 -0.7424 -0.7111
23383SOL     OW71589   1.272   3.054  11.620  1.0649  0.2398 -0.7896
23383SOL    HW171590   1.322   2.985  11.577  0.8391 -2.0818  2.3252
23383SOL    HW271591   1.338   3.112  11.658  1.2721  0.5743 -1.6347
23384SOL     OW71592   1.176   3.700   6.593  0.4877 -0.3004 -0.8265
23384SOL    HW171593   1.200   3.624   6.646 -2.4828 -0.0325  1.1876
23384SOL    HW271594   1.109   3.745   6.645 -0.7009  1.5222 -3.6704
23385SOL     OW71595   6.662   6.453  11.887  0.3816  0.8946  0.3548
23385SOL    HW171596   6.636   6.369  11.923  0.6652  1.1366  1.1507
23385SOL    HW271597   6.713   6.431  11.809 -0.0505  0.3570  0.2138
23386SOL     OW71598   5.405   0.340   8.975  0.0208  0.3919 -0.4226
23386SOL    HW171599   5.346   0.414   8.959  1.3201  1.6768  0.4625
23386SOL    HW271600   5.479   0.378   9.023 -0.5979 -1.9688  2.7443
23387SOL     OW71601   0.725   1.396   6.409 -0.6114  0.5033  0.8022
23387SOL    HW171602   0.802   1.449   6.430  0.7590 -1.5908  1.3598
23387SOL    HW271603   0.671   1.400   6.488 -0.6214  1.1708  0.7728
23388SOL     OW71604   3.872   2.425   5.109  0.4790 -0.1876  0.3896
23388SOL    HW171605   3.860   2.508   5.064  0.3458  0.1076  0.9595
23388SOL    HW271606   3.954   2.436   5.158 -0.0210 -0.0525  1.2036
23389SOL     OW71607   2.687   2.829   5.386 -0.0517 -0.2078 -1.1518
23389SOL    HW171608   2.663   2.808   5.477  0.0300 -2.2457 -1.5448
23389SOL    HW271609   2.624   2.780   5.333  0.8560 -0.2935 -2.1844
23390SOL     OW71610   7.197   3.058   0.835  0.2112 -0.4535 -0.4482
23390SOL    HW171611   7.283   3.096   0.855  0.0382 -0.6124  0.6340
23390SOL    HW271612   7.134   3.124   0.864 -0.0544 -0.6026 -0.6748
23391SOL     OW71613   5.421   1.220   4.060 -0.5630  0.1837  0.0047
23391SOL    HW171614   5.462   1.142   4.096  0.2306  0.0669 -1.0792
23391SOL    HW271615   5.492   1.264   4.013 -0.2320  3.0723  2.8879
23392SOL     OW71616   3.277   3.258  12.326  0.8071 -0.1190 -0.0398
23392SOL    HW171617   3.184   3.250  12.302  0.4448  0.0633  1.2109
23392SOL    HW271618   3.320   3.190  12.275 -0.0583 -0.3878 -0.4435
23393SOL     OW71619   3.463   4.405  10.276 -0.0877 -0.5695  0.1610
23393SOL    HW171620   3.491   4.314  10.282 -1.2934 -1.0227 -0.6477
23393SOL    HW271621   3.368   4.402  10.291 -0.1087  0.5876  0.3825
23394SOL     OW71622   7.568   3.529   7.320  0.6206  0.0894  0.2953
23394SOL    HW171623   7.511   3.525   7.397  1.4502 -1.2681  0.8719
23394SOL    HW271624   7.511   3.560   7.250 -0.2636  0.9145  1.3375
23395SOL     OW71625   7.183   4.878   0.185 -0.3619  0.4975  0.2612
23395SOL    HW171626   7.179   4.931   0.105  0.5431 -0.1263 -0.2035
23395SOL    HW271627   7.276   4.867   0.202 -0.5476 -0.3254  0.7775
23396SOL     OW71628   4.976   7.214   1.294 -0.4577 -0.1611 -0.1421
23396SOL    HW171629   4.887   7.248   1.302  0.3531  1.8424  1.1292
23396SOL    HW271630   5.022   7.249   1.369  1.1976 -1.9861 -0.2119
23397SOL     OW71631   0.286   1.472  12.089 -0.0371  0.7503 -0.1376
23397SOL    HW171632   0.191   1.482  12.102  0.1086  0.7365  1.0851
23397SOL    HW271633   0.317   1.561  12.071 -0.0153  1.1446  1.6127
23398SOL     OW71634   2.741   7.033   5.476  0.2201 -0.2173 -1.3144
23398SOL    HW171635   2.773   7.082   5.400  0.3343  1.7678 -0.0447
23398SOL    HW271636   2.670   7.087   5.511  0.0379 -1.2008 -0.1126
23399SOL     OW71637   6.924   5.652   8.870 -0.3488 -0.4613 -0.5021
23399SOL    HW171638   6.870   5.671   8.947  0.5913  0.0500  0.0585
23399SOL    HW271639   6.938   5.738   8.830  2.8260 -0.0000  1.2890
23400SOL     OW71640   2.888   6.012   6.180  0.1259  0.1178 -0.0993
23400SOL    HW171641   2.947   6.030   6.106 -0.9794 -0.4147 -1.1421
23400SOL    HW271642   2.932   5.944   6.230  1.1721  0.9071  0.0844
23401SOL     OW71643   4.142   0.982   9.850 -0.2545 -0.5422  0.1436
23401SOL    HW171644   4.200   0.939   9.913 -1.1639 -0.9180  0.7522
23401SOL    HW271645   4.177   0.958   9.764  1.6697  0.8950  0.4689
23402SOL     OW71646   1.900   3.205   8.320 -0.4838 -0.4126  0.1791
23402SOL    HW171647   1.991   3.176   8.325 -0.2396  0.3402  0.2673
23402SOL    HW271648   1.852   3.148   8.379 -0.1644 -1.1734 -0.2856
23403SOL     OW71649   3.651   6.926   1.202  0.5388 -0.2750  0.0050
23403SOL    HW171650   3.562   6.898   1.182  0.5044 -1.6232  1.8151
23403SOL    HW271651   3.698   6.845   1.224  1.7167  0.5962  0.8273
23404SOL     OW71652   1.205   3.324   1.168  0.3781 -0.4761 -0.6843
23404SOL    HW171653   1.229   3.234   1.146  0.3326 -0.6799  0.0949
23404SOL    HW271654   1.276   3.377   1.130 -0.0952 -0.7476 -1.9996
23405SOL     OW71655   3.286   6.203  10.114  0.4629  0.1972  0.0357
23405SOL    HW171656   3.372   6.167  10.091  1.7665  3.0027  0.1258
23405SOL    HW271657   3.282   6.194  10.209  0.1620 -0.8632 -0.0592
23406SOL     OW71658   7.695   2.417   7.896 -0.7431 -0.7739 -0.1443
23406SOL    HW171659   7.759   2.428   7.967 -0.2099  0.9459 -0.8511
23406SOL    HW271660   7.633   2.353   7.930  1.0930 -2.1843  0.7523
23407SOL     OW71661   3.317   5.176   7.454  0.5174  0.0613 -0.0806
23407SOL    HW171662   3.394   5.221   7.489  1.2752 -0.1593 -1.3968
23407SOL    HW271663   3.280   5.129   7.528  2.4223 -0.9034  0.3081
23408SOL     OW71664   0.570   6.683   1.135 -0.1676  0.2154  0.1994
23408SOL    HW171665   0.570   6.779   1.127  0.2861  0.1010 -1.4040
23408SOL    HW271666   0.583   6.651   1.046 -1.3107 -1.3736  0.5596
23409SOL     OW71667   3.853   1.973   3.087 -0.9651 -0.0773  0.7692
23409SOL    HW171668   3.833   1.892   3.134  0.2363 -0.6412  0.3667
23409SOL    HW271669   3.853   1.947   2.995  1.3729 -0.1281  0.7242
23410SOL     OW71670   4.377   3.375   3.255 -0.1251  0.0881  0.1705
23410SOL    HW171671   4.440   3.304   3.243 -0.1885  0.0656 -0.0281
23410SOL    HW271672   4.425   3.454   3.232  0.1812  0.1938  1.1388
23411SOL     OW71673   6.194   4.746   2.818  0.0273 -0.3302  0.3006
23411SOL    HW171674   6.139   4.693   2.875 -0.4328  1.3046  1.4286
23411SOL    HW271675   6.209   4.827   2.866 -1.5202  1.7457 -2.3972
23412SOL     OW71676   1.869   2.353   5.955 -0.1362 -0.3944  0.2783
23412SOL    HW171677   1.837   2.296   5.885  0.4974  0.2152 -0.5286
23412SOL    HW271678   1.835   2.440   5.931  1.7188  0.2071 -0.3948
23413SOL     OW71679   3.439   6.049   4.891  0.2217  0.3849 -0.4094
23413SOL    HW171680   3.463   6.022   4.802 -1.1972 -0.3830 -0.5972
23413SOL    HW271681   3.437   5.967   4.941 -0.7012  0.5709 -0.1186
23414SOL     OW71682   5.188   3.072   7.796  0.2226  0.0295  0.3455
23414SOL    HW171683   5.210   3.061   7.889 -0.7553 -0.9356  0.4873
23414SOL    HW271684   5.094   3.091   7.797 -0.0056 -1.0157 -0.4997
23415SOL     OW71685   2.102   3.169   3.840 -0.1353  0.4314 -0.2650
23415SOL    HW171686   2.093   3.264   3.829  1.2138  0.6280  0.1020
23415SOL    HW271687   2.166   3.159   3.911 -1.0461 -0.7704  0.4266
23416SOL     OW71688   6.630   1.710  10.874 -0.4265 -0.3405  0.4836
23416SOL    HW171689   6.723   1.691  10.885 -0.4412  0.6021  2.8502
23416SOL    HW271690   6.624   1.754  10.789  1.6721  1.5529  1.2188
23417SOL     OW71691   3.021   1.754   7.844 -0.1459 -0.0543  0.4255
23417SOL    HW171692   3.004   1.838   7.887 -0.8692  1.2294 -2.1461
23417SOL    HW271693   2.976   1.761   7.760  0.1143 -2.8998 -0.0439
23418SOL     OW71694   3.412   3.924   3.318 -0.1510  0.9657  0.0277
23418SOL    HW171695   3.347   3.882   3.374 -0.2752  1.5428  0.3229
23418SOL    HW271696   3.478   3.957   3.379  1.3314 -1.0970 -0.3479
23419SOL     OW71697   0.550   0.967   6.093  0.1666 -0.1347  0.0527
23419SOL    HW171698   0.560   1.061   6.100  2.2206 -0.2747 -0.4306
23419SOL    HW271699   0.542   0.950   5.999  0.4969 -0.4952  0.0866
23420SOL     OW71700   1.331   2.712   9.789 -0.0479 -0.6601 -0.1508
23420SOL    HW171701   1.347   2.634   9.734 -0.2180 -0.9165  0.1585
23420SOL    HW271702   1.356   2.685   9.877 -1.1013 -0.7124  0.1466
23421SOL     OW71703   1.003   5.018   2.967 -0.0869 -0.3959  0.4394
23421SOL    HW171704   0.908   5.007   2.968 -0.1426  0.1042  0.7670
23421SOL    HW271705   1.022   5.062   2.885 -0.2916  0.7845  1.0034
23422SOL     OW71706   7.745   6.079   6.534 -0.2302  0.1476  0.0760
23422SOL    HW171707   7.678   6.035   6.586 -0.4976 -0.7079 -0.9470
23422SOL    HW271708   7.772   6.154   6.587  0.9975 -1.7872  2.3877
23423SOL     OW71709   4.679   6.428  12.440  0.4814 -0.4244  0.4423
23423SOL    HW171710   4.709   6.353  12.491 -0.1333 -0.2547  1.0841
23423SOL    HW271711   4.589   6.406  12.417 -0.3006  0.7864  2.0674
23424SOL     OW71712   1.379   5.368   0.717 -0.1994 -0.2539  0.1028
23424SOL    HW171713   1.332   5.412   0.647  2.5115  0.7847 -1.2206
23424SOL    HW271714   1.387   5.434   0.786 -0.1711 -0.2437  0.0895
23425SOL     OW71715   1.436   4.148   7.667 -0.4210  0.1409 -0.5068
23425SOL    HW171716   1.348   4.150   7.631 -1.4620  0.9164  1.8743
23425SOL    HW271717   1.468   4.238   7.657 -0.8501  0.4494  0.6998
23426SOL     OW71718   5.759   7.207   4.019  0.0671  0.3148 -0.7933
23426SOL    HW171719   5.790   7.215   4.109  3.2076 -1.9225 -1.4641
23426SOL    HW271720   5.779   7.291   3.979  0.9451  0.5302  0.0496
23427SOL     OW71721   1.504   0.065   1.340  0.2123 -0.1013 -0.4809
23427SOL    HW171722   1.475   0.031   1.256  2.3542 -1.8873 -0.5689
23427SOL    HW271723   1.529  -0.013   1.391  1.0653  1.0676  0.9877
23428SOL     OW71724   2.023   0.272  10.418  0.2301  0.1528 -0.2137
23428SOL    HW171725   1.966   0.345  10.440  0.0339 -0.0907  0.1070
23428SOL    HW271726   1.987   0.237  10.336 -0.8956 -0.8126  0.6619
23429SOL     OW71727   7.357   4.344   4.047  0.1977 -0.3825  0.2621
23429SOL    HW171728   7.316   4.421   4.006  1.6490  0.2627 -0.0196
23429SOL    HW271729   7.450   4.354   4.028  0.2460 -3.1992 -1.4330
23430SOL     OW71730   6.273   1.376   9.153  0.3226  0.2006 -0.0863
23430SOL    HW171731   6.256   1.312   9.083 -1.0248  0.7616 -0.3105
23430SOL    HW271732   6.272   1.324   9.233 -1.5946  0.0066 -0.1856
23431SOL     OW71733   0.455   3.955   0.590 -0.2116  1.2933  0.3446
23431SOL    HW171734   0.420   3.893   0.655  0.0272  0.5343 -0.2350
23431SOL    HW271735   0.377   3.996   0.553 -0.6174 -0.8389 -1.3867
23432SOL     OW71736   2.437   1.064   9.295 -0.4672 -0.1449 -0.4307
23432SOL    HW171737   2.441   0.990   9.355 -0.5645  0.3222  0.1566
23432SOL    HW271738   2.391   1.133   9.343 -1.5155 -0.1206 -1.4310
23433SOL     OW71739   4.300   6.962   9.734  0.0037  0.3306 -0.0608
23433SOL    HW171740   4.228   7.020   9.708  0.5623  1.0877  0.0314
23433SOL    HW271741   4.357   7.018   9.786 -0.1908 -0.7035  1.2898
23434SOL     OW71742   6.064   2.989  12.384  0.8665 -0.4050 -0.3278
23434SOL    HW171743   6.075   2.895  12.368  0.3974 -0.4175 -0.6145
23434SOL    HW271744   6.031   2.994  12.473  0.8124 -0.5204 -0.3410
23435SOL     OW71745   0.527   1.275   7.784  0.0354  0.1989  0.3672
23435SOL    HW171746   0.616   1.280   7.749  0.4845 -0.1858  1.4358
23435SOL    HW271747   0.490   1.362   7.768  0.8253  0.5705  0.5062
23436SOL     OW71748   6.443   5.140   2.820  0.1616 -0.3416  0.0311
23436SOL    HW171749   6.395   5.186   2.751  2.1611  1.7216 -0.0852
23436SOL    HW271750   6.469   5.209   2.881  2.1273 -1.4954  0.5807
23437SOL     OW71751   1.574   6.767  10.185  0.1548 -0.4549  0.4359
23437SOL    HW171752   1.551   6.860  10.192  0.4727 -0.2786 -0.6904
23437SOL    HW271753   1.520   6.734  10.114  0.5674 -0.9657  0.3542
23438SOL     OW71754   5.299   0.360  11.668 -0.3813  0.1251  0.1427
23438SOL    HW171755   5.278   0.432  11.608 -0.7036 -1.4262 -1.7171
23438SOL    HW271756   5.391   0.373  11.690  0.1220  0.0684 -1.7473
23439SOL     OW71757   2.754   3.307   8.493 -0.3454  0.0248 -0.1344
23439SOL    HW171758   2.803   3.282   8.414 -0.5101 -1.2790  0.1514
23439SOL    HW271759   2.818   3.300   8.564 -0.6609 -0.6256  0.0916
23440SOL     OW71760   1.801   3.423   9.583 -0.0891 -0.0130  0.0027
23440SOL    HW171761   1.761   3.362   9.644 -2.4217 -0.2095 -1.5915
23440SOL    HW271762   1.770   3.509   9.611  1.4269  0.2577  0.9435
23441SOL     OW71763   4.419   4.022   2.167 -0.2680  1.1915 -0.2476
23441SOL    HW171764   4.510   4.052   2.170  0.9746 -1.9888 -1.6964
23441SOL    HW271765   4.395   4.006   2.258  0.7504  1.7212  0.1248
23442SOL     OW71766   3.174   1.592   2.613 -0.1918 -0.2765 -0.0192
23442SOL    HW171767   3.167   1.521   2.676  1.1055 -0.5615 -0.1742
23442SOL    HW271768   3.195   1.549   2.530 -1.1374  0.1555 -0.5034
23443SOL     OW71769   1.946   2.149   1.674  0.0284  0.1047  0.2849
23443SOL    HW171770   2.025   2.175   1.721  1.8214 -1.0192 -1.9560
23443SOL    HW271771   1.910   2.231   1.639  0.4487  0.5648  0.9135
23444SOL     OW71772   2.187   5.985   8.894  0.5050 -0.2508  0.3292
23444SOL    HW171773   2.093   5.998   8.905  0.2140  0.7960 -2.4823
23444SOL    HW271774   2.226   6.072   8.906  0.7039 -0.0731 -1.2893
23445SOL     OW71775   3.357   5.204   8.249  0.9280 -0.0396 -0.1349
23445SOL    HW171776   3.449   5.222   8.266  0.7984  0.1604  0.3864
23445SOL    HW271777   3.349   5.204   8.154  1.3149  0.7470 -0.1752
23446SOL     OW71778   7.335   4.496  11.237  0.0673 -0.2805 -0.1336
23446SOL    HW171779   7.297   4.445  11.309 -0.4519 -1.4580 -1.1878
23446SOL    HW271780   7.423   4.518  11.267  0.3042 -1.8034  0.3915
23447SOL     OW71781   0.534   4.642   9.978  0.0074  0.6137  0.4846
23447SOL    HW171782   0.490   4.589  10.044 -1.3181  0.5952 -0.3781
23447SOL    HW271783   0.583   4.707  10.028 -0.0116 -0.1253  1.4987
23448SOL     OW71784   4.808   0.869   6.035  0.2189  0.3794 -0.0902
23448SOL    HW171785   4.786   0.916   5.955 -2.0523  0.2135  0.3550
23448SOL    HW271786   4.736   0.806   6.045  1.3548 -0.7644  1.1737
23449SOL     OW71787   7.390   0.840   1.408  0.0759 -0.4578 -0.6645
23449SOL    HW171788   7.400   0.896   1.331  0.4894  0.2486 -0.1279
23449SOL    HW271789   7.301   0.806   1.403 -0.1714  0.2205 -1.0417
23450SOL     OW71790   3.574   0.473  10.475 -0.0061  0.3857 -0.6573
23450SOL    HW171791   3.515   0.499  10.404  1.5649 -0.6654 -2.4203
23450SOL    HW271792   3.544   0.525  10.551 -0.9287  2.5251 -2.3762
23451SOL     OW71793   1.537   4.486   9.065 -0.2126  0.2822 -0.5521
23451SOL    HW171794   1.624   4.447   9.059 -0.1784  0.5489 -2.0833
23451SOL    HW271795   1.526   4.504   9.159 -0.0347 -2.8760  0.1806
23452SOL     OW71796   1.379   5.976   0.249 -0.4067  0.2582  0.3167
23452SOL    HW171797   1.443   5.949   0.184  1.2088 -0.2458  2.0492
23452SOL    HW271798   1.295   5.969   0.203  0.5565 -1.1224 -1.3720
23453SOL     OW71799   6.418   7.077   9.709 -0.0872 -0.1881  0.2232
23453SOL    HW171800   6.389   7.023   9.783 -1.5432  0.7636  0.3815
23453SOL    HW271801   6.437   7.014   9.639 -1.4688 -0.9366  0.4893
23454SOL     OW71802   3.183   4.598   7.538  0.0753 -0.0592 -0.2116
23454SOL    HW171803   3.214   4.532   7.601  0.8142 -0.7079 -1.2276
23454SOL    HW271804   3.088   4.598   7.550  0.2804  0.9425  1.9529
23455SOL     OW71805   6.624   1.094   4.706 -0.2780 -0.1794  0.1859
23455SOL    HW171806   6.665   1.026   4.653 -0.5855 -1.7072  1.8231
23455SOL    HW271807   6.697   1.136   4.752 -0.2784 -1.0614  1.0169
23456SOL     OW71808   1.671   4.823   1.068  0.3944  0.3310  0.4757
23456SOL    HW171809   1.583   4.806   1.101  0.4647  1.2993  1.2043
23456SOL    HW271810   1.665   4.908   1.024  0.2046 -1.0829 -2.4777
23457SOL     OW71811   3.379   6.368   3.175  0.2612  0.5669  0.3101
23457SOL    HW171812   3.435   6.441   3.200  0.3406  0.2677  1.0348
23457SOL    HW271813   3.308   6.369   3.240  0.4093 -0.1564  0.4898
23458SOL     OW71814   7.936   1.696   9.900  0.5697  0.0342 -0.1568
23458SOL    HW171815   7.863   1.635   9.895  0.9192 -0.2969 -1.8984
23458SOL    HW271816   7.906   1.765   9.959  0.0501 -1.6243  1.6038
23459SOL     OW71817   7.269   5.691   2.457  0.5177 -0.0172 -0.4692
23459SOL    HW171818   7.306   5.741   2.530  0.4507 -0.4079 -0.1669
23459SOL    HW271819   7.297   5.601   2.473  2.2788  0.1988 -2.0521
23460SOL     OW71820   3.038   5.448  10.549 -0.5564  0.0134  0.3154
23460SOL    HW171821   2.946   5.454  10.574 -0.3070 -0.5119  1.4258
23460SOL    HW271822   3.036   5.439  10.454 -1.6871 -0.6253  0.3822
23461SOL     OW71823   0.715   3.293   6.127 -0.5349  0.6013 -0.2824
23461SOL    HW171824   0.742   3.247   6.048 -0.4375  2.4309 -1.3752
23461SOL    HW271825   0.737   3.385   6.110  0.4544  0.9127  2.2964
23462SOL     OW71826   1.645   7.726   4.720 -0.1525 -0.1943 -0.1791
23462SOL    HW171827   1.598   7.711   4.638  0.5477 -1.9125 -0.3067
23462SOL    HW271828   1.699   7.803   4.703  0.9646 -1.2599 -1.8143
23463SOL     OW71829   6.791   6.720   8.202  0.5985  0.4884  0.0879
23463SOL    HW171830   6.830   6.793   8.249  0.9883 -0.8126  1.9163
23463SOL    HW271831   6.718   6.692   8.258  1.2354 -1.2767  0.1183
23464SOL     OW71832   3.185   2.479  10.264  0.3595 -0.5631 -0.0983
23464SOL    HW171833   3.224   2.546  10.319 -1.6057  0.2343  0.4357
23464SOL    HW271834   3.231   2.398  10.287  2.1183  0.4097 -0.0642
23465SOL     OW71835   1.369   3.013   5.981 -0.3760 -0.2580 -0.0285
23465SOL    HW171836   1.424   2.936   5.996 -1.5116 -1.5083 -1.8246
23465SOL    HW271837   1.281   2.986   6.008 -0.9702  0.0220 -1.5642
23466SOL     OW71838   2.128   2.259   7.339 -0.4433 -0.1572 -0.1013
23466SOL    HW171839   2.046   2.309   7.341  0.6832  1.7586  0.1915
23466SOL    HW271840   2.154   2.252   7.430  0.4357  0.5178 -0.2841
23467SOL     OW71841   6.209   1.051   3.509 -0.5992 -0.2271  0.3038
23467SOL    HW171842   6.179   0.995   3.581 -0.1353  1.4335  1.8563
23467SOL    HW271843   6.212   1.139   3.546  0.1490  0.6174 -1.6196
23468SOL     OW71844   3.502   6.861   9.483  1.0793  0.4117 -0.3665
23468SOL    HW171845   3.470   6.775   9.457  0.9991  0.6843 -1.2009
23468SOL    HW271846   3.438   6.892   9.548 -0.1139  0.7418 -1.6476
23469SOL     OW71847   2.887   3.462   7.861 -0.2181  0.0662 -0.0118
23469SOL    HW171848   2.799   3.499   7.868  0.1074  1.0282 -0.7553
23469SOL    HW271849   2.938   3.512   7.925  0.2194  0.9135 -1.0035
23470SOL     OW71850   5.924   3.241   6.225 -0.0206  0.3764 -0.5624
23470SOL    HW171851   5.918   3.150   6.253  0.8730  0.7266  0.9147
23470SOL    HW271852   5.833   3.270   6.216 -0.3171 -0.9845 -2.2759
23471SOL     OW71853   6.879   6.790  11.320  0.3322  0.0583 -0.6410
23471SOL    HW171854   6.953   6.802  11.259  0.7984 -0.2452 -0.1422
23471SOL    HW271855   6.912   6.824  11.403  0.4632 -1.4930 -0.0375
23472SOL     OW71856   6.522   0.297   7.947 -0.3620  0.2467  0.4376
23472SOL    HW171857   6.457   0.227   7.951  0.7618 -0.8743 -0.0074
23472SOL    HW271858   6.514   0.333   7.859 -0.4288  0.1497  0.4044
23473SOL     OW71859   0.361   6.913   9.693 -0.2791 -0.6070  0.2799
23473SOL    HW171860   0.274   6.875   9.701  1.0808 -3.9829  0.9620
23473SOL    HW271861   0.397   6.877   9.612  0.9666 -0.4445  0.7267
23474SOL     OW71862   0.581   6.630   5.452  0.3475 -0.2766 -0.2174
23474SOL    HW171863   0.556   6.543   5.422 -0.0511 -0.2284 -0.0314
23474SOL    HW271864   0.642   6.662   5.385 -0.0421 -0.4202 -0.6439
23475SOL     OW71865   5.157   2.481  12.418  0.0793 -0.0139 -0.0564
23475SOL    HW171866   5.209   2.521  12.348  0.2640  0.7791  0.5177
23475SOL    HW271867   5.112   2.555  12.460 -1.2371 -0.6350 -0.3007
23476SOL     OW71868   7.059   5.245   7.902  0.2513 -0.4282  0.0140
23476SOL    HW171869   7.105   5.184   7.961  0.1814  0.3061  0.8568
23476SOL    HW271870   6.972   5.255   7.941  0.1495 -0.0514 -0.3006
23477SOL     OW71871   0.725   3.528  12.037 -0.1689 -0.0809 -0.4464
23477SOL    HW171872   0.739   3.573  11.954 -1.2049  1.1262  0.0173
23477SOL    HW271873   0.660   3.460  12.016  0.2734 -0.3980 -0.8172
23478SOL     OW71874   3.334   4.275   2.210 -0.3991  0.3229  0.3917
23478SOL    HW171875   3.267   4.342   2.195 -1.2467 -0.8418 -1.3875
23478SOL    HW271876   3.411   4.323   2.239 -0.3926  2.3104 -2.5590
23479SOL     OW71877   2.036   2.250   1.072  0.3207 -0.2167  0.1393
23479SOL    HW171878   2.065   2.337   1.097  0.8096 -0.6894  1.2838
23479SOL    HW271879   2.117   2.200   1.059  0.0471 -0.6247 -0.0248
23480SOL     OW71880   0.965   7.982   3.066 -0.2144 -0.0570  0.4168
23480SOL    HW171881   0.999   8.071   3.074 -1.1960  0.1988  2.0320
23480SOL    HW271882   1.043   7.928   3.051  0.3180  1.1307 -1.5303
23481SOL     OW71883   5.122   6.177  11.338 -0.5588  0.2098  0.0694
23481SOL    HW171884   5.188   6.231  11.293 -0.9166  1.0615  0.5432
23481SOL    HW271885   5.107   6.103  11.279  0.2890  0.3811 -0.3781
23482SOL     OW71886   2.956   7.821   4.773 -0.4063  0.2671 -0.0474
23482SOL    HW171887   3.021   7.890   4.784  0.1380 -0.1017 -0.8804
23482SOL    HW271888   2.999   7.742   4.807 -0.5803  0.1052 -0.2011
23483SOL     OW71889   5.499   6.122   3.697  0.3474  0.0437  0.0574
23483SOL    HW171890   5.437   6.090   3.761 -0.4328  2.4504  0.6112
23483SOL    HW271891   5.580   6.075   3.716 -0.2129 -0.2090  1.9924
23484SOL     OW71892   3.544   7.393   2.362  0.6950 -0.3606 -0.0673
23484SOL    HW171893   3.637   7.388   2.339  0.6295 -1.3272 -0.1771
23484SOL    HW271894   3.498   7.360   2.285  0.2319  0.4609 -0.1534
23485SOL     OW71895   6.802   2.619  10.585 -0.4936  0.1927 -0.4536
23485SOL    HW171896   6.771   2.684  10.649  0.6561 -0.2849  0.6151
23485SOL    HW271897   6.867   2.667  10.533  0.2773 -0.0579  0.2664
23486SOL     OW71898   5.159   7.760   5.190 -0.1341  0.2858  0.4776
23486SOL    HW171899   5.149   7.775   5.096  0.8367 -1.0859  0.1175
23486SOL    HW271900   5.251   7.778   5.208 -0.3093  0.5192  1.1722
23487SOL     OW71901   5.945   7.178   1.643 -0.4365  0.2529 -0.2237
23487SOL    HW171902   5.915   7.171   1.552 -1.3963  0.2713  0.0802
23487SOL    HW271903   5.970   7.270   1.653  0.4752  0.0696 -0.6972
23488SOL     OW71904   5.211   1.666  10.884  0.1842 -0.5554 -0.0046
23488SOL    HW171905   5.165   1.656  10.967 -1.5158  2.4207 -0.4523
23488SOL    HW271906   5.276   1.734  10.901 -0.5821  0.5235 -1.2003
23489SOL     OW71907   6.073   0.860   5.853  0.0729 -0.3657  0.1628
23489SOL    HW171908   6.107   0.888   5.768 -0.4973 -1.2701 -0.3813
23489SOL    HW271909   6.010   0.791   5.832 -1.3747  0.5834  1.2119
23490SOL     OW71910   6.165   6.090  11.877 -0.0204  0.1861 -0.3736
23490SOL    HW171911   6.198   6.178  11.894  1.1901 -0.6685  2.2406
23490SOL    HW271912   6.070   6.101  11.871 -0.0037  1.5463  1.1795
23491SOL     OW71913   5.134   0.936   6.075  0.4938 -0.1197  0.6591
23491SOL    HW171914   5.135   0.858   6.021 -0.3962  0.1074  0.2839
23491SOL    HW271915   5.050   0.978   6.054  1.7098  1.8884 -0.5335
23492SOL     OW71916   6.118   4.176  11.470 -0.0641 -0.3852 -0.2965
23492SOL    HW171917   6.199   4.160  11.421  0.3092 -1.1487  0.5453
23492SOL    HW271918   6.050   4.136  11.416  0.2559 -0.6730 -0.4943
23493SOL     OW71919   1.928   0.799   4.911  0.0338 -0.2423  1.0889
23493SOL    HW171920   1.902   0.833   4.996  0.3286 -0.1425  1.1396
23493SOL    HW271921   2.022   0.816   4.905 -0.0692  0.1871  0.5510
23494SOL     OW71922   5.893   6.049  11.831 -0.3023 -0.3001  0.5195
23494SOL    HW171923   5.812   6.096  11.851  0.1309  0.7363 -0.0538
23494SOL    HW271924   5.878   5.960  11.862 -1.9527 -0.3420 -0.2996
23495SOL     OW71925   3.126   5.380   0.423  0.1787 -0.1562  0.0013
23495SOL    HW171926   3.095   5.361   0.335 -0.6729  1.2185 -0.0233
23495SOL    HW271927   3.221   5.372   0.418  0.1820  0.5238 -1.1985
23496SOL     OW71928   5.887   5.469   8.100  0.1860  0.6336  0.3283
23496SOL    HW171929   5.855   5.478   8.010  2.1120 -1.0738 -0.6260
23496SOL    HW271930   5.811   5.487   8.155 -1.4006  0.4040 -1.6783
23497SOL     OW71931   4.616   3.340   3.739  0.2856 -0.1264 -0.1538
23497SOL    HW171932   4.583   3.258   3.703  1.6240  0.1698 -2.2511
23497SOL    HW271933   4.695   3.315   3.787  0.1697 -0.1733  0.0126
23498SOL     OW71934   6.817   4.443   2.538  0.6247  0.9018  0.4821
23498SOL    HW171935   6.850   4.368   2.587  1.7999  0.2757 -1.1714
23498SOL    HW271936   6.738   4.410   2.495  0.4284  1.0007  0.7657
23499SOL     OW71937   5.393   0.170   9.536  0.0080  0.2502  0.7510
23499SOL    HW171938   5.469   0.224   9.557  0.9654 -1.2146  1.1581
23499SOL    HW271939   5.318   0.226   9.555  0.9569  1.3032  1.5113
23500SOL     OW71940   0.028   5.917  11.075 -0.3243 -0.7238  0.0690
23500SOL    HW171941   0.067   5.970  11.005 -0.7508 -1.0023 -0.3860
23500SOL    HW271942   0.061   5.828  11.059 -1.5668 -1.0778 -0.6618
23501SOL     OW71943   7.143   1.010   8.734  0.2246  0.6445  0.0540
23501SOL    HW171944   7.087   1.086   8.754  0.9546  0.7168  2.0019
23501SOL    HW271945   7.157   0.968   8.819  1.2520 -0.6845 -0.7536
23502SOL     OW71946   4.179   7.973   2.406 -0.0303 -0.2538  0.4103
23502SOL    HW171947   4.123   8.046   2.429 -0.6753 -0.3986 -0.6181
23502SOL    HW271948   4.184   7.920   2.485 -0.1202  0.5381  0.9541
23503SOL     OW71949   5.252   4.060   2.402  0.3624 -0.0344 -0.3418
23503SOL    HW171950   5.176   4.092   2.353  0.5509 -0.9914 -1.3003
23503SOL    HW271951   5.215   3.998   2.465  0.3045 -0.2037 -0.5413
23504SOL     OW71952   5.287   5.641  11.135  1.1879  0.0506 -0.7931
23504SOL    HW171953   5.294   5.558  11.183  0.3577  0.7954  0.6798
23504SOL    HW271954   5.194   5.665  11.141  1.5117  1.3715 -0.6922
23505SOL     OW71955   7.182   3.500   4.935 -0.5010 -0.4396 -0.1634
23505SOL    HW171956   7.098   3.541   4.956  0.2254  1.6794 -1.0536
23505SOL    HW271957   7.164   3.443   4.861 -0.7960  1.9188 -2.0338
23506SOL     OW71958   5.281   6.835   5.869 -0.2612 -0.0263 -0.2185
23506SOL    HW171959   5.272   6.812   5.777 -0.5148  0.2399 -0.2587
23506SOL    HW271960   5.204   6.798   5.912 -0.2212 -0.0170 -0.1369
23507SOL     OW71961   7.053   4.731   7.104  0.0318  0.0594  0.0220
23507SOL    HW171962   7.070   4.808   7.050  0.0392  0.3189  0.3919
23507SOL    HW271963   6.980   4.687   7.059  0.9754 -0.5228 -1.0039
23508SOL     OW71964   3.652   5.569   4.054  0.2251  0.0717  0.1966
23508SOL    HW171965   3.695   5.612   4.128 -0.1336  0.3384  0.2516
23508SOL    HW271966   3.688   5.480   4.054 -0.7162 -0.3337  1.4793
23509SOL     OW71967   6.794   1.700   4.870 -0.3151  1.0756 -0.1014
23509SOL    HW171968   6.884   1.686   4.841 -0.5431 -0.4840 -0.1352
23509SOL    HW271969   6.745   1.716   4.788 -0.6344 -1.5060 -0.4939
23510SOL     OW71970   1.026   2.055   2.097 -0.4081 -0.4408  0.3780
23510SOL    HW171971   0.940   2.026   2.128 -0.3289 -2.3441 -1.0489
23510SOL    HW271972   1.014   2.072   2.004  0.9326 -1.6031 -0.0479
23511SOL     OW71973   7.321   2.935  12.046  0.2520 -0.5965 -0.4359
23511SOL    HW171974   7.237   2.961  12.007  0.2706 -0.2551 -0.2532
23511SOL    HW271975   7.299   2.916  12.137  0.2602 -1.1212 -0.5407
23512SOL     OW71976   1.380   1.562   9.765  0.7483  0.0617 -0.0162
23512SOL    HW171977   1.294   1.535   9.734 -0.8127  3.5675  0.8102
23512SOL    HW271978   1.419   1.609   9.691  1.0282  0.3380  0.3035
23513SOL     OW71979   2.755   0.060   8.020 -0.7345  0.0485 -0.4765
23513SOL    HW171980   2.717  -0.027   8.032 -0.0780 -0.1015  0.6554
23513SOL    HW271981   2.696   0.119   8.068 -1.2455  0.2605 -1.3422
23514SOL     OW71982   4.114   1.609  12.000 -0.6309 -0.0828 -0.2709
23514SOL    HW171983   4.135   1.702  11.999 -0.8289 -0.0402 -1.1450
23514SOL    HW271984   4.019   1.606  12.012 -0.6133 -0.1756 -0.1510
23515SOL     OW71985   3.769   4.049  10.185 -0.4881  0.5136 -0.2835
23515SOL    HW171986   3.849   4.064  10.135 -0.5785  1.7864 -0.1015
23515SOL    HW271987   3.786   3.970  10.236  0.1941  0.0982 -1.1324
23516SOL     OW71988   4.134   1.192   7.551  0.6560  0.4469 -0.2765
23516SOL    HW171989   4.139   1.122   7.616  3.3131  0.6994 -0.0946
23516SOL    HW271990   4.128   1.272   7.602  1.2531  0.5470 -0.3477
23517SOL     OW71991   6.573   3.025  12.298 -0.3754 -0.3280  0.2243
23517SOL    HW171992   6.533   2.967  12.363 -0.3914  0.7060  1.1839
23517SOL    HW271993   6.547   2.989  12.214 -2.1879 -0.4933  0.8031
23518SOL     OW71994   6.417   6.924   9.924 -0.0776 -0.2203 -0.6504
23518SOL    HW171995   6.327   6.923   9.955  0.2341  1.8466  0.5022
23518SOL    HW271996   6.447   6.833   9.935 -1.2335 -0.4300  1.4028
23519SOL     OW71997   5.712   1.770   2.593  0.0185  0.4050  0.1244
23519SOL    HW171998   5.682   1.707   2.528  0.8659  0.1680 -0.0452
23519SOL    HW271999   5.744   1.844   2.543  1.3302 -0.0686  0.2250
23520SOL     OW72000   3.572   3.657   0.072  0.1076 -0.6181 -0.7608
23520SOL    HW172001   3.565   3.727   0.137 -0.3660 -0.1748 -1.2715
23520SOL    HW272002   3.631   3.593   0.111  0.3760 -0.0321 -0.1929
23521SOL     OW72003   5.546   2.212   2.055  0.2360 -0.3956  0.4938
23521SOL    HW172004   5.492   2.151   2.105 -0.1204 -0.4135  0.1001
23521SOL    HW272005   5.499   2.296   2.063 -0.4574 -0.6417 -0.7541
23522SOL     OW72006   3.854   1.044   7.819  0.6634  0.2783  0.0424
23522SOL    HW172007   3.879   0.953   7.802 -0.4310 -0.4497  1.9559
23522SOL    HW272008   3.932   1.083   7.857  0.2452 -0.8621  2.2914
23523SOL     OW72009   0.825   0.091   0.834 -0.1874 -0.2821  0.1447
23523SOL    HW172010   0.900   0.032   0.840 -0.4741 -0.9021 -1.6164
23523SOL    HW272011   0.864   0.179   0.831  0.2591 -0.3418  2.4492
23524SOL     OW72012   3.776   4.758   1.181 -0.0114 -0.1180  0.0783
23524SOL    HW172013   3.759   4.840   1.134 -1.8413 -0.8806 -0.7160
23524SOL    HW272014   3.732   4.769   1.265 -0.3003 -0.2755 -0.0478
23525SOL     OW72015   3.479   1.936   4.112 -0.2652  0.1037  0.0973
23525SOL    HW172016   3.488   1.939   4.017  0.4755 -1.5928  0.0697
23525SOL    HW272017   3.386   1.920   4.127 -0.2346 -0.5666 -0.3916
23526SOL     OW72018   7.701   2.271   1.345  0.3729 -0.1706  0.0722
23526SOL    HW172019   7.628   2.313   1.298  0.0134  1.3546  1.8892
23526SOL    HW272020   7.700   2.311   1.432  2.4366 -1.2580  0.6581
23527SOL     OW72021   1.849   4.418   0.606 -0.1317  0.0015 -0.1538
23527SOL    HW172022   1.934   4.402   0.647  0.4494  1.4995 -0.7143
23527SOL    HW272023   1.829   4.336   0.561  1.5732 -0.0109 -0.9716
23528SOL     OW72024   3.976   4.732   6.925  0.6922 -0.1778  0.4209
23528SOL    HW172025   4.041   4.720   6.994  0.6107  2.7597  1.1513
23528SOL    HW272026   3.893   4.743   6.972  0.0797 -1.2272 -0.3641
23529SOL     OW72027   7.816   7.920   6.769 -0.0894 -0.0345 -0.2825
23529SOL    HW172028   7.774   8.006   6.762  0.8490  0.3186 -2.1821
23529SOL    HW272029   7.884   7.932   6.836 -0.8691  0.2990  0.4596
23530SOL     OW72030   3.047   0.196   7.575  0.1035 -0.0817  0.1319
23530SOL    HW172031   3.090   0.242   7.647  0.6782  0.3128 -0.4473
23530SOL    HW272032   3.069   0.104   7.587  0.8127  0.0770  0.0435
23531SOL     OW72033   7.932   0.202   7.856  0.9548  0.2167  0.0521
23531SOL    HW172034   7.938   0.131   7.792  2.2570 -0.2897  0.7095
23531SOL    HW272035   8.008   0.257   7.839  0.9792  0.4153  0.7588
23532SOL     OW72036   4.721   7.458   3.547 -0.0904 -0.2170 -0.1014
23532SOL    HW172037   4.677   7.524   3.494 -1.4538 -1.3320 -0.4301
23532SOL    HW272038   4.702   7.484   3.638 -0.3556  0.0248 -0.2246
23533SOL     OW72039   7.956   2.021   2.691  0.1409  0.3020 -0.3186
23533SOL    HW172040   8.036   2.007   2.743 -0.2253  0.6655  0.3524
23533SOL    HW272041   7.930   1.933   2.665  2.3066  0.3093 -2.9567
23534SOL     OW72042   7.563   1.999   1.571  0.5259 -0.1559 -0.0218
23534SOL    HW172043   7.491   2.055   1.542 -0.5680 -1.5330 -0.0554
23534SOL    HW272044   7.600   1.963   1.490  0.3413 -0.5345  0.0588
23535SOL     OW72045   5.749   3.411   6.592 -0.5069 -0.2757  0.6610
23535SOL    HW172046   5.655   3.423   6.603 -0.4741  0.4819  0.2035
23535SOL    HW272047   5.765   3.433   6.500 -0.3059 -3.2018 -0.1187
23536SOL     OW72048   4.623   2.179   9.759 -0.8259  0.0281 -0.0026
23536SOL    HW172049   4.716   2.156   9.768 -0.8680  0.5016  2.2782
23536SOL    HW272050   4.621   2.244   9.688  0.3319 -1.1294 -1.1524
23537SOL     OW72051   5.018   5.011   4.862  0.0834 -0.9144 -0.1584
23537SOL    HW172052   5.097   4.957   4.864 -0.1400 -1.2646 -0.6148
23537SOL    HW272053   4.966   4.975   4.790  1.7451  2.3583 -3.3547
23538SOL     OW72054   0.254   2.719   8.933 -0.3105  0.1628 -0.0579
23538SOL    HW172055   0.272   2.716   9.027  1.6117 -4.4789 -0.3137
23538SOL    HW272056   0.325   2.773   8.897 -0.1398  0.6680  0.9926
23539SOL     OW72057   0.901   0.281   8.350  0.6772 -0.4259 -0.3928
23539SOL    HW172058   0.890   0.370   8.384 -1.8499 -0.3246 -1.2801
23539SOL    HW272059   0.839   0.228   8.400  1.0987 -1.4015 -0.8819
23540SOL     OW72060   3.421   4.930   6.539 -0.4344 -0.3085 -0.8538
23540SOL    HW172061   3.474   4.968   6.469  0.4897  0.9641  0.4662
23540SOL    HW272062   3.372   4.860   6.497 -0.3210  0.7529 -2.8712
23541SOL     OW72063   0.873   4.519   9.661 -0.1553  0.1877 -0.0706
23541SOL    HW172064   0.831   4.489   9.742  0.7914  0.7146  0.6430
23541SOL    HW272065   0.956   4.470   9.659 -0.4791 -0.3479 -1.1056
23542SOL     OW72066   2.078   1.948   5.972  0.3482 -0.3514 -0.3197
23542SOL    HW172067   2.096   1.996   6.053 -0.0827  1.6084 -1.3344
23542SOL    HW272068   2.163   1.947   5.927 -0.2387  2.2026 -1.6524
23543SOL     OW72069   2.762   0.205   0.503 -0.3202  0.6412  0.7630
23543SOL    HW172070   2.726   0.146   0.569  0.8463  0.5849  1.3605
23543SOL    HW272071   2.691   0.215   0.439 -0.7100 -1.0009  0.9030
23544SOL     OW72072   1.040   1.018   5.594  0.0125 -0.1673 -0.1768
23544SOL    HW172073   1.067   0.953   5.529 -1.2466 -0.2561 -0.6267
23544SOL    HW272074   0.996   1.086   5.544  1.7929  1.3550  0.2171
23545SOL     OW72075   7.290   1.771   5.543  0.4192  0.5955 -0.6114
23545SOL    HW172076   7.344   1.694   5.522 -1.4312 -0.8052 -0.5290
23545SOL    HW272077   7.309   1.789   5.635 -0.3380 -0.8424 -0.1465
23546SOL     OW72078   3.951   3.979   5.679 -0.1167 -0.2744 -0.3705
23546SOL    HW172079   3.900   3.982   5.598 -0.9640  0.5968  0.1722
23546SOL    HW272080   3.912   4.046   5.734  0.9656 -0.3021  0.4665
23547SOL     OW72081   2.324   3.250   5.134  0.6119  0.0664 -0.0295
23547SOL    HW172082   2.260   3.321   5.134  0.3410 -0.1487 -1.5757
23547SOL    HW272083   2.272   3.171   5.153  1.0032  0.2967  2.3145
23548SOL     OW72084   5.893   2.333   5.779  0.2968  0.1016 -0.1253
23548SOL    HW172085   5.979   2.291   5.771  1.3370  1.4850  2.6804
23548SOL    HW272086   5.883   2.352   5.872 -3.0156  0.1931 -0.3663
23549SOL     OW72087   5.136   6.887   1.727  0.0224 -0.1069 -1.0465
23549SOL    HW172088   5.217   6.937   1.737 -0.0444 -0.0010 -1.0291
23549SOL    HW272089   5.090   6.931   1.656  0.0384 -0.2448 -1.1412
23550SOL     OW72090   3.805   6.373   5.725 -0.0997 -0.4574 -0.5814
23550SOL    HW172091   3.714   6.403   5.732 -0.0462 -0.3377 -0.4174
23550SOL    HW272092   3.808   6.328   5.640 -0.2590 -0.2811 -0.6823
23551SOL     OW72093   3.059   0.001   7.183  0.2637  0.0313  0.4925
23551SOL    HW172094   3.124   0.069   7.164  1.5744 -1.0496  1.0046
23551SOL    HW272095   3.057  -0.053   7.104 -0.7128  0.5700  0.1220
23552SOL     OW72096   3.344   0.722   1.381 -0.0964  0.4254  0.2077
23552SOL    HW172097   3.254   0.753   1.379 -0.7293 -1.0133  2.3662
23552SOL    HW272098   3.354   0.671   1.301 -0.8740  1.3757 -0.5181
23553SOL     OW72099   5.303   7.265   5.916  0.3490 -0.5778 -0.3745
23553SOL    HW172100   5.311   7.277   6.010  0.7441  0.6410 -0.5443
23553SOL    HW272101   5.229   7.205   5.905  0.3893 -0.8328  0.7057
23554SOL     OW72102   7.538   2.386  11.315  0.1803  0.3282  0.7965
23554SOL    HW172103   7.507   2.334  11.389  1.1381  0.1995  1.1198
23554SOL    HW272104   7.599   2.328  11.269 -0.8533  0.1790 -0.4587
23555SOL     OW72105   0.615   1.213  11.000  0.5680 -0.1687 -0.5328
23555SOL    HW172106   0.676   1.273  10.958  1.6293 -0.0100  1.1397
23555SOL    HW272107   0.639   1.215  11.093  0.0152 -2.4410 -0.2809
23556SOL     OW72108   7.521   3.386  10.975 -0.0353  0.2571 -0.3555
23556SOL    HW172109   7.457   3.343  10.918 -2.0958 -0.6133  2.3442
23556SOL    HW272110   7.475   3.462  11.010  1.4167  1.1937 -0.4003
23557SOL     OW72111   6.570   3.119   5.055 -0.0905  0.0601  0.4057
23557SOL    HW172112   6.651   3.086   5.093  0.1790  0.2940  0.0402
23557SOL    HW272113   6.592   3.137   4.964 -0.3787  0.7147  0.4568
23558SOL     OW72114   7.127   2.948   1.485  0.1362  0.5097  0.1519
23558SOL    HW172115   7.093   2.859   1.490  1.5029 -0.0348  0.1727
23558SOL    HW272116   7.198   2.943   1.421  0.0410  1.6537 -0.0651
23559SOL     OW72117   2.742   0.221   8.276  0.1598 -0.5006  0.1837
23559SOL    HW172118   2.824   0.244   8.320  0.0526 -0.8633  0.5719
23559SOL    HW272119   2.711   0.303   8.239 -0.1902 -0.0156  1.5113
23560SOL     OW72120   2.871   6.552   2.138 -0.4444  0.0262  0.1105
23560SOL    HW172121   2.947   6.601   2.169  0.4120 -0.3279 -1.3555
23560SOL    HW272122   2.840   6.601   2.062 -0.8935 -0.5460 -0.0818
23561SOL     OW72123   4.764   4.219   1.513  0.3785  0.2200 -0.4760
23561SOL    HW172124   4.672   4.239   1.529  0.9011  1.6590  0.9115
23561SOL    HW272125   4.789   4.163   1.586  0.8388  0.6036 -0.3364
23562SOL     OW72126   0.926   5.232   4.693 -0.1121 -0.0953 -0.3068
23562SOL    HW172127   0.832   5.237   4.679  0.0507 -1.0224 -1.9766
23562SOL    HW272128   0.962   5.307   4.645 -0.1222  1.9467  2.6033
23563SOL     OW72129   2.889   5.893   4.382  0.7169 -0.1690  0.6906
23563SOL    HW172130   2.950   5.829   4.346 -0.0623 -1.1790  1.1479
23563SOL    HW272131   2.883   5.873   4.475  0.8022  0.8563  0.9358
23564SOL     OW72132   2.233   5.640   2.578 -0.2331  0.4821 -0.8025
23564SOL    HW172133   2.326   5.658   2.594  0.2539 -0.1759 -2.6546
23564SOL    HW272134   2.190   5.663   2.660  1.4644  1.5256 -0.1466
23565SOL     OW72135   6.614   0.096   4.343 -0.4262 -0.1270 -0.0460
23565SOL    HW172136   6.668   0.173   4.326 -1.3407  1.1575  2.4661
23565SOL    HW272137   6.525   0.125   4.328 -0.8019 -0.5894  1.1627
23566SOL     OW72138   6.602   7.626  10.896  0.2533  0.2260 -0.5946
23566SOL    HW172139   6.653   7.619  10.815  1.6413 -1.7511  0.3823
23566SOL    HW272140   6.636   7.557  10.952  0.1163  2.2059  2.1234
23567SOL     OW72141   2.139   4.016   4.568  0.0018 -0.1565 -0.4606
23567SOL    HW172142   2.173   3.987   4.484  2.3140  2.2501 -0.4569
23567SOL    HW272143   2.167   3.948   4.630  1.8183  0.0135 -1.0407
23568SOL     OW72144   3.033   6.017   5.954  0.3030 -0.3198  0.2052
23568SOL    HW172145   3.103   5.954   5.940 -2.3484 -3.3022 -0.7624
23568SOL    HW272146   3.048   6.086   5.888  1.6139 -1.5170 -0.7952
23569SOL     OW72147   3.481   0.682  10.261 -0.1396  0.0482 -0.1836
23569SOL    HW172148   3.427   0.603  10.261 -1.4291  0.8991  0.8931
23569SOL    HW272149   3.445   0.737  10.192  1.2557 -0.5855 -1.4745
23570SOL     OW72150   1.054   2.672   9.653 -0.4165 -0.3223  0.1548
23570SOL    HW172151   1.139   2.711   9.631 -1.0189  0.2702 -1.2342
23570SOL    HW272152   1.029   2.714   9.735 -0.7168  1.7808 -0.9394
23571SOL     OW72153   3.920   4.034   3.390 -0.3735  0.5479 -0.2875
23571SOL    HW172154   3.903   4.014   3.298 -0.6817 -0.0689 -0.0996
23571SOL    HW272155   3.979   3.964   3.419 -1.5636 -0.1892  0.4144
23572SOL     OW72156   1.480   5.665   1.628 -0.5893 -0.3986  0.6014
23572SOL    HW172157   1.466   5.571   1.617  0.2265 -0.4238 -0.4567
23572SOL    HW272158   1.417   5.705   1.567  0.6246 -0.3637 -0.6869
23573SOL     OW72159   7.491   4.411   7.786  0.5007 -0.1284 -0.3068
23573SOL    HW172160   7.494   4.321   7.818  1.8639 -0.1680 -0.5045
23573SOL    HW272161   7.428   4.409   7.715  0.7819 -1.0089 -0.5393
23574SOL     OW72162   5.364   4.125   4.193  0.0942  0.0787  0.2365
23574SOL    HW172163   5.335   4.041   4.158  0.4766  0.0415  0.0035
23574SOL    HW272164   5.362   4.113   4.288 -1.4044  0.3377  0.2614
23575SOL     OW72165   3.153   4.247  10.296  0.5930  0.0573  0.3559
23575SOL    HW172166   3.058   4.245  10.285  0.3801  0.0580  1.9279
23575SOL    HW272167   3.173   4.163  10.340  0.9844  1.0009  2.0877
23576SOL     OW72168   5.326   0.997   2.634 -0.2227  0.0119  0.2240
23576SOL    HW172169   5.287   1.058   2.572 -0.5478 -0.2499  0.1703
23576SOL    HW272170   5.252   0.949   2.672  0.1135 -1.5042 -0.9231
23577SOL     OW72171   6.849   4.299  11.086  0.2129  0.2450  0.1862
23577SOL    HW172172   6.827   4.324  10.996  1.8610  2.3049  0.2979
23577SOL    HW272173   6.771   4.319  11.136 -0.1611  0.6092 -0.5273
23578SOL     OW72174   4.034   5.380   5.306  0.0940  0.0959 -0.4772
23578SOL    HW172175   4.104   5.403   5.367  0.0649 -0.7776 -0.0939
23578SOL    HW272176   3.982   5.460   5.297 -0.7410 -0.1120  1.7826
23579SOL     OW72177   5.463   3.574   7.691  0.9325 -0.2309 -0.1671
23579SOL    HW172178   5.478   3.511   7.620 -1.8611 -0.3946 -0.7188
23579SOL    HW272179   5.482   3.524   7.771  1.2388 -0.9748 -0.6845
23580SOL     OW72180   0.958   7.655   3.152 -0.1324 -0.0895 -0.6048
23580SOL    HW172181   1.006   7.735   3.129 -0.3597  0.0584 -0.5627
23580SOL    HW272182   0.887   7.684   3.208  0.3241 -0.4324  0.1834
23581SOL     OW72183   6.271   5.737   8.722  0.1780  0.2142  0.0986
23581SOL    HW172184   6.192   5.713   8.673  0.3729 -0.9059  0.3151
23581SOL    HW272185   6.325   5.784   8.659 -0.5878  0.8664 -0.0944
23582SOL     OW72186   4.132   3.385   3.409 -0.1287 -0.9320 -0.0977
23582SOL    HW172187   4.205   3.377   3.348 -0.1831  0.6041 -0.3894
23582SOL    HW272188   4.168   3.359   3.494  1.2080  1.2524  0.0638
23583SOL     OW72189   0.012   6.079   4.816  0.0887 -0.3826  0.0999
23583SOL    HW172190  -0.021   6.107   4.901  0.6583  0.8474 -0.0585
23583SOL    HW272191  -0.062   6.092   4.756  0.6727  2.0464 -0.1963
23584SOL     OW72192   5.244   5.756   4.875 -0.0047  0.2863  0.5031
23584SOL    HW172193   5.150   5.771   4.877 -0.4554 -2.2674  1.4052
23584SOL    HW272194   5.254   5.662   4.859  2.3759  0.4053  0.8323
23585SOL     OW72195   3.952   4.754  10.753  0.0238  0.3152  0.2931
23585SOL    HW172196   3.906   4.827  10.710  0.9151  1.3343  1.0055
23585SOL    HW272197   3.971   4.693  10.683 -0.7210  0.7738 -0.3352
23586SOL     OW72198   2.015   5.400   0.258 -0.3067  0.0910  0.3336
23586SOL    HW172199   2.053   5.373   0.341 -0.7379  0.9550  0.8239
23586SOL    HW272200   2.042   5.332   0.196  0.0585 -0.5380  1.1626
23587SOL     OW72201   7.421   4.896   5.674  0.2675 -0.0051 -0.0562
23587SOL    HW172202   7.411   4.875   5.767 -2.6653  1.9320  0.2101
23587SOL    HW272203   7.387   4.818   5.629 -1.3346  0.2648  0.6189
23588SOL     OW72204   6.923   1.458   4.134 -0.5088  0.1719  0.4604
23588SOL    HW172205   6.912   1.453   4.229  0.2409 -1.5890  0.5039
23588SOL    HW272206   6.877   1.381   4.100 -0.0759  0.3230 -0.5170
23589SOL     OW72207   6.034   1.015   9.032  0.4417  0.2098  0.0706
23589SOL    HW172208   6.033   1.073   9.109  0.4422 -0.0339  0.2557
23589SOL    HW272209   6.028   0.927   9.068 -0.2666  0.1229 -0.2465
23590SOL     OW72210   7.106   4.525   9.384 -0.3244 -0.5595 -0.0535
23590SOL    HW172211   7.110   4.604   9.439 -0.0930 -1.4212  1.2219
23590SOL    HW272212   7.184   4.475   9.409  0.4667 -0.4322 -2.0887
23591SOL     OW72213   6.553   4.244   6.379  0.1833 -0.6988  0.2031
23591SOL    HW172214   6.547   4.306   6.306 -2.4983 -1.3521 -0.2184
23591SOL    HW272215   6.547   4.299   6.457 -0.3886 -0.2637 -0.1367
23592SOL     OW72216   4.460   1.641   0.161 -0.0755  0.1080  0.0760
23592SOL    HW172217   4.531   1.703   0.171 -1.1969  1.3721  0.4594
23592SOL    HW272218   4.453   1.626   0.066  1.3300 -0.8220  0.0978
23593SOL     OW72219   2.384   3.261   5.597  0.0907  0.5779 -0.0769
23593SOL    HW172220   2.383   3.199   5.524  0.9615  0.2865  0.1386
23593SOL    HW272221   2.333   3.220   5.666  1.5572 -0.4297  0.4582
23594SOL     OW72222   0.921   7.926  11.119  0.4063 -0.1664  0.5011
23594SOL    HW172223   0.865   8.002  11.139 -0.6092 -0.3852 -1.3356
23594SOL    HW272224   0.875   7.852  11.158 -0.3532 -0.2686 -0.5390
23595SOL     OW72225   0.976   7.680   3.618  0.0312  0.0273  0.2340
23595SOL    HW172226   0.961   7.771   3.644 -1.5859 -0.0760 -0.2778
23595SOL    HW272227   0.941   7.674   3.529  0.7993 -0.9227 -0.0264
23596SOL     OW72228   3.093   4.146   4.833  0.0837 -0.0783  0.6471
23596SOL    HW172229   3.064   4.105   4.915  0.8014  1.9875  2.0061
23596SOL    HW272230   3.187   4.125   4.829  0.3368  0.9258  1.0707
23597SOL     OW72231   7.933   5.073  12.457  0.0431 -0.6305 -0.8323
23597SOL    HW172232   7.933   5.077  12.552  0.9492  0.0857 -0.8422
23597SOL    HW272233   7.844   5.048  12.433 -0.9468  1.6983  0.1301
23598SOL     OW72234   6.897   1.753   9.257 -0.1396 -0.4872  0.0883
23598SOL    HW172235   6.828   1.790   9.313 -0.5708 -2.6572  1.0629
23598SOL    HW272236   6.909   1.819   9.188 -1.8359  0.8106  0.9571
23599SOL     OW72237   1.098   7.905   5.989  0.3415 -0.0843 -0.1682
23599SOL    HW172238   1.090   7.997   6.015 -0.1381 -0.5550  1.4691
23599SOL    HW272239   1.156   7.867   6.054 -1.4027 -1.4753  0.6573
23600SOL     OW72240   2.860   5.438   2.633  0.8654  0.2709  0.0101
23600SOL    HW172241   2.895   5.357   2.596  0.7878  0.0136  0.4957
23600SOL    HW272242   2.892   5.507   2.574  1.6973 -0.0190  0.1112
23601SOL     OW72243   6.128   6.277   9.167 -0.3337  0.4162  0.0741
23601SOL    HW172244   6.044   6.285   9.121  1.1489  3.0106 -2.5366
23601SOL    HW272245   6.149   6.184   9.163 -2.6653 -0.1751  0.1067
23602SOL     OW72246   6.805   4.267  12.169  0.0609 -0.4271  0.1529
23602SOL    HW172247   6.745   4.331  12.207  0.2484 -1.1263  1.6846
23602SOL    HW272248   6.753   4.187  12.161 -0.2482 -0.0852 -1.9795
23603SOL     OW72249   4.422   6.895  11.410  0.7707 -0.2450 -0.2200
23603SOL    HW172250   4.469   6.963  11.457 -0.7346  0.5002  0.2677
23603SOL    HW272251   4.422   6.923  11.319  1.6603 -0.4928 -0.3004
23604SOL     OW72252   5.583   2.619   1.718 -0.2846  0.0829 -0.1347
23604SOL    HW172253   5.630   2.573   1.788 -0.1528 -1.8868 -1.4463
23604SOL    HW272254   5.646   2.622   1.645 -1.2421 -0.1015 -0.9863
23605SOL     OW72255   3.942   7.313   8.509 -1.0938 -0.1289  0.3405
23605SOL    HW172256   3.965   7.381   8.445 -0.3277  0.0481  0.7843
23605SOL    HW272257   3.961   7.354   8.594  1.3409 -1.5600  0.5701
23606SOL     OW72258   7.217   5.245   8.276  0.1179  0.5383 -0.6715
23606SOL    HW172259   7.131   5.270   8.309 -0.2561 -1.2650 -0.1532
23606SOL    HW272260   7.200   5.167   8.223  1.6058 -0.9635  0.9303
23607SOL     OW72261   1.232   3.152   3.341 -0.0916 -0.0483 -0.3842
23607SOL    HW172262   1.162   3.211   3.367 -0.8737 -1.3972  0.6873
23607SOL    HW272263   1.290   3.205   3.287 -1.5181  1.2973 -0.6283
23608SOL     OW72264   7.267   3.275   1.312 -0.2936  0.3983 -0.4330
23608SOL    HW172265   7.311   3.318   1.385  0.5267 -0.2461 -0.5340
23608SOL    HW272266   7.243   3.189   1.346 -2.8740  1.2471  0.1077
23609SOL     OW72267   4.832   0.376   1.882  0.3725  0.3126 -0.0253
23609SOL    HW172268   4.868   0.447   1.935  1.3612  1.0335 -1.5552
23609SOL    HW272269   4.745   0.407   1.856 -0.0465  0.0263  1.0088
23610SOL     OW72270   1.041   7.884   1.183 -0.6862  0.0013  0.0557
23610SOL    HW172271   1.070   7.863   1.272 -0.5340 -0.7227 -0.1533
23610SOL    HW272272   1.117   7.926   1.143 -0.8087  0.4730  0.3202
23611SOL     OW72273   0.871   4.685   6.328 -0.4009  0.0186  0.5239
23611SOL    HW172274   0.945   4.729   6.285  1.1987 -0.6341  2.4821
23611SOL    HW272275   0.855   4.737   6.406 -0.6631 -1.0076  1.1634
23612SOL     OW72276   5.698   7.157   4.677 -0.4661 -0.0623  0.0575
23612SOL    HW172277   5.616   7.156   4.629 -0.2443 -1.7070 -0.3703
23612SOL    HW272278   5.679   7.112   4.759 -0.2991  0.7311  0.5438
23613SOL     OW72279   4.192   6.739  11.393  0.6564 -0.0408 -0.0854
23613SOL    HW172280   4.201   6.647  11.372 -1.0447 -0.3250  0.2858
23613SOL    HW272281   4.282   6.771  11.402  1.2613 -1.8793  0.7936
23614SOL     OW72282   3.245   7.802   2.316  0.3943 -0.4970  0.1686
23614SOL    HW172283   3.249   7.711   2.345 -1.7122 -1.0164 -0.9499
23614SOL    HW272284   3.169   7.805   2.258 -0.0307  2.1373  0.7392
23615SOL     OW72285   4.056   1.386  10.799 -0.6514 -0.1870  0.2241
23615SOL    HW172286   4.071   1.294  10.822 -0.6449  0.2556  2.1919
23615SOL    HW272287   4.045   1.430  10.883 -2.3664  1.3341 -0.7226
23616SOL     OW72288   7.749   0.732   4.126 -0.7057 -0.0564  0.2512
23616SOL    HW172289   7.815   0.799   4.107  1.1440 -2.0198 -0.7317
23616SOL    HW272290   7.700   0.724   4.044 -1.2346  0.3714  0.5160
23617SOL     OW72291   1.347   2.656  10.719 -0.4327  0.8262  0.0159
23617SOL    HW172292   1.425   2.606  10.745 -0.1956  1.7358  1.1510
23617SOL    HW272293   1.315   2.693  10.801 -1.7233  0.9627 -0.5313
23618SOL     OW72294   5.500   7.530   7.076  0.1722  0.0259  0.1210
23618SOL    HW172295   5.463   7.518   6.989 -0.0794 -2.4252  0.5070
23618SOL    HW272296   5.477   7.620   7.100 -2.4895 -0.2636 -1.0699
23619SOL     OW72297   6.154   3.171  11.041 -0.0245 -0.2724 -0.2894
23619SOL    HW172298   6.121   3.256  11.070  0.0213  0.0051 -1.0199
23619SOL    HW272299   6.082   3.110  11.057  0.0363 -0.1496  0.4775
23620SOL     OW72300   1.659   2.521   8.106  0.2210 -0.1428  0.0068
23620SOL    HW172301   1.630   2.607   8.136 -0.3563 -0.7696  1.3967
23620SOL    HW272302   1.749   2.513   8.137 -0.4265 -0.8516  1.8501
23621SOL     OW72303   0.902   6.640   2.479 -0.0968  0.4795  0.6880
23621SOL    HW172304   0.816   6.666   2.513 -0.4169  0.1673  0.1328
23621SOL    HW272305   0.963   6.666   2.548 -0.5793  1.1622  0.8789
23622SOL     OW72306   0.386   3.409  11.416  0.9719  0.0699 -0.3132
23622SOL    HW172307   0.426   3.323  11.401 -0.9099 -1.2577  1.6665
23622SOL    HW272308   0.323   3.419  11.344  2.2365  0.5500 -1.4057
23623SOL     OW72309   7.372   7.712   7.545  0.2699  0.6790 -0.1578
23623SOL    HW172310   7.423   7.732   7.624  1.6674 -0.5293 -0.7063
23623SOL    HW272311   7.381   7.618   7.534 -1.3400  0.5740 -0.8292
23624SOL     OW72312   3.588   3.268   3.850 -0.1780 -0.2513 -0.8481
23624SOL    HW172313   3.575   3.361   3.831  0.5077 -0.0293 -0.2791
23624SOL    HW272314   3.672   3.265   3.895 -0.5236 -1.0673 -0.2442
23625SOL     OW72315   3.372   1.715   9.475 -0.1525 -0.2151  0.3017
23625SOL    HW172316   3.338   1.634   9.435 -0.2244 -0.2693  0.4722
23625SOL    HW272317   3.351   1.783   9.411  1.3775 -0.5598 -0.6190
23626SOL     OW72318   2.945   3.373   3.605 -0.0572  0.2220 -0.6592
23626SOL    HW172319   3.036   3.367   3.632  0.0095 -1.1097 -1.0965
23626SOL    HW272320   2.934   3.463   3.576  2.1068 -0.4144 -4.0171
23627SOL     OW72321   2.094   7.487  10.392 -0.0486  0.1645  0.3459
23627SOL    HW172322   2.091   7.426  10.318 -0.0102 -0.8957  1.2005
23627SOL    HW272323   2.172   7.461  10.441 -0.7016  0.1067  1.3845
23628SOL     OW72324   4.668   6.720  12.449 -0.0028  0.1074  0.5884
23628SOL    HW172325   4.742   6.759  12.403  0.0596 -0.0780  0.5294
23628SOL    HW272326   4.674   6.627  12.429 -1.0865  0.2603 -0.6417
23629SOL     OW72327   1.251   2.270   3.264 -0.2570  0.4746 -0.1926
23629SOL    HW172328   1.325   2.320   3.297 -0.1687  0.4096 -0.2930
23629SOL    HW272329   1.201   2.333   3.212  0.3910  0.2137 -1.1547
23630SOL     OW72330   1.654   0.805   2.947 -0.0564 -0.3801  0.4278
23630SOL    HW172331   1.589   0.863   2.909 -1.1693 -0.9409  1.4215
23630SOL    HW272332   1.689   0.854   3.022 -1.6354 -1.2825  1.8101
23631SOL     OW72333   3.848   0.652   4.153  0.4037  0.1645  0.0018
23631SOL    HW172334   3.802   0.679   4.232 -1.7073 -1.1476 -0.7266
23631SOL    HW272335   3.835   0.725   4.092 -1.9397 -0.7138 -0.6398
23632SOL     OW72336   3.208   1.394   1.393  0.2151  0.0721  0.2053
23632SOL    HW172337   3.215   1.327   1.462  1.1460  0.0155  0.0756
23632SOL    HW272338   3.237   1.349   1.314  0.3310  0.4825  0.0145
23633SOL     OW72339   3.087   6.214  10.570 -0.2213 -0.6087  0.1462
23633SOL    HW172340   3.022   6.173  10.513 -0.9745 -0.9230  1.2145
23633SOL    HW272341   3.119   6.144  10.626  1.4641 -0.5789 -0.7091
23634SOL     OW72342   4.629   5.433   0.877 -0.4266  0.4618 -0.1308
23634SOL    HW172343   4.585   5.511   0.911 -1.3893 -0.5071  0.9666
23634SOL    HW272344   4.565   5.394   0.817  0.4463  1.0285 -1.4739
23635SOL     OW72345   0.955   4.653   9.046 -0.1778 -0.0799 -0.0617
23635SOL    HW172346   0.898   4.577   9.058 -0.6737  0.2949 -0.0253
23635SOL    HW272347   0.903   4.714   8.993 -0.4568  0.9612  1.3419
23636SOL     OW72348   7.297   5.421  11.150 -0.9569 -0.8570  0.4986
23636SOL    HW172349   7.225   5.386  11.098 -0.7918 -2.2458  1.1725
23636SOL    HW272350   7.358   5.456  11.085 -2.1810  0.3056 -0.0847
23637SOL     OW72351   3.140   2.760   8.073  0.0343  0.6779 -0.1983
23637SOL    HW172352   3.193   2.811   8.012  1.1058  0.3348  0.4190
23637SOL    HW272353   3.137   2.673   8.035  0.1090  0.6385 -0.1129
23638SOL     OW72354   1.054   3.416   1.718 -0.3301 -0.0556  0.2586
23638SOL    HW172355   1.074   3.502   1.756 -0.1081 -0.4742  1.1008
23638SOL    HW272356   1.118   3.406   1.648 -0.6532  0.6598 -0.1620
23639SOL     OW72357   1.852   4.595  11.360  0.3642 -0.3919  0.0566
23639SOL    HW172358   1.785   4.626  11.420  0.9625  0.6305  0.2337
23639SOL    HW272359   1.927   4.652  11.377  0.6344 -0.2433 -1.4715
23640SOL     OW72360   6.968   1.209   8.805  0.1945 -0.4455 -0.2059
23640SOL    HW172361   6.941   1.255   8.726  0.2197 -0.1229 -0.0262
23640SOL    HW272362   7.004   1.277   8.862 -0.4478 -0.5755  0.3593
23641SOL     OW72363   1.076   5.112   0.642  0.1364 -0.7663 -0.1439
23641SOL    HW172364   1.156   5.125   0.693  0.0659 -2.4653  0.4844
23641SOL    HW272365   1.045   5.200   0.622  1.5906 -0.0768  0.5104
23642SOL     OW72366   5.367   0.095   2.088  0.2786  0.1845  0.4020
23642SOL    HW172367   5.417   0.112   2.008 -1.5498  0.7135 -0.6812
23642SOL    HW272368   5.430   0.108   2.159  1.2997  2.3911 -0.8155
23643SOL     OW72369   7.078   5.078  10.543  0.2158 -0.1808 -0.2249
23643SOL    HW172370   7.019   5.054  10.472 -1.0019  1.0772  0.2923
23643SOL    HW272371   7.024   5.071  10.622  0.7345  0.9931  0.2685
23644SOL     OW72372   7.664   1.636   9.973 -0.0848  0.3604 -0.2693
23644SOL    HW172373   7.584   1.678   9.943 -0.9690 -1.6624 -0.9632
23644SOL    HW272374   7.678   1.670  10.061 -0.2920  2.5953 -1.0575
23645SOL     OW72375   0.241   6.046   4.092  0.1214  0.0858 -0.8650
23645SOL    HW172376   0.148   6.067   4.102  0.4580  0.9475  0.6037
23645SOL    HW272377   0.271   6.104   4.022 -0.0385  1.1359 -0.0773
23646SOL     OW72378   6.422   3.987   9.585 -0.7728  0.2783 -0.0085
23646SOL    HW172379   6.376   3.939   9.655 -0.8705 -0.9341 -0.8635
23646SOL    HW272380   6.386   3.951   9.504 -0.4957  1.4987 -0.6923
23647SOL     OW72381   7.107   3.296   8.659  0.2849  0.2226 -0.3989
23647SOL    HW172382   7.048   3.223   8.640  0.4948 -0.0945  0.1250
23647SOL    HW272383   7.076   3.331   8.742 -0.5010  1.4625 -1.1846
23648SOL     OW72384   4.756   6.072   7.763 -0.3752  0.3057  0.3112
23648SOL    HW172385   4.756   5.977   7.746  0.0897  0.5509 -1.2591
23648SOL    HW272386   4.818   6.083   7.835 -0.1093 -0.5500  0.2322
23649SOL     OW72387   3.366   6.447   4.378  0.3990  0.2218  0.0100
23649SOL    HW172388   3.458   6.462   4.396  0.1441  0.3843  1.2568
23649SOL    HW272389   3.336   6.528   4.335  0.8372  0.1544 -0.4244
23650SOL     OW72390   7.801   3.232   7.681  0.6259 -0.3060  0.3057
23650SOL    HW172391   7.797   3.252   7.588 -1.6613 -1.0621  0.1797
23650SOL    HW272392   7.851   3.305   7.720  0.9702  0.3974 -1.3876
23651SOL     OW72393   4.347   6.900   2.462 -0.4255  0.0954  0.1609
23651SOL    HW172394   4.266   6.930   2.421 -0.8467 -1.1805  0.0229
23651SOL    HW272395   4.318   6.853   2.541  0.1332 -0.8730 -0.1996
23652SOL     OW72396   2.250   3.736   4.135 -0.0800  0.4673 -0.3267
23652SOL    HW172397   2.341   3.719   4.113 -0.1652  0.0468 -0.3614
23652SOL    HW272398   2.210   3.649   4.143 -0.3168  0.6359  0.3711
23653SOL     OW72399   0.037   6.014   9.541 -0.6312  0.3928  0.0981
23653SOL    HW172400  -0.044   6.040   9.584 -0.0182  0.5683  1.1887
23653SOL    HW272401   0.022   6.030   9.448 -2.4015 -1.0501  0.0927
23654SOL     OW72402   2.188   4.110   7.312 -0.6499  0.2473 -0.3812
23654SOL    HW172403   2.177   4.015   7.319 -3.2179  0.4008 -1.0036
23654SOL    HW272404   2.243   4.122   7.235  0.9061 -0.7266  0.5363
23655SOL     OW72405   4.831   1.012   1.362  0.0709  0.0224  0.3381
23655SOL    HW172406   4.913   1.054   1.386 -1.0219  2.0180  0.7572
23655SOL    HW272407   4.840   0.996   1.267  1.1328 -0.3333  0.4784
23656SOL     OW72408   0.511   3.542   0.510 -0.1728 -0.2890 -0.1658
23656SOL    HW172409   0.467   3.564   0.428 -1.2578  0.9592  0.6968
23656SOL    HW272410   0.591   3.498   0.484 -1.3130 -1.4859 -1.8477
23657SOL     OW72411   2.764   6.368   0.453 -0.0683  0.1120  0.5050
23657SOL    HW172412   2.746   6.331   0.366 -1.0734 -0.5472  0.9675
23657SOL    HW272413   2.835   6.315   0.488  0.1088  0.1613  0.2255
23658SOL     OW72414   5.279   0.042   3.833  0.1396  0.0515 -0.2320
23658SOL    HW172415   5.356   0.096   3.820 -0.3923  0.8989  0.0355
23658SOL    HW272416   5.304  -0.021   3.901  0.8672 -0.2640 -0.7836
23659SOL     OW72417   7.257   2.608   0.588 -0.4350 -0.9360 -0.0905
23659SOL    HW172418   7.169   2.628   0.555 -0.1313  0.9359  0.0904
23659SOL    HW272419   7.244   2.590   0.681 -0.6329 -0.6663 -0.0650
23660SOL     OW72420   1.550   6.932   1.582  0.4885  0.2524 -0.3523
23660SOL    HW172421   1.625   6.974   1.625 -0.1704  0.2104  0.8817
23660SOL    HW272422   1.570   6.839   1.583  1.0306  0.3501 -1.2632
23661SOL     OW72423   4.158   7.348   9.695 -0.2462  0.5350  0.1681
23661SOL    HW172424   4.080   7.302   9.663  0.8171  0.4276 -2.5963
23661SOL    HW272425   4.185   7.403   9.621  0.0604  3.7061  2.4324
23662SOL     OW72426   5.765   6.718   5.952  0.0920 -0.1175  0.2506
23662SOL    HW172427   5.758   6.782   5.881 -0.8731  0.2857  0.6815
23662SOL    HW272428   5.737   6.635   5.912 -1.6424  0.3357  0.4175
23663SOL     OW72429   5.327   4.216  10.601  0.1616 -0.1628  0.0831
23663SOL    HW172430   5.239   4.191  10.575  0.2413 -0.9334  0.5208
23663SOL    HW272431   5.315   4.273  10.677  0.0502 -0.4768  0.3009
23664SOL     OW72432   5.452   6.419  12.080 -0.4953 -0.6305  0.2425
23664SOL    HW172433   5.394   6.360  12.033  0.9937  0.3046 -3.0717
23664SOL    HW272434   5.492   6.364  12.147 -3.0586 -1.9483  0.8320
23665SOL     OW72435   4.933   7.468   3.156  0.7377 -0.5257 -0.1889
23665SOL    HW172436   4.951   7.560   3.177  0.7629 -0.5226 -0.2239
23665SOL    HW272437   4.892   7.472   3.069 -0.9282 -0.4000  0.5669
23666SOL     OW72438   0.156   3.871   3.953  0.2688  0.0872 -0.2848
23666SOL    HW172439   0.123   3.915   3.874  1.7413 -2.1036 -2.2688
23666SOL    HW272440   0.164   3.779   3.927  3.1448 -0.3255  1.6133
23667SOL     OW72441   1.524   5.737  11.953 -0.4730 -0.2551  0.3439
23667SOL    HW172442   1.592   5.799  11.926 -0.7694  0.3036  0.8866
23667SOL    HW272443   1.453   5.751  11.891 -0.3218 -0.4482  0.1233
23668SOL     OW72444   3.411   1.118   5.737  0.3128  0.1129  0.1672
23668SOL    HW172445   3.366   1.184   5.684 -0.0996  0.6603  1.1755
23668SOL    HW272446   3.344   1.052   5.754  0.0685  0.5693  1.0565
23669SOL     OW72447   5.869   6.394   4.320  0.6833 -0.0222  0.3698
23669SOL    HW172448   5.956   6.367   4.292  0.7179 -2.1090  2.2282
23669SOL    HW272449   5.865   6.373   4.413 -2.5402 -2.2151 -0.0792
23670SOL     OW72450   2.352   1.537   1.920  0.2987  0.5012 -0.1414
23670SOL    HW172451   2.412   1.567   1.988  0.9403  1.3184 -1.0346
23670SOL    HW272452   2.409   1.501   1.852 -0.2876  0.2091 -0.4871
23671SOL     OW72453   2.058   5.104   1.734  0.3872 -0.2395 -0.4813
23671SOL    HW172454   2.095   5.017   1.752  1.0493  0.1266 -0.0200
23671SOL    HW272455   2.129   5.151   1.691  0.4447  0.4481  0.3358
23672SOL     OW72456   3.774   5.615  11.050  0.3681  0.3154  0.3684
23672SOL    HW172457   3.815   5.701  11.048  1.5054 -0.1878  0.5942
23672SOL    HW272458   3.828   5.565  11.111  1.2203 -1.2533 -1.5591
23673SOL     OW72459   5.003   1.670  11.672 -0.3939  0.0917 -0.0013
23673SOL    HW172460   5.088   1.705  11.698 -0.6510 -0.2124  1.2948
23673SOL    HW272461   4.963   1.740  11.620  0.6367  0.2405 -0.6101
23674SOL     OW72462   6.095   6.633   4.893 -0.0006 -0.0579  0.1235
23674SOL    HW172463   6.023   6.670   4.944 -1.3678 -0.7855 -1.2062
23674SOL    HW272464   6.173   6.655   4.943 -1.2483 -0.8477  2.5847
23675SOL     OW72465   4.166   3.265   2.080  0.0756 -0.9536 -0.1912
23675SOL    HW172466   4.114   3.219   2.014 -2.8420  0.8595  0.6498
23675SOL    HW272467   4.198   3.343   2.036 -0.7360 -0.4259  0.1247
23676SOL     OW72468   6.818   1.656  10.114 -0.6494  0.1339  0.1861
23676SOL    HW172469   6.739   1.628  10.160  0.7716 -1.8811  1.5642
23676SOL    HW272470   6.882   1.671  10.184  0.3109  1.4062 -0.9197
23677SOL     OW72471   2.371   6.941   4.193 -0.1657  0.2593  0.3312
23677SOL    HW172472   2.342   6.944   4.285  1.3339  0.9853  0.8121
23677SOL    HW272473   2.464   6.918   4.198  0.0379  0.7416 -0.9799
23678SOL     OW72474   4.559   1.248   4.154  0.1180 -0.0487 -0.1600
23678SOL    HW172475   4.472   1.244   4.114  0.6994 -0.1438 -1.4656
23678SOL    HW272476   4.619   1.252   4.080  1.2056  0.6407  0.7300
23679SOL     OW72477   0.891   4.442   6.420 -0.0315  0.1955 -0.4330
23679SOL    HW172478   0.866   4.523   6.374 -0.7802  0.6471  0.7164
23679SOL    HW272479   0.975   4.462   6.460 -0.7214  0.8304  0.7722
23680SOL     OW72480   2.214   3.448   4.142 -0.2163 -0.7525 -0.5645
23680SOL    HW172481   2.127   3.411   4.159  0.0518 -1.1341  0.0076
23680SOL    HW272482   2.263   3.375   4.104  0.0107 -0.6917 -0.3900
23681SOL     OW72483   5.420   6.185   9.940  0.2548  0.0942 -0.1300
23681SOL    HW172484   5.327   6.199   9.922  0.0149 -1.0114  0.1578
23681SOL    HW272485   5.466   6.230   9.869 -0.5576 -1.0481 -1.4298
23682SOL     OW72486   3.015   1.153   0.181 -0.0498  0.2837  0.2445
23682SOL    HW172487   3.016   1.073   0.233  2.4990  0.6466  0.8526
23682SOL    HW272488   3.078   1.211   0.223 -0.7968  2.1120 -1.0020
23683SOL     OW72489   4.247   1.061   6.672 -0.3318 -0.1206 -0.1994
23683SOL    HW172490   4.206   1.066   6.586  0.7454 -0.6903 -0.7654
23683SOL    HW272491   4.277   1.150   6.690 -2.4879  0.4873  0.5900
23684SOL     OW72492   4.866   7.537  10.807  0.3371 -0.0128 -0.0148
23684SOL    HW172493   4.905   7.623  10.795 -0.1649  0.2731  0.3520
23684SOL    HW272494   4.912   7.499  10.882 -0.1599  0.3704  0.4917
23685SOL     OW72495   5.394   7.350   0.915  0.7336  0.7002 -0.3090
23685SOL    HW172496   5.368   7.434   0.877  2.2021  1.9070  1.1602
23685SOL    HW272497   5.323   7.327   0.975 -0.2332  0.2500 -1.5926
23686SOL     OW72498   7.911   2.772   8.380  0.4860 -0.4057 -0.1713
23686SOL    HW172499   7.882   2.737   8.464  0.8072 -2.8061 -0.9861
23686SOL    HW272500   7.844   2.835   8.355  0.2967  0.2217  1.7710
23687SOL     OW72501   0.667   4.878  10.124 -0.2221  0.0659  0.4903
23687SOL    HW172502   0.662   4.907  10.215  0.8209 -0.1363  0.6221
23687SOL    HW272503   0.714   4.949  10.079 -0.8799  0.2466  0.0597
23688SOL     OW72504   5.216   1.858   5.004 -0.2226 -0.3576  0.2305
23688SOL    HW172505   5.294   1.850   4.949  0.2136 -0.0253  0.7917
23688SOL    HW272506   5.143   1.856   4.942  0.2949  0.9307 -0.4593
23689SOL     OW72507   0.008   6.506   3.054  0.1200 -0.5680 -0.0109
23689SOL    HW172508   0.063   6.513   3.133  0.6533  0.5005 -0.4595
23689SOL    HW272509   0.043   6.431   3.007 -0.4707 -1.4777  0.9652
23690SOL     OW72510   1.454   5.914   1.108  0.2903 -0.2510 -0.7056
23690SOL    HW172511   1.434   5.954   1.023 -0.4786  0.7801 -0.0646
23690SOL    HW272512   1.446   5.820   1.093 -4.6416 -0.0463 -0.6994
23691SOL     OW72513   0.318   6.194   2.600 -0.5148 -0.1764 -0.2094
23691SOL    HW172514   0.400   6.183   2.650 -1.1457  1.3640  1.2618
23691SOL    HW272515   0.346   6.192   2.508  1.2680  0.7827  0.2524
23692SOL     OW72516   4.130   4.690   3.765  0.2694 -0.2899 -0.5210
23692SOL    HW172517   4.115   4.674   3.858 -0.7067 -0.6943 -0.7446
23692SOL    HW272518   4.214   4.738   3.763  0.4839 -0.5880  0.5288
23693SOL     OW72519   2.146   2.038   7.782 -1.0851 -0.5822  0.4212
23693SOL    HW172520   2.233   2.015   7.817 -0.8057  0.6189  0.5531
23693SOL    HW272521   2.089   1.966   7.811  0.1517 -2.2490 -1.0364
23694SOL     OW72522   5.541   5.666   3.330  0.4635 -0.1604  0.1679
23694SOL    HW172523   5.567   5.742   3.382  1.2118 -0.2943 -0.0042
23694SOL    HW272524   5.496   5.703   3.254  0.8680  0.1079  0.0609
23695SOL     OW72525   4.890   5.129   3.999 -0.2920  0.1262 -0.0636
23695SOL    HW172526   4.836   5.050   4.004 -0.2309  0.0888  0.0007
23695SOL    HW272527   4.829   5.198   3.974 -1.0069  0.7022  2.9336
23696SOL     OW72528   2.054   1.099  11.181  0.3702  0.2997  0.0061
23696SOL    HW172529   2.128   1.041  11.164  0.8054  1.0011 -0.5551
23696SOL    HW272530   2.057   1.116  11.275  0.9488  0.3621 -0.0242
23697SOL     OW72531   6.495   6.508   1.033 -0.1758  0.1214 -0.3094
23697SOL    HW172532   6.443   6.577   0.991 -4.7169 -0.5682  3.2897
23697SOL    HW272533   6.546   6.554   1.099 -0.9847  0.3458  0.1765
23698SOL     OW72534   5.994   3.895   9.024  0.4290  0.4710  0.2695
23698SOL    HW172535   5.913   3.945   9.037  0.7012  0.5216  1.9787
23698SOL    HW272536   6.064   3.957   9.045  0.9177  0.2990 -0.7768
23699SOL     OW72537   4.522   3.242   4.574  0.3758 -0.3343 -0.2816
23699SOL    HW172538   4.550   3.334   4.573 -0.3664 -0.0982 -0.3550
23699SOL    HW272539   4.531   3.216   4.665  0.1883 -0.0512 -0.1785
23700SOL     OW72540   5.550   2.243   6.191 -0.3074  0.1247  0.1730
23700SOL    HW172541   5.509   2.167   6.151  0.9739 -0.7449  0.4447
23700SOL    HW272542   5.482   2.283   6.244 -0.8019 -1.2831  0.6335
23701SOL     OW72543   5.538   2.662   9.089  0.8156  0.6289 -0.0139
23701SOL    HW172544   5.494   2.633   9.168  1.0913 -0.2084 -0.1555
23701SOL    HW272545   5.512   2.753   9.079 -3.6677 -0.5892 -1.9320
23702SOL     OW72546   6.758   6.163   0.609  0.1799  0.3306 -0.2266
23702SOL    HW172547   6.725   6.149   0.698 -0.8785  1.5097 -0.3968
23702SOL    HW272548   6.704   6.108   0.554 -0.0101  0.5582 -0.2687
23703SOL     OW72549   6.767   5.776   3.663 -0.4372  0.1627 -0.3211
23703SOL    HW172550   6.832   5.844   3.645 -0.8368  0.4203 -0.8173
23703SOL    HW272551   6.723   5.761   3.579 -1.0803  0.0614  0.0245
23704SOL     OW72552   4.572   1.290   6.998  0.0799 -0.1105 -0.0110
23704SOL    HW172553   4.547   1.328   7.082 -0.4279  1.5407 -0.8559
23704SOL    HW272554   4.594   1.199   7.018 -3.3156 -0.7683  1.4005
23705SOL     OW72555   7.161   1.907   8.876  0.5680 -0.0390  0.0538
23705SOL    HW172556   7.145   1.812   8.876  1.4536 -0.2007 -0.0968
23705SOL    HW272557   7.201   1.924   8.791 -0.1768  0.5904 -0.1818
23706SOL     OW72558   3.414   1.458   9.403  0.0065  0.4163 -0.3928
23706SOL    HW172559   3.486   1.498   9.353 -1.0450  1.7505 -0.8971
23706SOL    HW272560   3.394   1.377   9.355 -0.8866  1.6021 -2.1093
23707SOL     OW72561   3.390   1.560   0.372 -0.3085 -0.4269  0.0348
23707SOL    HW172562   3.461   1.607   0.414 -0.8297 -0.3932  0.8936
23707SOL    HW272563   3.415   1.556   0.279  0.1060  0.8587  0.0771
23708SOL     OW72564   5.619   2.124   6.774  0.0390 -0.2543  0.5033
23708SOL    HW172565   5.541   2.150   6.725  1.7971  1.4169 -1.6505
23708SOL    HW272566   5.647   2.043   6.732 -0.0992 -0.4420  0.7691
23709SOL     OW72567   4.149   6.468   4.228  0.0742  0.5836  0.0061
23709SOL    HW172568   4.200   6.388   4.243  0.6015  0.6298 -1.3269
23709SOL    HW272569   4.173   6.526   4.300  1.4928  0.3848 -0.2815
23710SOL     OW72570   0.397   3.112   6.586 -0.5374  0.2376  0.1000
23710SOL    HW172571   0.344   3.161   6.648 -2.0835 -1.0999 -0.0912
23710SOL    HW272572   0.382   3.154   6.502 -0.4144  0.5310  0.2238
23711SOL     OW72573   3.042   4.903   7.250  0.0199 -0.5447 -0.1894
23711SOL    HW172574   2.995   4.833   7.295  2.4787 -0.7414  2.2732
23711SOL    HW272575   2.978   4.975   7.247 -1.5477 -1.8584 -0.0801
23712SOL     OW72576   6.922   4.713  10.210  0.5537 -0.7177 -0.1070
23712SOL    HW172577   6.866   4.705  10.132  0.9711  0.7051 -0.5641
23712SOL    HW272578   6.889   4.645  10.269 -0.0828 -1.5036 -1.3241
23713SOL     OW72579   5.479   3.962  10.267 -0.2783  0.5005 -0.0486
23713SOL    HW172580   5.486   3.870  10.242  1.1468  0.3251  0.8553
23713SOL    HW272581   5.429   3.961  10.349 -3.0393  0.8773 -1.5926
23714SOL     OW72582   6.108   0.024   2.095 -0.2727 -0.0133  0.5257
23714SOL    HW172583   6.173  -0.039   2.125 -0.5276 -0.0040  1.1105
23714SOL    HW272584   6.154   0.108   2.095  0.3567 -0.3408 -1.2217
23715SOL     OW72585   7.441   5.316   1.343 -0.2491 -0.0651  0.2467
23715SOL    HW172586   7.411   5.270   1.264  0.2503  0.8995 -0.5114
23715SOL    HW272587   7.528   5.280   1.360  0.7321  1.4977 -1.1401
23716SOL     OW72588   2.634   0.247   3.440 -0.2570  0.0617  0.4528
23716SOL    HW172589   2.620   0.163   3.397 -0.2574  0.2411  0.0926
23716SOL    HW272590   2.546   0.285   3.448 -0.2293  0.1452  0.3667
23717SOL     OW72591   5.421   1.681   9.256  0.1904 -0.0280  0.3963
23717SOL    HW172592   5.424   1.748   9.188 -0.2208 -0.5977 -0.1953
23717SOL    HW272593   5.381   1.606   9.214 -0.5597 -0.2247  1.4187
23718SOL     OW72594   4.422   5.863   3.591  0.1644  0.5341 -0.0022
23718SOL    HW172595   4.502   5.848   3.541  0.8450  0.4959  1.0572
23718SOL    HW272596   4.425   5.955   3.616  0.6665  0.1865  1.3221
23719SOL     OW72597   3.708   5.862   3.331  0.3407  0.2216  0.2149
23719SOL    HW172598   3.750   5.857   3.245 -0.8679 -0.8671 -0.3432
23719SOL    HW272599   3.627   5.813   3.321  0.6191 -0.7494  2.2513
23720SOL     OW72600   2.284   7.684   5.905 -0.4622  0.1049  0.1573
23720SOL    HW172601   2.368   7.667   5.862  0.5280  0.2862  1.9342
23720SOL    HW272602   2.247   7.757   5.856  1.2145  1.1371  0.3441
23721SOL     OW72603   4.560   0.788   0.072 -0.0619  0.3854 -0.4296
23721SOL    HW172604   4.549   0.865   0.128  0.0543 -1.5512  2.4505
23721SOL    HW272605   4.482   0.735   0.087  0.3228 -0.5530 -1.5521
23722SOL     OW72606   2.138   2.414   5.906 -0.2763 -0.2438 -0.2563
23722SOL    HW172607   2.195   2.347   5.945  0.8110 -0.7634 -2.5529
23722SOL    HW272608   2.050   2.388   5.931  0.3048 -0.9924  1.1316
23723SOL     OW72609   5.145   1.341   6.403 -0.2677 -0.6625  0.0501
23723SOL    HW172610   5.164   1.270   6.465  1.3448 -2.5146 -2.3810
23723SOL    HW272611   5.231   1.369   6.372 -0.7410  3.4232  1.8631
23724SOL     OW72612   6.829   0.110  10.234 -0.2182 -0.2363 -0.2604
23724SOL    HW172613   6.786   0.163  10.301  0.2173 -0.7934  0.4829
23724SOL    HW272614   6.794   0.022  10.247  0.0893 -0.4046 -0.5717
23725SOL     OW72615   4.127   5.923   7.773  0.3424 -0.4870 -0.4669
23725SOL    HW172616   4.212   5.916   7.729  0.4681  0.1621 -0.3474
23725SOL    HW272617   4.132   5.862   7.846  0.3482 -1.1505 -1.0062
23726SOL     OW72618   0.096   5.280   2.636  0.0875 -0.4617  0.1815
23726SOL    HW172619   0.006   5.287   2.604 -0.5279 -1.3639  1.6169
23726SOL    HW272620   0.116   5.187   2.631  1.1264 -0.2042 -0.5812
23727SOL     OW72621   0.529   1.966   4.115 -0.0724  0.0425  0.0577
23727SOL    HW172622   0.473   2.006   4.049  0.5060  2.1303  0.7371
23727SOL    HW272623   0.582   1.903   4.067  2.1096  3.2225 -2.1046
23728SOL     OW72624   1.665   6.659  10.400  0.1392  0.0232 -0.0348
23728SOL    HW172625   1.620   6.691  10.323 -1.4851 -0.0707  0.8459
23728SOL    HW272626   1.671   6.734  10.458 -1.2305 -0.5532  0.9022
23729SOL     OW72627   1.681   1.816   9.679 -0.3672 -0.0005 -0.2907
23729SOL    HW172628   1.758   1.814   9.623  1.0061 -0.0321  1.5254
23729SOL    HW272629   1.670   1.909   9.700 -1.4000  0.1179 -1.2523
23730SOL     OW72630   5.035   2.541   4.102 -0.4007  0.2509 -0.2285
23730SOL    HW172631   5.011   2.450   4.084 -1.5271  0.6187 -0.6887
23730SOL    HW272632   4.953   2.589   4.092  0.1320  1.2847  0.2708
23731SOL     OW72633   0.824   5.808   4.075  0.2993  0.9730 -0.5721
23731SOL    HW172634   0.802   5.734   4.018 -0.8930  1.0006 -0.1771
23731SOL    HW272635   0.821   5.771   4.164  0.8004  1.2431 -0.4414
23732SOL     OW72636   7.666   7.207   6.579  0.7401  0.6342 -0.4797
23732SOL    HW172637   7.651   7.257   6.498  0.2213  1.2572 -0.0087
23732SOL    HW272638   7.592   7.231   6.635  2.3356  2.0823  1.1174
23733SOL     OW72639   1.493   0.837   2.644 -0.1953  0.3701  0.0079
23733SOL    HW172640   1.526   0.925   2.629 -0.2045  0.4929  0.7200
23733SOL    HW272641   1.423   0.827   2.580  0.8524  0.2959 -1.1721
23734SOL     OW72642   3.085   1.361   5.284  0.0763 -0.4385  0.2134
23734SOL    HW172643   3.091   1.303   5.208  1.9367 -0.4163  0.2934
23734SOL    HW272644   3.054   1.305   5.355 -3.1353 -0.1551 -0.7846
23735SOL     OW72645   3.415   4.383   1.729 -0.2752  0.2510  0.4896
23735SOL    HW172646   3.361   4.329   1.787  2.1370 -1.8035  1.0145
23735SOL    HW272647   3.403   4.346   1.642 -0.2482  0.2389  0.4911
23736SOL     OW72648   0.322   7.176   0.872 -0.6812 -0.1862 -0.0632
23736SOL    HW172649   0.316   7.269   0.891 -0.6788 -0.1518 -0.2356
23736SOL    HW272650   0.377   7.141   0.943  0.0094  0.0841 -0.4537
23737SOL     OW72651   1.842   0.962  12.141 -0.2135 -0.0176 -0.1163
23737SOL    HW172652   1.938   0.960  12.142 -0.1680  1.1942  1.1505
23737SOL    HW272653   1.820   1.051  12.114 -1.0191 -0.4805 -1.0645
23738SOL     OW72654   4.632   6.132  10.463 -0.1050  0.0098 -0.3583
23738SOL    HW172655   4.671   6.210  10.501  0.7626 -0.9984  0.8772
23738SOL    HW272656   4.702   6.067  10.462 -0.9017 -0.8793 -1.0255
23739SOL     OW72657   2.887   4.905   5.454 -0.3333 -0.3298  0.3622
23739SOL    HW172658   2.915   4.901   5.363  0.7392  1.5017  0.5639
23739SOL    HW272659   2.937   4.836   5.498 -1.3532 -1.6676 -0.5223
23740SOL     OW72660   3.651   2.020   4.310  0.7405  0.2006  0.0431
23740SOL    HW172661   3.579   2.009   4.248  0.1374  1.9893  0.3522
23740SOL    HW272662   3.610   2.009   4.396  0.8775  0.9838  0.2137
23741SOL     OW72663   4.121   3.534   5.538 -0.4353 -0.3129 -0.5779
23741SOL    HW172664   4.083   3.587   5.608 -1.1848 -0.2840 -0.9979
23741SOL    HW272665   4.186   3.591   5.497  0.0872 -0.3690  0.1566
23742SOL     OW72666   6.524   6.227   7.525 -0.0956 -0.5559 -0.2031
23742SOL    HW172667   6.464   6.298   7.547  0.3709 -0.0526 -0.5147
23742SOL    HW272668   6.511   6.214   7.431  0.8125  0.0754 -0.4299
23743SOL     OW72669   6.917   2.851   6.528  0.0718  0.3015  0.0618
23743SOL    HW172670   6.863   2.772   6.530  0.8455 -0.2270  1.8137
23743SOL    HW272671   6.878   2.905   6.458 -1.9744 -0.5582  0.4614
23744SOL     OW72672   6.764   7.331   0.175  0.4877  0.0147  0.5340
23744SOL    HW172673   6.748   7.255   0.119 -0.3336  0.9540 -0.5478
23744SOL    HW272674   6.835   7.303   0.233  1.1732 -1.1004 -0.7786
23745SOL     OW72675   6.520   5.950   6.908  0.1340  0.8622  0.0063
23745SOL    HW172676   6.572   5.944   6.827  1.9363  0.8202  1.1100
23745SOL    HW272677   6.544   6.035   6.945  0.2549  0.3732  1.0814
23746SOL     OW72678   7.968   2.387   6.590 -0.2397 -0.0691  0.5446
23746SOL    HW172679   7.907   2.381   6.662  0.2576  0.7924  1.0509
23746SOL    HW272680   8.006   2.475   6.597  0.0587 -0.0940 -0.5580
23747SOL     OW72681   7.584   4.760   1.735  0.5638  0.3580 -0.3153
23747SOL    HW172682   7.677   4.741   1.747  0.2569  0.0269  2.2084
23747SOL    HW272683   7.582   4.849   1.700  1.8108 -0.2918 -2.2185
23748SOL     OW72684   4.332   4.035   3.430  0.5756  0.2142  0.0506
23748SOL    HW172685   4.327   4.105   3.495  2.3854 -1.3183  2.0029
23748SOL    HW272686   4.246   3.992   3.434  0.6473  0.1599  1.4684
23749SOL     OW72687   3.474   6.881   0.613 -0.2251  0.3506  0.0127
23749SOL    HW172688   3.419   6.804   0.618  0.4898 -0.1169  1.0847
23749SOL    HW272689   3.545   6.864   0.675  0.2650  1.6098 -0.1696
23750SOL     OW72690   6.102   3.648   6.761 -0.3770 -0.5963 -0.3329
23750SOL    HW172691   6.092   3.634   6.666  0.6330  0.4151 -0.6126
23750SOL    HW272692   6.196   3.666   6.772 -0.8489  1.6060  0.5310
23751SOL     OW72693   5.061   1.202   1.094 -0.3891  0.2447  0.1148
23751SOL    HW172694   5.105   1.213   1.009 -0.2169 -0.8896  0.0398
23751SOL    HW272695   4.969   1.222   1.076 -0.4414 -0.4661 -0.4624
23752SOL     OW72696   5.596   2.085   5.271 -0.3268 -0.0986 -1.0645
23752SOL    HW172697   5.558   2.163   5.313 -0.0181 -0.3880 -0.2303
23752SOL    HW272698   5.575   2.013   5.331  1.2312 -0.3273 -0.7605
23753SOL     OW72699   1.293   5.849   7.972  0.2371 -0.3108 -0.0779
23753SOL    HW172700   1.330   5.770   8.014 -0.9352  0.6488  3.0614
23753SOL    HW272701   1.206   5.858   8.011 -0.2177  1.7858 -1.4254
23754SOL     OW72702   4.261   6.534   3.209 -0.3649  0.7214 -0.0327
23754SOL    HW172703   4.337   6.592   3.210 -0.4948  0.9012  0.7339
23754SOL    HW272704   4.292   6.452   3.249 -0.1508  0.2147 -1.2181
23755SOL     OW72705   4.123   6.423   5.607 -0.1000 -0.0945  0.4960
23755SOL    HW172706   4.216   6.443   5.593 -0.2705  2.6257  2.4320
23755SOL    HW272707   4.109   6.441   5.700 -2.5421 -0.5606  0.2739
23756SOL     OW72708   1.634   6.464   3.490 -0.0793  0.4795 -0.8362
23756SOL    HW172709   1.642   6.558   3.471  1.6288  0.4591 -0.3982
23756SOL    HW272710   1.692   6.422   3.426  0.5827 -0.1175  0.1329
23757SOL     OW72711   1.998   1.074   1.113  0.6306 -0.1152  0.8126
23757SOL    HW172712   1.918   1.023   1.125  1.9102 -2.1261  1.4059
23757SOL    HW272713   1.998   1.136   1.186  0.0345 -0.7008  1.3178
23758SOL     OW72714   0.833   6.052   5.182 -0.1904 -0.1614 -0.1559
23758SOL    HW172715   0.899   6.085   5.121  0.9037  0.1185  1.1278
23758SOL    HW272716   0.862   6.083   5.268 -1.7923 -0.3674  0.5045
23759SOL     OW72717   2.760   5.047   2.787 -0.3707  0.3179  1.1295
23759SOL    HW172718   2.759   5.085   2.699  3.8054 -0.5173  0.5318
23759SOL    HW272719   2.760   4.953   2.773  0.1154  0.1730  2.0399
23760SOL     OW72720   5.678   5.872   5.395  0.6001 -0.9230  0.1094
23760SOL    HW172721   5.644   5.938   5.455 -4.1081 -1.3814 -1.6568
23760SOL    HW272722   5.714   5.922   5.321  0.6553 -0.3906  0.4926
23761SOL     OW72723   5.988   4.494   4.868  0.1239 -0.0194  0.0964
23761SOL    HW172724   5.997   4.469   4.776  3.2510 -1.1803  0.5966
23761SOL    HW272725   6.058   4.447   4.913 -0.6046  1.3613  2.9364
23762SOL     OW72726   2.283   5.915  10.191 -0.1623 -0.1518  0.1200
23762SOL    HW172727   2.238   5.864  10.257 -0.0418 -0.6081 -0.1452
23762SOL    HW272728   2.252   5.879  10.107  2.3249 -2.0301 -0.1135
23763SOL     OW72729   4.428   3.338   4.219  0.3869  0.1289  0.7105
23763SOL    HW172730   4.365   3.329   4.289  0.0231 -2.8049  0.1576
23763SOL    HW272731   4.378   3.321   4.139  1.6341 -1.2906  0.1811
23764SOL     OW72732   0.880   2.731  11.965 -0.3943 -0.0049  0.4727
23764SOL    HW172733   0.855   2.798  12.028 -0.4876  0.0326  0.3970
23764SOL    HW272734   0.862   2.648  12.009  0.2675  0.0123  0.7837
23765SOL     OW72735   1.779   5.267  11.404 -0.3571 -0.7398  0.3579
23765SOL    HW172736   1.694   5.274  11.361 -0.2181 -1.4147 -0.0482
23765SOL    HW272737   1.815   5.355  11.401  0.5174 -1.1055 -2.7585
23766SOL     OW72738   6.135   3.600   2.611 -0.5157  0.0957 -0.1406
23766SOL    HW172739   6.222   3.603   2.652 -0.6733  0.5140  0.1809
23766SOL    HW272740   6.101   3.689   2.624 -1.9051 -0.6492  1.7612
23767SOL     OW72741   6.469   5.115   9.519 -0.0638 -0.4805 -0.1896
23767SOL    HW172742   6.440   5.025   9.504 -0.4094 -0.4399  0.2109
23767SOL    HW272743   6.541   5.128   9.457  0.2820 -1.1780  0.0603
23768SOL     OW72744   3.395   1.811   0.628 -0.1355 -0.0054  0.5515
23768SOL    HW172745   3.450   1.756   0.571 -0.0709 -2.2696  2.6339
23768SOL    HW272746   3.456   1.876   0.664  0.2399  0.1995 -0.4262
23769SOL     OW72747   6.384   7.763   5.085 -0.3923 -0.2158  1.0149
23769SOL    HW172748   6.461   7.817   5.067 -0.0483 -1.0188 -0.0212
23769SOL    HW272749   6.398   7.729   5.173  0.0775  0.2250  1.1147
23770SOL     OW72750   2.444   6.750   2.508 -0.5641 -0.5014 -0.1284
23770SOL    HW172751   2.519   6.695   2.525 -0.2699 -0.5381 -1.4269
23770SOL    HW272752   2.424   6.736   2.415 -0.3514  1.7044 -0.5676
23771SOL     OW72753   6.918   3.669   4.986 -0.3153  0.0534  0.0381
23771SOL    HW172754   6.886   3.652   4.897 -0.5297  0.3954  0.0480
23771SOL    HW272755   6.976   3.744   4.976 -1.4517  1.0172  0.3982
23772SOL     OW72756   7.446   1.727   0.400 -0.5711  0.3902  0.2415
23772SOL    HW172757   7.515   1.790   0.383 -1.7877  1.6742 -0.1777
23772SOL    HW272758   7.453   1.663   0.329  2.1882 -1.4458  1.9582
23773SOL     OW72759   4.647   7.736   4.384 -0.3332  0.6765  0.1698
23773SOL    HW172760   4.676   7.656   4.341  0.9644  0.3833  1.5533
23773SOL    HW272761   4.665   7.805   4.320  2.0068  0.3086  0.3600
23774SOL     OW72762   0.165   7.134   2.077 -0.0440 -0.0863  0.5707
23774SOL    HW172763   0.176   7.215   2.027  1.0400  0.3298  1.4258
23774SOL    HW272764   0.173   7.161   2.169 -2.8873 -0.6783  1.0920
23775SOL     OW72765   3.182   4.938   9.138 -0.1023 -0.0253  0.3418
23775SOL    HW172766   3.269   4.942   9.177 -0.2437 -2.2328  0.9959
23775SOL    HW272767   3.136   4.871   9.187 -1.1027 -1.2009 -2.0414
23776SOL     OW72768   2.099   5.990   5.461  0.0013  0.0778 -0.4108
23776SOL    HW172769   2.189   6.018   5.442  0.7334 -0.0329  2.3937
23776SOL    HW272770   2.103   5.895   5.462  0.4149  0.0650  1.6673
23777SOL     OW72771   6.243   5.758   0.064 -0.1617  0.0067 -0.1260
23777SOL    HW172772   6.176   5.690   0.061 -0.8415  0.6699 -0.3334
23777SOL    HW272773   6.236   5.796   0.151  1.2906 -1.2186  0.5687
23778SOL     OW72774   3.241   4.624   9.719 -0.7781 -0.1466  0.5970
23778SOL    HW172775   3.252   4.719   9.728  0.1198 -0.1999  0.1305
23778SOL    HW272776   3.278   4.588   9.799  0.8262 -0.2059 -0.1246
23779SOL     OW72777   2.094   6.336   4.784  0.0614 -0.1144  0.0888
23779SOL    HW172778   2.189   6.346   4.793  0.4799 -1.7365 -1.6837
23779SOL    HW272779   2.069   6.281   4.858  0.5702  0.0009  0.3558
23780SOL     OW72780   2.879   0.457   4.131  0.5413  0.0400 -0.5975
23780SOL    HW172781   2.827   0.529   4.095  1.7011  0.3820 -1.6560
23780SOL    HW272782   2.833   0.433   4.211 -2.0589 -0.6009 -2.1452
23781SOL     OW72783   0.099   3.421   2.256  0.0190  0.0409  0.3616
23781SOL    HW172784   0.077   3.508   2.225  2.7746  0.7484  0.1377
23781SOL    HW272785   0.046   3.362   2.202  0.4722  1.4775 -1.7660
23782SOL     OW72786   1.041   6.464  10.444 -0.2067 -0.4147  0.3636
23782SOL    HW172787   1.102   6.506  10.384 -0.1876 -0.0092  0.6625
23782SOL    HW272788   1.077   6.376  10.457  0.6156 -0.0071  0.9522
23783SOL     OW72789   3.403   3.950  10.425  0.1581  0.4507 -0.2284
23783SOL    HW172790   3.322   3.978  10.467 -0.3661  0.7035 -1.3674
23783SOL    HW272791   3.383   3.864  10.388  0.1534  0.8628 -1.2014
23784SOL     OW72792   3.774   0.859   6.604 -0.2649 -0.2321  0.2939
23784SOL    HW172793   3.869   0.847   6.606 -0.1625  0.6482  1.7123
23784SOL    HW272794   3.756   0.927   6.669 -2.1760 -2.6158  2.4784
23785SOL     OW72795   1.162   2.790   0.068  0.2784 -0.7403  0.0886
23785SOL    HW172796   1.206   2.869   0.037 -1.6552  0.0554 -0.7547
23785SOL    HW272797   1.088   2.822   0.120  0.2151 -2.0297  0.8392
23786SOL     OW72798   4.842   1.902   8.403  0.5266  0.4684  0.2222
23786SOL    HW172799   4.907   1.858   8.348 -0.3118  1.7813 -1.9267
23786SOL    HW272800   4.760   1.856   8.385  0.7103 -1.1200  2.8508
23787SOL     OW72801   1.526   0.781   1.438 -0.1976 -0.6819 -0.0259
23787SOL    HW172802   1.578   0.750   1.364 -0.3366 -0.2503 -0.2996
23787SOL    HW272803   1.535   0.711   1.503  2.5414  0.3171  0.8155
23788SOL     OW72804   0.060   4.746   0.234 -0.1061  0.0769 -0.3193
23788SOL    HW172805   0.095   4.658   0.246 -0.8796  0.0644  2.5617
23788SOL    HW272806  -0.034   4.738   0.252 -0.1577  1.5143  0.2258
23789SOL     OW72807   3.239   4.853   1.799 -0.1953  0.3338  0.2846
23789SOL    HW172808   3.303   4.786   1.775  0.1176  0.8760 -0.4184
23789SOL    HW272809   3.283   4.936   1.780  0.1644  0.8499  2.9252
23790SOL     OW72810   6.049   7.429   6.914 -0.4209  0.0375  0.6651
23790SOL    HW172811   6.103   7.408   6.837  0.7181 -0.0383  1.4658
23790SOL    HW272812   6.103   7.489   6.966 -0.9635 -0.3143  1.6602
23791SOL     OW72813   2.832   5.151  10.154  0.3241 -0.0815 -0.7548
23791SOL    HW172814   2.783   5.232  10.150 -0.6069 -0.6627 -1.5473
23791SOL    HW272815   2.840   5.122  10.063  1.8688 -0.1780 -0.6288
23792SOL     OW72816   1.283   3.923   0.464 -0.3800  0.5187  0.1990
23792SOL    HW172817   1.321   3.846   0.421 -0.4265  0.0872  0.9138
23792SOL    HW272818   1.280   3.990   0.396 -1.8926 -0.6185 -0.9199
23793SOL     OW72819   6.576   6.015   2.097 -0.3674 -0.3145  0.2346
23793SOL    HW172820   6.530   5.944   2.140  0.5114 -0.7026  0.5653
23793SOL    HW272821   6.552   6.093   2.146 -2.6572 -0.0694 -1.1240
23794SOL     OW72822   0.726   6.487   1.655  0.2093  0.0916  0.0002
23794SOL    HW172823   0.806   6.535   1.673  0.7936 -0.8708  0.0159
23794SOL    HW272824   0.677   6.544   1.594 -0.2219  1.7722  1.8249
23795SOL     OW72825   0.765   0.040   3.265  0.8885  0.7350  0.5540
23795SOL    HW172826   0.834  -0.000   3.213 -0.4425 -0.4253 -0.3764
23795SOL    HW272827   0.710   0.085   3.201  0.0573  0.5660  1.1393
23796SOL     OW72828   2.677   2.686   7.303  0.4389  0.0700 -0.0371
23796SOL    HW172829   2.717   2.693   7.216  1.8835  0.2168  0.6110
23796SOL    HW272830   2.751   2.691   7.363 -0.6514  1.2861  1.2531
23797SOL     OW72831   3.073   6.931   1.066  0.0001 -0.7932 -0.1555
23797SOL    HW172832   3.059   6.932   0.971 -2.0328 -0.3441  0.1082
23797SOL    HW272833   3.044   6.844   1.093 -0.0869 -0.6687  0.1490
23798SOL     OW72834   0.019   6.899  10.317  0.4573  0.5658  0.0642
23798SOL    HW172835   0.032   6.956  10.241 -1.7238 -1.5753 -2.0816
23798SOL    HW272836  -0.017   6.957  10.385  1.2056  2.2791 -0.9333
23799SOL     OW72837   1.053   7.666   1.711 -0.3714 -0.5389  0.3019
23799SOL    HW172838   1.124   7.603   1.704 -0.7298 -0.8165 -1.1570
23799SOL    HW272839   1.018   7.654   1.800 -0.2293 -2.1721  0.1503
23800SOL     OW72840   6.587   1.135   8.246  0.2555 -0.3415  0.1734
23800SOL    HW172841   6.669   1.103   8.209  0.3329 -0.6917  0.6407
23800SOL    HW272842   6.527   1.140   8.172  0.5087 -0.7148 -0.0580
23801SOL     OW72843   2.613   0.711   3.678  0.1392  0.1251 -0.6268
23801SOL    HW172844   2.598   0.805   3.675  0.2637  0.1414 -0.7390
23801SOL    HW272845   2.694   0.698   3.629  0.4582  0.0276 -0.0824
23802SOL     OW72846   6.678   1.928  11.670 -0.4450  0.6323 -0.0118
23802SOL    HW172847   6.763   1.954  11.636 -0.0234 -0.5578  0.0949
23802SOL    HW272848   6.671   1.835  11.651 -1.7406  0.7072 -0.0324
23803SOL     OW72849   2.799   5.690   4.952  0.1275  0.0747  0.6857
23803SOL    HW172850   2.748   5.709   5.030 -0.8318 -1.0579  0.3628
23803SOL    HW272851   2.863   5.625   4.980 -0.0876 -0.1857  0.5697
23804SOL     OW72852   6.696   2.265   9.468 -0.0964  0.0320  0.2664
23804SOL    HW172853   6.783   2.286   9.434  0.3175  0.2498  1.4060
23804SOL    HW272854   6.677   2.335   9.530 -0.3331 -0.9347  1.3124
23805SOL     OW72855   7.613   7.949   9.907 -0.2276 -0.0886  1.0499
23805SOL    HW172856   7.552   7.886   9.945 -0.8521 -0.2317 -0.1686
23805SOL    HW272857   7.607   8.025   9.964 -0.3497 -0.6751  1.8474
23806SOL     OW72858   7.889   4.939   5.278  0.0261  0.2607  0.0472
23806SOL    HW172859   7.949   4.956   5.350 -0.3069 -0.8345  0.6191
23806SOL    HW272860   7.805   4.920   5.321 -0.4232  0.5628 -0.6754
23807SOL     OW72861   4.781   0.504   0.985 -0.7125 -0.4947 -0.0574
23807SOL    HW172862   4.860   0.558   0.999 -0.3917 -0.2233 -2.5382
23807SOL    HW272863   4.809   0.415   1.007 -0.5906 -0.0420  1.8480
23808SOL     OW72864   4.643   7.353   6.144 -0.2745  0.8556  0.1430
23808SOL    HW172865   4.606   7.265   6.140  2.0961 -0.1519 -2.2421
23808SOL    HW272866   4.660   7.367   6.237 -1.9840 -0.5998  0.7355
23809SOL     OW72867   2.960   1.447   1.553 -0.2902 -0.1016  0.1699
23809SOL    HW172868   2.939   1.541   1.553 -0.2269 -0.0623 -1.2316
23809SOL    HW272869   3.026   1.438   1.484 -0.9128 -1.3060 -0.2996
23810SOL     OW72870   1.050   0.054   7.632  0.1885 -0.4101  0.4532
23810SOL    HW172871   1.050   0.148   7.614  2.6315 -0.5969 -0.8809
23810SOL    HW272872   1.011   0.047   7.720  0.9246  1.9501  1.0414
23811SOL     OW72873   5.525   7.649  11.245 -0.5533  0.3150 -0.3269
23811SOL    HW172874   5.494   7.607  11.325 -3.3766 -0.1192 -1.5328
23811SOL    HW272875   5.597   7.594  11.215 -1.4211 -1.2645  0.3608
23812SOL     OW72876   1.389   5.788  10.697 -0.2261  0.4294  0.0868
23812SOL    HW172877   1.439   5.750  10.770  0.7537  0.7931 -0.3708
23812SOL    HW272878   1.393   5.722  10.628  0.5366  0.8827 -0.3197
23813SOL     OW72879   7.658   4.351   1.290  0.0297 -0.4016 -0.4691
23813SOL    HW172880   7.710   4.334   1.369 -0.5637  2.0442  0.5348
23813SOL    HW272881   7.623   4.265   1.266  1.8275 -1.5500  0.7453
23814SOL     OW72882   5.875   5.290   4.184 -0.1097  0.0285  0.1424
23814SOL    HW172883   5.956   5.250   4.216 -1.3364 -4.4956 -1.6169
23814SOL    HW272884   5.806   5.246   4.233 -1.6219 -0.4269 -2.2291
23815SOL     OW72885   5.677   0.066  10.435 -0.3161 -0.2379 -0.1642
23815SOL    HW172886   5.741   0.065  10.363 -0.2373  0.1646 -0.1021
23815SOL    HW272887   5.709  -0.001  10.496 -0.9207 -1.2711 -0.9585
23816SOL     OW72888   0.972   2.055   5.018  0.3506 -0.0891  0.0916
23816SOL    HW172889   0.994   1.963   5.029 -0.3318 -0.2144  0.4758
23816SOL    HW272890   1.044   2.103   5.059 -0.0037 -0.4794  1.1914
23817SOL     OW72891   0.961   3.898   1.232 -0.4208  0.1978  0.1850
23817SOL    HW172892   0.907   3.964   1.187  0.0192 -0.2079 -0.9665
23817SOL    HW272893   0.907   3.819   1.232 -0.8546  0.4671  1.3634
23818SOL     OW72894   3.870   4.783   7.659 -0.3743  0.4246  0.1543
23818SOL    HW172895   3.938   4.716   7.660 -0.1181  0.6755 -0.4906
23818SOL    HW272896   3.789   4.735   7.678 -0.4855 -0.4233 -2.1513
23819SOL     OW72897   6.434   4.748   3.755  0.2720 -0.2013 -0.9328
23819SOL    HW172898   6.376   4.820   3.728 -1.2625 -0.6737  0.8953
23819SOL    HW272899   6.419   4.680   3.689 -2.4127 -0.8482  0.2201
23820SOL     OW72900   3.952   7.391  10.828  0.5874  0.3134 -0.5197
23820SOL    HW172901   3.924   7.369  10.739 -0.4827  0.1650 -0.1687
23820SOL    HW272902   3.908   7.326  10.883  1.9211 -0.1345  0.0588
23821SOL     OW72903   3.104   3.124   1.824 -0.4092 -0.9240 -0.0668
23821SOL    HW172904   3.013   3.145   1.804 -0.2603 -0.5528 -0.3710
23821SOL    HW272905   3.148   3.125   1.739  0.2060  0.4785  0.2431
23822SOL     OW72906   5.554   5.752   8.063 -0.1863 -0.1181  0.2171
23822SOL    HW172907   5.601   5.783   7.986  0.2380 -1.8868 -0.2823
23822SOL    HW272908   5.523   5.831   8.106  1.2296  0.9919 -0.7211
23823SOL     OW72909   7.493   4.111   0.653 -0.1450  0.2820 -0.5968
23823SOL    HW172910   7.420   4.172   0.662 -1.9075 -1.5287 -1.8040
23823SOL    HW272911   7.483   4.051   0.727  0.0832  0.0062 -0.7900
23824SOL     OW72912   5.844   7.740   0.201 -0.3210  0.6328  0.0793
23824SOL    HW172913   5.865   7.657   0.244  0.5792  0.2808 -0.9795
23824SOL    HW272914   5.760   7.724   0.157 -0.4087  0.4525  0.3112
23825SOL     OW72915   0.141   7.408   5.687  0.2514  0.1209 -0.3050
23825SOL    HW172916   0.054   7.389   5.652  0.4702  0.1067 -0.8542
23825SOL    HW272917   0.176   7.324   5.714 -0.2186  0.2289  0.6657
23826SOL     OW72918   1.783   7.178   9.370 -0.1137  0.6515  0.1974
23826SOL    HW172919   1.866   7.217   9.397  1.7471 -1.1373 -2.4214
23826SOL    HW272920   1.741   7.246   9.317 -0.6306  1.7381  1.9211
23827SOL     OW72921   1.512   7.376   9.769  0.1484  0.4468  0.1517
23827SOL    HW172922   1.510   7.333   9.683  0.3905  0.0579  0.3384
23827SOL    HW272923   1.427   7.358   9.807  0.7343 -1.0562  0.8030
23828SOL     OW72924   0.333   6.564   1.559  0.5210 -0.2414 -0.5951
23828SOL    HW172925   0.419   6.593   1.592 -0.0065  0.3880  0.2684
23828SOL    HW272926   0.295   6.643   1.520  0.3820 -0.5515 -1.0957
23829SOL     OW72927   2.357   6.778   0.570 -0.2160  0.1031  0.3751
23829SOL    HW172928   2.319   6.851   0.521  0.4641 -0.8535 -1.6852
23829SOL    HW272929   2.450   6.799   0.577 -0.3914  0.4647  1.7201
23830SOL     OW72930   7.239   0.127  12.109  0.1397 -0.0961 -0.5408
23830SOL    HW172931   7.289   0.207  12.120  1.3779 -0.4329 -2.9871
23830SOL    HW272932   7.209   0.104  12.197  1.9395  1.6233  0.5868
23831SOL     OW72933   4.073   0.514   4.095 -0.6326 -0.2876 -0.4876
23831SOL    HW172934   4.078   0.423   4.123  1.4302  0.1554  0.8384
23831SOL    HW272935   3.987   0.545   4.124 -0.9164 -1.5029  0.0062
23832SOL     OW72936   2.803   7.142   2.778  0.3669  0.6321 -0.3596
23832SOL    HW172937   2.718   7.146   2.822  0.2779  0.2840 -0.5036
23832SOL    HW272938   2.794   7.199   2.702 -1.0346 -2.3544 -2.6222
23833SOL     OW72939   3.361   2.871   2.381 -0.5200  0.0477  0.1267
23833SOL    HW172940   3.452   2.841   2.379 -1.2149 -2.3748  0.6369
23833SOL    HW272941   3.326   2.845   2.296 -1.2360 -0.9527  0.7048
23834SOL     OW72942   7.578   2.848   3.791  0.4640  0.0799  0.1669
23834SOL    HW172943   7.596   2.902   3.867  1.4728  1.5795 -1.0732
23834SOL    HW272944   7.505   2.892   3.747  0.2811 -0.4345 -0.0530
23835SOL     OW72945   5.471   5.066   2.037 -0.1550  0.6275 -0.2656
23835SOL    HW172946   5.397   5.026   1.992 -0.6333  0.4391  0.6579
23835SOL    HW272947   5.543   5.004   2.025 -0.5755  0.0490  0.1625
23836SOL     OW72948   2.716   2.558   9.346 -0.2452  0.1068  0.0666
23836SOL    HW172949   2.680   2.526   9.264  2.7436 -2.0078 -0.5980
23836SOL    HW272950   2.698   2.489   9.410  0.1821  0.2752  0.3824
23837SOL     OW72951   6.266   0.786   2.870  0.0848  0.0803 -0.1098
23837SOL    HW172952   6.215   0.861   2.838  1.4825  0.4172 -1.6918
23837SOL    HW272953   6.285   0.735   2.792  2.8534  0.4347  0.2183
23838SOL     OW72954   1.782   7.236   1.545 -0.5088  0.9492 -0.5077
23838SOL    HW172955   1.862   7.287   1.558  0.1069 -0.0395 -0.3401
23838SOL    HW272956   1.804   7.148   1.577 -1.6669  0.6699 -0.4434
23839SOL     OW72957   4.355   2.275   9.766  0.4778  0.6271  0.3109
23839SOL    HW172958   4.409   2.207   9.804  0.5645  0.7321  0.3764
23839SOL    HW272959   4.366   2.350   9.824  0.2166  0.6317  0.3558
23840SOL     OW72960   7.251   4.877   2.649  0.1380  0.3487  0.0692
23840SOL    HW172961   7.244   4.862   2.554 -1.2888  1.3728 -0.0269
23840SOL    HW272962   7.177   4.935   2.669 -1.1044 -1.8333  2.2597
23841SOL     OW72963   5.200   7.849   0.236 -0.3011  0.0798 -0.3975
23841SOL    HW172964   5.214   7.856   0.141 -0.7748 -1.6649 -0.6373
23841SOL    HW272965   5.148   7.770   0.246 -1.8843  1.2610  1.2004
23842SOL     OW72966   3.795   4.064   0.164  0.0105 -0.0905  0.0547
23842SOL    HW172967   3.840   4.074   0.248 -2.0077 -0.2999  1.2402
23842SOL    HW272968   3.762   4.151   0.144 -0.2903 -0.2254 -0.0459
23843SOL     OW72969   5.503   0.427   3.665 -0.2627 -0.2660 -0.2237
23843SOL    HW172970   5.575   0.465   3.714 -0.8591  1.2292 -0.4549
23843SOL    HW272971   5.512   0.462   3.577  0.8509 -2.9862 -1.3109
23844SOL     OW72972   0.483   7.007   8.527 -0.4693 -0.3231  0.4019
23844SOL    HW172973   0.421   7.032   8.595 -0.3549 -0.5509  0.5919
23844SOL    HW272974   0.455   6.919   8.501 -1.2156  0.2100 -0.6536
23845SOL     OW72975   1.531   6.694   6.959 -0.3228  0.2605 -0.4284
23845SOL    HW172976   1.527   6.600   6.941  0.7005  0.5808 -2.4958
23845SOL    HW272977   1.465   6.707   7.028  0.9927 -2.2797  1.4966
23846SOL     OW72978   1.887   0.810   9.719 -0.4453 -0.3669 -0.2501
23846SOL    HW172979   1.888   0.889   9.664 -0.5384 -0.1118  0.1094
23846SOL    HW272980   1.980   0.793   9.738 -0.2781 -1.4057 -1.8137
23847SOL     OW72981   1.447   3.456   9.687  0.6072  0.0236  0.5035
23847SOL    HW172982   1.409   3.376   9.651 -0.3524  2.3941 -4.6827
23847SOL    HW272983   1.378   3.491   9.745  0.0454 -1.6236  0.8914
23848SOL     OW72984   6.773   7.393  10.446 -0.0309  0.3801 -0.3558
23848SOL    HW172985   6.744   7.301  10.447 -1.3241  0.7769  0.0187
23848SOL    HW272986   6.864   7.388  10.417 -0.6150 -0.8779 -2.1948
23849SOL     OW72987   0.564   5.580   4.701 -0.3970 -0.4992 -0.6903
23849SOL    HW172988   0.627   5.576   4.629  2.1283 -2.0597  1.3944
23849SOL    HW272989   0.612   5.625   4.771 -2.3805  0.0557  0.3661
23850SOL     OW72990   6.914   4.918  11.638 -0.3231  0.3620  0.1948
23850SOL    HW172991   6.931   4.830  11.672  0.8102  0.8124  0.8814
23850SOL    HW272992   6.820   4.921  11.624 -0.3007 -1.1823 -0.5020
23851SOL     OW72993   7.735   3.588   8.952  0.4711 -0.8661  0.1090
23851SOL    HW172994   7.815   3.536   8.962  1.5397  1.0275  1.9402
23851SOL    HW272995   7.766   3.678   8.942 -1.3696 -0.3984 -2.1943
23852SOL     OW72996   6.405   2.604   4.286  0.1726  0.0116  0.4073
23852SOL    HW172997   6.364   2.603   4.373  1.2515 -0.4001  0.9296
23852SOL    HW272998   6.364   2.677   4.241  0.7942  1.3122  1.8645
23853SOL     OW72999   2.858   0.060  11.700 -0.4400  0.1882  0.6927
23853SOL    HW173000   2.850   0.100  11.613  0.9965  0.0431  0.4690
23853SOL    HW273001   2.800  -0.016  11.696  1.2329 -1.1189 -0.9641
23854SOL     OW73002   5.770   2.392   5.238 -0.3959 -0.1096 -0.1475
23854SOL    HW173003   5.810   2.356   5.318  0.3666  1.0203  0.0007
23854SOL    HW273004   5.726   2.472   5.267  0.2229  0.5266 -0.9200
23855SOL     OW73005   3.274   4.030   0.112  0.5781 -0.3591 -0.2733
23855SOL    HW173006   3.272   3.961   0.178 -0.3663 -0.4442 -0.3749
23855SOL    HW273007   3.211   4.001   0.045 -0.0547  0.7178 -0.1761
23856SOL     OW73008   6.669   0.853   0.534 -0.0925  0.2505  0.9152
23856SOL    HW173009   6.760   0.843   0.506 -0.4326 -0.3719 -0.0449
23856SOL    HW273010   6.618   0.816   0.462 -1.0801 -0.0884  1.7535
23857SOL     OW73011   0.613   5.895   3.581 -0.1903 -0.5385 -0.2867
23857SOL    HW173012   0.700   5.906   3.543  0.1035 -0.2203  0.4626
23857SOL    HW273013   0.601   5.972   3.636 -1.2352 -0.2274 -0.9218
23858SOL     OW73014   7.560   7.052   5.760 -0.3109  0.2572 -0.2986
23858SOL    HW173015   7.487   7.094   5.714 -1.3008  1.8633  2.4772
23858SOL    HW273016   7.526   7.032   5.847  2.0967 -0.4035  0.5910
23859SOL     OW73017   3.551   6.899   9.178 -0.2949 -0.7330 -0.5180
23859SOL    HW173018   3.633   6.921   9.133 -0.2797  0.8914  0.2192
23859SOL    HW273019   3.578   6.871   9.265 -0.4139 -2.4784 -1.0034
23860SOL     OW73020   1.135   0.538  10.433  0.5496 -0.1774 -0.0827
23860SOL    HW173021   1.112   0.521  10.342  0.9491 -1.0317 -0.0338
23860SOL    HW273022   1.052   0.551  10.478  0.3855  1.7413 -0.8246
23861SOL     OW73023   3.110   4.069   4.337 -0.1433  0.3897 -0.5025
23861SOL    HW173024   3.099   4.082   4.243  2.1719  1.0559 -0.7387
23861SOL    HW273025   3.202   4.087   4.353 -0.2808 -0.6021  1.7695
23862SOL     OW73026   5.390   5.133   4.850 -0.2091  0.1248 -0.0491
23862SOL    HW173027   5.378   5.149   4.756  3.4401  0.6854 -0.5826
23862SOL    HW273028   5.350   5.047   4.865 -1.1057  0.1355 -2.0539
23863SOL     OW73029   7.938   6.777   4.730 -0.5124 -0.2959  0.5267
23863SOL    HW173030   7.962   6.802   4.820 -1.2286 -0.8844  0.8869
23863SOL    HW273031   8.018   6.739   4.695  0.4771  1.9737  0.1234
23864SOL     OW73032   4.483   1.667   1.886 -0.0901  0.5137 -0.2271
23864SOL    HW173033   4.480   1.626   1.972 -1.2807  1.6280  0.2958
23864SOL    HW273034   4.495   1.761   1.905 -1.3659  0.9002 -1.2062
23865SOL     OW73035   1.072   2.998  10.839  0.3026  0.2156  0.4332
23865SOL    HW173036   0.988   2.961  10.866 -0.2971  1.4666  0.3572
23865SOL    HW273037   1.137   2.934  10.867 -0.7770 -1.6286 -1.0086
23866SOL     OW73038   1.242   2.053   5.130  0.1047  0.0104  0.4108
23866SOL    HW173039   1.280   2.133   5.094  0.9372 -1.2824 -1.7750
23866SOL    HW273040   1.254   1.987   5.061 -1.0642 -1.8689  1.8925
23867SOL     OW73041   1.633   0.587   5.952  0.4711 -0.3343  0.2026
23867SOL    HW173042   1.579   0.508   5.949 -0.4873  0.3201 -0.3752
23867SOL    HW273043   1.594   0.641   6.021  1.4715 -0.5924  0.9943
23868SOL     OW73044   3.755   5.718  11.810  0.3520 -1.0031 -0.5512
23868SOL    HW173045   3.677   5.767  11.784  0.5011 -1.7002 -2.5240
23868SOL    HW273046   3.824   5.785  11.813  0.0388 -0.6712 -0.6172
23869SOL     OW73047   1.377   6.403   9.893 -0.0984  0.2458  0.4985
23869SOL    HW173048   1.469   6.381   9.876  0.0773  0.9469  0.5133
23869SOL    HW273049   1.333   6.390   9.809 -0.0906 -0.5803  0.6136
23870SOL     OW73050   6.646   0.598   4.567 -0.0222  0.0656  0.0240
23870SOL    HW173051   6.569   0.546   4.591 -0.3915 -0.0630 -1.3645
23870SOL    HW273052   6.617   0.652   4.494  1.4244 -0.6297 -1.1242
23871SOL     OW73053   5.115   5.402   1.960 -0.2299  0.0857  0.4163
23871SOL    HW173054   5.202   5.363   1.948 -0.4471 -0.1000 -0.6448
23871SOL    HW273055   5.057   5.327   1.970 -0.3851  0.1856  0.2596
23872SOL     OW73056   2.273   5.880   9.328  0.1830  0.3247  0.2547
23872SOL    HW173057   2.306   5.965   9.357 -1.0653  0.6952  0.6488
23872SOL    HW273058   2.324   5.816   9.377 -1.3095  0.9191  2.7388
23873SOL     OW73059   4.885   0.386   8.439 -0.1010 -0.1370  0.4944
23873SOL    HW173060   4.789   0.390   8.430  0.0220  2.9415 -0.4865
23873SOL    HW273061   4.899   0.365   8.531 -1.6668 -1.3569  0.5167
23874SOL     OW73062   4.967   7.398   5.151 -0.1610  0.5668  0.2127
23874SOL    HW173063   4.916   7.446   5.085 -0.7045  0.1137  0.2980
23874SOL    HW273064   5.056   7.433   5.142 -0.3872  1.0446 -0.2474
23875SOL     OW73065   6.049   1.297   9.556 -0.1197 -0.1025 -0.0557
23875SOL    HW173066   6.011   1.339   9.479 -1.1421 -0.2495  0.3510
23875SOL    HW273067   6.041   1.362   9.626  2.3877  0.6957 -0.4308
23876SOL     OW73068   4.983   1.893   3.423  0.3267 -0.2217 -0.3771
23876SOL    HW173069   4.912   1.919   3.364  0.1030 -1.3356 -0.6234
23876SOL    HW273070   5.061   1.896   3.369  0.6607  1.9133  0.1271
23877SOL     OW73071   2.557   6.005   8.063 -0.3725 -0.0102 -0.0053
23877SOL    HW173072   2.591   5.930   8.113  1.2846 -0.5293 -1.7741
23877SOL    HW273073   2.523   6.065   8.129  1.8629 -0.5668  1.7679
23878SOL     OW73074   1.581   3.051   6.401 -0.4503 -0.4977 -0.3417
23878SOL    HW173075   1.583   3.095   6.486  0.9190 -1.0575 -0.0599
23878SOL    HW273076   1.588   2.958   6.422 -0.1245 -0.6452 -1.0774
23879SOL     OW73077   0.856   1.039   7.839 -0.0987  0.6180  0.4148
23879SOL    HW173078   0.815   0.971   7.892 -0.4259  0.5549  0.0863
23879SOL    HW273079   0.916   1.084   7.899  0.3074 -0.1140  0.5711
23880SOL     OW73080   2.507   1.687   3.022  0.4695 -0.2179  0.2127
23880SOL    HW173081   2.494   1.653   3.111  0.3609 -0.3073  0.1640
23880SOL    HW273082   2.521   1.608   2.969  2.1379 -0.0799  0.4082
23881SOL     OW73083   7.411   5.136   8.443 -0.1657  0.3675  0.1053
23881SOL    HW173084   7.337   5.167   8.391 -0.8559  1.5736  1.7234
23881SOL    HW273085   7.458   5.216   8.468  1.2511 -0.3263 -0.2232
23882SOL     OW73086   3.664   1.480   8.620  0.4510  0.0567  0.0884
23882SOL    HW173087   3.723   1.438   8.682  1.2796  0.7963 -0.1623
23882SOL    HW273088   3.604   1.412   8.593  0.1038 -0.2909  1.6583
23883SOL     OW73089   1.404   6.813   6.754 -0.4085 -0.7813 -0.3456
23883SOL    HW173090   1.460   6.784   6.825 -1.5729 -1.0129  0.4951
23883SOL    HW273091   1.461   6.868   6.700  0.8603 -1.7238 -0.0196
23884SOL     OW73092   2.775   2.840   3.404 -0.1489 -0.4857 -1.0207
23884SOL    HW173093   2.788   2.823   3.310 -0.1319 -1.0553 -0.9205
23884SOL    HW273094   2.769   2.753   3.443 -0.6579 -0.2516 -0.5596
23885SOL     OW73095   4.062   7.396   2.091 -0.6361 -0.5823  0.1137
23885SOL    HW173096   4.145   7.363   2.125  0.0551  0.5335 -0.4206
23885SOL    HW273097   4.074   7.491   2.086 -1.2608 -0.5436 -1.6995
23886SOL     OW73098   0.178   2.389  12.120 -0.5237  0.0924  0.5367
23886SOL    HW173099   0.139   2.470  12.153  0.4893  0.2726  1.3265
23886SOL    HW273100   0.272   2.405  12.123 -0.2933 -1.2921  1.1789
23887SOL     OW73101   2.546   3.942   0.106 -0.3000 -0.3360  0.0956
23887SOL    HW173102   2.615   3.902   0.052 -0.9005 -0.8960 -0.2722
23887SOL    HW273103   2.550   4.035   0.086 -1.0750 -0.6363 -1.5821
23888SOL     OW73104   3.192   0.630   7.950  0.5456  0.4128 -0.2782
23888SOL    HW173105   3.245   0.550   7.946  0.6825  0.4998 -0.2430
23888SOL    HW273106   3.134   0.616   8.025  1.6998  1.0205  0.7707
23889SOL     OW73107   1.213   4.891  10.715 -0.5840  0.4965 -0.1202
23889SOL    HW173108   1.212   4.840  10.634  1.7369 -1.4893  0.9389
23889SOL    HW273109   1.301   4.876  10.751 -1.2644  1.9157  2.3814
23890SOL     OW73110   2.686   2.185   1.638 -0.2933 -0.2320 -0.1644
23890SOL    HW173111   2.609   2.130   1.625 -0.6478  0.1121  0.4136
23890SOL    HW273112   2.672   2.260   1.581 -0.9590  0.3882  0.7751
23891SOL     OW73113   7.448   2.060   7.011  0.1712  0.1746 -0.2620
23891SOL    HW173114   7.354   2.043   7.003  0.3872 -2.4949  1.3810
23891SOL    HW273115   7.471   2.108   6.932 -2.2967 -0.4975 -1.4774
23892SOL     OW73116   2.216   5.844   1.870  1.0015  0.1477  0.5332
23892SOL    HW173117   2.213   5.837   1.965 -0.1146  0.0701  0.5102
23892SOL    HW273118   2.274   5.774   1.842 -1.0064 -1.7812  0.9882
23893SOL     OW73119   4.195   3.155   0.611  0.2297 -0.3051 -0.2995
23893SOL    HW173120   4.272   3.166   0.667  0.4636 -1.9371 -0.2468
23893SOL    HW273121   4.222   3.088   0.548 -1.1937 -0.9965 -0.2004
23894SOL     OW73122   0.644   2.237  10.319 -0.0328  0.4500 -0.1511
23894SOL    HW173123   0.645   2.193  10.233 -2.7435 -0.9191  0.3981
23894SOL    HW273124   0.644   2.165  10.382  0.5241  1.4116  0.9628
23895SOL     OW73125   4.110   3.452   4.208 -0.3753 -0.5054  0.4221
23895SOL    HW173126   4.137   3.395   4.280  1.9249 -2.4160 -1.6996
23895SOL    HW273127   4.153   3.536   4.226  0.0400 -0.9013  1.3500
23896SOL     OW73128   4.608   5.069   3.637 -0.6403 -0.0906 -0.0859
23896SOL    HW173129   4.596   4.990   3.689  3.2647  0.3191  1.8452
23896SOL    HW273130   4.658   5.040   3.560  0.9990  0.4114  0.7378
23897SOL     OW73131   2.338   4.366   4.432  0.3535  0.6849 -0.4870
23897SOL    HW173132   2.397   4.290   4.428 -0.4858 -0.0814  0.8888
23897SOL    HW273133   2.255   4.333   4.398  0.2940  1.3335 -0.9820
23898SOL     OW73134   4.623   5.900   9.576 -0.4569  0.9133  0.0871
23898SOL    HW173135   4.700   5.955   9.589  0.8777 -0.4161 -1.7002
23898SOL    HW273136   4.609   5.900   9.481  0.5469 -2.9095 -0.2185
23899SOL     OW73137   2.481   6.641   0.179 -0.3849 -0.0313 -0.9904
23899SOL    HW173138   2.556   6.609   0.130 -0.9237 -4.1734  0.5123
23899SOL    HW273139   2.487   6.598   0.265 -4.6086 -1.0197 -0.9521
23900SOL     OW73140   3.379   7.454   2.931  0.1074 -0.1280  0.0414
23900SOL    HW173141   3.444   7.493   2.873  0.0178 -1.2378 -0.8411
23900SOL    HW273142   3.409   7.364   2.943  0.1217  0.0718  1.7347
23901SOL     OW73143   3.863   6.022   8.832 -0.3364  0.4002 -0.1355
23901SOL    HW173144   3.785   5.976   8.800 -0.1303  0.4341 -0.7095
23901SOL    HW273145   3.845   6.114   8.816 -1.0373  0.6005  1.6534
23902SOL     OW73146   0.490   3.516   0.943  0.1530  0.1683 -0.1378
23902SOL    HW173147   0.437   3.548   0.869 -0.8873 -0.1943  0.4387
23902SOL    HW273148   0.554   3.457   0.902 -1.4307 -1.2904 -0.5909
23903SOL     OW73149   6.456   4.581   1.061 -0.2519 -0.2083 -0.9184
23903SOL    HW173150   6.543   4.542   1.052 -0.5586 -0.7862 -1.4590
23903SOL    HW273151   6.443   4.588   1.156  0.3775 -0.1219 -0.8343
23904SOL     OW73152   1.346   7.439   5.286 -0.4827  0.5520 -0.1758
23904SOL    HW173153   1.416   7.376   5.270  0.5995  1.7545 -0.4192
23904SOL    HW273154   1.334   7.483   5.201 -0.8521  1.0264  0.1147
23905SOL     OW73155   2.957   0.392   8.361  0.4279  0.3334  0.2882
23905SOL    HW173156   3.008   0.368   8.438  0.4447  1.8201  0.7831
23905SOL    HW273157   2.920   0.478   8.383 -1.0574 -0.0254 -0.6484
23906SOL     OW73158   2.351   3.912   2.492  0.3279 -0.1021 -0.0697
23906SOL    HW173159   2.308   3.856   2.427 -1.5412  0.8143  0.2824
23906SOL    HW273160   2.352   3.999   2.451 -3.1872  1.0759  1.9135
23907SOL     OW73161   0.386   2.645   8.339  0.0510 -0.3585  0.2081
23907SOL    HW173162   0.407   2.553   8.324  0.6827 -0.5823  2.1333
23907SOL    HW273163   0.292   2.651   8.325  0.2569 -0.8706 -1.7052
23908SOL     OW73164   1.351   3.701   5.227  0.2418  0.0928  0.0163
23908SOL    HW173165   1.311   3.615   5.216  0.5130 -0.1702  0.9997
23908SOL    HW273166   1.278   3.762   5.232 -0.0064 -0.2676  0.8416
23909SOL     OW73167   2.764   7.961   5.547  0.2189  0.2365 -0.1926
23909SOL    HW173168   2.675   7.981   5.519  0.0497 -0.5339 -0.2185
23909SOL    HW273169   2.819   7.995   5.476  0.0118  1.4245  0.1838
23910SOL     OW73170   1.426   0.451   4.471 -0.2313 -0.2685  0.4109
23910SOL    HW173171   1.505   0.469   4.421 -0.6119  0.4536  0.0539
23910SOL    HW273172   1.364   0.415   4.407 -0.8330  0.9709  0.2630
23911SOL     OW73173   5.448   6.663  11.733 -0.3383 -0.1073  0.0571
23911SOL    HW173174   5.538   6.638  11.757 -0.7413 -0.0252  1.7795
23911SOL    HW273175   5.410   6.698  11.814 -1.4111  1.4212 -1.0447
23912SOL     OW73176   7.230   3.718   3.820 -0.2977  0.0837  0.2689
23912SOL    HW173177   7.250   3.811   3.831  0.2071  0.0842 -0.5969
23912SOL    HW273178   7.296   3.686   3.758 -0.0980 -0.9899  1.0124
23913SOL     OW73179   7.704   2.145  10.001  0.5334 -0.0173 -0.0183
23913SOL    HW173180   7.686   2.232   9.963 -1.1935 -0.3327 -0.0335
23913SOL    HW273181   7.772   2.108   9.945  1.2333  1.2806 -0.0668
23914SOL     OW73182   2.638   6.633  11.498 -0.3062 -0.2901  0.2150
23914SOL    HW173183   2.620   6.546  11.534 -0.2765 -0.1217  0.6487
23914SOL    HW273184   2.722   6.658  11.536  0.4902 -0.7396 -1.1806
23915SOL     OW73185   6.620   6.049   0.815 -0.6514  0.4547 -0.5346
23915SOL    HW173186   6.595   6.040   0.907  0.5440 -0.7544 -0.3047
23915SOL    HW273187   6.538   6.067   0.769 -1.1302  2.2178  0.8839
23916SOL     OW73188   3.463   1.800   7.952 -0.0974  0.1931 -0.2077
23916SOL    HW173189   3.465   1.712   7.914  0.9530  1.1426 -2.5030
23916SOL    HW273190   3.554   1.829   7.950 -0.0418  0.5630  2.6312
23917SOL     OW73191   0.587   1.823   9.039 -0.9611  0.1834 -0.3991
23917SOL    HW173192   0.671   1.778   9.030 -1.5980 -0.7712 -1.9673
23917SOL    HW273193   0.591   1.863   9.126 -0.0230 -2.1995  0.7497
23918SOL     OW73194   1.639   2.174   6.702  0.1754 -0.1878 -0.2806
23918SOL    HW173195   1.692   2.117   6.758 -0.6083  0.7377  1.5196
23918SOL    HW273196   1.648   2.137   6.614  0.7294 -2.2853  0.5872
23919SOL     OW73197   1.850   7.843   0.501  0.0594 -0.1199 -0.1536
23919SOL    HW173198   1.870   7.775   0.436 -1.1310  0.2389 -0.9260
23919SOL    HW273199   1.789   7.902   0.457 -0.8331  0.1089  1.2976
23920SOL     OW73200   5.112   6.465   8.856 -0.1969 -0.4653 -0.2675
23920SOL    HW173201   5.180   6.398   8.847 -0.4203 -0.6341 -0.7597
23920SOL    HW273202   5.153   6.534   8.909 -0.3154 -1.4404  1.1459
23921SOL     OW73203   1.477   3.566   4.867 -0.2005  0.1966 -0.7835
23921SOL    HW173204   1.383   3.587   4.866 -0.7588 -2.0332 -0.4391
23921SOL    HW273205   1.512   3.608   4.788 -1.3344  1.6599 -0.5364
23922SOL     OW73206   2.558   0.135   4.948 -0.2105 -0.0352  0.3390
23922SOL    HW173207   2.607   0.054   4.940  2.3071  1.3592  0.4278
23922SOL    HW273208   2.607   0.186   5.013 -2.3341  1.1450  1.1030
23923SOL     OW73209   6.317   1.426   1.200 -0.2042 -0.0372  0.0068
23923SOL    HW173210   6.350   1.516   1.198  2.1755 -0.8105 -1.8824
23923SOL    HW273211   6.314   1.400   1.107  3.2077 -3.0991  0.5023
23924SOL     OW73212   1.680   2.505   6.167  0.5152  0.0079  0.5155
23924SOL    HW173213   1.744   2.436   6.146  1.4971  1.1371 -0.3411
23924SOL    HW273214   1.732   2.573   6.209 -0.1632  0.8832 -0.0451
23925SOL     OW73215   7.914   2.885   1.359  0.4350  0.0152 -0.9799
23925SOL    HW173216   7.966   2.959   1.327  2.7998 -2.1274 -2.4302
23925SOL    HW273217   7.930   2.884   1.454  1.5322  0.5328 -1.1437
23926SOL     OW73218   1.866   7.251   5.582 -0.1873 -0.4691  0.1126
23926SOL    HW173219   1.900   7.178   5.633 -0.2015  0.5277  1.6188
23926SOL    HW273220   1.869   7.326   5.642  0.6447  0.9743 -1.6465
23927SOL     OW73221   1.644   3.533   2.795 -0.2890 -0.2449  0.2838
23927SOL    HW173222   1.617   3.577   2.876  0.3016 -1.0515  0.9290
23927SOL    HW273223   1.583   3.461   2.785 -1.5965  0.9765 -1.0673
23928SOL     OW73224   3.736   5.746   1.426 -0.4347 -0.0129  0.9081
23928SOL    HW173225   3.763   5.708   1.510  0.3379 -2.4922 -0.3449
23928SOL    HW273226   3.668   5.686   1.394 -1.2616  1.3254  0.0978
23929SOL     OW73227   6.592   2.475   6.348 -0.2033  0.3011  0.5826
23929SOL    HW173228   6.507   2.511   6.321 -0.3023 -0.6320 -0.4375
23929SOL    HW273229   6.582   2.380   6.337  0.8826  0.1606  0.7334
23930SOL     OW73230   6.321   6.081   1.961  0.7596  0.5535 -0.1851
23930SOL    HW173231   6.409   6.117   1.973  1.5456 -0.7286 -1.8001
23930SOL    HW273232   6.305   6.086   1.867 -1.5928  2.2414  0.2231
23931SOL     OW73233   7.732   0.970   7.734  0.0665 -0.1920  0.7130
23931SOL    HW173234   7.823   0.941   7.741  0.5713  1.0183 -0.3868
23931SOL    HW273235   7.722   1.037   7.802 -0.0588 -0.4286  0.9314
23932SOL     OW73236   0.359   1.741  12.162  0.0663  0.1827  0.3240
23932SOL    HW173237   0.409   1.725  12.242  1.5909 -1.1128 -0.8120
23932SOL    HW273238   0.425   1.768  12.098 -0.6996 -1.3077 -1.1657
23933SOL     OW73239   3.906   7.881   6.925 -0.1543  0.5308 -0.3498
23933SOL    HW173240   3.979   7.926   6.883  1.3019  2.5479  3.8365
23933SOL    HW273241   3.838   7.948   6.932 -0.7476 -0.0640 -0.3228
23934SOL     OW73242   3.574   5.957   1.502 -0.1737 -0.9074  0.4308
23934SOL    HW173243   3.503   5.944   1.439 -0.7790 -0.2718  0.9677
23934SOL    HW273244   3.637   5.887   1.482 -0.0822 -0.3984 -1.2338
23935SOL     OW73245   7.587   1.594   9.415 -0.1985  0.3465 -0.7218
23935SOL    HW173246   7.583   1.643   9.332 -0.6097  2.8917  0.7050
23935SOL    HW273247   7.678   1.600   9.442  0.0320 -0.8819 -1.1853
23936SOL     OW73248   5.883   6.234   8.281 -0.1618  0.0815  0.2153
23936SOL    HW173249   5.804   6.254   8.332  0.8839  1.0558  1.5142
23936SOL    HW273250   5.851   6.216   8.193 -2.1091 -2.1801  1.2677
23937SOL     OW73251   0.060   4.073   1.630  0.1087  0.0227  0.5855
23937SOL    HW173252   0.034   3.983   1.611 -0.0925  0.1976  0.0025
23937SOL    HW273253  -0.020   4.124   1.623  0.2152  0.2481  0.9468
23938SOL     OW73254   7.848   4.119   5.443 -0.5066  0.1878 -0.1598
23938SOL    HW173255   7.879   4.205   5.418  0.5300 -0.0339  0.3212
23938SOL    HW273256   7.756   4.132   5.465 -0.1456  1.3489  0.7449
23939SOL     OW73257   3.764   1.146   5.720  0.1906  0.1105  0.2440
23939SOL    HW173258   3.692   1.158   5.782 -0.4743 -0.3536 -0.4317
23939SOL    HW273259   3.730   1.086   5.654  1.2518 -0.2365 -0.0062
23940SOL     OW73260   0.574   1.824  12.045 -0.6124  0.7774 -0.1456
23940SOL    HW173261   0.606   1.850  11.958  0.0210  0.3077 -0.0663
23940SOL    HW273262   0.636   1.757  12.073 -2.5829 -1.3897 -0.6612
23941SOL     OW73263   1.675   1.837   3.725  0.0898 -0.6037  0.5117
23941SOL    HW173264   1.645   1.752   3.694 -0.0086 -0.6621  0.7665
23941SOL    HW273265   1.753   1.818   3.777 -0.7274 -0.6932  1.7516
23942SOL     OW73266   2.960   4.808   1.737  0.0327 -0.4701  0.3686
23942SOL    HW173267   2.938   4.823   1.645 -1.1095  1.0360  0.8398
23942SOL    HW273268   3.050   4.840   1.746 -0.6563  1.6193  0.2421
23943SOL     OW73269   4.300   6.559  10.762  0.6458 -0.1745  0.4990
23943SOL    HW173270   4.370   6.496  10.781  1.2710  0.1278 -0.7151
23943SOL    HW273271   4.307   6.576  10.668 -1.5461 -0.6810  0.1957
23944SOL     OW73272   6.921   2.791   5.240  0.3283  0.0969  0.2047
23944SOL    HW173273   6.899   2.756   5.326  1.7010  1.2791  1.0647
23944SOL    HW273274   7.005   2.752   5.219  0.1927  0.1377 -0.4361
23945SOL     OW73275   3.007   6.125   9.864  0.0472 -0.0234  0.0916
23945SOL    HW173276   3.028   6.196   9.926  1.9622 -0.7175  0.3066
23945SOL    HW273277   3.002   6.047   9.918 -3.5949  0.0337  0.0962
23946SOL     OW73278   6.502   0.426   6.825 -0.8446 -0.2886 -0.1908
23946SOL    HW173279   6.488   0.340   6.785 -0.6245 -0.9161  1.0514
23946SOL    HW273280   6.583   0.417   6.874 -1.8878 -0.0274  1.6606
23947SOL     OW73281   7.019   5.824   5.096 -0.1863 -0.4079 -0.0796
23947SOL    HW173282   7.108   5.831   5.129  0.0039  2.0884 -0.9115
23947SOL    HW273283   6.963   5.831   5.173  0.2868  3.5975  0.1348
23948SOL     OW73284   3.609   4.759  11.452  0.5160  0.4652  0.5996
23948SOL    HW173285   3.648   4.697  11.390  1.1693  1.1674  0.2885
23948SOL    HW273286   3.551   4.706  11.506 -0.5544 -0.0672 -1.0203
23949SOL     OW73287   4.592   2.390   1.354  0.1522  0.0740 -0.1737
23949SOL    HW173288   4.588   2.349   1.441  1.4594  0.2599 -0.0163
23949SOL    HW273289   4.624   2.478   1.371 -0.5115  0.4370 -0.7585
23950SOL     OW73290   2.706   0.591  10.488 -0.3465  0.0039  0.1420
23950SOL    HW173291   2.689   0.651  10.416  1.9293  0.9752  0.3509
23950SOL    HW273292   2.626   0.593  10.540 -1.5444  0.2820 -1.6052
23951SOL     OW73293   5.471   4.956  12.189  0.5352  0.2928  0.2327
23951SOL    HW173294   5.517   4.985  12.268 -0.3088  1.3240  0.3602
23951SOL    HW273295   5.412   4.887  12.219  0.8017  0.1129  0.3509
23952SOL     OW73296   7.108   2.521  10.191 -0.1884 -0.3217 -0.0063
23952SOL    HW173297   7.203   2.527  10.182 -0.2188 -1.4621 -1.4886
23952SOL    HW273298   7.087   2.431  10.165 -1.7056  0.0210 -0.0807
23953SOL     OW73299   3.406   4.039  11.919 -0.0851 -0.6660  0.3084
23953SOL    HW173300   3.485   4.010  11.965  0.4307 -0.8540 -0.6652
23953SOL    HW273301   3.405   3.987  11.838 -0.2211  0.5847 -0.5347
23954SOL     OW73302   0.896   3.989   2.024 -0.7588 -0.1214  0.8823
23954SOL    HW173303   0.929   4.031   1.945 -2.3055 -0.8025 -0.1711
23954SOL    HW273304   0.973   3.980   2.081  0.7919 -1.2718 -1.2769
23955SOL     OW73305   1.213   6.320   0.768  0.2977 -0.4376 -0.8862
23955SOL    HW173306   1.261   6.310   0.685  0.4925  0.7381 -0.9401
23955SOL    HW273307   1.202   6.415   0.777 -2.1584 -0.6427 -0.9415
23956SOL     OW73308   6.615   6.668   9.693  0.3733  0.1117  0.3127
23956SOL    HW173309   6.669   6.671   9.772  2.4657  1.3962 -1.0962
23956SOL    HW273310   6.621   6.577   9.663 -1.1220 -0.6098  1.9944
23957SOL     OW73311   4.112   7.206   7.275  0.5770  0.2851  0.1785
23957SOL    HW173312   4.102   7.223   7.181 -1.1864 -0.1398  0.2470
23957SOL    HW273313   4.024   7.179   7.303  0.1489  3.6381  2.6477
23958SOL     OW73314   4.418   2.169   8.654 -0.8904  0.1420  0.1007
23958SOL    HW173315   4.441   2.260   8.637  0.2115 -0.0900  0.2488
23958SOL    HW273316   4.464   2.148   8.735  0.8831 -1.2368 -1.1922
23959SOL     OW73317   3.734   0.482   0.019  0.3092 -0.2869  0.8060
23959SOL    HW173318   3.762   0.403   0.066  0.5732  1.0102  2.9602
23959SOL    HW273319   3.794   0.488  -0.056  0.5976 -1.8360  0.8774
23960SOL     OW73320   3.342   5.754   5.398 -0.5681 -0.9517 -0.2608
23960SOL    HW173321   3.405   5.692   5.360  0.4536 -0.4308  0.5454
23960SOL    HW273322   3.355   5.747   5.492  0.2457  1.1612 -0.1739
23961SOL     OW73323   0.257   3.489   7.279  0.0688  0.8376 -0.9475
23961SOL    HW173324   0.243   3.500   7.373 -1.9632  0.5283 -1.1817
23961SOL    HW273325   0.220   3.404   7.258  2.4916 -0.1231 -1.7053
23962SOL     OW73326   1.901   7.173   3.437 -0.2159 -0.7308  0.4125
23962SOL    HW173327   1.899   7.220   3.520  1.5893 -0.2415  0.2134
23962SOL    HW273328   1.993   7.153   3.422 -0.1693  1.0270 -2.4342
23963SOL     OW73329   7.887   0.314   8.885 -0.1507 -0.1339 -0.4170
23963SOL    HW173330   7.930   0.375   8.826  0.9165 -1.2403 -0.8160
23963SOL    HW273331   7.813   0.280   8.835 -0.0723 -0.0227 -0.6095
23964SOL     OW73332   5.423   4.115   6.236 -0.0849  0.0420 -0.1467
23964SOL    HW173333   5.487   4.126   6.165 -0.7483 -0.4656 -0.8308
23964SOL    HW273334   5.430   4.023   6.259  1.2569  0.5151  1.5571
23965SOL     OW73335   2.937   3.772   4.159  0.1846  0.0154  0.3769
23965SOL    HW173336   2.897   3.741   4.078 -2.6407  0.6574  1.4124
23965SOL    HW273337   2.893   3.723   4.228  1.0174  0.9605  1.6204
23966SOL     OW73338   1.605   4.227   4.199 -0.0385 -0.1126 -0.2801
23966SOL    HW173339   1.553   4.307   4.206  1.1417  0.6150  0.5040
23966SOL    HW273340   1.663   4.230   4.275  0.1702 -1.6116 -0.3634
23967SOL     OW73341   0.775   5.332   1.080 -0.4814  0.8828 -0.4796
23967SOL    HW173342   0.772   5.419   1.121 -0.1634  0.1641  1.1472
23967SOL    HW273343   0.796   5.273   1.152  0.9272 -0.3727 -1.8663
23968SOL     OW73344   7.061   1.508  12.230 -0.4603  0.4080 -0.0790
23968SOL    HW173345   7.044   1.432  12.286  2.5453 -0.7467 -0.5547
23968SOL    HW273346   6.974   1.536  12.201 -2.0777  0.3569  4.0989
23969SOL     OW73347   0.131   3.094   9.939  0.1609 -0.0324 -0.3286
23969SOL    HW173348   0.192   3.167   9.944  0.7519 -0.6000  1.3780
23969SOL    HW273349   0.159   3.044   9.862 -0.8001  1.9387 -2.0699
23970SOL     OW73350   3.714   5.344  10.185  0.0497 -0.1442  0.0019
23970SOL    HW173351   3.729   5.414  10.249 -0.0454 -0.6401  0.5785
23970SOL    HW273352   3.725   5.264  10.236 -3.8522 -0.6204  0.3711
23971SOL     OW73353   6.417   1.642   2.734  0.0959  0.1411  0.1006
23971SOL    HW173354   6.476   1.626   2.661 -2.7388  0.2308 -2.4258
23971SOL    HW273355   6.416   1.738   2.743  0.1392  0.1563 -0.0532
23972SOL     OW73356   6.793   0.654   5.642  0.1333  0.3481  0.3482
23972SOL    HW173357   6.725   0.633   5.578  0.7045  1.8319 -0.8074
23972SOL    HW273358   6.857   0.705   5.593  2.3784 -1.4251  1.2564
23973SOL     OW73359   1.473   0.445  11.832 -0.9163 -0.0142 -0.4933
23973SOL    HW173360   1.495   0.538  11.839 -1.1031 -0.0253  0.3200
23973SOL    HW273361   1.493   0.423  11.741  2.0475  0.0771  0.0335
23974SOL     OW73362   0.462   7.498   9.848  0.0785 -0.4033  0.4730
23974SOL    HW173363   0.478   7.461   9.935  0.1782  0.6102  0.9096
23974SOL    HW273364   0.464   7.423   9.789  3.3459 -0.8060  0.8895
23975SOL     OW73365   7.983   7.330   1.675 -0.0314  0.8632 -0.1082
23975SOL    HW173366   8.005   7.292   1.590  0.2528  2.0957 -0.6177
23975SOL    HW273367   7.889   7.348   1.670 -0.0382  0.8239 -0.1202
23976SOL     OW73368   5.922   4.835   8.070 -0.3962  0.1770 -0.1113
23976SOL    HW173369   5.870   4.760   8.097  0.0014 -0.2768 -0.6031
23976SOL    HW273370   5.908   4.900   8.140  1.2184 -1.2253  1.6176
23977SOL     OW73371   0.775   4.089  11.459 -0.2243  0.0425  0.2815
23977SOL    HW173372   0.784   4.138  11.377 -0.2813 -2.1221 -1.1025
23977SOL    HW273373   0.682   4.065  11.461 -0.2247  0.1107  1.0024
23978SOL     OW73374   0.567   3.029  10.190  0.1374  0.3582 -0.5296
23978SOL    HW173375   0.533   3.117  10.176  1.0552  1.0765  1.4723
23978SOL    HW273376   0.506   2.988  10.251 -0.4287 -0.5319 -1.6389
23979SOL     OW73377   5.693   7.640   6.397 -0.7819 -0.1479 -0.1278
23979SOL    HW173378   5.704   7.727   6.359  0.7412 -0.7298 -1.0933
23979SOL    HW273379   5.689   7.581   6.322  0.2615 -1.1168  0.5415
23980SOL     OW73380   0.307   3.664   2.553  0.5804 -0.2523 -0.1671
23980SOL    HW173381   0.232   3.686   2.609  1.3297  1.0834  0.3627
23980SOL    HW273382   0.284   3.699   2.467  0.8175  0.6957  0.1373
23981SOL     OW73383   6.860   3.279   8.311 -0.1333 -0.4183  0.2636
23981SOL    HW173384   6.865   3.207   8.249 -0.4224 -0.5140  0.3471
23981SOL    HW273385   6.793   3.251   8.374 -0.0056 -0.2239  0.4868
23982SOL     OW73386   6.959   1.207   7.701  0.2929 -0.3684 -0.1320
23982SOL    HW173387   7.027   1.274   7.694  0.9821 -1.0898 -0.4374
23982SOL    HW273388   6.923   1.200   7.613 -0.7409  0.5709  0.1921
23983SOL     OW73389   0.406   3.588   4.812 -0.4194 -0.1113 -0.1078
23983SOL    HW173390   0.486   3.566   4.765 -0.3744 -0.9757  0.3333
23983SOL    HW273391   0.414   3.681   4.833  0.8996 -0.3825  0.7061
23984SOL     OW73392   2.734   6.675   2.386 -0.1634 -0.4654  0.5277
23984SOL    HW173393   2.660   6.615   2.385 -1.8681  1.5239  0.6358
23984SOL    HW273394   2.777   6.661   2.302 -1.1814 -1.0498  0.0833
23985SOL     OW73395   5.640   4.104   2.325  0.0976 -0.3461  0.3162
23985SOL    HW173396   5.728   4.131   2.354 -0.3012 -0.0044  1.2530
23985SOL    HW273397   5.640   4.121   2.231 -0.1096  3.0470  0.7859
23986SOL     OW73398   0.856   0.117   6.884  0.7809 -0.6580 -0.3963
23986SOL    HW173399   0.786   0.137   6.822  0.0609 -0.0712  0.5845
23986SOL    HW273400   0.824   0.041   6.933 -0.2203  0.9809  1.6030
23987SOL     OW73401   0.075   5.375   0.168 -0.2949 -0.0654 -0.5253
23987SOL    HW173402   0.055   5.449   0.111 -1.9532 -0.6488 -0.7795
23987SOL    HW273403   0.137   5.321   0.118 -0.1886  0.4351 -0.9375
23988SOL     OW73404   0.922   5.492   9.639 -0.4486  0.0637  0.0919
23988SOL    HW173405   0.864   5.530   9.572 -0.8746  0.0413  0.4488
23988SOL    HW273406   0.863   5.458   9.706 -0.1117 -1.8344 -0.5095
23989SOL     OW73407   6.801   6.745   0.380 -0.2294 -0.3649  0.1106
23989SOL    HW173408   6.881   6.697   0.358 -1.0886 -2.1116  0.6395
23989SOL    HW273409   6.734   6.709   0.322 -0.9785 -0.0656  0.7712
23990SOL     OW73410   3.061   5.304   1.729  0.2899  0.7114  0.1827
23990SOL    HW173411   2.998   5.242   1.692  0.8925  0.7329 -0.9023
23990SOL    HW273412   3.136   5.301   1.670  1.5018  0.3880  1.6570
23991SOL     OW73413   3.011   6.879   7.009 -0.0444 -0.2716  0.0122
23991SOL    HW173414   2.978   6.859   6.922  0.2229 -0.7819  0.0234
23991SOL    HW273415   2.933   6.894   7.062 -0.2267 -0.5894 -0.1665
23992SOL     OW73416   6.263   7.943   9.997 -0.0965  0.1463 -0.4201
23992SOL    HW173417   6.183   7.942  10.051  0.5943 -0.0682  0.6265
23992SOL    HW273418   6.274   8.036   9.974  0.0061  0.3572  0.4398
23993SOL     OW73419   0.543   3.175   9.731  0.3526  0.5202 -0.2264
23993SOL    HW173420   0.569   3.265   9.711  0.5335  0.8781  1.4708
23993SOL    HW273421   0.448   3.174   9.720 -0.0206  1.6582  2.1232
23994SOL     OW73422   0.816   1.960  12.265  0.3134 -0.1280 -0.9393
23994SOL    HW173423   0.859   1.925  12.343  1.5131  1.5451 -0.7885
23994SOL    HW273424   0.739   2.005  12.299 -0.2231 -1.0365 -0.9389
23995SOL     OW73425   7.514   3.335   6.421 -0.3544  0.2722  0.0415
23995SOL    HW173426   7.530   3.361   6.330 -0.4588  0.0411 -0.0447
23995SOL    HW273427   7.571   3.391   6.473  0.6126 -0.4207 -0.2412
23996SOL     OW73428   1.568   1.879  11.205 -0.0267  0.2040  0.2682
23996SOL    HW173429   1.621   1.952  11.237  0.8329 -0.3926  0.2396
23996SOL    HW273430   1.566   1.891  11.110  1.8581 -0.8958  0.0210
23997SOL     OW73431   1.149   5.066   5.659 -0.1413  0.3961 -0.5412
23997SOL    HW173432   1.082   5.093   5.596  0.4672  3.0974 -0.1684
23997SOL    HW273433   1.205   5.143   5.668  3.7124 -2.0370 -1.6360
23998SOL     OW73434   6.873   6.352   1.003  0.6716 -0.2769  0.2181
23998SOL    HW173435   6.848   6.299   1.079 -0.0605  1.1002  0.9650
23998SOL    HW273436   6.792   6.361   0.953  0.6804  0.5437  0.3496
23999SOL     OW73437   3.324   3.335   9.356  0.4334 -0.0144 -0.2720
23999SOL    HW173438   3.291   3.263   9.409  0.5403  1.3762  1.8414
23999SOL    HW273439   3.385   3.381   9.414  0.7542  1.4857 -1.7077
24000SOL     OW73440   7.502   2.966   6.805  0.1088  0.5002 -0.2159
24000SOL    HW173441   7.432   2.941   6.745 -0.0104 -0.5849  0.3499
24000SOL    HW273442   7.484   3.057   6.827 -0.9688  0.3160 -0.2911
24001SOL     OW73443   1.958   4.453   8.645  0.4093  0.1509  0.3310
24001SOL    HW173444   1.914   4.532   8.676  0.2390 -0.5304  1.9404
24001SOL    HW273445   1.926   4.440   8.556 -0.7342  1.0475  0.5976
24002SOL     OW73446   2.546   5.180   6.344  0.0102  0.7236 -0.0727
24002SOL    HW173447   2.625   5.233   6.338  2.5063 -2.7752 -0.8529
24002SOL    HW273448   2.560   5.125   6.421  0.0383 -2.2622 -2.0333
24003SOL     OW73449   0.401   0.691   5.462  0.3825 -0.6575  0.5232
24003SOL    HW173450   0.429   0.626   5.398 -0.5101 -1.4794  0.9453
24003SOL    HW273451   0.478   0.706   5.517  1.7902  1.4702 -1.8076
24004SOL     OW73452   4.765   4.022   0.659 -0.3619  0.1095 -0.6234
24004SOL    HW173453   4.841   4.022   0.601 -0.0739  0.5334 -0.2550
24004SOL    HW273454   4.752   3.930   0.681  1.0208  0.1551  0.5527
24005SOL     OW73455   5.674   4.340   4.963 -0.3858 -0.7239  0.5348
24005SOL    HW173456   5.634   4.262   5.001  1.6695 -2.3142 -0.3453
24005SOL    HW273457   5.742   4.306   4.904 -1.1788  1.6713 -1.9883
24006SOL     OW73458   2.616   6.682  12.265  0.1771  0.7992  0.2086
24006SOL    HW173459   2.540   6.654  12.215 -1.4658  0.9028  2.4665
24006SOL    HW273460   2.588   6.762  12.309  1.4870  0.6959  1.3084
24007SOL     OW73461   7.854   6.279   6.013  0.3960 -0.2246  0.1076
24007SOL    HW173462   7.939   6.283   5.969  0.0172  1.4886 -0.5321
24007SOL    HW273463   7.873   6.304   6.104  0.5185  0.5529 -0.1289
24008SOL     OW73464   4.085   7.460   6.817  0.7758 -0.4166 -0.5205
24008SOL    HW173465   4.177   7.466   6.840  0.7316 -1.3223 -0.0465
24008SOL    HW273466   4.040   7.517   6.880  0.9974 -0.0270 -0.7109
24009SOL     OW73467   4.082   4.001   0.004  0.0555 -0.2098 -0.1027
24009SOL    HW173468   4.121   4.001   0.092  1.4699 -0.0800 -0.6953
24009SOL    HW273469   4.059   4.092  -0.012 -1.4366 -0.4263  0.6188
24010SOL     OW73470   6.981   4.583   0.173 -0.1670 -0.0189 -0.2948
24010SOL    HW173471   6.888   4.590   0.151 -0.8258 -1.6384  1.6985
24010SOL    HW273472   7.022   4.655   0.125 -2.5129  1.0432 -0.8488
24011SOL     OW73473   1.169   1.922   2.899  0.6588  0.3657  0.7069
24011SOL    HW173474   1.228   1.997   2.909 -1.5434  2.3237 -0.0599
24011SOL    HW273475   1.142   1.925   2.807 -0.7596 -0.3171  1.0698
24012SOL     OW73476   5.885   6.729   4.377  0.4458  0.0873 -0.3522
24012SOL    HW173477   5.946   6.684   4.317 -0.1442  1.0152 -1.7075
24012SOL    HW273478   5.921   6.713   4.464  1.4720 -1.1263 -0.9609
24013SOL     OW73479   5.637   7.698  11.823 -0.1706  0.0957 -0.4590
24013SOL    HW173480   5.720   7.741  11.803 -0.0491 -0.0602 -0.2902
24013SOL    HW273481   5.601   7.747  11.896  0.3202 -0.5381  0.2223
24014SOL     OW73482   0.964   1.649   1.507 -0.5490 -0.0370  0.1367
24014SOL    HW173483   1.027   1.719   1.526 -0.7592  0.5283 -1.1508
24014SOL    HW273484   1.009   1.595   1.442 -0.7433 -0.5841  0.4606
24015SOL     OW73485   1.934   4.889  10.386  0.0892 -0.3333  0.3956
24015SOL    HW173486   1.904   4.819  10.328  0.6168 -0.2369  0.0034
24015SOL    HW273487   2.013   4.854  10.427  0.9725  0.4095 -0.6038
24016SOL     OW73488   7.181   6.775   2.226 -0.1165  0.1787  0.0650
24016SOL    HW173489   7.244   6.833   2.268  1.2939 -0.2749 -1.3038
24016SOL    HW273490   7.201   6.688   2.260 -2.0444  0.3938  1.9047
24017SOL     OW73491   1.681   0.498   9.360 -0.4219 -0.5009 -0.7790
24017SOL    HW173492   1.628   0.565   9.316 -2.0610  0.4199  2.2597
24017SOL    HW273493   1.617   0.447   9.410  1.3320 -0.2364  1.9781
24018SOL     OW73494   1.535   0.288   0.410 -0.0452 -0.9990  0.3447
24018SOL    HW173495   1.483   0.310   0.487 -0.1363 -0.9515  0.2695
24018SOL    HW273496   1.487   0.327   0.337 -0.2453 -1.5000  0.2040
24019SOL     OW73497   7.621   5.676   1.418  0.3829  0.2444 -0.6832
24019SOL    HW173498   7.651   5.595   1.460 -0.4231  0.1198 -0.3364
24019SOL    HW273499   7.558   5.713   1.479 -0.9060  0.0106 -1.8133
24020SOL     OW73500   3.847   1.812   8.052  0.2440  0.2852  0.3784
24020SOL    HW173501   3.857   1.838   8.143  2.1423  1.4148 -0.0891
24020SOL    HW273502   3.787   1.876   8.014  0.5950  0.6902  0.5028
24021SOL     OW73503   0.009   3.074   7.809 -1.1164  0.8562  0.5076
24021SOL    HW173504   0.013   2.980   7.792 -0.5608  0.8667  0.5491
24021SOL    HW273505  -0.073   3.103   7.769 -0.8978  0.4959 -0.2179
24022SOL     OW73506   5.876   0.203  11.528  0.3716 -0.2870 -0.2569
24022SOL    HW173507   5.829   0.122  11.507 -0.3471 -0.0798  0.4910
24022SOL    HW273508   5.895   0.242  11.443  0.5375 -1.1360 -0.6208
24023SOL     OW73509   2.648   0.202   6.478  0.1061 -0.2175  0.0943
24023SOL    HW173510   2.629   0.157   6.396  1.5037  0.1128 -0.4344
24023SOL    HW273511   2.648   0.132   6.544  0.1627 -0.6700 -0.3812
24024SOL     OW73512   6.843   7.285  12.311  1.1749  0.0983 -0.2087
24024SOL    HW173513   6.899   7.306  12.385  1.1645  0.7457 -0.3742
24024SOL    HW273514   6.819   7.193  12.323  1.9631 -0.0741  0.0609
24025SOL     OW73515   0.503   7.048   8.114 -0.2260  0.0188  0.2643
24025SOL    HW173516   0.514   7.074   8.022  0.3422 -0.2308  0.2639
24025SOL    HW273517   0.463   6.962   8.110 -1.0348  0.3820  0.2618
24026SOL     OW73518   3.693   0.796   5.246  0.2783  0.0191 -0.6337
24026SOL    HW173519   3.701   0.762   5.335  1.1466 -1.2482 -1.1497
24026SOL    HW273520   3.724   0.886   5.251  2.4582 -0.7099 -0.0317
24027SOL     OW73521   5.244   0.301   6.127  0.1339  0.8472  0.2664
24027SOL    HW173522   5.274   0.300   6.218  1.0988  1.1966 -0.0413
24027SOL    HW273523   5.202   0.386   6.117 -4.0286 -0.7843  1.6205
24028SOL     OW73524   5.517   4.230   3.182 -0.5541  0.5048  0.2984
24028SOL    HW173525   5.554   4.192   3.262  0.1192 -1.1900 -0.7345
24028SOL    HW273526   5.432   4.188   3.173 -0.4633  0.3939 -0.0630
24029SOL     OW73527   3.553   1.406  11.142  0.0179  0.0146  0.0466
24029SOL    HW173528   3.626   1.419  11.081  1.1834 -1.5338  1.0320
24029SOL    HW273529   3.482   1.373  11.087  0.1800  1.1360 -0.8643
24030SOL     OW73530   7.372   3.959   7.485  0.1855  0.3817  0.3894
24030SOL    HW173531   7.303   3.894   7.489 -0.8826  1.1971 -2.4170
24030SOL    HW273532   7.437   3.930   7.549 -0.9038 -2.5856  0.2735
24031SOL     OW73533   7.089   3.954   6.124  0.0672 -0.2695 -0.5292
24031SOL    HW173534   7.041   3.927   6.202 -0.0049 -0.0784 -0.5071
24031SOL    HW273535   7.064   3.889   6.057  0.4160 -0.6455 -0.2953
24032SOL     OW73536   5.637   5.735   8.557  0.2030 -0.5062 -0.6104
24032SOL    HW173537   5.661   5.805   8.617 -1.1387 -1.2488  0.8646
24032SOL    HW273538   5.692   5.660   8.582 -0.3710 -0.8240 -0.2824
24033SOL     OW73539   1.746   2.775   4.708  0.3741  0.4283 -0.0521
24033SOL    HW173540   1.778   2.771   4.798 -1.9243  0.4761  0.8281
24033SOL    HW273541   1.761   2.686   4.674  1.1618  0.3822  0.3827
24034SOL     OW73542   4.809   1.178   9.783 -0.7720 -0.1625 -0.5789
24034SOL    HW173543   4.804   1.129   9.866 -1.2437  0.4465 -0.2457
24034SOL    HW273544   4.873   1.247   9.801 -0.0848 -0.6654 -1.0589
24035SOL     OW73545   0.304   7.331  11.914 -0.6762  0.1317  0.2105
24035SOL    HW173546   0.224   7.335  11.968  0.2329 -0.8624  1.7290
24035SOL    HW273547   0.297   7.248  11.867 -1.5068  1.0364 -1.3509
24036SOL     OW73548   5.406   2.135   7.544 -0.1632  0.2167  0.5067
24036SOL    HW173549   5.471   2.096   7.486  0.9186 -0.5896  2.1604
24036SOL    HW273550   5.445   2.217   7.573 -0.5860  0.4966  0.2920
24037SOL     OW73551   2.417   2.671   4.916 -0.0041  0.0525  0.3840
24037SOL    HW173552   2.377   2.643   4.834  2.8279 -0.2876 -1.0053
24037SOL    HW273553   2.418   2.766   4.911  0.2226  0.0299 -0.0130
24038SOL     OW73554   4.010   5.755   6.641  0.0350 -0.1265  0.3360
24038SOL    HW173555   3.933   5.698   6.633 -1.0856  1.5138 -1.7078
24038SOL    HW273556   4.068   5.708   6.701 -0.9480 -3.2357 -0.9004
24039SOL     OW73557   4.943   1.991   2.897 -0.1788 -0.3167  0.7851
24039SOL    HW173558   5.028   2.036   2.893  0.3038 -1.1500  1.3110
24039SOL    HW273559   4.881   2.059   2.921  0.3937  0.2418  0.7223
24040SOL     OW73560   7.058   0.183   0.186 -0.1229  0.1443  0.7007
24040SOL    HW173561   7.050   0.089   0.168  0.1883  0.0774  0.8981
24040SOL    HW273562   7.012   0.195   0.269 -0.7282  0.2831  0.3473
24041SOL     OW73563   3.376   7.342   4.443  0.0347  0.0584 -0.4638
24041SOL    HW173564   3.292   7.354   4.488  1.2869  1.1039  1.7507
24041SOL    HW273565   3.408   7.258   4.476  0.7954  0.6604  0.3686
24042SOL     OW73566   6.663   2.552   3.957 -0.3114  0.0203 -0.4929
24042SOL    HW173567   6.737   2.499   3.986 -1.0029 -0.9786 -0.4955
24042SOL    HW273568   6.588   2.492   3.959 -0.6923  0.3097 -2.8671
24043SOL     OW73569   0.370   5.449   9.188 -0.0489  0.4244 -0.4765
24043SOL    HW173570   0.334   5.434   9.275  0.2308  0.3116 -0.3800
24043SOL    HW273571   0.313   5.516   9.149 -0.6408 -0.0933 -0.5051
24044SOL     OW73572   7.609   1.473  11.865 -0.2966  0.6692  0.5353
24044SOL    HW173573   7.675   1.539  11.842 -0.0660  1.0764  2.2444
24044SOL    HW273574   7.553   1.517  11.929  0.9377 -1.3090  3.1489
24045SOL     OW73575   3.970   7.300   4.825  0.2407  0.4944 -0.4891
24045SOL    HW173576   4.004   7.243   4.893 -1.0010 -0.2676 -0.4759
24045SOL    HW273577   4.005   7.264   4.743 -0.5193 -0.2878 -0.4786
24046SOL     OW73578   2.959   5.075   1.581 -0.3559 -0.9049 -0.4474
24046SOL    HW173579   3.054   5.079   1.589 -0.3233 -1.7594 -0.2388
24046SOL    HW273580   2.944   5.023   1.502 -0.6731  1.1064 -1.7893
24047SOL     OW73581   6.451   0.986   4.244  0.4398  0.1837 -0.4693
24047SOL    HW173582   6.498   1.055   4.197  1.3900  0.4771  0.8573
24047SOL    HW273583   6.374   0.968   4.190  2.5092 -1.0075 -3.2318
24048SOL     OW73584   7.488   6.196  11.483  0.1688 -0.0677  0.7949
24048SOL    HW173585   7.395   6.173  11.487 -0.1519  1.3711  2.2265
24048SOL    HW273586   7.507   6.234  11.568  2.1251 -0.4518  0.5647
24049SOL     OW73587   1.612   7.782   6.643  0.6144  0.1875  0.0015
24049SOL    HW173588   1.704   7.760   6.657  0.4407 -0.2148  0.5402
24049SOL    HW273589   1.604   7.873   6.672  1.0961  0.6238 -1.1770
24050SOL     OW73590   6.246   4.944   3.706  0.7522 -1.0049 -0.0095
24050SOL    HW173591   6.261   4.979   3.794  0.1653 -2.8398  0.8744
24050SOL    HW273592   6.168   4.991   3.674  1.3328  0.1173  0.1586
24051SOL     OW73593   1.914   6.286   0.947  0.0308 -0.3628 -0.1382
24051SOL    HW173594   1.932   6.286   0.853 -0.7356 -0.3690 -0.2950
24051SOL    HW273595   1.992   6.323   0.987  0.6024 -0.8971 -0.7316
24052SOL     OW73596   2.695   7.871   4.141 -0.2162  0.0903 -0.3268
24052SOL    HW173597   2.701   7.952   4.092 -0.4429 -0.0315 -0.5571
24052SOL    HW273598   2.601   7.860   4.158 -0.3363 -0.7871 -1.4152
24053SOL     OW73599   0.348   0.615   0.250  0.0914  0.2739  0.2832
24053SOL    HW173600   0.396   0.688   0.212  0.8129  0.3663  1.3575
24053SOL    HW273601   0.257   0.629   0.223  0.2352  1.5252  0.4205
24054SOL     OW73602   4.024   7.964   1.839  0.3918 -0.9983  0.1551
24054SOL    HW173603   4.017   7.950   1.934 -0.6543  1.7496  0.6034
24054SOL    HW273604   4.118   7.970   1.822  0.5883 -1.4827  1.0309
24055SOL     OW73605   0.370   0.415   4.984  0.4591  0.5872  0.4369
24055SOL    HW173606   0.342   0.461   4.905  1.7219 -0.2208 -0.5190
24055SOL    HW273607   0.402   0.485   5.042 -0.5316  1.1946  0.2730
24056SOL     OW73608   2.673   2.381  11.777  0.1583  0.2451  0.3945
24056SOL    HW173609   2.765   2.385  11.752 -0.1411 -1.5557 -1.2047
24056SOL    HW273610   2.626   2.367  11.695 -1.4437 -0.0093  1.3037
24057SOL     OW73611   0.465   4.827   2.891  0.4075  0.2945 -0.3497
24057SOL    HW173612   0.496   4.742   2.922  0.0876  0.3089  0.0145
24057SOL    HW273613   0.375   4.833   2.923 -0.0140  0.2139 -1.4781
24058SOL     OW73614   5.769   5.696   3.724  0.4558 -0.4484  0.0094
24058SOL    HW173615   5.725   5.663   3.802  0.6416 -0.0494  0.2824
24058SOL    HW273616   5.778   5.619   3.667 -0.8019 -0.5049 -0.1537
24059SOL     OW73617   2.239   7.003   5.902 -0.3925  0.5234  0.0551
24059SOL    HW173618   2.149   7.020   5.874 -0.9594 -1.5268  0.4653
24059SOL    HW273619   2.274   6.945   5.835  0.2897  0.4776  0.4420
24060SOL     OW73620   4.527   0.097   4.015 -0.0226 -0.3611 -0.3984
24060SOL    HW173621   4.527   0.142   4.099 -0.7858 -1.2132  0.0919
24060SOL    HW273622   4.573   0.155   3.955  0.9012  0.0740  0.7064
24061SOL     OW73623   1.203   2.218   8.708 -0.4478  0.3039 -0.3761
24061SOL    HW173624   1.109   2.223   8.693 -0.5303  0.7966  0.2303
24061SOL    HW273625   1.242   2.212   8.621 -1.0895 -1.0420 -0.5916
24062SOL     OW73626   0.602   0.516   0.296 -0.4256  0.3962  0.2774
24062SOL    HW173627   0.636   0.595   0.337 -2.3250  1.1925  0.4235
24062SOL    HW273628   0.512   0.538   0.271 -0.8474 -1.5539 -0.1371
24063SOL     OW73629   6.759   0.865   8.471 -0.0241 -0.2367  0.4642
24063SOL    HW173630   6.829   0.803   8.451  2.0518  1.6057  1.6333
24063SOL    HW273631   6.734   0.845   8.561 -0.5825 -0.4499  0.2722
24064SOL     OW73632   5.068   5.739   4.469  0.3751  0.2833 -0.1819
24064SOL    HW173633   5.107   5.655   4.491 -0.7195 -0.5559 -1.2780
24064SOL    HW273634   5.052   5.734   4.375 -0.6377  1.3107 -0.0901
24065SOL     OW73635   7.452   4.277  10.039  0.1993  0.5092 -0.1008
24065SOL    HW173636   7.540   4.242  10.054  0.6887  0.9199 -1.7570
24065SOL    HW273637   7.406   4.262  10.121  1.0032 -2.1335 -0.0348
24066SOL     OW73638   3.690   2.129   9.370  0.0059 -0.5095 -0.0076
24066SOL    HW173639   3.745   2.117   9.447  1.3013 -0.8616 -0.9717
24066SOL    HW273640   3.743   2.181   9.310 -1.3462  0.5799 -0.3188
24067SOL     OW73641   2.203   6.182   9.747 -0.1566  0.3526  0.2258
24067SOL    HW173642   2.117   6.164   9.709 -0.8615  1.3610  1.2572
24067SOL    HW273643   2.250   6.099   9.740 -1.9279 -0.8261  1.4346
24068SOL     OW73644   6.419   3.143  10.546 -0.4883  0.0218  0.1006
24068SOL    HW173645   6.447   3.233  10.529 -3.0172  0.6133 -1.6287
24068SOL    HW273646   6.431   3.131  10.640  0.8051  1.8162  0.2094
24069SOL     OW73647   4.418   0.658   0.749 -0.0005 -0.5210  0.2250
24069SOL    HW173648   4.366   0.732   0.779  1.0657 -0.2025  1.3558
24069SOL    HW273649   4.375   0.629   0.668 -0.4015  1.3474 -0.2685
24070SOL     OW73650   2.045   2.618   9.558 -0.1584  1.0579  0.0090
24070SOL    HW173651   2.012   2.706   9.573  2.9303  2.2805  0.3850
24070SOL    HW273652   2.114   2.629   9.491 -0.2534 -1.2154 -0.5727
24071SOL     OW73653   2.907   6.852   6.766 -0.3531 -0.1295  0.7322
24071SOL    HW173654   2.813   6.841   6.781 -0.5919 -1.0356 -1.2136
24071SOL    HW273655   2.929   6.786   6.700  1.3941  0.9344  0.1955
24072SOL     OW73656   1.202   2.022  11.550  0.1811  0.5043  0.5872
24072SOL    HW173657   1.258   1.957  11.593 -0.8608 -0.4559  0.5478
24072SOL    HW273658   1.239   2.030  11.462  0.0793 -0.3702  0.4527
24073SOL     OW73659   4.629   7.325   5.181  0.3451 -0.0165  0.1937
24073SOL    HW173660   4.631   7.382   5.104  1.7500 -0.7665 -0.3677
24073SOL    HW273661   4.650   7.238   5.147 -3.4401 -1.3391  0.7524
24074SOL     OW73662   3.939   5.961  10.314  0.2502  0.1295  0.2393
24074SOL    HW173663   3.949   5.951  10.409 -1.2228 -0.9914  0.3112
24074SOL    HW273664   3.846   5.974  10.300  0.1336 -1.7556 -1.1763
24075SOL     OW73665   7.867   0.671  10.687 -0.3658 -0.5366 -0.2884
24075SOL    HW173666   7.829   0.727  10.620  1.6534  2.0941  0.5942
24075SOL    HW273667   7.807   0.677  10.762  0.4150  1.5949  0.2386
24076SOL     OW73668   2.799   5.163  10.598 -0.2785 -0.4524  0.3797
24076SOL    HW173669   2.787   5.068  10.596  1.3637 -0.6845 -0.1888
24076SOL    HW273670   2.877   5.176  10.652  0.3175  0.4587 -0.6547
24077SOL     OW73671   4.398   6.991   0.970  0.5871  0.0860 -0.1011
24077SOL    HW173672   4.386   6.957   1.058  1.2479 -0.8357 -0.3505
24077SOL    HW273673   4.426   7.082   0.983  0.9622 -0.1292  0.6562
24078SOL     OW73674   3.403   0.854   4.631  0.2438  0.2075  0.0676
24078SOL    HW173675   3.380   0.789   4.698 -0.9262 -0.3776 -0.8731
24078SOL    HW273676   3.386   0.810   4.548  1.2505  1.0800 -0.6162
24079SOL     OW73677   0.887   6.887  12.290 -0.3404 -0.4707 -0.5713
24079SOL    HW173678   0.935   6.806  12.303  1.0906  0.1720 -1.5957
24079SOL    HW273679   0.902   6.937  12.370 -1.3512 -1.2541  0.1236
24080SOL     OW73680   2.603   0.400   6.021 -0.7490  0.2257  0.2775
24080SOL    HW173681   2.644   0.402   5.935 -0.6038 -1.5465  0.2722
24080SOL    HW273682   2.647   0.469   6.071  2.7602 -1.8912  0.4737
24081SOL     OW73683   6.851   0.034   3.331  0.1417 -0.1491 -0.2241
24081SOL    HW173684   6.855  -0.054   3.292  1.9514 -0.2146  0.0288
24081SOL    HW273685   6.935   0.044   3.376 -0.8920  0.8967  1.5735
24082SOL     OW73686   1.162   3.772   4.642  0.5267 -0.5361  0.2774
24082SOL    HW173687   1.156   3.793   4.549  1.1717 -1.5831 -0.0205
24082SOL    HW273688   1.228   3.703   4.646  0.5066 -0.4922  1.5159
24083SOL     OW73689   2.491   7.976   4.566  0.1365  0.7396 -0.2875
24083SOL    HW173690   2.482   7.908   4.632 -1.2395  1.5160  0.3853
24083SOL    HW273691   2.583   8.002   4.570  0.0122  1.0302  1.6141
24084SOL     OW73692   2.983   5.200  10.352 -0.6327  0.4926 -0.0002
24084SOL    HW173693   2.914   5.195  10.419 -0.1351 -0.7897  0.4429
24084SOL    HW273694   2.940   5.170  10.272 -1.0233  1.2945 -0.1015
24085SOL     OW73695   4.216   1.587   0.551  0.2823 -0.1571 -0.0783
24085SOL    HW173696   4.196   1.668   0.598  1.2019  0.5015 -0.7806
24085SOL    HW273697   4.300   1.604   0.509  1.1955 -1.9941  0.9016
24086SOL     OW73698   3.773   6.618   7.973 -0.3020  0.3334 -0.0367
24086SOL    HW173699   3.690   6.661   7.954 -0.6643 -0.5953 -0.6390
24086SOL    HW273700   3.766   6.591   8.064 -0.0287  1.6065  0.3816
24087SOL     OW73701   4.021   6.505   0.776 -0.1572  0.0964  0.4100
24087SOL    HW173702   3.940   6.459   0.756 -1.0524  1.1627  1.3924
24087SOL    HW273703   4.006   6.595   0.745  1.7604 -0.3033 -2.0145
24088SOL     OW73704   3.394   0.959  10.669 -0.2369 -0.4361 -0.0448
24088SOL    HW173705   3.454   0.899  10.625  0.3155 -1.2314  1.7215
24088SOL    HW273706   3.414   1.045  10.631 -1.2827 -1.3117 -2.8692
24089SOL     OW73707   7.625   0.595  10.989 -0.3400  0.0363  0.3873
24089SOL    HW173708   7.622   0.503  10.963  1.4726  0.5619 -2.0064
24089SOL    HW273709   7.537   0.628  10.971 -0.6251 -0.9088 -0.0157
24090SOL     OW73710   2.513   1.993   2.650  0.1588  0.5708 -1.0585
24090SOL    HW173711   2.529   1.899   2.653  0.8070  0.6968  0.1862
24090SOL    HW273712   2.543   2.025   2.735 -2.6140  1.5113 -0.3243
24091SOL     OW73713   1.693   0.647   2.723  0.3782  0.5126 -0.1687
24091SOL    HW173714   1.631   0.703   2.678  0.2924  1.8293  1.4701
24091SOL    HW273715   1.688   0.674   2.815  2.7503  0.1124  0.1623
24092SOL     OW73716   5.551   6.116   0.948  0.7436  0.3175  0.9447
24092SOL    HW173717   5.546   6.110   1.044 -0.9109  0.6212  0.9174
24092SOL    HW273718   5.465   6.086   0.919  1.0539  0.7149 -0.4251
24093SOL     OW73719   0.883   7.788  11.605  0.0055  0.1282 -0.4346
24093SOL    HW173720   0.824   7.756  11.674 -0.2304  1.0336 -0.2061
24093SOL    HW273721   0.958   7.822  11.652  0.4984 -0.5563 -0.7058
24094SOL     OW73722   5.611   1.844   5.091  0.3549 -0.3401 -0.0428
24094SOL    HW173723   5.627   1.925   5.139  0.4633  0.1144 -0.8377
24094SOL    HW273724   5.678   1.784   5.124  1.0254  0.2555 -0.2971
24095SOL     OW73725   0.593   2.210   5.887 -0.1355 -0.2622 -0.0462
24095SOL    HW173726   0.672   2.181   5.842  0.3379  0.7464  0.1098
24095SOL    HW273727   0.625   2.249   5.968 -0.6667  1.3497 -0.5755
24096SOL     OW73728   7.552   4.719   7.636  0.3859  0.3470  0.6899
24096SOL    HW173729   7.521   4.656   7.571 -1.7821 -1.4766  3.2668
24096SOL    HW273730   7.480   4.781   7.646  1.0685  1.1467  0.7370
24097SOL     OW73731   4.654   6.802   5.049 -0.1012  0.3173  0.2061
24097SOL    HW173732   4.739   6.794   5.092 -0.0929 -0.6130  0.0340
24097SOL    HW273733   4.591   6.776   5.115 -0.0856 -1.1598 -0.3281
24098SOL     OW73734   1.174   7.541   0.615 -0.8186  0.3671 -0.1459
24098SOL    HW173735   1.121   7.462   0.621 -2.5847  1.4594 -0.6317
24098SOL    HW273736   1.256   7.513   0.574 -1.6143 -1.1091 -0.7863
24099SOL     OW73737   0.519   4.047   4.551 -1.0146  0.3135 -0.1911
24099SOL    HW173738   0.507   4.099   4.630 -1.9539  0.2945 -0.3100
24099SOL    HW273739   0.584   4.096   4.500 -2.2715  1.7048 -0.5553
24100SOL     OW73740   5.533   4.485   6.337  0.1421  0.1572  0.4405
24100SOL    HW173741   5.464   4.486   6.271  0.5038  2.0079  0.0273
24100SOL    HW273742   5.567   4.575   6.338  2.6271 -0.6967  0.5409
24101SOL     OW73743   5.500   4.630   0.017 -0.0426  0.2084 -0.1726
24101SOL    HW173744   5.558   4.706   0.021  1.4851 -0.8152 -1.3528
24101SOL    HW273745   5.526   4.585  -0.063 -2.3369 -0.4665 -0.6046
24102SOL     OW73746   7.739   1.291  11.127 -0.6121 -0.1110  0.4210
24102SOL    HW173747   7.817   1.259  11.172 -0.9601  1.4429  2.2632
24102SOL    HW273748   7.678   1.218  11.131  0.2944 -0.9221  0.0436
24103SOL     OW73749   1.650   1.768   3.165  0.6831 -0.6308  0.3642
24103SOL    HW173750   1.592   1.738   3.095 -0.3368  0.0138  0.9013
24103SOL    HW273751   1.730   1.797   3.120 -0.7376  1.7931 -0.8044
24104SOL     OW73752   1.311   1.072  11.278  0.6764  0.4158  0.1311
24104SOL    HW173753   1.396   1.029  11.289  0.5694  0.3416  0.7047
24104SOL    HW273754   1.305   1.133  11.351  0.7739  1.3411 -0.6038
24105SOL     OW73755   6.921   1.594   5.172 -0.2418 -0.1143 -0.3546
24105SOL    HW173756   6.971   1.638   5.241 -1.2393  0.9462 -0.2895
24105SOL    HW273757   6.987   1.568   5.108  0.3156  2.6069 -1.0226
24106SOL     OW73758   0.545   5.614   5.712 -0.2315  0.2461  0.0665
24106SOL    HW173759   0.575   5.696   5.751 -1.3337  1.2653 -1.1246
24106SOL    HW273760   0.450   5.616   5.722 -0.2853 -0.7809 -0.1650
24107SOL     OW73761   1.350   3.207   6.568  0.0832  0.3305 -0.0572
24107SOL    HW173762   1.327   3.179   6.480 -2.1467  1.4414  0.1106
24107SOL    HW273763   1.365   3.301   6.560  0.4280  0.3468  0.6650
24108SOL     OW73764   4.173   5.452   5.534 -0.0983  0.2469 -0.1229
24108SOL    HW173765   4.181   5.531   5.588 -0.6730 -0.0269  0.3736
24108SOL    HW273766   4.245   5.396   5.562 -0.6622 -0.0823  0.6856
24109SOL     OW73767   4.792   4.254  11.614  0.3932  0.7631  0.3137
24109SOL    HW173768   4.757   4.274  11.701  0.6588  1.2501  0.3165
24109SOL    HW273769   4.778   4.160  11.603  0.8133  0.5996  1.0874
24110SOL     OW73770   7.571   0.348   5.877 -0.3040 -0.3136  0.0698
24110SOL    HW173771   7.651   0.392   5.847 -0.0587 -0.4839  0.4683
24110SOL    HW273772   7.570   0.265   5.829 -1.0577  0.3378 -1.1056
24111SOL     OW73773   0.232   2.062   7.530 -0.5794  0.2796 -0.8373
24111SOL    HW173774   0.157   2.103   7.573  1.0086  0.7312  1.6986
24111SOL    HW273775   0.195   1.983   7.490 -2.0804 -0.8985  2.4948
24112SOL     OW73776   7.713   7.414   1.647  0.0592 -0.6277 -0.4277
24112SOL    HW173777   7.745   7.439   1.734 -0.1853 -0.9717 -0.2343
24112SOL    HW273778   7.636   7.470   1.633  1.0120  0.5510 -1.1042
24113SOL     OW73779   2.693   3.567  11.517  0.2231  0.3168 -0.0801
24113SOL    HW173780   2.690   3.657  11.550  2.1714  0.1289  0.7290
24113SOL    HW273781   2.610   3.528  11.546 -0.4590  1.7027 -0.0707
24114SOL     OW73782   3.828   0.173   5.061  0.4227 -0.9665 -0.1938
24114SOL    HW173783   3.913   0.130   5.047  0.0391 -2.0559  0.6572
24114SOL    HW273784   3.833   0.206   5.151  0.0948 -0.6655 -0.2846
24115SOL     OW73785   2.698   3.299   1.259 -0.1416  0.0026  0.2084
24115SOL    HW173786   2.767   3.315   1.324  1.8442 -0.2850 -1.7256
24115SOL    HW273787   2.665   3.212   1.280  0.8648 -0.3226  0.5105
24116SOL     OW73788   3.142   1.963   2.843 -0.1706  0.0698 -0.8562
24116SOL    HW173789   3.137   2.057   2.823  0.1066  0.2906  0.0416
24116SOL    HW273790   3.193   1.926   2.771  0.8032  0.8258 -0.5780
24117SOL     OW73791   2.597   2.473  10.448  0.0555 -0.2977  0.0104
24117SOL    HW173792   2.569   2.454  10.358 -0.8544 -0.7947  0.3873
24117SOL    HW273793   2.547   2.551  10.473  1.2381  0.6057 -0.3318
24118SOL     OW73794   1.201   4.444  10.533 -0.2805 -0.5103 -0.1584
24118SOL    HW173795   1.114   4.483  10.543  0.1109  0.3015  0.2059
24118SOL    HW273796   1.213   4.436  10.439 -1.0270 -1.2738 -0.1914
24119SOL     OW73797   0.988   5.098   7.073  0.0912 -0.0995 -0.0484
24119SOL    HW173798   0.964   5.018   7.026  1.1765 -0.5606  0.1538
24119SOL    HW273799   0.978   5.075   7.166  1.9273 -0.5251  0.0643
24120SOL     OW73800   3.429   4.252   5.934  0.1218 -0.1610  0.4150
24120SOL    HW173801   3.380   4.171   5.922 -1.2126  0.8216 -1.2183
24120SOL    HW273802   3.386   4.296   6.008 -0.7037  0.1220 -0.2190
24121SOL     OW73803   5.003   4.453   1.855 -0.9784 -0.0448  0.0209
24121SOL    HW173804   5.082   4.415   1.892 -0.3509  0.6790 -0.5229
24121SOL    HW273805   4.972   4.514   1.922  0.9418  2.3279 -1.0738
24122SOL     OW73806   4.854   0.178   7.630 -0.8738 -0.1368  0.0341
24122SOL    HW173807   4.908   0.244   7.673 -0.3614 -0.4500 -0.1245
24122SOL    HW273808   4.841   0.110   7.696  0.4845 -0.9463 -0.4896
24123SOL     OW73809   6.718   4.329   6.844  0.7452 -0.2610 -0.5584
24123SOL    HW173810   6.665   4.392   6.893  1.0837  1.1593 -1.9342
24123SOL    HW273811   6.654   4.265   6.810  0.3359 -0.4013  0.4401
24124SOL     OW73812   1.044   0.181   2.763  0.5126 -0.4186  0.2796
24124SOL    HW173813   1.059   0.087   2.756  3.6760 -0.2225  2.4610
24124SOL    HW273814   1.073   0.203   2.852 -0.8151  2.5288  0.0867
24125SOL     OW73815   6.629   6.613   1.843 -0.8369  0.1653 -0.0213
24125SOL    HW173816   6.633   6.568   1.759 -2.7114  0.6469 -0.4121
24125SOL    HW273817   6.720   6.620   1.870 -0.0179  1.2953 -2.7188
24126SOL     OW73818   7.270   6.689   9.415  0.2900 -0.7601  0.0678
24126SOL    HW173819   7.364   6.701   9.404  0.4602 -0.7701  1.3667
24126SOL    HW273820   7.249   6.738   9.495 -0.6970 -1.2875  0.1414
24127SOL     OW73821   6.092   6.861   3.836  0.4024 -0.7753 -0.3008
24127SOL    HW173822   6.150   6.924   3.793  0.9434 -1.3636 -0.4366
24127SOL    HW273823   6.014   6.912   3.858  1.3832  0.2887  0.8556
24128SOL     OW73824   4.551   6.503   2.603 -0.2790  0.0191 -0.0228
24128SOL    HW173825   4.475   6.532   2.552 -1.0683  0.0146  1.1114
24128SOL    HW273826   4.616   6.478   2.537 -0.6772  1.4851 -1.0316
24129SOL     OW73827   7.684   7.427   9.333 -0.4006  0.1349 -0.6108
24129SOL    HW173828   7.646   7.457   9.416 -1.9547 -0.0974 -1.1924
24129SOL    HW273829   7.660   7.335   9.328 -0.3190  0.1450 -1.3032
24130SOL     OW73830   2.678   0.582   6.776  0.0817 -0.4583  0.2927
24130SOL    HW173831   2.589   0.599   6.747  0.4019 -1.0630 -1.1078
24130SOL    HW273832   2.712   0.517   6.714  1.1365 -1.0553  1.4483
24131SOL     OW73833   0.564   1.824   0.711  0.1661 -0.1067 -0.1387
24131SOL    HW173834   0.637   1.868   0.755  0.4964  0.9811 -1.7131
24131SOL    HW273835   0.594   1.734   0.700  1.0539  0.1871 -0.2612
24132SOL     OW73836   2.706   2.683   2.159  0.5109  0.6396  0.8329
24132SOL    HW173837   2.754   2.702   2.079 -1.1626  2.4437  0.1653
24132SOL    HW273838   2.658   2.603   2.140  2.2778 -0.5390  1.1072
24133SOL     OW73839   3.102   3.283   1.146  0.3184  0.6432  0.4590
24133SOL    HW173840   3.177   3.316   1.195 -0.4948  1.1237  1.4057
24133SOL    HW273841   3.048   3.360   1.130  0.5857  0.5138 -1.2697
24134SOL     OW73842   0.155   1.692  10.732 -0.2840  0.3511 -0.2730
24134SOL    HW173843   0.232   1.637  10.750  0.4937  0.1892 -3.4791
24134SOL    HW273844   0.180   1.778  10.766  0.0909 -0.3209  1.2751
24135SOL     OW73845   4.080   0.513   8.884 -0.3169  0.5005  1.1562
24135SOL    HW173846   4.029   0.498   8.963 -1.9343  0.4211  0.1522
24135SOL    HW273847   4.030   0.580   8.836 -0.0199 -0.3131 -0.3354
24136SOL     OW73848   6.361   6.038   8.933 -0.3343 -0.3969 -0.3526
24136SOL    HW173849   6.437   5.982   8.950  0.8940  0.8360 -1.4601
24136SOL    HW273850   6.300   6.019   9.004 -0.4688 -3.8827 -1.2526
24137SOL     OW73851   6.073   2.072  11.102  0.1941 -0.2580 -0.1596
24137SOL    HW173852   6.138   2.019  11.147  0.7603  0.5684 -0.0035
24137SOL    HW273853   6.121   2.148  11.070 -0.7503  0.5127  0.2159
24138SOL     OW73854   6.030   7.149  11.674  0.3901  0.6219 -0.2692
24138SOL    HW173855   5.950   7.106  11.646  0.6878 -0.7523  0.8968
24138SOL    HW273856   6.030   7.232  11.626 -1.0659  0.0959 -1.2655
24139SOL     OW73857   5.088   6.167   7.444  0.1376 -0.5926  0.3727
24139SOL    HW173858   4.999   6.195   7.423  0.6417  1.3769  0.6924
24139SOL    HW273859   5.102   6.091   7.387 -0.9694  0.4228 -1.3857
24140SOL     OW73860   7.692   1.522  11.396  0.1101 -0.1044 -0.4849
24140SOL    HW173861   7.746   1.457  11.352 -0.8467 -0.8632 -0.5579
24140SOL    HW273862   7.747   1.601  11.398  1.3712 -0.9572 -0.1970
24141SOL     OW73863   0.363   5.217  10.258  0.3651 -0.0798 -0.0186
24141SOL    HW173864   0.316   5.152  10.311  0.6051 -0.8546 -0.7259
24141SOL    HW273865   0.445   5.232  10.306  1.1169 -1.6627 -0.7215
24142SOL     OW73866   6.944   0.501   5.810  0.5511  0.2705  0.0645
24142SOL    HW173867   6.896   0.535   5.885 -0.8213  0.7680 -0.9962
24142SOL    HW273868   6.895   0.531   5.734  0.8500 -1.7684 -1.0153
24143SOL     OW73869   2.446   2.605   3.102  0.0044  0.5517 -0.5356
24143SOL    HW173870   2.507   2.670   3.135  0.1143  0.7882 -1.1817
24143SOL    HW273871   2.498   2.525   3.094  0.0969  0.6173 -0.5896
24144SOL     OW73872   6.434   7.430  12.087  0.1014 -0.2803  0.3799
24144SOL    HW173873   6.390   7.440  12.171 -0.0576 -0.2862  0.2969
24144SOL    HW273874   6.525   7.457  12.105 -0.4624  2.0524  0.0179
24145SOL     OW73875   4.817   4.068  12.014  0.3312  0.3318 -0.2467
24145SOL    HW173876   4.830   4.145  12.069 -2.1004  0.6602 -0.0451
24145SOL    HW273877   4.722   4.057  12.010  0.5611 -1.5315 -1.8476
24146SOL     OW73878   2.130   5.051   8.972 -0.2227 -0.4030 -0.2482
24146SOL    HW173879   2.071   5.003   8.914 -0.3218 -2.4924  1.4414
24146SOL    HW273880   2.217   5.032   8.938 -0.3240 -0.9624 -0.2164
24147SOL     OW73881   3.048   6.668  11.929 -0.0400 -0.5735  0.3356
24147SOL    HW173882   3.129   6.686  11.881 -0.2343 -2.9010 -1.0354
24147SOL    HW273883   3.008   6.754  11.940  1.0847  0.3282 -1.8084
24148SOL     OW73884   0.370   3.017   1.004 -0.4455  0.1005  0.2744
24148SOL    HW173885   0.449   3.070   0.990 -1.5133  2.7491  3.1516
24148SOL    HW273886   0.310   3.044   0.936 -0.5778  1.8712  1.0573
24149SOL     OW73887   6.322   1.251   5.136 -0.7006  0.5929  0.7749
24149SOL    HW173888   6.323   1.303   5.056  1.9017 -1.4314 -0.6419
24149SOL    HW273889   6.359   1.310   5.202 -0.8325  1.5811  0.0002
24150SOL     OW73890   7.038   6.412   8.360  0.0911 -0.3317  0.1360
24150SOL    HW173891   7.000   6.333   8.398 -1.5683  0.9938  1.3786
24150SOL    HW273892   6.982   6.432   8.285 -0.5759  0.5860  0.8540
24151SOL     OW73893   7.208   5.798   7.246  0.4669 -0.7781 -0.1387
24151SOL    HW173894   7.262   5.816   7.168 -1.8486 -0.1405 -1.6855
24151SOL    HW273895   7.221   5.705   7.263  1.2803 -0.8516 -1.0767
24152SOL     OW73896   5.821   0.293   7.057 -0.4066 -0.1503 -0.0911
24152SOL    HW173897   5.821   0.212   7.006 -0.6886  0.5684 -1.2717
24152SOL    HW273898   5.903   0.291   7.105 -0.8209 -1.5603  0.6113
24153SOL     OW73899   0.627   3.751   8.807 -0.1983 -0.3637  0.5458
24153SOL    HW173900   0.561   3.814   8.837  0.4470  0.0570  1.0964
24153SOL    HW273901   0.696   3.755   8.873 -0.2335 -1.8123  0.7081
24154SOL     OW73902   5.562   2.177   3.310  0.2066 -0.1860  0.5370
24154SOL    HW173903   5.654   2.203   3.309  0.1493  0.0312 -0.5995
24154SOL    HW273904   5.518   2.248   3.357  0.0956  1.7505 -2.2622
24155SOL     OW73905   3.446   3.653   3.094 -0.4725  0.2558  0.0220
24155SOL    HW173906   3.513   3.615   3.151  1.5768  0.7585 -1.9099
24155SOL    HW273907   3.454   3.748   3.108 -0.5840  0.3326 -0.4471
24156SOL     OW73908   5.817   2.999   1.571 -0.0348 -0.4670 -0.1896
24156SOL    HW173909   5.763   2.968   1.499 -0.7311  0.7501 -0.2256
24156SOL    HW273910   5.906   3.000   1.535 -0.6021  2.0791 -1.7980
24157SOL     OW73911   7.841   3.009   9.047 -0.0003 -0.0593  0.5111
24157SOL    HW173912   7.847   3.050   8.960  1.2774 -1.7319 -0.2355
24157SOL    HW273913   7.823   2.917   9.029 -1.2273 -0.1778  2.1048
24158SOL     OW73914   4.813   7.552   1.634  0.1655 -0.8021  0.5585
24158SOL    HW173915   4.841   7.552   1.543 -1.0747  1.3861  0.0869
24158SOL    HW273916   4.731   7.503   1.634 -0.0656 -0.4272  0.3747
24159SOL     OW73917   6.048   5.161   3.430 -0.3031 -0.1385  0.4253
24159SOL    HW173918   6.065   5.125   3.343  2.0557  1.7822 -0.0252
24159SOL    HW273919   5.965   5.207   3.421  1.0387  2.1337 -1.6409
24160SOL     OW73920   3.269   6.958  10.680 -0.4588  0.4185  0.3894
24160SOL    HW173921   3.214   6.948  10.603 -0.6570 -1.6098  0.7414
24160SOL    HW273922   3.323   6.879  10.682  0.2386  0.8897  1.7890
24161SOL     OW73923   0.977   7.335   5.038 -0.1046  0.9220  0.0143
24161SOL    HW173924   0.919   7.308   4.967 -1.0643  0.8634  0.7996
24161SOL    HW273925   0.918   7.359   5.110  0.8441  0.5357  0.9566
24162SOL     OW73926   4.804   6.591  10.229  0.2512 -0.6305 -0.5309
24162SOL    HW173927   4.862   6.662  10.257 -0.0092 -0.1779 -1.1214
24162SOL    HW273928   4.812   6.590  10.134 -1.9874  0.5745 -0.7963
24163SOL     OW73929   4.916   5.446   3.584 -0.4117 -0.3532  0.2437
24163SOL    HW173930   4.951   5.489   3.506  0.2263 -1.1956  0.0448
24163SOL    HW273931   4.944   5.355   3.576 -1.8015 -0.8459  0.6034
24164SOL     OW73932   0.658   5.270   4.682 -0.3905 -0.0308 -0.0771
24164SOL    HW173933   0.578   5.240   4.638 -0.2761 -1.2611  0.5056
24164SOL    HW273934   0.663   5.364   4.662 -0.3673 -0.5044 -2.6554
24165SOL     OW73935   1.977   3.557   6.170 -0.3520 -0.2035  0.0286
24165SOL    HW173936   2.067   3.574   6.198 -0.3792 -2.3524  1.6780
24165SOL    HW273937   1.961   3.466   6.194 -2.3163 -0.5234 -2.1098
24166SOL     OW73938   3.860   4.777   4.332  0.0440 -0.3180 -0.4311
24166SOL    HW173939   3.913   4.839   4.382  0.5418 -0.3057 -0.9571
24166SOL    HW273940   3.917   4.701   4.320  0.1923 -0.0492 -1.5676
24167SOL     OW73941   0.383   0.960   3.305 -0.1694  0.4432 -0.2112
24167SOL    HW173942   0.391   1.055   3.305  0.0379  0.4274 -0.1956
24167SOL    HW273943   0.303   0.942   3.353 -0.2029  0.6094 -0.2044
24168SOL     OW73944   6.260   4.532   8.691  0.3128  0.2840 -0.0122
24168SOL    HW173945   6.280   4.451   8.737  1.0170 -0.1223 -0.9971
24168SOL    HW273946   6.216   4.503   8.611  0.9883  0.8297 -0.5941
24169SOL     OW73947   5.936   2.222   2.237  0.0618 -0.6305 -0.2586
24169SOL    HW173948   5.950   2.189   2.148  0.2000  2.9478 -1.7391
24169SOL    HW273949   6.013   2.276   2.254 -0.0759 -1.0487  2.0116
24170SOL     OW73950   5.513   0.356   2.372 -0.3285 -0.3337  0.1967
24170SOL    HW173951   5.543   0.333   2.460 -1.1088 -1.8440  0.0967
24170SOL    HW273952   5.533   0.279   2.319 -1.4600 -0.1272 -0.5710
24171SOL     OW73953   0.050   7.818   1.602 -0.2306 -0.3607 -0.0241
24171SOL    HW173954   0.102   7.774   1.669  0.1112 -0.9010 -0.6298
24171SOL    HW273955   0.010   7.892   1.647  1.0646  0.0688  0.4580
24172SOL     OW73956   2.795   5.893   7.582 -0.2253 -0.0363  0.6162
24172SOL    HW173957   2.707   5.918   7.612 -0.8430 -1.0755 -0.2486
24172SOL    HW273958   2.834   5.849   7.657 -0.8442 -0.4704  0.6963
24173SOL     OW73959   6.565   3.568   3.541 -0.3795  0.2049 -0.4459
24173SOL    HW173960   6.493   3.538   3.485  0.1469 -0.8873 -0.5477
24173SOL    HW273961   6.556   3.517   3.621  0.3146  0.0273 -0.4796
24174SOL     OW73962   7.850   6.224   3.608 -0.3220 -0.7010  0.7160
24174SOL    HW173963   7.828   6.241   3.700  0.6142  1.9432  0.5488
24174SOL    HW273964   7.939   6.260   3.598 -1.3870  1.6259 -1.7795
24175SOL     OW73965   1.519   0.449  11.085  0.0680 -0.2071  0.7453
24175SOL    HW173966   1.476   0.490  11.010 -1.4315 -1.3101  0.9673
24175SOL    HW273967   1.600   0.412  11.049  0.1791  0.6927  0.0345
24176SOL     OW73968   1.890   4.935   7.564 -0.4687 -0.1277 -0.6826
24176SOL    HW173969   1.870   4.898   7.650  0.5401  1.4024  0.2607
24176SOL    HW273970   1.941   4.867   7.520  0.6449 -0.2340  0.6968
24177SOL     OW73971   2.545   1.846   1.412 -0.3027 -0.1457 -0.6735
24177SOL    HW173972   2.611   1.877   1.350 -0.6239  4.1748  0.8284
24177SOL    HW273973   2.469   1.901   1.396 -1.9351 -1.8128  0.7853
24178SOL     OW73974   6.939   1.976   9.086  0.5514  0.1364  0.2296
24178SOL    HW173975   6.969   2.065   9.108 -0.3110  0.2530  0.9900
24178SOL    HW273976   6.995   1.950   9.012  2.1579  0.5342  1.2493
24179SOL     OW73977   3.804   0.028  10.593  0.2557 -0.2691 -0.4878
24179SOL    HW173978   3.747   0.087  10.543 -0.6701 -1.0008 -0.3135
24179SOL    HW273979   3.785   0.048  10.685  0.6859 -0.1426 -0.4227
24180SOL     OW73980   5.475   3.979   8.766 -0.3119  0.4089 -0.5115
24180SOL    HW173981   5.534   3.967   8.691  0.0906  0.5684 -0.2245
24180SOL    HW273982   5.388   3.975   8.729 -0.1080  1.3168 -1.1190
24181SOL     OW73983   0.484   5.582   2.647 -0.3979 -0.5470  0.3030
24181SOL    HW173984   0.432   5.605   2.570 -0.1449  0.4898  0.4326
24181SOL    HW273985   0.423   5.533   2.703 -1.0077 -0.0382  0.1011
24182SOL     OW73986   4.520   3.922   4.563 -0.4758 -0.1067 -0.0915
24182SOL    HW173987   4.564   3.958   4.486 -0.1734 -1.7469 -0.7361
24182SOL    HW273988   4.528   3.990   4.630  0.1476  0.9458 -1.1949
24183SOL     OW73989   3.751   2.028   8.813 -0.9825 -0.6057 -0.2591
24183SOL    HW173990   3.715   1.997   8.730 -2.3766 -1.5475  0.6551
24183SOL    HW273991   3.839   2.059   8.791 -0.0145 -3.8697 -1.5391
24184SOL     OW73992   4.646   6.472   8.125 -1.0647 -0.0044  0.0886
24184SOL    HW173993   4.628   6.449   8.216 -0.3369  0.3079  0.3163
24184SOL    HW273994   4.726   6.524   8.129 -0.3501 -1.0008 -0.8418
24185SOL     OW73995   0.817   4.356   7.364  0.1268  0.2118 -0.1804
24185SOL    HW173996   0.819   4.423   7.295  0.3859 -0.0108 -0.3893
24185SOL    HW273997   0.906   4.355   7.399 -0.0023  0.3163  0.1548
24186SOL     OW73998   1.234   2.521  10.256  0.1518 -0.2391 -0.2922
24186SOL    HW173999   1.263   2.612  10.251  2.5365 -0.9155 -0.0170
24186SOL    HW274000   1.205   2.510  10.346  1.0174 -0.0251  0.0302
24187SOL     OW74001   1.453   6.816   4.123  0.3741 -0.6017  0.0127
24187SOL    HW174002   1.538   6.781   4.150  0.9762  0.8393  0.0876
24187SOL    HW274003   1.472   6.907   4.099 -1.1788 -0.2263  0.1587
24188SOL     OW74004   1.307   0.077   6.755 -0.5308 -0.2291 -0.7037
24188SOL    HW174005   1.305   0.091   6.850  0.1158 -0.9625 -0.5667
24188SOL    HW274006   1.219   0.048   6.733 -0.5355 -0.6159 -0.2194
24189SOL     OW74007   7.327   3.883   1.302  0.0426 -0.0301 -0.0035
24189SOL    HW174008   7.275   3.886   1.221  0.3049 -0.7441 -0.2058
24189SOL    HW274009   7.262   3.885   1.372 -0.3713 -2.2788 -0.2553
24190SOL     OW74010   6.583   4.058   8.723 -0.1235  0.0458 -0.5732
24190SOL    HW174011   6.491   4.049   8.745  0.3247 -0.7330  1.1778
24190SOL    HW274012   6.614   4.130   8.778  0.6865 -0.8631  0.1904
24191SOL     OW74013   4.845   0.987  12.289 -0.2852  0.0729  0.1357
24191SOL    HW174014   4.891   1.045  12.228 -2.5022  0.5443 -1.1754
24191SOL    HW274015   4.854   1.031  12.374 -1.5881  2.2576 -0.7545
24192SOL     OW74016   0.862   7.243  11.770 -0.1161 -0.3113 -0.0302
24192SOL    HW174017   0.766   7.240  11.770 -0.2269  1.3662 -1.6186
24192SOL    HW274018   0.883   7.328  11.808  0.6670  0.0407 -1.2065
24193SOL     OW74019   4.396   2.048  10.348 -0.2357  0.3123  0.4458
24193SOL    HW174020   4.348   2.112  10.401 -1.5970 -0.0716 -0.2657
24193SOL    HW274021   4.389   2.081  10.258 -0.4939 -0.5394  0.1372
24194SOL     OW74022   4.972   0.541   5.023  0.0804  0.0994 -0.2620
24194SOL    HW174023   4.927   0.603   4.966 -1.3676 -0.9746 -0.3307
24194SOL    HW274024   4.951   0.571   5.111  0.9260  0.7692 -0.2728
24195SOL     OW74025   6.775   3.575  10.783 -0.2202  0.0941  0.0212
24195SOL    HW174026   6.750   3.514  10.852  0.9897 -0.0431  0.3571
24195SOL    HW274027   6.812   3.651  10.829 -2.0396  1.2871 -0.3725
24196SOL     OW74028   6.242   4.922   6.489 -0.6898  0.2017  0.2101
24196SOL    HW174029   6.325   4.916   6.536 -1.0567  1.5960  1.0832
24196SOL    HW274030   6.247   4.853   6.423  1.4337  0.6644 -0.1857
24197SOL     OW74031   7.837   3.168   8.806 -0.2713 -0.4822 -0.0259
24197SOL    HW174032   7.791   3.142   8.726  0.7636  1.1197 -1.2088
24197SOL    HW274033   7.882   3.249   8.783  1.4451 -0.8534  1.6965
24198SOL     OW74034   7.525   1.726   1.974 -0.1844 -0.0118 -0.2127
24198SOL    HW174035   7.493   1.786   1.907 -0.1183 -0.9972 -1.1415
24198SOL    HW274036   7.509   1.772   2.057 -0.8490  0.9491 -0.8596
24199SOL     OW74037   6.778   6.465   1.671  0.6963 -0.1028  0.1771
24199SOL    HW174038   6.839   6.536   1.691  0.4913  0.0313  0.3330
24199SOL    HW274039   6.828   6.404   1.616  0.9455  0.0420  0.2451
24200SOL     OW74040   1.393   3.025   5.542 -0.2241  0.1555 -0.4317
24200SOL    HW174041   1.442   3.107   5.547 -0.5504  0.2988  2.4149
24200SOL    HW274042   1.461   2.957   5.547 -0.1234  0.3385  1.3206
24201SOL     OW74043   2.265   1.911   2.527  0.1928 -0.5391  0.7085
24201SOL    HW174044   2.326   1.983   2.513 -0.1558 -0.4873 -0.6527
24201SOL    HW274045   2.301   1.862   2.601  2.8022 -1.4700 -1.0443
24202SOL     OW74046   3.953   2.076   6.111 -0.2769 -0.1508  0.0101
24202SOL    HW174047   3.923   2.060   6.201 -0.2515 -0.5514 -0.0513
24202SOL    HW274048   3.988   2.165   6.114 -2.0019  0.5683 -0.0554
24203SOL     OW74049   0.580   0.049   0.097 -0.2308 -0.8574  0.1710
24203SOL    HW174050   0.568   0.133   0.141 -0.3881 -1.3470  1.0900
24203SOL    HW274051   0.551   0.065   0.007  0.8111  0.3713  0.0113
24204SOL     OW74052   1.019   2.314   2.184 -0.5336  0.0698  0.5024
24204SOL    HW174053   1.068   2.309   2.266 -0.1689 -0.2123  0.2685
24204SOL    HW274054   1.012   2.223   2.154  0.9411  0.3099 -0.7123
24205SOL     OW74055   2.545   3.857   9.683 -0.0489 -0.2697 -0.0943
24205SOL    HW174056   2.565   3.771   9.648 -0.6909  0.6803 -3.0623
24205SOL    HW274057   2.599   3.917   9.632 -0.7672  1.2339  0.8350
24206SOL     OW74058   6.853   0.896   8.978 -0.0994  0.1737  0.3095
24206SOL    HW174059   6.847   0.991   8.961  1.3009  0.1094 -0.7206
24206SOL    HW274060   6.782   0.879   9.039 -1.1391  1.6847 -0.4010
24207SOL     OW74061   7.255   1.916   4.446 -0.1072 -0.0103  0.2715
24207SOL    HW174062   7.263   2.009   4.427 -1.3639 -0.0094 -0.3488
24207SOL    HW274063   7.211   1.879   4.370  0.7518 -1.2035  0.3115
24208SOL     OW74064   1.311   2.300  10.993 -0.0774  0.1693 -0.2331
24208SOL    HW174065   1.248   2.254  11.049  0.2893  0.5631  0.5252
24208SOL    HW274066   1.361   2.355  11.054  0.1865  0.7730 -0.9840
24209SOL     OW74067   5.229   1.625   4.362 -0.2970  0.0491 -0.2115
24209SOL    HW174068   5.307   1.663   4.323 -0.0297  0.4418  0.6635
24209SOL    HW274069   5.197   1.692   4.423 -1.0150 -0.3115 -0.1734
24210SOL     OW74070   2.396   2.920   4.842  0.1964  0.0776 -0.0465
24210SOL    HW174071   2.468   2.957   4.790  0.1664  0.9217  0.4979
24210SOL    HW274072   2.325   2.983   4.834 -0.0439 -0.1242  0.4623
24211SOL     OW74073   5.092   2.051   1.594 -0.7331  0.4010 -0.1966
24211SOL    HW174074   5.135   2.025   1.512 -0.4032  1.0572 -0.2358
24211SOL    HW274075   5.075   1.968   1.639 -0.3655  0.0694 -0.6565
24212SOL     OW74076   5.561   7.447   9.109  0.3854  0.1731 -0.1767
24212SOL    HW174077   5.544   7.448   9.203  0.6674  0.2342 -0.1253
24212SOL    HW274078   5.474   7.450   9.069  0.2798  0.7760  0.0830
24213SOL     OW74079   7.802   2.314  11.824  0.4307  0.3289 -0.3794
24213SOL    HW174080   7.893   2.311  11.793  0.6758 -2.0096  0.3892
24213SOL    HW274081   7.809   2.310  11.920 -0.4830 -1.1714 -0.3488
24214SOL     OW74082   1.969   1.582   6.577 -0.6401 -0.4471  0.0984
24214SOL    HW174083   1.932   1.658   6.532  2.1953 -0.2098 -2.1201
24214SOL    HW274084   2.000   1.617   6.660 -2.1766  0.0553  0.5025
24215SOL     OW74085   6.402   7.742   5.364  0.2775 -0.3524 -0.2189
24215SOL    HW174086   6.450   7.691   5.429  0.3820  0.6987  0.5562
24215SOL    HW274087   6.432   7.832   5.377  0.0317 -0.0720 -1.4933
24216SOL     OW74088   7.437   1.727   2.638  0.3188 -0.6289  0.0803
24216SOL    HW174089   7.446   1.773   2.555  1.0204  1.9924  1.4910
24216SOL    HW274090   7.460   1.636   2.618  0.7402 -0.0298 -2.5119
24217SOL     OW74091   7.549   0.243   6.144 -0.1449  0.2511  0.7039
24217SOL    HW174092   7.520   0.278   6.060 -0.1263  0.9437  0.9800
24217SOL    HW274093   7.644   0.236   6.135 -0.3721 -2.8334 -0.5111
24218SOL     OW74094   2.588   3.185   5.138  0.2151  0.4818 -0.0739
24218SOL    HW174095   2.606   3.267   5.184  0.7742 -0.1129  0.8130
24218SOL    HW274096   2.496   3.189   5.114  0.4381  1.7194 -0.7719
24219SOL     OW74097   1.341   2.375  11.737 -0.0507  0.0162 -0.0397
24219SOL    HW174098   1.401   2.441  11.704  2.0800 -0.4626  2.5787
24219SOL    HW274099   1.277   2.425  11.788  0.2326  0.2349  0.1047
24220SOL     OW74100   0.813   2.916   5.661  0.4152 -0.0564  0.3188
24220SOL    HW174101   0.777   2.831   5.636 -2.4960  0.6274  1.7308
24220SOL    HW274102   0.801   2.972   5.584  1.2602 -0.5873 -0.2129
24221SOL     OW74103   3.122   1.635   3.562 -0.0354 -0.3212 -0.5978
24221SOL    HW174104   3.069   1.596   3.494  0.3506  2.0707 -2.4242
24221SOL    HW274105   3.190   1.571   3.580 -0.5958 -1.3318 -1.9383
24222SOL     OW74106   0.464   4.390   4.445 -0.5149 -0.3267  0.2130
24222SOL    HW174107   0.476   4.472   4.397  0.4479  0.3135  1.5086
24222SOL    HW274108   0.398   4.342   4.394  0.3318  0.3949 -1.6337
24223SOL     OW74109   6.643   7.627   2.809 -0.8389 -0.3673 -0.2685
24223SOL    HW174110   6.586   7.570   2.757  1.6712 -3.5929  0.1512
24223SOL    HW274111   6.710   7.656   2.747 -0.4937 -0.3056  0.1248
24224SOL     OW74112   2.313   1.448  12.371  0.1914 -0.3081  0.7050
24224SOL    HW174113   2.256   1.516  12.406  0.1196 -0.7795  1.5415
24224SOL    HW274114   2.390   1.494  12.338 -0.6445  0.3381 -0.4123
24225SOL     OW74115   5.819   1.611   5.113  0.2031 -0.1936 -0.1377
24225SOL    HW174116   5.778   1.626   5.198  1.6894  1.3966  0.3614
24225SOL    HW274117   5.748   1.578   5.058 -0.9526 -0.6166  1.5191
24226SOL     OW74118   7.020   1.555   9.687 -0.3920 -0.4880  0.4376
24226SOL    HW174119   7.079   1.521   9.621 -0.0486 -0.5631  0.7795
24226SOL    HW274120   7.002   1.480   9.744 -1.5774 -0.7143 -0.2009
24227SOL     OW74121   0.589   0.922   3.051 -0.5665  0.1736  0.9904
24227SOL    HW174122   0.611   0.859   3.119  0.7751  0.3144  0.7111
24227SOL    HW274123   0.647   0.996   3.067 -0.2819  0.2452 -0.2503
24228SOL     OW74124   0.205   5.725   9.349  0.3229  0.3723 -0.2756
24228SOL    HW174125   0.116   5.717   9.382 -0.0023 -0.5625 -1.3119
24228SOL    HW274126   0.198   5.703   9.256  1.0073  3.8050 -1.2868
24229SOL     OW74127   7.400   7.217  10.738 -0.1219  0.3265  0.5124
24229SOL    HW174128   7.398   7.274  10.661 -1.5251  1.0600  1.0603
24229SOL    HW274129   7.357   7.268  10.807 -1.9231 -1.5714  0.9055
24230SOL     OW74130   2.534   6.247  12.319 -0.4586  0.6540 -0.0973
24230SOL    HW174131   2.613   6.274  12.273 -0.4979  0.9764  0.0257
24230SOL    HW274132   2.558   6.164  12.361 -0.5018  0.2278 -0.9035
24231SOL     OW74133   3.809   0.432   3.308  0.1386 -0.0176  0.3180
24231SOL    HW174134   3.832   0.447   3.400 -1.7899 -0.0717  0.8460
24231SOL    HW274135   3.890   0.450   3.261  1.3555 -0.5699  2.0623
24232SOL     OW74136   7.224   3.127  12.261  0.2357 -0.3267 -0.0734
24232SOL    HW174137   7.222   3.217  12.294 -0.6692 -0.1466 -0.5796
24232SOL    HW274138   7.171   3.078  12.324  1.5762 -0.7285  0.7787
24233SOL     OW74139   2.529   5.677   6.544 -0.1293  0.0059 -0.0780
24233SOL    HW174140   2.623   5.657   6.548  0.1932  1.3623 -0.4128
24233SOL    HW274141   2.511   5.722   6.627 -0.2279  0.7571 -0.5022
24234SOL     OW74142   1.319   1.924   8.312 -0.2215 -0.2031  0.3846
24234SOL    HW174143   1.382   1.853   8.325 -1.7241 -1.5885  0.4380
24234SOL    HW274144   1.354   1.974   8.238 -0.1570 -2.2421 -1.0482
24235SOL     OW74145   4.913   5.982   2.222 -1.1037 -0.4876  0.9256
24235SOL    HW174146   4.999   6.016   2.245 -1.1297 -0.2006  0.6131
24235SOL    HW274147   4.906   5.898   2.268  0.5553 -2.0328 -1.4283
24236SOL     OW74148   7.502   6.927   0.924 -0.1835 -0.2798 -0.1521
24236SOL    HW174149   7.480   7.019   0.937 -0.7152 -0.2224 -1.2986
24236SOL    HW274150   7.547   6.925   0.839 -1.4013 -1.2364 -0.8086
24237SOL     OW74151   4.436   4.294  11.604  0.0572 -0.6879 -0.0978
24237SOL    HW174152   4.514   4.319  11.654 -0.8651 -0.6356  1.3694
24237SOL    HW274153   4.405   4.214  11.645 -0.9070 -0.4820 -0.3959
24238SOL     OW74154   5.477   1.058  11.040 -0.5361 -0.5613 -0.5614
24238SOL    HW174155   5.394   1.031  11.081 -1.4924  1.6379 -0.8750
24238SOL    HW274156   5.451   1.098  10.957  0.7610  0.7295 -0.3856
24239SOL     OW74157   5.603   4.013   8.287  0.3552 -0.7979 -0.1717
24239SOL    HW174158   5.522   4.064   8.292 -0.2069 -1.6893 -0.0143
24239SOL    HW274159   5.673   4.076   8.307 -0.1877  0.2338 -1.3484
24240SOL     OW74160   3.280   6.248   6.291  0.2777  0.3235  0.3587
24240SOL    HW174161   3.310   6.324   6.340 -0.1310  0.8335 -0.1693
24240SOL    HW274162   3.234   6.284   6.216 -0.9117 -0.4248  0.6940
24241SOL     OW74163   4.552   4.805   3.718  0.4240  0.0417 -0.0988
24241SOL    HW174164   4.589   4.720   3.741  2.1004  0.9834  0.8924
24241SOL    HW274165   4.474   4.813   3.775 -0.1962 -1.1109 -0.7498
24242SOL     OW74166   6.907   6.479   6.876  0.3649  0.0338  1.0009
24242SOL    HW174167   6.907   6.517   6.964  1.7257 -0.1075  1.0722
24242SOL    HW274168   6.909   6.385   6.890 -0.1927 -0.0130  0.8073
24243SOL     OW74169   2.811   6.579   4.774 -0.1585 -0.0071 -0.2657
24243SOL    HW174170   2.843   6.668   4.757 -1.8528  0.9595  1.1936
24243SOL    HW274171   2.716   6.586   4.761 -0.4791 -1.2636  1.1619
24244SOL     OW74172   3.304   2.711   3.624 -0.2302 -0.5063  0.9464
24244SOL    HW174173   3.325   2.620   3.604 -1.1974 -1.0545  2.3080
24244SOL    HW274174   3.241   2.737   3.556 -2.7184 -2.0285  2.5354
24245SOL     OW74175   3.586   0.488   6.709  0.3347  0.1544 -0.0600
24245SOL    HW174176   3.654   0.424   6.731  0.0866  0.2868  1.1751
24245SOL    HW274177   3.536   0.446   6.638  2.2142  0.4436 -1.6241
24246SOL     OW74178   7.471   3.717  10.634  0.1191  0.4699  0.1573
24246SOL    HW174179   7.507   3.698  10.721 -1.3968 -0.5281  0.6097
24246SOL    HW274180   7.458   3.631  10.594 -0.0567  0.8838 -0.6922
24247SOL     OW74181   7.430   1.214   1.481 -0.1852  0.4621 -0.0669
24247SOL    HW174182   7.417   1.293   1.428 -1.3150  1.9855  2.2977
24247SOL    HW274183   7.351   1.162   1.466 -0.9270  1.3146  0.7481
24248SOL     OW74184   3.938   4.730  10.436 -0.0529 -0.7877  0.0656
24248SOL    HW174185   3.995   4.696  10.367  0.8865 -0.4258  0.6571
24248SOL    HW274186   3.878   4.657  10.454 -1.8485 -0.1645 -2.6885
24249SOL     OW74187   7.221   2.821  11.461  0.5741  0.0618 -0.1391
24249SOL    HW174188   7.260   2.749  11.411  1.2107  1.1074 -1.2034
24249SOL    HW274189   7.133   2.831  11.424 -0.0688 -1.0687  0.9890
24250SOL     OW74190   5.741   3.832   8.145  0.1203  0.4038  0.0923
24250SOL    HW174191   5.672   3.783   8.101  0.9069 -1.2928  0.6522
24250SOL    HW274192   5.700   3.914   8.172 -1.2892  0.0000 -0.7411
24251SOL     OW74193   0.058   5.019   2.587  0.2464  0.1428 -0.0037
24251SOL    HW174194   0.050   4.938   2.637  0.7569 -0.3956 -0.7742
24251SOL    HW274195  -0.004   5.008   2.514  0.5593  0.2994 -0.2973
24252SOL     OW74196   3.147   1.853   7.247  0.2277 -0.2799  0.2332
24252SOL    HW174197   3.212   1.900   7.300  0.1754  1.6605 -1.3019
24252SOL    HW274198   3.089   1.922   7.214 -0.6579 -1.5937 -1.0544
24253SOL     OW74199   5.841   2.626   3.003 -0.8240  0.4053 -0.4240
24253SOL    HW174200   5.782   2.695   3.033  0.8444  0.9932  1.7334
24253SOL    HW274201   5.851   2.568   3.079  0.2220 -0.4893 -1.2196
24254SOL     OW74202   5.042   5.149   3.786 -0.2643 -0.2250  0.5087
24254SOL    HW174203   5.085   5.064   3.772 -2.2059 -1.5377  2.0362
24254SOL    HW274204   5.018   5.149   3.879  0.1899  2.2911  0.7009
24255SOL     OW74205   7.588   1.988   8.623  0.2792 -0.0029 -0.1094
24255SOL    HW174206   7.635   2.011   8.542 -0.2995 -1.2685 -0.8384
24255SOL    HW274207   7.657   1.973   8.687  0.9779 -2.4875 -1.3371
24256SOL     OW74208   0.737   2.265   6.535 -0.0209 -0.1032  1.3139
24256SOL    HW174209   0.801   2.199   6.509 -0.5840 -0.5920  1.1471
24256SOL    HW274210   0.769   2.347   6.496 -1.7788 -1.0637 -2.6846
24257SOL     OW74211   1.266   6.428   7.316  0.5121 -0.3845 -0.0268
24257SOL    HW174212   1.264   6.383   7.400  1.3005 -1.1901 -0.4196
24257SOL    HW274213   1.200   6.384   7.263 -2.6246  2.4242  1.2203
24258SOL     OW74214   3.695   3.165   3.244  0.2094  0.1805 -0.2772
24258SOL    HW174215   3.735   3.244   3.283  0.5985 -0.0934 -0.1144
24258SOL    HW274216   3.639   3.199   3.174 -0.4821  0.6875  0.4981
24259SOL     OW74217   7.290   4.326   0.427  0.2529 -0.1157 -0.2285
24259SOL    HW174218   7.199   4.297   0.437  0.9886 -3.2619 -1.4538
24259SOL    HW274219   7.292   4.369   0.341 -0.0972  0.2457 -0.0636
24260SOL     OW74220   5.779   5.577   4.268 -0.1606  0.2756  0.8536
24260SOL    HW174221   5.837   5.635   4.317  1.5391  0.8580 -1.6563
24260SOL    HW274222   5.830   5.496   4.259  0.4307  0.8304 -1.4708
24261SOL     OW74223   0.683   7.442  10.048 -0.1020  0.1907 -0.1052
24261SOL    HW174224   0.679   7.538  10.049  0.7579  0.2444  1.5340
24261SOL    HW274225   0.774   7.423  10.025 -0.2158 -0.2179 -0.2099
24262SOL     OW74226   2.585   1.421   9.090 -0.1392 -0.0386  0.3167
24262SOL    HW174227   2.619   1.469   9.014 -0.5587 -0.7710 -0.3449
24262SOL    HW274228   2.514   1.476   9.122 -0.1859  0.1122 -0.0342
24263SOL     OW74229   2.778   5.816   2.843  0.0626  0.2546 -0.1855
24263SOL    HW174230   2.853   5.869   2.872  0.0681 -0.2648  0.8164
24263SOL    HW274231   2.749   5.857   2.762  0.9327  0.9506 -0.1586
24264SOL     OW74232   3.607   2.078  11.004  0.6203  0.4949  0.6216
24264SOL    HW174233   3.683   2.136  11.009  0.1529  1.1468  0.4027
24264SOL    HW274234   3.632   2.010  10.943  0.3329  1.8051 -1.0151
24265SOL     OW74235   7.931   4.587  11.413  0.2301  0.2598 -0.3572
24265SOL    HW174236   7.985   4.509  11.424 -0.3320 -0.2926 -1.4627
24265SOL    HW274237   7.913   4.616  11.502 -0.1024 -1.2371  0.0818
24266SOL     OW74238   2.911   5.746   3.166 -0.3181  0.1104 -0.5684
24266SOL    HW174239   2.973   5.819   3.170  0.9708 -0.9683  0.2464
24266SOL    HW274240   2.839   5.778   3.112 -0.5726  2.5378  1.0460
24267SOL     OW74241   0.559   3.356   7.468 -0.1610 -0.3692  0.2694
24267SOL    HW174242   0.545   3.450   7.476  3.2769  0.1131  2.6961
24267SOL    HW274243   0.646   3.348   7.427 -0.1076 -2.4649  0.6830
24268SOL     OW74244   3.404   5.760   6.940  0.1358  0.2458  0.3120
24268SOL    HW174245   3.370   5.676   6.908 -0.9561  0.2193  1.4469
24268SOL    HW274246   3.499   5.750   6.938  0.2365  0.4734 -3.4190
24269SOL     OW74247   0.396   2.371   1.100 -0.2378 -0.3761 -0.0501
24269SOL    HW174248   0.430   2.353   1.013 -0.1615 -1.0724  0.1206
24269SOL    HW274249   0.463   2.425   1.142 -0.3380  0.0767 -0.4641
24270SOL     OW74250   1.680   1.916   6.127  0.8796  0.3614  0.2889
24270SOL    HW174251   1.770   1.902   6.096  1.2416  0.3548  1.3049
24270SOL    HW274252   1.690   1.940   6.219 -0.1594  0.4878  0.3796
24271SOL     OW74253   3.663   5.552   8.962 -0.1490 -0.5379  0.6622
24271SOL    HW174254   3.702   5.635   8.991 -0.8281 -0.3224  0.9625
24271SOL    HW274255   3.577   5.549   9.004 -1.4709  0.1119 -1.8191
24272SOL     OW74256   7.888   3.429   6.398 -0.0488  0.3413 -0.1347
24272SOL    HW174257   7.914   3.367   6.465  0.0553 -0.2123 -0.6752
24272SOL    HW274258   7.866   3.375   6.322  1.4110  0.9859 -1.0868
24273SOL     OW74259   4.157   3.449   0.199  0.3122 -0.4028 -0.3076
24273SOL    HW174260   4.159   3.469   0.293  0.6629 -1.4727 -0.0831
24273SOL    HW274261   4.116   3.363   0.193 -1.0541  0.2628 -1.2638
24274SOL     OW74262   4.889   6.102   0.299  0.0529 -0.0515 -0.6507
24274SOL    HW174263   4.944   6.181   0.303 -0.5370  0.3889 -1.1262
24274SOL    HW274264   4.838   6.112   0.219 -2.1408  0.4931  0.7427
24275SOL     OW74265   2.466   6.625  10.135 -0.0019 -0.1469  0.4623
24275SOL    HW174266   2.489   6.568  10.062 -0.4978  0.8241 -0.4845
24275SOL    HW274267   2.432   6.566  10.202 -1.0797 -0.9342 -0.7241
24276SOL     OW74268   5.620   3.398   2.793 -0.3683 -0.1690  0.2283
24276SOL    HW174269   5.594   3.367   2.880 -0.6454  0.8026  0.5118
24276SOL    HW274270   5.541   3.437   2.757 -0.3025 -0.7280 -0.5491
24277SOL     OW74271   1.577   6.145  10.770  0.1219  0.9745 -0.6535
24277SOL    HW174272   1.627   6.221  10.740  0.2893  1.7351  1.4028
24277SOL    HW274273   1.496   6.183  10.806  1.7834  0.7495  3.9753
24278SOL     OW74274   3.459   3.384   0.289  0.3757 -0.4227 -0.0122
24278SOL    HW174275   3.546   3.377   0.327  0.6618 -0.4764 -0.6789
24278SOL    HW274276   3.401   3.344   0.354  0.8518 -0.4368  0.4045
24279SOL     OW74277   0.096   5.491   6.295 -0.4932 -0.0170 -0.2000
24279SOL    HW174278   0.031   5.424   6.273 -0.1338 -0.3995 -0.0878
24279SOL    HW274279   0.150   5.451   6.363 -0.3703  0.4425 -0.0251
24280SOL     OW74280   1.501   5.977   6.240 -0.0950  0.5130 -0.1954
24280SOL    HW174281   1.447   5.995   6.317  0.0295  2.9159 -0.6150
24280SOL    HW274282   1.526   5.885   6.250 -2.5873 -0.1115  1.0380
24281SOL     OW74283   5.925   0.070   1.001  0.1504  0.3691 -0.0464
24281SOL    HW174284   5.894  -0.001   0.945 -1.4442  0.6157  0.4763
24281SOL    HW274285   5.996   0.111   0.952  0.3346 -0.8687 -0.8496
24282SOL     OW74286   0.580   1.982   2.508  0.1014 -0.0957 -0.2979
24282SOL    HW174287   0.646   2.001   2.441 -0.1971 -0.1619 -0.6134
24282SOL    HW274288   0.545   1.896   2.483  0.2852 -0.3155  0.1838
24283SOL     OW74289   0.848   6.791   1.961 -0.1264 -0.7374  0.2577
24283SOL    HW174290   0.821   6.758   2.047 -2.0601 -0.3585 -0.1614
24283SOL    HW274291   0.900   6.869   1.981  0.1045 -1.0865  1.0961
24284SOL     OW74292   7.859   5.944   1.476 -0.7791 -0.3090  0.6669
24284SOL    HW174293   7.887   6.018   1.422  1.0295 -1.8911 -0.7556
24284SOL    HW274294   7.768   5.929   1.451 -0.0993 -0.7935 -1.8593
24285SOL     OW74295   3.138   0.271   4.991 -0.2981  0.4192 -0.4153
24285SOL    HW174296   3.060   0.317   5.023 -0.0077  0.1664  0.7053
24285SOL    HW274297   3.211   0.311   5.040 -0.0328 -1.1735  0.5767
24286SOL     OW74298   6.328   1.113   9.103 -0.0297  0.4149 -0.0294
24286SOL    HW174299   6.423   1.124   9.096  0.1325 -1.2924 -1.0949
24286SOL    HW274300   6.316   1.061   9.183  0.1023 -0.9254 -0.8619
24287SOL     OW74301   2.732   7.456   2.716  0.1098  1.0260 -0.5890
24287SOL    HW174302   2.653   7.460   2.769 -0.2507 -1.2247 -0.8495
24287SOL    HW274303   2.799   7.501   2.768 -0.1901 -1.1411  1.8943
24288SOL     OW74304   5.421   5.938  12.065 -0.3161  0.1320 -0.1855
24288SOL    HW174305   5.354   5.978  12.120 -1.2550  0.6181 -1.6138
24288SOL    HW274306   5.390   5.954  11.975  0.1165 -2.3630 -0.8349
24289SOL     OW74307   5.025   6.684  11.576  0.3226  0.8572 -0.3108
24289SOL    HW174308   5.052   6.653  11.662  0.0848 -1.2160 -0.9436
24289SOL    HW274309   5.001   6.776  11.590 -1.0460  0.2125  2.1246
24290SOL     OW74310   4.268   6.966   5.464  0.5143 -0.1063 -0.5219
24290SOL    HW174311   4.263   6.945   5.557  0.8653  0.5000 -0.3616
24290SOL    HW274312   4.207   6.904   5.422 -0.6978  0.5210  0.2586
24291SOL     OW74313   1.779   3.167   8.090 -0.1615  0.3058 -0.6031
24291SOL    HW174314   1.821   3.182   8.174  0.1147  0.1938 -0.7205
24291SOL    HW274315   1.851   3.166   8.027 -0.5363  3.0249 -1.2014
24292SOL     OW74316   6.320   4.215   9.408 -0.3238  0.4388 -0.1843
24292SOL    HW174317   6.275   4.164   9.475 -1.0832 -0.4693 -1.3423
24292SOL    HW274318   6.361   4.150   9.352  1.4239  1.2160  0.1167
24293SOL     OW74319   0.880   3.497   5.367  0.0714  0.3690 -0.1282
24293SOL    HW174320   0.840   3.541   5.292 -0.0942  1.8113  0.7688
24293SOL    HW274321   0.920   3.418   5.330  0.4441  1.3032 -1.8235
24294SOL     OW74322   4.653   1.583   2.979 -0.4646  0.0433 -0.1886
24294SOL    HW174323   4.728   1.600   3.036 -0.2518 -1.8913  0.1711
24294SOL    HW274324   4.633   1.668   2.941  0.8327  0.9419  1.0158
24295SOL     OW74325   7.880   2.817   6.137  0.6181 -0.0901  0.5649
24295SOL    HW174326   7.862   2.731   6.099  1.1043 -0.3656  0.9439
24295SOL    HW274327   7.976   2.823   6.139  0.6045  1.0968 -0.8766
24296SOL     OW74328   6.760   4.841   1.540  0.2505 -0.4994 -0.3056
24296SOL    HW174329   6.772   4.881   1.626  1.6727  0.6827 -0.9984
24296SOL    HW274330   6.740   4.915   1.482  1.2326 -0.9989 -1.3262
24297SOL     OW74331   6.673   6.857   7.078  0.1434 -0.3935  0.1152
24297SOL    HW174332   6.718   6.920   7.135 -0.2556  0.0558 -0.0667
24297SOL    HW274333   6.580   6.879   7.087 -0.3571 -2.9716  2.5620
24298SOL     OW74334   0.340   7.256   6.804  0.0414  0.1196  0.1080
24298SOL    HW174335   0.317   7.256   6.711 -0.1149  0.0822  0.1466
24298SOL    HW274336   0.431   7.227   6.807  0.5488  1.5827 -0.1676
24299SOL     OW74337   3.856   3.697   0.397 -0.6190  0.3447 -0.2556
24299SOL    HW174338   3.904   3.735   0.324  0.4409 -0.3438  0.0533
24299SOL    HW274339   3.847   3.768   0.460 -2.4857  1.2523 -1.4463
24300SOL     OW74340   2.051   5.480   9.476 -0.9317 -0.0195  0.3442
24300SOL    HW174341   2.021   5.533   9.402 -0.0181 -0.2760 -0.2272
24300SOL    HW274342   2.146   5.487   9.473 -0.5413 -3.7537 -1.3527
24301SOL     OW74343   0.191   2.028   2.332  0.5665 -0.1953 -0.0448
24301SOL    HW174344   0.186   2.123   2.344  2.0435  0.0145 -0.8365
24301SOL    HW274345   0.244   2.017   2.253 -2.7410 -1.6109 -2.2830
24302SOL     OW74346   4.175   7.107  12.157 -0.7262 -0.6518 -0.6267
24302SOL    HW174347   4.194   7.163  12.081  1.9514 -1.0713 -0.3623
24302SOL    HW274348   4.253   7.114  12.212 -0.9951 -3.3311  0.2322
24303SOL     OW74349   0.599   5.911   6.316  0.3063  0.1608  0.0452
24303SOL    HW174350   0.602   5.984   6.255 -0.6902 -0.1876 -0.4390
24303SOL    HW274351   0.656   5.845   6.276  1.1722  0.6326  0.4624
24304SOL     OW74352   6.422   7.446   7.281  0.2399  0.0588  0.1392
24304SOL    HW174353   6.484   7.463   7.210 -0.8824 -0.7837 -1.0853
24304SOL    HW274354   6.477   7.438   7.359  1.7612 -1.2942 -0.9976
24305SOL     OW74355   6.845   1.882   3.385  0.2181  0.2622 -0.3784
24305SOL    HW174356   6.885   1.938   3.318 -0.4927  0.7543 -0.4073
24305SOL    HW274357   6.903   1.806   3.391  0.9798  0.8077 -0.6408
24306SOL     OW74358   0.390   2.422   0.332 -0.0358  0.0684  0.4111
24306SOL    HW174359   0.461   2.391   0.276  0.4815  1.5373  0.2095
24306SOL    HW274360   0.321   2.356   0.323  1.3600 -1.4960  0.7788
24307SOL     OW74361   4.057   3.876   7.755 -0.7564 -0.0404 -0.1003
24307SOL    HW174362   3.968   3.861   7.723 -0.6103 -0.4633 -0.3249
24307SOL    HW274363   4.046   3.933   7.831 -1.1081  0.9406 -0.8762
24308SOL     OW74364   7.230   2.267  10.833 -0.0810  0.2184  0.7048
24308SOL    HW174365   7.209   2.201  10.766  2.0042  0.7541 -0.5690
24308SOL    HW274366   7.163   2.334  10.821  0.7037  0.7084 -1.5186
24309SOL     OW74367   3.072   3.453   8.452 -0.5830 -0.2525 -0.4933
24309SOL    HW174368   3.038   3.378   8.502 -0.4928  0.0581  0.0430
24309SOL    HW274369   3.100   3.415   8.369 -2.5555 -0.4667 -1.1019
24310SOL     OW74370   6.926   0.380  11.912  0.3154 -0.0488 -0.4171
24310SOL    HW174371   6.927   0.418  11.824  0.2616 -1.0957 -0.8800
24310SOL    HW274372   6.837   0.394  11.943  0.3188  0.2716 -0.5410
24311SOL     OW74373   7.058   2.046   0.503 -0.1740 -0.2128  0.3768
24311SOL    HW174374   7.116   2.002   0.441 -1.4657  0.6964 -1.5644
24311SOL    HW274375   6.973   2.003   0.492 -0.1592 -0.9825  2.5976
24312SOL     OW74376   0.490   4.962   7.743  0.7071 -0.1000 -0.3901
24312SOL    HW174377   0.399   4.933   7.735  0.5119 -0.7637  2.9110
24312SOL    HW274378   0.538   4.903   7.685 -0.5239 -2.5494  0.9410
24313SOL     OW74379   5.131   1.391   6.135 -0.0918 -0.3431  0.5301
24313SOL    HW174380   5.083   1.339   6.069 -1.1994  0.8377  0.3669
24313SOL    HW274381   5.117   1.343   6.217  1.5753 -2.0163 -0.0893
24314SOL     OW74382   7.477   0.328   8.359  0.0887  0.1444  0.8184
24314SOL    HW174383   7.554   0.296   8.312 -0.1535  1.4613 -0.5614
24314SOL    HW274384   7.423   0.251   8.373  1.0763 -0.5922  0.7028
24315SOL     OW74385   7.064   0.892   1.611 -0.2029  0.5539 -0.2432
24315SOL    HW174386   7.003   0.847   1.553  0.3452  0.5856 -0.8641
24315SOL    HW274387   7.021   0.893   1.696 -0.9416  0.3373 -0.6095
24316SOL     OW74388   4.110   1.983   5.749  0.8493  0.1491 -0.6516
24316SOL    HW174389   4.061   1.918   5.799  2.9532 -1.0609  0.0060
24316SOL    HW274390   4.045   2.047   5.721 -1.0256 -1.2634  0.2538
24317SOL     OW74391   7.925   0.786  11.285  0.7725  0.5730  0.0040
24317SOL    HW174392   7.925   0.797  11.190 -1.0262  1.9171  0.1027
24317SOL    HW274393   7.899   0.872  11.319 -0.5714 -0.4094  1.6103
24318SOL     OW74394   2.662   3.844   3.608 -0.1321 -0.2178  0.7479
24318SOL    HW174395   2.693   3.868   3.521  0.2267 -0.0752  0.9103
24318SOL    HW274396   2.737   3.801   3.650 -0.3065 -0.3040  0.9761
24319SOL     OW74397   1.257   2.455   1.185  0.3625 -0.1864 -0.0140
24319SOL    HW174398   1.329   2.392   1.185  2.4974  2.0675 -1.5422
24319SOL    HW274399   1.271   2.507   1.264  0.3471  0.1906 -0.2585
24320SOL     OW74400   3.595   5.656   5.232 -0.0633 -0.1486  0.3172
24320SOL    HW174401   3.543   5.576   5.238  1.3654 -1.0706  0.9528
24320SOL    HW274402   3.641   5.649   5.148 -1.7650  1.2053 -0.7851
24321SOL     OW74403   3.378   7.370   3.485 -0.1773 -0.1460 -0.4068
24321SOL    HW174404   3.305   7.370   3.548  0.0443 -0.5939 -0.1452
24321SOL    HW274405   3.338   7.340   3.403 -0.2995 -0.3334 -0.2788
24322SOL     OW74406   4.802   2.448   5.738 -0.0398  0.4269  0.1423
24322SOL    HW174407   4.800   2.409   5.826  2.1041 -0.0735  0.0327
24322SOL    HW274408   4.855   2.527   5.749  0.3796  0.2687 -0.7281
24323SOL     OW74409   0.771   6.437   4.977  0.5832  0.1470  0.1199
24323SOL    HW174410   0.780   6.406   4.887 -1.2963 -3.3399  0.9486
24323SOL    HW274411   0.677   6.438   4.993  0.8925 -0.5234  2.3660
24324SOL     OW74412   0.666   0.722   8.308  0.0421  0.3374 -0.1645
24324SOL    HW174413   0.703   0.738   8.394 -0.3834  1.9134 -0.2451
24324SOL    HW274414   0.724   0.656   8.269 -0.5360 -1.4447  1.7964
24325SOL     OW74415   3.157   6.340   5.332 -0.2428 -0.1365  0.6731
24325SOL    HW174416   3.165   6.333   5.237 -0.5986  0.0377  0.6254
24325SOL    HW274417   3.155   6.434   5.349 -0.7594 -0.1614  0.7916
24326SOL     OW74418   7.588   7.185   9.270 -0.4298  0.0755  0.2124
24326SOL    HW174419   7.624   7.117   9.326  0.7879  0.2322 -0.3376
24326SOL    HW274420   7.596   7.149   9.181  1.3931  1.3650 -0.2139
24327SOL     OW74421   1.039   3.217   9.425  0.1692 -0.4017 -0.2266
24327SOL    HW174422   1.073   3.166   9.499 -0.2274  0.8146  0.8303
24327SOL    HW274423   0.953   3.247   9.453  0.8189  1.7757 -0.2917
24328SOL     OW74424   5.939   6.167   7.376 -0.1945 -0.6097 -0.0667
24328SOL    HW174425   6.011   6.107   7.395  1.4351  1.1337 -0.4924
24328SOL    HW274426   5.947   6.186   7.283  0.7103  1.8976  0.4430
24329SOL     OW74427   2.708   0.696   3.247 -0.3028  0.6213  0.5235
24329SOL    HW174428   2.735   0.609   3.218  0.3019  1.2936 -1.0196
24329SOL    HW274429   2.771   0.719   3.315  1.1001  0.8437 -0.7900
24330SOL     OW74430   5.605   4.767   6.294  0.4615  0.5025  0.5239
24330SOL    HW174431   5.595   4.814   6.211 -0.8034 -0.2917  0.2016
24330SOL    HW274432   5.642   4.831   6.354 -0.1106  1.5593 -0.2293
24331SOL     OW74433   1.795   6.182   9.240 -0.2078 -0.0263 -0.5379
24331SOL    HW174434   1.713   6.167   9.288 -0.1761  0.6552 -0.2541
24331SOL    HW274435   1.859   6.204   9.308 -0.1594  0.9382 -0.8769
24332SOL     OW74436   0.870   6.815  11.546 -0.8674 -0.1534  0.1209
24332SOL    HW174437   0.789   6.787  11.503 -1.3563 -0.1854  1.0301
24332SOL    HW274438   0.875   6.761  11.625  0.8688 -1.2614 -0.6906
24333SOL     OW74439   7.693   0.440   0.285 -0.3229  0.1774 -0.3034
24333SOL    HW174440   7.744   0.367   0.247 -1.4858 -0.5833 -0.4459
24333SOL    HW274441   7.623   0.397   0.333 -0.8142  1.2183 -0.0757
24334SOL     OW74442   2.723   1.414   1.726 -0.0985 -0.2007  0.5909
24334SOL    HW174443   2.813   1.390   1.702  0.4714  0.7642  1.6462
24334SOL    HW274444   2.716   1.507   1.705 -1.1046 -0.4239 -0.1408
24335SOL     OW74445   0.678   3.448  10.610 -0.4369  0.1130  0.1862
24335SOL    HW174446   0.745   3.515  10.595 -0.1371 -0.2801 -0.2626
24335SOL    HW274447   0.622   3.452  10.533 -0.5481 -0.0044  0.2595
24336SOL     OW74448   4.685   6.991   7.490 -0.7749  0.1203 -0.2117
24336SOL    HW174449   4.757   6.997   7.427 -1.2000 -0.8738 -0.8198
24336SOL    HW274450   4.699   7.063   7.550  1.7576 -1.0862  0.7625
24337SOL     OW74451   3.326   1.684  10.293 -0.5456  0.1291  0.2142
24337SOL    HW174452   3.400   1.720  10.342 -0.3232  1.0575 -0.7541
24337SOL    HW274453   3.321   1.739  10.215  0.7529 -2.7939 -2.1369
24338SOL     OW74454   4.334   3.984  11.899  0.5154  0.2871 -0.0694
24338SOL    HW174455   4.290   4.040  11.836  1.5016 -0.5508 -1.5822
24338SOL    HW274456   4.290   3.899  11.891  1.7158 -0.2902 -0.9059
24339SOL     OW74457   0.270   6.890   5.619  0.1933  0.0883  0.0823
24339SOL    HW174458   0.195   6.833   5.636  1.2118 -1.0126  1.0502
24339SOL    HW274459   0.306   6.858   5.537 -0.5169  0.7864 -0.5211
24340SOL     OW74460   7.394   2.126  11.922 -0.0309  0.5624  0.0285
24340SOL    HW174461   7.426   2.216  11.930  2.0641 -0.1731  0.5515
24340SOL    HW274462   7.468   2.077  11.885 -1.1524 -0.9308 -0.3208
24341SOL     OW74463   1.757   5.471   7.592 -0.4830 -0.5820  0.3069
24341SOL    HW174464   1.676   5.521   7.596  0.4975  1.0067  1.7020
24341SOL    HW274465   1.770   5.439   7.681 -0.1805 -1.8724 -0.1782
24342SOL     OW74466   7.398   6.228   3.693  0.4790  0.7972  0.3593
24342SOL    HW174467   7.303   6.229   3.697  0.5010 -0.1321  1.7377
24342SOL    HW274468   7.425   6.311   3.732  0.2441  1.5479 -1.0055
24343SOL     OW74469   1.124   5.588   0.338  0.0561 -0.3166 -0.1809
24343SOL    HW174470   1.073   5.518   0.295  0.8324  0.7818 -3.1655
24343SOL    HW274471   1.213   5.576   0.304  0.4625  1.3829  0.2121
24344SOL     OW74472   7.689   7.684  10.956  0.0187 -0.3141 -0.2467
24344SOL    HW174473   7.629   7.659  10.885 -0.4557 -1.1422  0.4290
24344SOL    HW274474   7.692   7.779  10.952 -1.6608 -0.2314 -0.0574
24345SOL     OW74475   3.264   5.111   9.481 -0.3607 -0.4764  0.0673
24345SOL    HW174476   3.336   5.051   9.462 -0.2600 -1.5995  3.3196
24345SOL    HW274477   3.185   5.056   9.474 -0.5764 -0.1599 -0.0113
24346SOL     OW74478   2.522   2.617  12.398 -0.8047 -0.1642 -0.2403
24346SOL    HW174479   2.569   2.655  12.324  0.0874  1.5681  1.1401
24346SOL    HW274480   2.587   2.616  12.469 -2.3679  0.8368  1.2883
24347SOL     OW74481   2.760   0.267   2.980  0.0315 -0.6738 -0.3272
24347SOL    HW174482   2.811   0.191   3.009  0.0233 -0.5474  0.0256
24347SOL    HW274483   2.670   0.235   2.977  0.0340 -0.6906 -0.2223
24348SOL     OW74484   0.659   0.243   1.130 -0.5489 -0.3480  0.2379
24348SOL    HW174485   0.737   0.187   1.127  0.7487  1.2786  1.5253
24348SOL    HW274486   0.587   0.183   1.151  0.8839 -1.4542  2.2813
24349SOL     OW74487   5.276   5.076   7.071 -0.5886 -0.1491  0.2523
24349SOL    HW174488   5.237   5.008   7.016  0.0710 -2.3330  2.3020
24349SOL    HW274489   5.318   5.027   7.143  1.0850  2.3745  1.1155
24350SOL     OW74490   3.387   0.250   5.264 -0.1561  0.1261  0.2186
24350SOL    HW174491   3.298   0.273   5.289  0.5808  0.1771  3.1836
24350SOL    HW274492   3.416   0.323   5.210 -1.1865  1.2121  1.0798
24351SOL     OW74493   6.688   0.684   3.217 -0.1628  0.4506 -0.1956
24351SOL    HW174494   6.683   0.644   3.304  1.3574 -1.1509 -0.7630
24351SOL    HW274495   6.598   0.709   3.197 -0.5007  1.1999  1.9635
24352SOL     OW74496   4.156   7.935   7.693 -0.1374  0.0582 -0.0430
24352SOL    HW174497   4.166   7.844   7.667  1.1292 -0.7453  2.8673
24352SOL    HW274498   4.109   7.932   7.776 -1.2746  2.1768 -0.5368
24353SOL     OW74499   1.002   3.014   8.023  0.2582  0.3624 -0.5085
24353SOL    HW174500   0.955   2.979   7.948  1.1083  0.7876 -1.2648
24353SOL    HW274501   1.006   2.942   8.086 -2.8257  0.7882  0.3134
24354SOL     OW74502   7.495   6.195  10.303 -0.2988  0.2510  1.2321
24354SOL    HW174503   7.563   6.140  10.340 -0.5755  0.0039  1.3802
24354SOL    HW274504   7.539   6.246  10.234 -0.3932 -1.4290 -0.1339
24355SOL     OW74505   1.785   4.171   9.541 -0.1737 -0.2734  0.2544
24355SOL    HW174506   1.858   4.215   9.497 -0.0621 -0.1402  0.5730
24355SOL    HW274507   1.713   4.234   9.537 -0.9201 -1.1683 -1.8821
24356SOL     OW74508   0.850   0.359   8.980  0.0362 -0.0165 -0.2605
24356SOL    HW174509   0.859   0.418   9.055 -2.0923 -1.6659  1.4359
24356SOL    HW274510   0.756   0.349   8.968  0.3374 -1.5884 -1.6880
24357SOL     OW74511   3.337   2.113   7.677 -0.3193  0.4664  0.3552
24357SOL    HW174512   3.285   2.092   7.754 -0.2454 -0.4288  0.1821
24357SOL    HW274513   3.411   2.052   7.681  0.8238  1.8343  0.6873
24358SOL     OW74514   6.665   3.945   0.405  0.1504 -0.3441 -0.1970
24358SOL    HW174515   6.579   3.987   0.399  0.6297  0.5232 -1.2133
24358SOL    HW274516   6.651   3.856   0.373 -0.3367 -0.1575 -0.5139
24359SOL     OW74517   3.744   5.638   6.385 -0.3048  0.1749 -0.2247
24359SOL    HW174518   3.816   5.575   6.375 -1.0323 -0.6753 -0.1961
24359SOL    HW274519   3.673   5.587   6.424 -1.1977  0.8053 -0.9871
24360SOL     OW74520   7.546   7.792   5.970 -0.2508 -0.1278  0.4360
24360SOL    HW174521   7.548   7.813   6.063  1.8423  1.1891  0.1456
24360SOL    HW274522   7.638   7.792   5.943 -0.7752 -1.0388 -1.5333
24361SOL     OW74523   6.568   3.672   7.020  0.2181  0.2272  0.5985
24361SOL    HW174524   6.617   3.598   7.055  0.7126  1.1492  1.9271
24361SOL    HW274525   6.566   3.735   7.092 -2.6057  0.3850  0.5152
24362SOL     OW74526   1.243   6.927  10.298 -0.1017  0.0438  0.5868
24362SOL    HW174527   1.291   6.909  10.379  1.8090  2.1620  0.0312
24362SOL    HW274528   1.307   6.971  10.241 -2.8607  4.0087  0.1408
24363SOL     OW74529   6.089   0.658   5.263 -0.0700 -0.0250  0.7306
24363SOL    HW174530   6.032   0.589   5.295 -0.8997 -0.1899 -0.9740
24363SOL    HW274531   6.031   0.717   5.215  0.8744  0.9706  0.7641
24364SOL     OW74532   1.637   0.037   8.879 -0.0021  0.4377  0.4100
24364SOL    HW174533   1.638   0.028   8.974 -0.3826 -2.6040  0.2403
24364SOL    HW274534   1.725   0.010   8.851 -0.5934 -1.0127 -0.1618
24365SOL     OW74535   1.800   1.684  11.314  0.2758  0.3692  0.2805
24365SOL    HW174536   1.851   1.685  11.233 -0.3106 -2.4103 -0.2013
24365SOL    HW274537   1.714   1.717  11.287  0.3125  0.1994 -0.0530
24366SOL     OW74538   6.225   3.152   3.299  0.6117  0.0306 -0.2168
24366SOL    HW174539   6.288   3.142   3.228 -1.9971 -3.2603 -2.3487
24366SOL    HW274540   6.185   3.238   3.283  1.8267  0.4470 -1.1587
24367SOL     OW74541   2.343   2.269   4.678 -0.2101 -0.4918  0.1720
24367SOL    HW174542   2.377   2.358   4.687  1.9612 -1.1436 -0.9846
24367SOL    HW274543   2.415   2.212   4.706 -1.0477 -1.9214 -0.4353
24368SOL     OW74544   4.266   3.828   7.599  0.4519 -0.5120 -0.1923
24368SOL    HW174545   4.208   3.852   7.672 -1.1312 -0.1859 -1.4996
24368SOL    HW274546   4.328   3.900   7.592  1.2994 -1.0219  1.4542
24369SOL     OW74547   6.973   5.732   1.578 -0.7507 -0.0251  0.2539
24369SOL    HW174548   6.979   5.649   1.531  0.9916 -0.3305  0.9173
24369SOL    HW274549   6.950   5.707   1.668 -2.5332  0.4270 -0.0497
24370SOL     OW74550   4.325   4.756   1.128 -0.5210 -0.6034  0.3392
24370SOL    HW174551   4.313   4.661   1.122  2.7610 -1.1015 -0.2597
24370SOL    HW274552   4.354   4.771   1.218 -0.5108 -0.2335  0.2760
24371SOL     OW74553   6.503   0.997  12.003  0.0201  0.1900  0.2995
24371SOL    HW174554   6.591   1.036  12.004  0.6395 -1.0911 -0.3751
24371SOL    HW274555   6.454   1.044  12.070  0.8670  1.7348 -0.1394
24372SOL     OW74556   3.166   5.965  11.193 -0.0254 -0.5720 -0.2927
24372SOL    HW174557   3.152   5.955  11.287  1.3652  0.5703  0.0517
24372SOL    HW274558   3.113   6.041  11.169  1.1596  0.3498 -0.0410
24373SOL     OW74559   1.771   0.999  10.273 -0.2701 -0.0022  0.5463
24373SOL    HW174560   1.838   1.017  10.339  1.5222  0.2578 -1.2524
24373SOL    HW274561   1.723   1.081  10.264  1.0888  0.7421 -0.1912
24374SOL     OW74562   3.317   1.087   0.500  0.4467  1.2941 -0.2008
24374SOL    HW174563   3.357   1.166   0.539 -1.2855  1.3112  1.7049
24374SOL    HW274564   3.319   1.022   0.570 -0.1232  0.3279 -1.0491
24375SOL     OW74565   7.464   4.739   7.081  0.2472 -0.5395 -0.2979
24375SOL    HW174566   7.494   4.830   7.075 -3.4737  0.9610  1.2368
24375SOL    HW274567   7.518   4.701   7.150 -0.6141  1.7146  1.7426
24376SOL     OW74568   2.212   2.781   3.894 -0.0613 -0.1069 -0.4532
24376SOL    HW174569   2.288   2.821   3.852 -0.1844 -0.2841 -0.8506
24376SOL    HW274570   2.167   2.734   3.823 -1.4696  1.3584 -0.5764
24377SOL     OW74571   3.515   5.428   1.712 -0.4544 -0.0742 -0.2202
24377SOL    HW174572   3.513   5.353   1.653 -2.2053  0.4371 -0.8687
24377SOL    HW274573   3.446   5.486   1.680  1.2095  2.1050 -0.0781
24378SOL     OW74574   1.903   4.424   2.398 -0.7536 -0.3246 -0.1365
24378SOL    HW174575   1.974   4.451   2.339  1.1881 -0.6114  1.9043
24378SOL    HW274576   1.847   4.501   2.405  0.0026  0.3256 -0.9166
24379SOL     OW74577   7.162   7.464   1.269  0.2983  0.3029  0.3038
24379SOL    HW174578   7.251   7.430   1.267  1.1477  2.3644 -2.1991
24379SOL    HW274579   7.108   7.393   1.235  1.1267 -0.5322  0.6842
24380SOL     OW74580   3.439   1.339   0.577 -0.5049 -0.1578 -0.0880
24380SOL    HW174581   3.502   1.316   0.509 -0.7083 -0.4658 -0.1732
24380SOL    HW274582   3.394   1.416   0.543  1.9436  2.0860  1.2824
24381SOL     OW74583   2.264   7.737   0.639 -0.2705  0.2787  0.3588
24381SOL    HW174584   2.183   7.737   0.689  0.0714  0.7786  0.9303
24381SOL    HW274585   2.245   7.790   0.562 -0.6876 -0.1778  0.1452
24382SOL     OW74586   3.230   5.110   7.210 -0.3693  0.4464  0.4283
24382SOL    HW174587   3.204   5.021   7.235 -1.4340  1.0920  1.7644
24382SOL    HW274588   3.270   5.146   7.290  0.5856  0.9879 -0.2755
24383SOL     OW74589   2.029   4.339   4.082 -0.1575  0.5098 -0.0378
24383SOL    HW174590   2.056   4.301   4.166  0.5673  2.9328  0.9275
24383SOL    HW274591   2.110   4.353   4.034 -0.5846 -1.0372 -1.2756
24384SOL     OW74592   1.337   7.720   6.653  0.1297  0.7120 -0.3368
24384SOL    HW174593   1.361   7.666   6.728 -0.2555  1.2356  0.1727
24384SOL    HW274594   1.420   7.759   6.624  0.4813 -0.4520 -0.9743
24385SOL     OW74595   1.933   1.994   4.120  0.2474  0.2264  0.0591
24385SOL    HW174596   1.893   1.979   4.034  0.0822 -1.1970  0.3615
24385SOL    HW274597   1.881   2.065   4.158  0.2049  0.7499 -0.9336
24386SOL     OW74598   2.932   3.874   9.644 -0.0594  0.2334 -0.0654
24386SOL    HW174599   2.955   3.932   9.717  1.3585  0.0604 -0.3473
24386SOL    HW274600   3.010   3.820   9.631 -0.9328 -0.9379 -0.5777
24387SOL     OW74601   0.430   1.176   6.727  0.0661 -0.4275 -0.0018
24387SOL    HW174602   0.379   1.248   6.690 -1.0005 -0.5090  1.2227
24387SOL    HW274603   0.399   1.169   6.817 -0.1027 -2.6128 -0.1651
24388SOL     OW74604   5.414   1.305   9.396 -0.0580  0.4240  0.7322
24388SOL    HW174605   5.381   1.353   9.473  0.6118  0.5224  0.9718
24388SOL    HW274606   5.486   1.360   9.364 -0.4571  0.4762 -0.0878
24389SOL     OW74607   1.174   1.454   2.090 -0.1383 -0.3524  0.2543
24389SOL    HW174608   1.131   1.376   2.125  1.9618 -1.0827  1.4419
24389SOL    HW274609   1.223   1.422   2.014 -0.2827  0.0796 -0.0232
24390SOL     OW74610   4.555   4.985   3.124 -0.1995  0.1839 -0.2330
24390SOL    HW174611   4.641   5.023   3.109  0.3555 -1.0615 -0.3897
24390SOL    HW274612   4.566   4.893   3.100 -1.4522 -0.0920  0.1906
24391SOL     OW74613   1.622   1.234   4.520 -0.6861 -0.4078 -1.0118
24391SOL    HW174614   1.709   1.197   4.532  0.4997  2.4342 -0.0431
24391SOL    HW274615   1.626   1.277   4.434 -1.5206 -1.2011 -1.4575
24392SOL     OW74616   0.584   3.006   1.909 -0.0367  0.3429 -0.0218
24392SOL    HW174617   0.573   3.091   1.951 -0.7433  0.7720 -1.0461
24392SOL    HW274618   0.497   2.967   1.908  0.1750 -0.1400 -0.0778
24393SOL     OW74619   5.517   6.472   1.196 -0.2448 -0.4355 -0.2095
24393SOL    HW174620   5.588   6.525   1.232  0.7811 -1.6588 -0.3164
24393SOL    HW274621   5.485   6.521   1.121  3.5457 -1.7027 -3.0112
24394SOL     OW74622   0.216   7.565   4.017 -0.3335  0.1333 -0.1588
24394SOL    HW174623   0.163   7.490   3.991 -0.8338 -0.0145  1.2186
24394SOL    HW274624   0.289   7.526   4.066 -1.2957  0.5885  1.7126
24395SOL     OW74625   4.680   5.781   2.533  0.0203 -0.3926  0.2114
24395SOL    HW174626   4.680   5.845   2.461 -1.0935 -0.5149  0.0830
24395SOL    HW274627   4.674   5.696   2.490 -2.2591 -0.4046  0.4438
24396SOL     OW74628   2.426   4.104  11.032 -0.2818 -0.4411  0.3463
24396SOL    HW174629   2.427   4.008  11.021 -0.8959 -0.6198  1.6709
24396SOL    HW274630   2.420   4.117  11.126 -2.5476  0.8914  0.0891
24397SOL     OW74631   7.601   7.565  11.648 -0.2368 -0.2792 -0.3313
24397SOL    HW174632   7.529   7.627  11.662 -0.6667 -0.2429 -2.3341
24397SOL    HW274633   7.667   7.590  11.712 -1.5810  0.3549  0.8690
24398SOL     OW74634   0.833   3.699   4.854  0.5557 -0.9749 -0.4785
24398SOL    HW174635   0.871   3.635   4.793  2.7565  0.7089 -1.0174
24398SOL    HW274636   0.790   3.762   4.797 -0.5444 -1.3061 -0.0287
24399SOL     OW74637   1.092   1.216   2.183 -0.0517 -0.0094  0.4544
24399SOL    HW174638   1.017   1.156   2.185  1.6063 -2.2484 -0.1188
24399SOL    HW274639   1.144   1.192   2.259  1.1327 -0.0185 -0.3233
24400SOL     OW74640   6.137   5.254  12.175 -0.3346 -0.5164 -0.0375
24400SOL    HW174641   6.223   5.242  12.135  0.0618 -0.9775  0.9094
24400SOL    HW274642   6.098   5.166  12.174 -0.8226 -0.2996 -0.5125
24401SOL     OW74643   6.071   0.495   0.381 -0.0215  0.4178  0.1086
24401SOL    HW174644   6.094   0.520   0.471 -1.4832  0.6511  0.4312
24401SOL    HW274645   6.074   0.400   0.382 -1.1963  0.3710  0.7455
24402SOL     OW74646   0.586   1.387   0.273 -0.0242  0.0075 -0.1728
24402SOL    HW174647   0.503   1.433   0.262  0.2340  0.3447 -0.7813
24402SOL    HW274648   0.628   1.392   0.187 -0.3809 -2.1735 -0.5343
24403SOL     OW74649   0.374   7.738   2.286 -0.5109 -0.2636 -0.3447
24403SOL    HW174650   0.381   7.828   2.254 -1.0641 -0.4718 -1.0769
24403SOL    HW274651   0.318   7.745   2.363  0.3649  0.1638  0.2717
24404SOL     OW74652   6.672   0.909  11.058 -0.6616  0.0423 -0.0564
24404SOL    HW174653   6.634   0.996  11.050 -2.0723 -0.5765 -0.4412
24404SOL    HW274654   6.763   0.924  11.084 -1.0952  1.5866  0.6477
24405SOL     OW74655   7.882   7.240   1.311  0.4631 -0.4106 -0.1728
24405SOL    HW174656   7.863   7.153   1.346 -1.2647  0.0369  0.0533
24405SOL    HW274657   7.797   7.284   1.305  1.3887  1.7003  0.8348
24406SOL     OW74658   7.891   3.081  11.890 -0.1899  0.0166 -0.6744
24406SOL    HW174659   7.930   3.004  11.849 -0.5634 -1.0839  0.9173
24406SOL    HW274660   7.801   3.084  11.857 -1.2900 -2.3140  1.7395
24407SOL     OW74661   3.567   4.342  11.728  0.0433  0.9553 -0.2837
24407SOL    HW174662   3.601   4.347  11.639  0.9630  3.1280  0.1293
24407SOL    HW274663   3.473   4.362  11.720  0.3815  2.4819 -0.6484
24408SOL     OW74664   7.739   7.582   0.508  0.1877  0.8978  0.5652
24408SOL    HW174665   7.645   7.590   0.525  0.0707 -0.5061  0.6731
24408SOL    HW274666   7.745   7.565   0.414  0.4001  1.8581  0.3983
24409SOL     OW74667   4.038   0.280   9.976  0.0124  0.0248 -0.2642
24409SOL    HW174668   4.009   0.211  10.036 -1.3772  0.4349 -0.4479
24409SOL    HW274669   4.109   0.239   9.927 -0.9814 -1.4048 -0.5760
24410SOL     OW74670   1.280   1.182  11.903 -0.1379  0.1800 -0.4840
24410SOL    HW174671   1.264   1.220  11.989 -1.6398 -0.1467 -0.5916
24410SOL    HW274672   1.278   1.087  11.918 -2.0818  0.0691 -1.0927
24411SOL     OW74673   3.795   1.025  11.187  0.1188 -0.0288  0.4138
24411SOL    HW174674   3.703   1.043  11.171  0.3556 -0.1037 -1.3322
24411SOL    HW274675   3.830   1.003  11.100  1.9425  0.7849  0.8879
24412SOL     OW74676   5.185   6.928   6.159  0.5577 -0.9257 -0.4742
24412SOL    HW174677   5.167   7.004   6.104 -1.7067 -1.4179 -0.5108
24412SOL    HW274678   5.116   6.929   6.225  1.5922 -1.9265  0.6864
24413SOL     OW74679   1.555   6.754   5.840 -0.6016  0.6040 -0.3087
24413SOL    HW174680   1.506   6.675   5.865  2.0557 -0.2839  2.8207
24413SOL    HW274681   1.599   6.731   5.758 -2.0443 -0.0886 -0.9174
24414SOL     OW74682   2.142   7.451   1.941 -0.1826 -0.0673  0.0513
24414SOL    HW174683   2.222   7.489   1.976 -0.4835  0.5767  0.0374
24414SOL    HW274684   2.123   7.377   2.000 -0.6063  0.9107  1.1716
24415SOL     OW74685   7.835   4.089   6.960 -0.2892  0.1958 -0.1039
24415SOL    HW174686   7.781   4.143   6.902 -2.1307 -0.4646  0.9275
24415SOL    HW274687   7.779   4.070   7.035  1.8272  0.5906  1.6961
24416SOL     OW74688   0.502   4.130   6.005  0.0690 -0.5563  0.3764
24416SOL    HW174689   0.491   4.060   6.069 -0.6254 -0.2871  0.5525
24416SOL    HW274690   0.414   4.148   5.973  0.3937 -0.6071 -0.5717
24417SOL     OW74691   0.257   7.005  10.561 -0.4654 -0.2208 -0.6031
24417SOL    HW174692   0.189   7.063  10.597  0.5057  0.3835  0.3124
24417SOL    HW274693   0.269   7.036  10.471 -0.8929  0.1286 -0.5436
24418SOL     OW74694   6.583   4.096   5.714 -0.1929  0.5416  0.5598
24418SOL    HW174695   6.553   4.154   5.784 -0.7900  0.8429  0.0626
24418SOL    HW274696   6.502   4.065   5.673  0.1529  1.0211 -0.5226
24419SOL     OW74697   5.459   7.768   7.385  0.3371 -0.4475  0.0297
24419SOL    HW174698   5.554   7.778   7.379  0.1429  1.3579 -0.7438
24419SOL    HW274699   5.428   7.770   7.295 -0.5487  0.6428  0.3321
24420SOL     OW74700   4.495   7.556   9.767  0.1463  0.5741  0.5651
24420SOL    HW174701   4.420   7.563   9.827 -1.1580  1.3761 -1.0713
24420SOL    HW274702   4.471   7.610   9.692  0.5962 -2.2046 -1.7825
24421SOL     OW74703   4.594   3.202   8.062 -0.6329  0.6969  0.7494
24421SOL    HW174704   4.563   3.190   7.972  0.7550 -0.0944  0.3503
24421SOL    HW274705   4.565   3.290   8.085 -0.5557  1.1250 -0.6677
24422SOL     OW74706   2.233   3.700  11.401 -0.1853  0.0737  0.1379
24422SOL    HW174707   2.155   3.647  11.417 -0.4241  0.7486  1.3438
24422SOL    HW274708   2.218   3.781  11.451  0.3165  1.1530 -1.3596
24423SOL     OW74709   3.364   5.766  10.846 -0.0066 -0.2057 -0.4932
24423SOL    HW174710   3.457   5.789  10.858 -0.3377  0.8211  0.2673
24423SOL    HW274711   3.347   5.787  10.754  0.5150 -0.3994 -0.6402
24424SOL     OW74712   5.855   2.896   5.844 -0.1646 -0.3328 -0.2410
24424SOL    HW174713   5.886   2.940   5.765  2.0087 -2.6992 -0.8591
24424SOL    HW274714   5.935   2.884   5.896 -1.0202 -1.6569  0.8155
24425SOL     OW74715   1.733   1.657   0.611  0.9087  0.8659 -0.2314
24425SOL    HW174716   1.786   1.595   0.562  1.6724  1.0825  0.2987
24425SOL    HW274717   1.727   1.619   0.699 -1.2199  0.0152 -0.6993
24426SOL     OW74718   2.654   3.708   1.576  0.1595  0.8773 -0.2518
24426SOL    HW174719   2.736   3.657   1.578 -1.3586 -1.7277  0.1520
24426SOL    HW274720   2.666   3.768   1.503  1.6743 -0.8553 -1.5478
24427SOL     OW74721   2.444   6.024   6.344 -0.1285  1.0742 -0.4036
24427SOL    HW174722   2.530   6.060   6.322  0.8043 -0.7964  0.0043
24427SOL    HW274723   2.401   6.013   6.259  0.7442  0.3575 -0.7622
24428SOL     OW74724   4.749   0.549  10.020  0.3309 -0.2944 -0.6333
24428SOL    HW174725   4.704   0.506   9.948 -0.3813  0.5157 -0.6959
24428SOL    HW274726   4.692   0.623  10.043  1.2835  0.3357 -0.2361
24429SOL     OW74727   4.423   6.067   4.641  0.2115  0.0760  0.2329
24429SOL    HW174728   4.412   6.006   4.713 -3.5177  1.6032  1.2092
24429SOL    HW274729   4.412   6.013   4.562  0.1182 -0.9800  0.9490
24430SOL     OW74730   1.392   5.252   3.507  0.2986  0.4666 -0.3131
24430SOL    HW174731   1.399   5.311   3.582  0.0615  1.1539 -0.8277
24430SOL    HW274732   1.329   5.294   3.449 -1.9508 -1.5563  0.4831
24431SOL     OW74733   5.576   0.894   6.079 -0.2816  0.7028  0.3238
24431SOL    HW174734   5.580   0.905   6.174 -1.8165 -0.4331  0.5528
24431SOL    HW274735   5.666   0.909   6.049  0.4827 -0.0681  2.1066
24432SOL     OW74736   5.986   3.505   5.399  0.4232  0.0906  0.0717
24432SOL    HW174737   5.913   3.508   5.336 -0.3400  1.0733  0.9542
24432SOL    HW274738   6.050   3.447   5.358 -0.0830  0.6109 -1.5700
24433SOL     OW74739   5.187   5.110   3.090  0.2616 -0.0354 -0.3522
24433SOL    HW174740   5.155   5.143   3.173 -0.3109 -0.1846 -0.5097
24433SOL    HW274741   5.212   5.019   3.108 -0.1582 -0.1635 -0.4178
24434SOL     OW74742   2.536   0.869   0.724  0.2602 -0.0680  0.6143
24434SOL    HW174743   2.516   0.885   0.632  0.2808 -3.0106  0.0005
24434SOL    HW274744   2.461   0.904   0.771 -1.1550 -1.0898 -0.7849
24435SOL     OW74745   5.189   3.644   6.014  0.3858  0.4380  0.2231
24435SOL    HW174746   5.164   3.716   6.072 -2.3369 -0.7722  0.7287
24435SOL    HW274747   5.182   3.681   5.926  0.6338  1.2055  0.5138
24436SOL     OW74748   3.770   3.501   8.582  0.1826 -0.1714  0.7240
24436SOL    HW174749   3.807   3.535   8.501  0.4524 -0.9965  0.4836
24436SOL    HW274750   3.702   3.440   8.553 -0.8464  0.7424  1.1538
24437SOL     OW74751   2.659   0.869   4.692  0.0929 -0.0888  0.2239
24437SOL    HW174752   2.669   0.950   4.742  2.3468  0.2319 -0.6447
24437SOL    HW274753   2.606   0.894   4.616  1.0093  0.6745 -0.1851
24438SOL     OW74754   2.529   2.090   1.961  0.1621  0.1165  0.1155
24438SOL    HW174755   2.434   2.078   1.970  0.0969  0.3651 -0.2375
24438SOL    HW274756   2.549   2.054   1.874  0.7586 -2.1042  1.0972
24439SOL     OW74757   4.839   5.240   8.809 -0.0396  0.4155 -0.6684
24439SOL    HW174758   4.763   5.298   8.811 -1.0459 -0.8555 -0.6694
24439SOL    HW274759   4.848   5.208   8.899  1.8380  2.1849 -0.1704
24440SOL     OW74760   7.518   5.614  12.105 -0.1201 -0.1987  0.4629
24440SOL    HW174761   7.453   5.580  12.166  0.0612  0.5623  1.0967
24440SOL    HW274762   7.468   5.638  12.027 -0.4656 -0.4689  0.6014
24441SOL     OW74763   2.252   1.238   0.251  0.2642 -0.4682 -0.3823
24441SOL    HW174764   2.241   1.158   0.200 -1.1379 -0.7416  0.2933
24441SOL    HW274765   2.221   1.308   0.193  0.2578 -0.5694 -0.5007
24442SOL     OW74766   0.925   0.153   6.051  0.0155  0.6569 -0.2959
24442SOL    HW174767   0.933   0.143   5.956  0.4557 -1.9346 -0.0457
24442SOL    HW274768   0.999   0.209   6.075  1.5589 -0.9165 -1.1877
24443SOL     OW74769   5.416   4.100   7.401 -0.5359  0.1781 -0.2346
24443SOL    HW174770   5.469   4.139   7.470 -0.9176 -2.1044  1.4728
24443SOL    HW274771   5.366   4.031   7.445 -2.3676 -0.0231 -2.4215
24444SOL     OW74772   5.908   5.468   1.638  0.2630  0.1183 -0.2754
24444SOL    HW174773   5.951   5.553   1.633  0.0666  0.2860  0.7847
24444SOL    HW274774   5.928   5.427   1.553 -0.8587  1.7807 -1.4207
24445SOL     OW74775   5.131   5.033   0.895 -0.1965  0.6625 -0.7279
24445SOL    HW174776   5.094   5.035   0.984 -1.5544 -0.3081 -1.2377
24445SOL    HW274777   5.222   5.009   0.908 -0.4301  0.2983  0.3982
24446SOL     OW74778   7.298   1.497   9.118 -0.0072 -0.3919 -0.1151
24446SOL    HW174779   7.264   1.586   9.129 -0.4716 -0.4069 -1.3445
24446SOL    HW274780   7.257   1.448   9.190  0.3499  0.3993  0.6474
24447SOL     OW74781   2.638   0.031   0.295 -0.0170 -0.3100  0.1840
24447SOL    HW174782   2.580   0.097   0.333  0.7133 -0.4761  1.6408
24447SOL    HW274783   2.639  -0.040   0.360 -0.6269 -1.6966 -1.2462
24448SOL     OW74784   0.335   6.617   4.372 -0.2363  0.1081  0.0309
24448SOL    HW174785   0.429   6.611   4.352 -0.2944 -3.6826  0.1471
24448SOL    HW274786   0.292   6.613   4.287 -0.2838 -0.7651  0.0848
24449SOL     OW74787   7.541   6.008   4.164 -0.2585 -0.2957 -0.4199
24449SOL    HW174788   7.472   6.027   4.101 -0.8438 -0.2445  0.2255
24449SOL    HW274789   7.510   6.046   4.246  2.2051  3.0839 -0.8750
24450SOL     OW74790   2.704   1.930   9.696 -0.0934  0.1291  0.1438
24450SOL    HW174791   2.691   1.870   9.770  0.1499  0.7311  0.6830
24450SOL    HW274792   2.656   1.890   9.624  1.5883 -1.7127 -0.0441
24451SOL     OW74793   0.276   1.738   8.037 -0.2546 -0.4383 -0.4688
24451SOL    HW174794   0.358   1.691   8.028  0.0974 -0.0123  0.3912
24451SOL    HW274795   0.299   1.819   8.083 -1.2442 -0.6458  0.4481
24452SOL     OW74796   4.313   7.530   1.922 -0.1014 -0.0800 -0.1847
24452SOL    HW174797   4.301   7.436   1.934 -1.5008  0.0926 -0.0747
24452SOL    HW274798   4.380   7.554   1.986 -0.7025 -0.7843  0.7335
24453SOL     OW74799   2.637   3.377   5.950 -0.0216  0.0294 -0.2921
24453SOL    HW174800   2.660   3.388   5.858 -0.1551 -2.3238 -0.6692
24453SOL    HW274801   2.720   3.386   5.997  0.6010 -1.8046 -0.9768
24454SOL     OW74802   2.763   4.143   0.857  0.1188 -0.2748  0.3413
24454SOL    HW174803   2.794   4.231   0.878 -1.9284  0.3047  1.2301
24454SOL    HW274804   2.736   4.107   0.941 -1.7197 -0.6297 -0.3550
24455SOL     OW74805   1.130   4.765   9.376  0.0439  0.6828 -0.1963
24455SOL    HW174806   1.169   4.712   9.446  0.8203  1.9543  0.3584
24455SOL    HW274807   1.064   4.818   9.421 -0.0563  0.8884 -0.5903
24456SOL     OW74808   2.253   7.890   2.547 -0.5570  0.2526 -0.1004
24456SOL    HW174809   2.194   7.958   2.515 -0.1289  0.5542 -0.2579
24456SOL    HW274810   2.310   7.871   2.473 -1.0258 -0.6824 -0.2443
24457SOL     OW74811   7.745   5.380  12.365  0.0178 -0.1434 -0.3902
24457SOL    HW174812   7.703   5.317  12.307 -1.5291  0.3075  0.1853
24457SOL    HW274813   7.750   5.461  12.314 -1.4527  0.2871  0.0984
24458SOL     OW74814   6.290   6.039   5.644 -0.4125  0.0383  0.6638
24458SOL    HW174815   6.275   5.966   5.585  1.0500  0.8869 -0.8245
24458SOL    HW274816   6.219   6.100   5.625 -0.2461  0.0737  0.1368
24459SOL     OW74817   5.487   7.980   4.751 -0.1899  0.3384 -0.4777
24459SOL    HW174818   5.488   8.054   4.812  0.0624  0.2609 -0.3845
24459SOL    HW274819   5.578   7.949   4.751 -0.3237 -0.0492 -0.4214
24460SOL     OW74820   4.772   7.114   0.441  0.0942  0.1268 -0.1560
24460SOL    HW174821   4.680   7.112   0.415  0.3929 -1.5347 -1.2707
24460SOL    HW274822   4.808   7.033   0.406  1.9891  0.7295  0.2888
24461SOL     OW74823   1.094   6.263   1.068 -0.2513  0.3328 -0.1347
24461SOL    HW174824   1.158   6.329   1.042  2.1062 -1.8577 -0.2994
24461SOL    HW274825   1.063   6.226   0.985  0.6091 -0.6865 -0.0120
24462SOL     OW74826   7.958   5.774   3.841 -0.0380  0.1820  0.1389
24462SOL    HW174827   8.042   5.774   3.796 -0.5889  1.5896 -0.9943
24462SOL    HW274828   7.962   5.852   3.898 -1.4163  1.7448 -1.7562
24463SOL     OW74829   1.694   2.240   5.187  0.2560 -0.4473 -0.1483
24463SOL    HW174830   1.682   2.194   5.270 -0.0950 -0.1751 -0.0458
24463SOL    HW274831   1.640   2.318   5.195  1.0052  0.0901 -0.2455
24464SOL     OW74832   1.953   3.100   9.426 -0.0632 -0.0182 -0.6120
24464SOL    HW174833   2.028   3.099   9.486 -0.0514 -1.0957 -0.6235
24464SOL    HW274834   1.961   3.019   9.376 -1.8701 -0.7377  0.1718
24465SOL     OW74835   2.141   6.347   2.775 -0.3105  0.1679  0.1071
24465SOL    HW174836   2.153   6.438   2.748  0.6494 -0.0986 -0.4163
24465SOL    HW274837   2.129   6.351   2.870 -1.2310  0.9131 -0.0269
24466SOL     OW74838   6.158   1.233   5.734  0.5751  1.0554 -0.3481
24466SOL    HW174839   6.148   1.312   5.681 -2.7320  0.8403 -0.2514
24466SOL    HW274840   6.152   1.263   5.824  0.5562  0.8335 -0.2730
24467SOL     OW74841   0.576   4.005   5.084 -0.3410 -0.1515 -0.5157
24467SOL    HW174842   0.564   4.034   5.174  0.7514  2.2733 -1.0625
24467SOL    HW274843   0.668   4.025   5.065 -0.6117 -0.3989 -2.2158
24468SOL     OW74844   5.418   5.799   8.390  0.3071 -0.1461 -0.0179
24468SOL    HW174845   5.367   5.722   8.368  0.3208 -0.3177  0.5329
24468SOL    HW274846   5.486   5.766   8.449  0.9507  0.1063 -0.6004
24469SOL     OW74847   0.164   7.735   1.854 -0.2214 -0.1069 -0.2945
24469SOL    HW174848   0.194   7.824   1.875  0.3185  0.2628 -2.4045
24469SOL    HW274849   0.204   7.680   1.921 -1.6501  1.3396  1.8929
24470SOL     OW74850   2.210   2.883   5.925  0.2768  0.2188  0.2150
24470SOL    HW174851   2.256   2.817   5.873 -1.5836 -3.1276  2.4480
24470SOL    HW274852   2.123   2.887   5.887  0.3047  1.2990  0.2343
24471SOL     OW74853   6.077   5.738   6.529 -0.7257 -0.8125 -0.1265
24471SOL    HW174854   6.053   5.723   6.437 -1.7845 -2.7258  0.4223
24471SOL    HW274855   6.061   5.831   6.543 -2.5324 -0.8938 -1.3373
24472SOL     OW74856   6.539   7.788   0.151  0.1064  0.3345 -0.1311
24472SOL    HW174857   6.603   7.813   0.085  0.1462  0.4922 -0.0325
24472SOL    HW274858   6.526   7.867   0.204 -0.5989  0.4780 -0.5024
24473SOL     OW74859   0.459   6.613   4.721  0.3819 -0.3308  0.4567
24473SOL    HW174860   0.491   6.611   4.811  0.5225  2.0285  0.5024
24473SOL    HW274861   0.525   6.564   4.671  2.9818  2.3753  0.9319
24474SOL     OW74862   2.542   3.935   0.649 -0.5796 -0.0466 -0.2953
24474SOL    HW174863   2.521   3.856   0.599  0.1354  0.8512 -2.0799
24474SOL    HW274864   2.568   3.902   0.736  0.1470 -1.8177 -1.1357
24475SOL     OW74865   1.890   0.017   6.547 -0.7069  0.4199 -0.5630
24475SOL    HW174866   1.895  -0.005   6.640  0.3997  1.1075 -0.4534
24475SOL    HW274867   1.897  -0.068   6.502 -0.8061  0.1330 -0.0419
24476SOL     OW74868   4.471   4.929   0.649 -0.1069  0.5221  0.0989
24476SOL    HW174869   4.509   4.942   0.736 -1.5873 -0.2912  0.8967
24476SOL    HW274870   4.379   4.953   0.659 -0.3804  0.0786 -1.1647
24477SOL     OW74871   4.678   5.956   5.719 -0.4796  0.2655  0.2321
24477SOL    HW174872   4.770   5.958   5.693 -0.6244  1.0193 -0.2566
24477SOL    HW274873   4.679   5.980   5.812 -0.1864  0.3423  0.2102
24478SOL     OW74874   5.461   5.492   8.914  0.1277 -0.2418  0.3158
24478SOL    HW174875   5.535   5.552   8.923 -0.6828  0.4417  3.7624
24478SOL    HW274876   5.384   5.550   8.914 -0.5132 -1.0134 -2.0219
24479SOL     OW74877   0.050   7.625  10.459 -0.1980  1.8665  0.3968
24479SOL    HW174878   0.021   7.610  10.549  0.2028  0.1687  0.2829
24479SOL    HW274879  -0.009   7.693  10.426 -0.6391  2.1986  1.7897
24480SOL     OW74880   2.339   5.115  11.568 -0.3527  0.0583 -0.8311
24480SOL    HW174881   2.313   5.206  11.575  0.4485  0.2301  0.1556
24480SOL    HW274882   2.427   5.112  11.604 -1.6173 -1.6649  2.5763
24481SOL     OW74883   0.163   0.353   6.614  0.5086  0.1920 -0.0838
24481SOL    HW174884   0.194   0.443   6.600  0.4004  0.1371 -0.7255
24481SOL    HW274885   0.119   0.331   6.532 -1.9675  0.5635  1.0704
24482SOL     OW74886   5.664   3.966   6.753  0.3766 -0.2285 -0.3074
24482SOL    HW174887   5.705   4.045   6.786  2.4393 -0.5269 -1.9293
24482SOL    HW274888   5.590   3.997   6.701 -0.1977  0.4561  0.8775
24483SOL     OW74889   4.728   4.884   0.496 -0.2392 -0.5920  0.1370
24483SOL    HW174890   4.746   4.976   0.514 -0.8890 -0.4970  0.3149
24483SOL    HW274891   4.633   4.878   0.490 -0.1705 -1.1462 -0.4727
24484SOL     OW74892   1.698   7.494   2.715 -0.5278  0.2699 -0.2929
24484SOL    HW174893   1.788   7.469   2.739 -1.2006 -0.0665  2.1465
24484SOL    HW274894   1.648   7.413   2.723 -1.0453  0.4087 -1.8516
24485SOL     OW74895   6.095   2.377   7.212  0.3410  0.0428  0.1268
24485SOL    HW174896   6.010   2.418   7.225  0.2632  0.4476 -1.5332
24485SOL    HW274897   6.157   2.449   7.208  0.1752  0.1364 -3.0248
24486SOL     OW74898   3.376   5.634   1.131 -0.1639  0.1512 -0.4215
24486SOL    HW174899   3.384   5.661   1.039  1.3424  0.7016 -0.1618
24486SOL    HW274900   3.293   5.586   1.135  0.3216 -0.9588 -2.3383
24487SOL     OW74901   3.773   0.840   2.734  0.4163 -0.4836  0.2087
24487SOL    HW174902   3.715   0.764   2.741  1.3250 -1.1293  1.0368
24487SOL    HW274903   3.770   0.880   2.821 -0.0600  0.4427 -0.2272
24488SOL     OW74904   6.436   2.318   5.862  0.8880  0.7624  0.1755
24488SOL    HW174905   6.449   2.269   5.781  0.3198  1.2195 -0.2110
24488SOL    HW274906   6.393   2.399   5.833 -0.3995  0.4264  1.0570
24489SOL     OW74907   7.182   5.632   9.005 -0.6995  0.2436  0.2800
24489SOL    HW174908   7.152   5.626   9.096 -2.3153  0.7546 -0.1845
24489SOL    HW274909   7.101   5.627   8.953  0.1807  0.1746 -1.1238
24490SOL     OW74910   1.067   1.200   6.372  0.1885  0.2324  0.1769
24490SOL    HW174911   1.033   1.277   6.326  2.6295  0.3974 -1.4943
24490SOL    HW274912   1.133   1.235   6.432  0.5436 -0.4705  0.1976
24491SOL     OW74913   5.725   5.201   1.807 -0.0127 -0.3952  0.4125
24491SOL    HW174914   5.798   5.258   1.833 -0.5603  0.7070 -0.3851
24491SOL    HW274915   5.648   5.257   1.812 -0.8058 -1.5159  1.1262
24492SOL     OW74916   3.880   2.789   4.204  0.8489 -1.4221  0.0058
24492SOL    HW174917   3.914   2.870   4.241 -0.2220 -0.5113 -0.8987
24492SOL    HW274918   3.875   2.728   4.277  1.8450 -0.7294  0.6646
24493SOL     OW74919   5.008   4.670   1.136 -0.2387  0.1307  0.0225
24493SOL    HW174920   4.930   4.616   1.151 -1.8613  2.2957 -0.0518
24493SOL    HW274921   5.014   4.676   1.040  0.1153 -0.1712  0.0270
24494SOL     OW74922   7.861   7.810   7.167  0.3037 -0.1236 -0.4438
24494SOL    HW174923   7.904   7.810   7.253  0.5804  1.1373 -0.5681
24494SOL    HW274924   7.906   7.879   7.118  0.0924 -0.7806 -1.5823
24495SOL     OW74925   0.976   7.791  10.779 -0.3277 -0.3595 -0.2291
24495SOL    HW174926   1.043   7.841  10.826 -0.8909  0.1867  0.0006
24495SOL    HW274927   0.894   7.833  10.803 -0.5943  0.4657 -2.3056
24496SOL     OW74928   1.558   2.761   2.506 -0.7362 -0.1484  0.0959
24496SOL    HW174929   1.495   2.806   2.561 -0.5199 -0.2742  0.4531
24496SOL    HW274930   1.637   2.814   2.512 -0.2620 -0.9360  1.0871
24497SOL     OW74931   4.450   6.047   0.141 -0.1984  0.5379 -0.4555
24497SOL    HW174932   4.487   5.999   0.067  0.6420  0.0967  0.2235
24497SOL    HW274933   4.472   5.993   0.218 -0.1440  1.4943  0.2174
24498SOL     OW74934   3.574   5.901   4.388  0.2149 -0.4451  0.3167
24498SOL    HW174935   3.560   5.994   4.369 -0.0279 -0.1943  1.6366
24498SOL    HW274936   3.543   5.856   4.309 -1.2920  0.5020  0.3189
24499SOL     OW74937   5.035   4.295  11.052  0.3757  0.0628 -0.1634
24499SOL    HW174938   5.011   4.340  10.971  0.3982 -1.6322 -1.1612
24499SOL    HW274939   5.023   4.202  11.033  2.7048 -0.5675  0.9825
24500SOL     OW74940   0.967   2.356   3.459  0.1980  0.6766 -0.1020
24500SOL    HW174941   1.044   2.403   3.489 -0.0051 -0.2191  1.9984
24500SOL    HW274942   0.993   2.264   3.460 -0.1365  0.5181 -1.8977
24501SOL     OW74943   6.528   2.897   2.143 -0.1491  0.5261  0.2061
24501SOL    HW174944   6.483   2.883   2.226 -1.1896 -0.6356 -0.5020
24501SOL    HW274945   6.603   2.837   2.145  0.0810  0.8229  0.4839
24502SOL     OW74946   4.287   1.908   5.952  0.2946 -0.2464  0.0487
24502SOL    HW174947   4.371   1.937   5.917  0.2359  0.3073  0.3596
24502SOL    HW274948   4.222   1.942   5.890  0.0294  2.4387  1.6448
24503SOL     OW74949   7.191   2.564   3.062  0.3846  0.4595  0.1143
24503SOL    HW174950   7.178   2.480   3.106  0.5009  0.8331  0.8829
24503SOL    HW274951   7.278   2.558   3.024  0.2125  0.0617 -0.2251
24504SOL     OW74952   6.269   7.702   1.954  0.1509 -0.5611 -0.3649
24504SOL    HW174953   6.260   7.671   2.044 -2.5969 -0.8586 -0.6571
24504SOL    HW274954   6.362   7.721   1.945  0.5675 -0.7503  2.4462
24505SOL     OW74955   0.620   2.969   4.357  0.0864  0.4797 -0.5076
24505SOL    HW174956   0.547   2.916   4.326 -0.5033 -0.2047  1.8434
24505SOL    HW274957   0.696   2.936   4.309 -0.9425  0.4878 -2.2169
24506SOL     OW74958   1.289   7.945   7.901 -0.6152 -0.0646  0.6037
24506SOL    HW174959   1.370   7.895   7.894 -1.5552 -1.5072 -1.0919
24506SOL    HW274960   1.221   7.884   7.871 -2.0890  1.6528  0.2602
24507SOL     OW74961   2.358   7.490   1.227 -0.4297  0.3054  0.4885
24507SOL    HW174962   2.311   7.519   1.306 -1.6763  1.4767 -0.6375
24507SOL    HW274963   2.301   7.422   1.190  0.0738 -0.1249  0.4959
24508SOL     OW74964   6.098   1.745   3.679 -0.4240  0.5331 -0.0116
24508SOL    HW174965   6.059   1.698   3.753 -0.6865  1.8496  0.7213
24508SOL    HW274966   6.188   1.714   3.675 -1.1674 -1.7602 -1.0455
24509SOL     OW74967   1.372   1.563   6.523 -0.3209  0.5073 -0.5883
24509SOL    HW174968   1.303   1.625   6.499 -0.0584  1.6884  1.4373
24509SOL    HW274969   1.449   1.617   6.537  0.1694 -0.3773  0.2828
24510SOL     OW74970   2.242   3.075   4.508 -0.2509 -0.2449  0.1148
24510SOL    HW174971   2.189   2.996   4.495  0.0612 -0.3862 -0.3273
24510SOL    HW274972   2.261   3.076   4.602 -0.8171 -0.3308  0.2355
24511SOL     OW74973   5.927   4.481   1.333 -0.0450  0.6912  0.1439
24511SOL    HW174974   5.899   4.572   1.344 -1.1172  0.1931  1.8952
24511SOL    HW274975   5.852   4.429   1.363  0.6587 -0.7825 -0.5251
24512SOL     OW74976   0.295   0.364   4.543 -0.1922 -0.2651  0.2828
24512SOL    HW174977   0.267   0.455   4.532 -0.1678 -0.3656 -0.8017
24512SOL    HW274978   0.343   0.344   4.462 -1.2074 -1.6105 -0.0253
24513SOL     OW74979   1.557   5.351  10.110  0.1794 -0.2698 -0.1929
24513SOL    HW174980   1.566   5.433  10.159 -1.5087  0.5881 -1.2352
24513SOL    HW274981   1.641   5.307  10.121  1.2569  1.7655  0.0800
24514SOL     OW74982   5.979   1.118   2.544 -0.5161 -0.0877  0.0368
24514SOL    HW174983   5.891   1.104   2.507  0.1190  0.5636 -1.8294
24514SOL    HW274984   6.003   1.206   2.515  1.0571 -0.5531 -0.1123
24515SOL     OW74985   1.307   0.785   8.958 -0.0644  0.4783 -0.6809
24515SOL    HW174986   1.229   0.742   8.992 -0.4254 -0.1705 -2.2252
24515SOL    HW274987   1.336   0.842   9.029 -0.6427 -0.9298  0.7684
24516SOL     OW74988   0.626   1.295   8.863 -0.1628 -1.0851  0.0019
24516SOL    HW174989   0.573   1.244   8.802 -0.3727  0.8332 -1.5026
24516SOL    HW274990   0.705   1.317   8.814 -0.1954  0.2317  0.4998
24517SOL     OW74991   4.230   6.554   5.281 -0.2297 -0.3831 -0.3250
24517SOL    HW174992   4.219   6.485   5.217 -1.0813  0.0211 -0.6276
24517SOL    HW274993   4.314   6.535   5.323  0.5919 -0.3639 -1.9016
24518SOL     OW74994   4.942   1.177   6.561 -0.1526  0.1458  0.4763
24518SOL    HW174995   4.950   1.264   6.522 -0.4043  0.2620  0.6839
24518SOL    HW274996   5.002   1.122   6.510 -0.5335  0.2836 -0.1296
24519SOL     OW74997   0.215   4.315   0.845  0.1083  0.0015 -0.3418
24519SOL    HW174998   0.128   4.282   0.870 -0.8603  2.6920  0.1613
24519SOL    HW274999   0.205   4.344   0.755  0.3044  0.8468 -0.0986
24520SOL     OW75000   6.410   0.402   3.775 -0.1518  0.6563  0.0712
24520SOL    HW175001   6.365   0.326   3.738 -1.2617 -0.4225  3.2437
24520SOL    HW275002   6.486   0.416   3.718 -1.5446 -0.9322 -2.3063
24521SOL     OW75003   6.226   3.733   3.035 -0.2053  0.5929 -0.0707
24521SOL    HW175004   6.267   3.777   2.961  0.8214 -1.1664 -0.6000
24521SOL    HW275005   6.298   3.708   3.092 -0.5686 -1.6141 -0.4858
24522SOL     OW75006   3.830   7.982   7.644  0.2071  0.0579 -0.4163
24522SOL    HW175007   3.825   7.894   7.608  1.0003  0.2078 -0.8962
24522SOL    HW275008   3.786   8.037   7.579 -3.8820 -0.4303  1.6077
24523SOL     OW75009   3.931   4.731   9.490  0.6159  0.0058  0.2636
24523SOL    HW175010   3.959   4.698   9.404  1.0272 -0.0120  0.3998
24523SOL    HW275011   3.844   4.767   9.475 -0.4165 -2.2924  0.3605
24524SOL     OW75012   0.135   6.448  11.088  0.0455  0.2041  0.5720
24524SOL    HW175013   0.118   6.429  11.181 -3.3175 -2.3131 -0.3678
24524SOL    HW275014   0.173   6.367  11.054 -0.1593  0.5632 -0.5348
24525SOL     OW75015   7.644   2.277   4.639 -0.4415 -0.1638 -0.3882
24525SOL    HW175016   7.646   2.373   4.643  2.3854 -0.1507  0.2072
24525SOL    HW275017   7.702   2.255   4.566 -0.9352 -1.4452 -0.4168
24526SOL     OW75018   2.781   5.256   6.126  0.0861  0.5222  0.0466
24526SOL    HW175019   2.843   5.325   6.103  0.8756 -0.2151 -0.0991
24526SOL    HW275020   2.834   5.189   6.168 -0.9961  0.8822  2.1355
24527SOL     OW75021   2.736   0.855  12.347 -0.2418  0.2810 -0.5989
24527SOL    HW175022   2.778   0.941  12.351 -0.1990  0.2268  0.1487
24527SOL    HW275023   2.799   0.796  12.388 -0.8371  0.1159  0.0967
24528SOL     OW75024   5.633   2.098   4.848 -0.1337 -0.3179 -0.1431
24528SOL    HW175025   5.706   2.103   4.786  0.2535 -0.6939  0.2760
24528SOL    HW275026   5.668   2.137   4.929 -0.5818  0.0206 -0.1075
24529SOL     OW75027   1.441   3.492  11.693  0.5735  0.5007  0.2022
24529SOL    HW175028   1.514   3.544  11.657  0.4219  0.3669 -0.3136
24529SOL    HW275029   1.467   3.401  11.678 -0.5592  0.4462 -1.8189
24530SOL     OW75030   6.914   7.237   9.032  0.2783  0.3551 -0.3837
24530SOL    HW175031   6.837   7.221   9.087  1.9147  0.7545  2.1858
24530SOL    HW275032   6.878   7.257   8.946 -2.3915 -2.0821 -0.0087
24531SOL     OW75033   5.400   2.381   3.883  0.1642  0.6091  0.2144
24531SOL    HW175034   5.373   2.472   3.897 -0.5955  0.2769  1.1111
24531SOL    HW275035   5.491   2.378   3.912  0.2076  1.0965  0.1331
24532SOL     OW75036   5.305   5.825   2.032 -0.3753 -0.1246  0.5243
24532SOL    HW175037   5.268   5.737   2.043  0.6947 -0.5188  1.2076
24532SOL    HW275038   5.304   5.862   2.120 -0.3416  0.3483  0.3262
24533SOL     OW75039   0.063   6.695   6.789  0.0593  0.1882 -0.0105
24533SOL    HW175040   0.130   6.755   6.823  0.4802 -0.2679 -0.0227
24533SOL    HW275041   0.069   6.618   6.846 -2.1319  1.0949  1.5528
24534SOL     OW75042   6.313   0.691   3.125 -0.3776  0.6764  0.3552
24534SOL    HW175043   6.305   0.737   3.041 -1.5497  2.9858  1.6316
24534SOL    HW275044   6.275   0.751   3.189 -1.2678 -1.7865  2.3051
24535SOL     OW75045   6.562   3.228   7.603 -0.7528 -0.1101 -0.1545
24535SOL    HW175046   6.476   3.255   7.572 -1.4036  0.2833  1.8853
24535SOL    HW275047   6.569   3.264   7.691  1.1856 -0.7987  0.0254
24536SOL     OW75048   6.033   2.485   1.334  0.4251 -0.1321  0.4934
24536SOL    HW175049   6.121   2.493   1.299 -0.6772  1.6342 -2.2236
24536SOL    HW275050   6.008   2.575   1.357 -1.1279 -0.3901 -0.0599
24537SOL     OW75051   4.825   7.882   2.256 -0.1181 -0.4920 -0.0343
24537SOL    HW175052   4.756   7.948   2.262 -0.1885 -0.5779  0.1015
24537SOL    HW275053   4.806   7.835   2.174 -0.0452 -0.3194 -0.1508
24538SOL     OW75054   2.784   6.046  10.655  0.1038  0.0989  0.3101
24538SOL    HW175055   2.719   5.976  10.647 -0.0757  0.4682 -2.7382
24538SOL    HW275056   2.840   6.035  10.578  0.6659  2.7141  0.2649
24539SOL     OW75057   4.722   7.649   7.501 -0.3865 -0.3694 -0.2493
24539SOL    HW175058   4.661   7.658   7.427 -0.1910 -0.8623 -0.4783
24539SOL    HW275059   4.764   7.563   7.487 -0.2337 -0.3956  0.3499
24540SOL     OW75060   6.042   0.433   2.578  0.2950  0.4860  0.4122
24540SOL    HW175061   6.110   0.378   2.538 -1.7255 -1.5475 -0.4545
24540SOL    HW275062   6.026   0.393   2.664 -1.1839 -0.3761 -0.2197
24541SOL     OW75063   2.928   0.569   2.561 -0.2083 -0.2407 -0.4544
24541SOL    HW175064   2.866   0.642   2.568 -0.6183 -0.6374  0.2464
24541SOL    HW275065   2.892   0.503   2.620 -0.1844 -1.2651 -1.5625
24542SOL     OW75066   3.412   0.144   2.875  0.3060 -0.4654  0.3622
24542SOL    HW175067   3.329   0.191   2.866 -0.7617 -2.3887 -0.4193
24542SOL    HW275068   3.428   0.141   2.969 -1.2663 -1.2885  0.6258
24543SOL     OW75069   6.356   4.199   2.287  0.9823  0.1531 -0.2004
24543SOL    HW175070   6.289   4.133   2.270 -0.5281  1.6083 -0.1934
24543SOL    HW275071   6.313   4.262   2.345  2.3767  1.1198 -0.1701
24544SOL     OW75072   5.499   2.590   7.887 -0.2945 -0.1820  0.2605
24544SOL    HW175073   5.556   2.622   7.816 -0.1430 -0.9753  0.0088
24544SOL    HW275074   5.464   2.669   7.927  1.6668  0.3894  0.9933
24545SOL     OW75075   1.218   5.620   3.061  0.7109 -0.1819 -0.5738
24545SOL    HW175076   1.274   5.674   3.117  1.2935 -0.8992 -0.4361
24545SOL    HW275077   1.277   5.589   2.992  0.5821 -1.2502 -0.2175
24546SOL     OW75078   1.568   5.833   2.844 -0.1266  0.5057 -0.5824
24546SOL    HW175079   1.565   5.831   2.748 -0.1178 -1.8179 -0.5842
24546SOL    HW275080   1.661   5.838   2.865 -0.1438  1.4664 -0.6513
24547SOL     OW75081   3.733   7.590   8.721 -0.1932  0.3554  0.6532
24547SOL    HW175082   3.818   7.571   8.681  0.0606  1.9524  0.3597
24547SOL    HW275083   3.673   7.595   8.647 -0.7406 -1.5702  0.9239
24548SOL     OW75084   7.186   5.161   5.078  0.6416 -0.1104 -0.3826
24548SOL    HW175085   7.163   5.253   5.072  1.0871 -0.0234 -0.7970
24548SOL    HW275086   7.104   5.114   5.062  0.5459  0.2058 -0.8347
24549SOL     OW75087   6.149   0.488  12.310  0.4024 -0.2879  0.4626
24549SOL    HW175088   6.143   0.407  12.260 -0.7242 -0.2054  0.4442
24549SOL    HW275089   6.240   0.516  12.300  0.6413 -1.2178 -0.0441
24550SOL     OW75090   0.048   4.933  12.263  0.4568 -0.7599  0.1032
24550SOL    HW175091  -0.039   4.899  12.241  0.5833 -0.7037 -0.5013
24550SOL    HW275092   0.034   4.983  12.343 -0.3657  0.4409 -0.7483
24551SOL     OW75093   3.776   6.266   8.215 -0.3874 -0.6073 -0.1869
24551SOL    HW175094   3.857   6.305   8.248 -0.9390  1.2287 -0.8825
24551SOL    HW275095   3.794   6.248   8.123 -0.9775  0.5320 -0.5491
24552SOL     OW75096   6.630   3.096   3.500  0.0585  0.1054  0.3539
24552SOL    HW175097   6.645   3.006   3.530 -0.5007 -0.3394 -0.6458
24552SOL    HW275098   6.716   3.138   3.507  1.2245 -1.5187 -2.4157
24553SOL     OW75099   2.403   3.144   2.299 -0.4383  0.2401  0.2799
24553SOL    HW175100   2.455   3.099   2.365  0.8683  2.1772  0.6590
24553SOL    HW275101   2.317   3.156   2.341  0.1176  0.7193  1.3117
24554SOL     OW75102   0.962   4.861   5.450 -0.0830 -0.2005  0.6163
24554SOL    HW175103   0.958   4.770   5.480 -0.6025 -0.9452 -1.4660
24554SOL    HW275104   0.892   4.905   5.498 -0.0006 -0.9754  1.4737
24555SOL     OW75105   3.193   6.413   9.997  0.5843  0.3986  0.4426
24555SOL    HW175106   3.199   6.345  10.065 -1.3314 -1.2519 -0.9039
24555SOL    HW275107   3.099   6.419   9.978  0.7471  3.1386  0.1362
24556SOL     OW75108   4.948   1.929   5.339  0.4733  0.3031 -0.2719
24556SOL    HW175109   4.931   1.848   5.291 -3.5938  0.0534  1.1642
24556SOL    HW275110   4.993   1.901   5.419 -0.6927 -0.5686  0.0997
24557SOL     OW75111   7.417   1.617   0.152  0.1075  0.2843 -0.1083
24557SOL    HW175112   7.339   1.583   0.110  1.2167 -0.2145 -1.8809
24557SOL    HW275113   7.436   1.699   0.106  1.2512 -0.1795 -0.4983
24558SOL     OW75114   2.677   5.120   1.295  0.2960 -0.7238  0.1955
24558SOL    HW175115   2.756   5.089   1.252  0.4495 -1.0614  0.7113
24558SOL    HW275116   2.658   5.204   1.253  0.1463 -1.2735 -0.8828
24559SOL     OW75117   0.633   2.551   8.038  0.1135  0.2688  0.0865
24559SOL    HW175118   0.681   2.523   7.960 -0.4593 -0.2520 -0.0824
24559SOL    HW275119   0.585   2.629   8.010 -0.3611 -0.1140 -0.1852
24560SOL     OW75120   0.683   2.673   3.238 -0.0551 -0.2613 -0.3199
24560SOL    HW175121   0.755   2.695   3.297 -0.2851 -0.0795 -0.1095
24560SOL    HW275122   0.697   2.581   3.217 -0.9179 -0.8073  1.3343
24561SOL     OW75123   4.147   4.630   7.640 -0.0429 -0.2247  0.7314
24561SOL    HW175124   4.162   4.648   7.547  1.9729 -0.9114  0.8605
24561SOL    HW275125   4.082   4.560   7.641 -0.4455  0.1296 -0.1416
24562SOL     OW75126   4.777   2.978   7.886 -0.1948 -0.6165 -0.2383
24562SOL    HW175127   4.864   2.942   7.869 -0.2051 -0.2480 -1.1276
24562SOL    HW275128   4.720   2.902   7.888  0.3015 -0.9905  1.5660
24563SOL     OW75129   5.474   3.537   3.968 -0.3262  0.4007  0.2707
24563SOL    HW175130   5.542   3.475   3.995 -0.7136 -0.1650 -0.0369
24563SOL    HW275131   5.392   3.494   3.992 -0.7916 -0.7902 -3.0038
24564SOL     OW75132   4.969   1.386   8.249 -0.2093 -0.5461 -0.1043
24564SOL    HW175133   4.944   1.444   8.177  0.7745  0.4380  0.3257
24564SOL    HW275134   5.017   1.315   8.207 -1.1059 -0.8865 -0.5926
24565SOL     OW75135   5.177   4.707   7.691  0.1205 -0.4016 -0.0599
24565SOL    HW175136   5.194   4.721   7.598  2.4367  1.9747  0.5864
24565SOL    HW275137   5.247   4.648   7.720 -1.9651 -3.1361 -0.1579
24566SOL     OW75138   0.544   3.613   9.965 -0.1721  0.2628  0.6421
24566SOL    HW175139   0.629   3.583   9.996 -0.2419  0.5632  1.1328
24566SOL    HW275140   0.492   3.625  10.044 -0.5840  0.3407  0.3635
24567SOL     OW75141   0.182   6.642   4.614  0.6579  0.0171  0.7486
24567SOL    HW175142   0.216   6.609   4.530  0.5916 -0.0990  0.7662
24567SOL    HW275143   0.255   6.633   4.675  1.1415  1.3933  0.3854
24568SOL     OW75144   7.365   3.491   8.968 -0.0802 -0.2053 -0.7247
24568SOL    HW175145   7.298   3.559   8.971 -1.0924 -1.1617 -1.0091
24568SOL    HW275146   7.426   3.515   9.038 -0.7474  0.6475 -0.4134
24569SOL     OW75147   1.228   6.321   9.116 -0.1913 -0.4462 -0.8633
24569SOL    HW175148   1.302   6.343   9.173  0.2863 -1.8086 -0.9041
24569SOL    HW275149   1.158   6.295   9.176 -1.1841  2.2250 -0.7601
24570SOL     OW75150   3.484   6.797   1.502 -0.5474  0.5483  0.4962
24570SOL    HW175151   3.512   6.886   1.523  1.1682 -0.2018  1.6899
24570SOL    HW275152   3.416   6.808   1.436 -0.4108  2.7359  0.6365
24571SOL     OW75153   1.796   4.721   3.805  0.1010 -0.0174 -0.7616
24571SOL    HW175154   1.792   4.641   3.752  1.6578 -0.2920 -0.5067
24571SOL    HW275155   1.869   4.770   3.767 -0.9382  1.3745 -1.0102
24572SOL     OW75156   4.897   4.521   3.459  0.3709 -0.1546 -0.0941
24572SOL    HW175157   4.860   4.454   3.402  0.2516  0.4417 -0.7264
24572SOL    HW275158   4.961   4.567   3.404  0.4984  0.2069  0.3530
24573SOL     OW75159   2.798   2.189   6.261 -0.4533  0.4141 -0.3065
24573SOL    HW175160   2.730   2.130   6.229 -1.2811  0.1203  1.8238
24573SOL    HW275161   2.816   2.247   6.187 -3.0533  0.5282 -0.9531
24574SOL     OW75162   0.422   1.346   8.636  0.4705  0.1885 -0.3064
24574SOL    HW175163   0.451   1.431   8.670 -0.9737  0.5487  0.1299
24574SOL    HW275164   0.448   1.347   8.544 -1.2843  2.0149 -0.8673
24575SOL     OW75165   7.607   3.418   6.154  0.5591 -0.1182 -0.0409
24575SOL    HW175166   7.685   3.409   6.100 -0.4182  0.5284 -1.6234
24575SOL    HW275167   7.536   3.386   6.099 -0.3111 -0.7021  1.3709
24576SOL     OW75168   7.276   7.600   2.597  0.1458  0.2377  0.1545
24576SOL    HW175169   7.226   7.523   2.627 -0.1241  0.3838  0.0861
24576SOL    HW275170   7.211   7.654   2.553  0.1471  0.9356  0.9833
24577SOL     OW75171   0.566   2.690   9.912 -0.4014  0.5015  0.2702
24577SOL    HW175172   0.655   2.655   9.909 -0.6725 -0.1246 -0.9664
24577SOL    HW275173   0.577   2.782   9.936  0.6442  0.6350 -0.6603
24578SOL     OW75174   2.409   3.144  11.988  0.0160  0.4166  0.3543
24578SOL    HW175175   2.500   3.155  11.961  1.2811 -1.9279  3.1641
24578SOL    HW275176   2.388   3.053  11.965 -1.0159  0.4007  1.3075
24579SOL     OW75177   2.351   4.857   1.160 -0.3883 -0.1224 -0.5852
24579SOL    HW175178   2.290   4.828   1.092  0.2937  0.1124 -1.3129
24579SOL    HW275179   2.437   4.855   1.118  0.0823 -0.1876  0.3425
24580SOL     OW75180   0.638   1.541   0.953  0.1245 -0.8356  0.4948
24580SOL    HW175181   0.580   1.600   1.001  0.3827 -0.7119  0.6635
24580SOL    HW275182   0.714   1.595   0.932  0.1327 -0.9673  0.1879
24581SOL     OW75183   1.745   7.132  10.536  1.1037  0.6939  0.1359
24581SOL    HW175184   1.676   7.174  10.486 -1.4204 -0.3754  2.4306
24581SOL    HW275185   1.779   7.200  10.593  0.1523  0.6772  0.7391
24582SOL     OW75186   7.958   5.393  11.398 -0.1196 -0.0707 -0.0642
24582SOL    HW175187   7.967   5.477  11.444  0.7958 -0.5666  0.6814
24582SOL    HW275188   7.877   5.403  11.347  0.2196  1.4390 -0.3652
24583SOL     OW75189   6.978   7.589  11.796 -0.1613  0.0728 -0.0063
24583SOL    HW175190   7.010   7.499  11.789 -0.5227 -0.0229 -0.4724
24583SOL    HW275191   6.899   7.583  11.850 -1.1935 -0.1601 -1.4738
24584SOL     OW75192   3.161   4.838  10.025  0.0182  0.3099 -0.2879
24584SOL    HW175193   3.157   4.866  10.117 -0.5534  0.1163 -0.2500
24584SOL    HW275194   3.179   4.918   9.977 -0.1477  0.4964 -0.0461
24585SOL     OW75195   3.129   7.053   7.397 -0.5522  0.2942 -0.1428
24585SOL    HW175196   3.133   6.963   7.366  0.3559  1.0833 -2.5327
24585SOL    HW275197   3.220   7.076   7.416 -0.3550  1.5049 -2.2432
24586SOL     OW75198   7.611   2.309   0.248  0.1316 -0.0350 -0.3317
24586SOL    HW175199   7.562   2.372   0.301 -0.0868 -0.3007 -0.2157
24586SOL    HW275200   7.544   2.265   0.195  0.1732 -0.7955  0.2375
24587SOL     OW75201   0.091   5.423   0.933  0.4482 -0.0068  0.2615
24587SOL    HW175202   0.105   5.328   0.932 -0.1498 -0.1016  0.8581
24587SOL    HW275203   0.165   5.457   0.882  0.2193 -0.8454 -0.6789
24588SOL     OW75204   0.909   2.428  11.524 -0.3289  0.0652 -0.0252
24588SOL    HW175205   0.971   2.367  11.564  0.7310  1.0168 -0.1745
24588SOL    HW275206   0.890   2.492  11.593 -2.1855 -0.9256  0.4479
24589SOL     OW75207   5.621   2.874   5.965  0.3573  0.0285 -0.2578
24589SOL    HW175208   5.701   2.889   5.915  0.0999  1.3447 -0.3091
24589SOL    HW275209   5.612   2.952   6.020 -0.1171 -0.7593  0.8268
24590SOL     OW75210   5.235   6.584   2.752  0.0198  0.1387 -0.6850
24590SOL    HW175211   5.241   6.536   2.669 -1.2384 -1.6903  0.2102
24590SOL    HW275212   5.239   6.516   2.819 -1.9599  1.2748  0.6713
24591SOL     OW75213   7.154   4.744  10.692  0.2667  0.4899  0.1048
24591SOL    HW175214   7.121   4.672  10.746  2.2323 -0.1481  0.5337
24591SOL    HW275215   7.161   4.818  10.752  0.6926  0.3070  0.2795
24592SOL     OW75216   2.190   2.628   3.055  0.0117  0.3123 -0.3589
24592SOL    HW175217   2.279   2.612   3.026  0.5399  1.0796  0.7497
24592SOL    HW275218   2.159   2.699   3.000  0.8138  1.3941  0.5266
24593SOL     OW75219   2.568   4.616   2.650  0.3099 -0.3198 -0.4295
24593SOL    HW175220   2.559   4.544   2.588  0.4334 -0.5601 -0.1706
24593SOL    HW275221   2.483   4.622   2.693  0.6626 -1.1188  0.4190
24594SOL     OW75222   5.314   2.012   0.821 -0.1171  0.4292  0.0700
24594SOL    HW175223   5.277   2.034   0.907  1.0116 -1.8578  1.2331
24594SOL    HW275224   5.242   2.024   0.760 -1.0058  1.9642  1.3280
24595SOL     OW75225   0.240   0.104  10.358 -0.6571  0.0166 -0.4800
24595SOL    HW175226   0.215   0.014  10.336  0.1533 -0.8154  1.7856
24595SOL    HW275227   0.160   0.143  10.393 -0.8774  0.0473 -0.9981
24596SOL     OW75228   0.331   0.061   6.792 -0.1273  0.1559 -0.1337
24596SOL    HW175229   0.250   0.057   6.843  0.1267  1.7525  0.4588
24596SOL    HW275230   0.308   0.021   6.708 -0.7161 -2.0061  0.9848
24597SOL     OW75231   5.387   3.219   8.084  0.4108  0.0272 -0.4260
24597SOL    HW175232   5.356   3.131   8.059 -0.6818  0.4907 -0.7872
24597SOL    HW275233   5.312   3.258   8.129 -0.0221  1.6474 -2.3918
24598SOL     OW75234   5.326   6.783   2.552 -0.0006  0.6528 -0.1464
24598SOL    HW175235   5.353   6.864   2.595  1.6526  0.2522 -0.3363
24598SOL    HW275236   5.346   6.714   2.615 -1.7933  0.3814  0.1849
24599SOL     OW75237   2.317   4.666   6.644  0.6035  0.8163  0.4359
24599SOL    HW175238   2.307   4.603   6.715  0.2589  0.8418  0.4130
24599SOL    HW275239   2.326   4.751   6.687  0.5555  0.8126  0.4535
24600SOL     OW75240   1.277   2.743   7.999  0.1902  0.1711 -0.1106
24600SOL    HW175241   1.330   2.706   7.928 -0.4810 -1.9896  0.4431
24600SOL    HW275242   1.187   2.724   7.974 -0.2089  1.5793  0.1763
24601SOL     OW75243   7.809   5.146   9.499 -0.4655  0.4755  0.1510
24601SOL    HW175244   7.714   5.146   9.487 -0.4229 -0.4051 -0.2880
24601SOL    HW275245   7.822   5.117   9.589 -0.5669 -2.1894 -0.6228
24602SOL     OW75246   3.267   0.082   6.783 -0.0092  0.3170  0.0245
24602SOL    HW175247   3.236   0.047   6.700  0.4645 -0.8819  0.3373
24602SOL    HW275248   3.243   0.175   6.780 -0.8787  0.0780 -1.0221
24603SOL     OW75249   3.201   1.935   1.436 -0.2506 -0.0586 -0.0180
24603SOL    HW175250   3.250   1.896   1.508 -2.4709  0.8226  2.1286
24603SOL    HW275251   3.144   1.864   1.405  0.2226 -0.2495 -0.4600
24604SOL     OW75252   7.450   6.753  11.071 -0.0995  0.3156 -0.1434
24604SOL    HW175253   7.439   6.749  10.976  0.6049 -0.8141 -0.2081
24604SOL    HW275254   7.531   6.704  11.087  0.4589  1.5556  0.9342
24605SOL     OW75255   7.335   4.536   6.973 -0.1228  0.0435  0.7982
24605SOL    HW175256   7.375   4.615   7.010  1.2650  0.7378 -1.9505
24605SOL    HW275257   7.393   4.465   7.000 -0.4977  0.1402  1.9390
24606SOL     OW75258   3.133   2.972   3.218 -0.4046  0.1400 -0.3355
24606SOL    HW175259   3.122   3.065   3.239  0.9362  0.3884 -0.6574
24606SOL    HW275260   3.138   2.970   3.123 -1.8033 -0.4365 -0.4115
24607SOL     OW75261   1.639   7.345  10.005 -0.0294  0.0013  0.2777
24607SOL    HW175262   1.720   7.295   9.995 -1.1588 -1.9650  0.6505
24607SOL    HW275263   1.609   7.361   9.915 -0.9452 -2.2041  0.1468
24608SOL     OW75264   4.956   7.035  12.463 -0.1345  0.1671  0.7776
24608SOL    HW175265   5.046   7.017  12.493  0.5291  0.2582 -1.0265
24608SOL    HW275266   4.923   7.100  12.525  0.8006 -0.3527  1.8650
24609SOL     OW75267   1.015   1.668   0.109  0.0798 -0.1973  0.1223
24609SOL    HW175268   1.076   1.623   0.051 -0.0712 -1.8698  1.2095
24609SOL    HW275269   1.067   1.694   0.185  0.1878  1.6298 -0.5148
24610SOL     OW75270   4.381   7.400   4.764  0.6404 -0.3269  0.6964
24610SOL    HW175271   4.351   7.327   4.710  3.2419  0.3541 -1.9141
24610SOL    HW275272   4.438   7.359   4.829  0.7227 -0.8073  0.3287
24611SOL     OW75273   1.193   4.138   7.543  0.2417 -0.1406  0.4564
24611SOL    HW175274   1.103   4.116   7.566  0.4487 -0.3608  1.0712
24611SOL    HW275275   1.189   4.158   7.449 -0.4674 -0.0075  0.5066
24612SOL     OW75276   2.467   6.459   3.297  0.8970  0.0606  0.9104
24612SOL    HW175277   2.436   6.368   3.289 -1.0685  0.6364  1.2961
24612SOL    HW275278   2.536   6.467   3.231 -0.4380 -1.0948 -0.7151
24613SOL     OW75279   2.048   7.394   1.159  0.6965  0.3070  0.4963
24613SOL    HW175280   2.042   7.367   1.067  1.0357 -0.0216  0.5715
24613SOL    HW275281   2.096   7.323   1.202 -0.6297 -0.1986  1.2013
24614SOL     OW75282   5.695   4.389   1.416 -0.1802  0.1088  0.2454
24614SOL    HW175283   5.653   4.361   1.498 -0.8549  0.0679 -0.1054
24614SOL    HW275284   5.647   4.467   1.390 -0.6505 -0.4534 -0.6382
24615SOL     OW75285   1.629   4.346   7.956  0.4842  0.2468 -0.2550
24615SOL    HW175286   1.587   4.376   8.037 -1.0686  2.3404 -1.7114
24615SOL    HW275287   1.635   4.251   7.966 -0.2647  0.3709  2.0266
24616SOL     OW75288   7.874   0.295  11.628 -0.0072 -0.4573 -0.8095
24616SOL    HW175289   7.874   0.368  11.690 -1.3486 -1.7004  0.7443
24616SOL    HW275290   7.931   0.325  11.556  1.9386  0.9105  1.1506
24617SOL     OW75291   5.240   5.330   6.165 -0.8047 -0.0550  0.1272
24617SOL    HW175292   5.329   5.309   6.137 -0.8504  0.2269 -0.2300
24617SOL    HW275293   5.251   5.366   6.253 -0.5476  0.1590  0.0088
24618SOL     OW75294   0.981   2.280   1.250  0.3899 -0.0508 -0.2525
24618SOL    HW175295   1.019   2.331   1.179 -1.9683  1.6132 -0.4595
24618SOL    HW275296   0.904   2.238   1.210  0.9763 -1.9557  0.5026
24619SOL     OW75297   4.141   2.783   3.960 -0.1503  0.0663 -0.3018
24619SOL    HW175298   4.155   2.775   4.055 -2.9606  3.0749  0.5486
24619SOL    HW275299   4.080   2.712   3.939 -0.8239  0.3937  0.5109
24620SOL     OW75300   5.630   4.107   0.287 -0.4939  0.5313 -0.1357
24620SOL    HW175301   5.599   4.051   0.357 -1.0397  1.3553  0.3001
24620SOL    HW275302   5.680   4.176   0.332  1.0827 -0.1798 -0.7381
24621SOL     OW75303   6.614   1.142   9.028 -0.3467 -0.5771  0.4283
24621SOL    HW175304   6.645   1.224   9.066  2.0753 -1.5111  0.6075
24621SOL    HW275305   6.610   1.159   8.934 -0.6589 -0.0148  0.5417
24622SOL     OW75306   7.212   5.389   8.868 -0.3183  0.0430  0.1788
24622SOL    HW175307   7.206   5.474   8.911  0.3907  0.3143 -0.2348
24622SOL    HW275308   7.244   5.409   8.780  0.3470 -0.6948  0.2386
24623SOL     OW75309   0.393   2.547   7.892  0.2868 -0.4681 -0.4023
24623SOL    HW175310   0.343   2.528   7.813  1.2245 -1.7400 -0.7096
24623SOL    HW275311   0.434   2.632   7.874 -0.5671 -0.1114 -0.7233
24624SOL     OW75312   7.528   7.521   4.241 -0.1161  0.5765 -0.1965
24624SOL    HW175313   7.609   7.518   4.293 -0.7366 -0.2009  0.7508
24624SOL    HW275314   7.488   7.436   4.255  0.3395 -0.2057 -3.0476
24625SOL     OW75315   7.757   2.366  10.742  0.5557  0.2347 -0.2379
24625SOL    HW175316   7.672   2.343  10.704  1.0912 -0.8885 -0.8042
24625SOL    HW275317   7.749   2.459  10.763 -0.5983  0.3002 -0.8579
24626SOL     OW75318   1.681   2.171   4.479  0.0873  0.4051  0.4994
24626SOL    HW175319   1.620   2.223   4.531 -0.5837 -1.8679  2.1467
24626SOL    HW275320   1.670   2.081   4.511  1.8751 -0.6346 -1.5114
24627SOL     OW75321   7.417   0.267   3.331 -0.0736 -0.4453 -0.6376
24627SOL    HW175322   7.508   0.290   3.309  0.0579 -0.7695 -0.4310
24627SOL    HW275323   7.378   0.351   3.357  0.6126 -0.5411  0.8159
24628SOL     OW75324   6.411   4.544  11.045  0.0625  0.1990 -0.5423
24628SOL    HW175325   6.322   4.580  11.052  0.1925  0.6191 -0.9687
24628SOL    HW275326   6.415   4.508  10.956  0.7773  1.4596 -1.0460
24629SOL     OW75327   1.085   1.089   7.371 -0.0428 -0.1788  0.1729
24629SOL    HW175328   1.047   1.080   7.458  1.9386 -0.1060  1.1081
24629SOL    HW275329   1.053   1.174   7.339 -0.7413 -0.1773  0.8576
24630SOL     OW75330   7.284   2.564   1.605  0.3485  0.1464  0.6585
24630SOL    HW175331   7.368   2.535   1.569  1.2811 -2.0214  4.1504
24630SOL    HW275332   7.304   2.646   1.649  0.5303 -0.0884  1.0190
24631SOL     OW75333   0.049   4.838   7.493 -0.4324 -0.2285  0.1253
24631SOL    HW175334   0.030   4.800   7.579  2.1027  0.2941  1.0137
24631SOL    HW275335   0.089   4.923   7.513 -0.9668  0.4816 -1.6420
24632SOL     OW75336   4.197   0.832   7.050  0.5594  0.0271 -0.5539
24632SOL    HW175337   4.159   0.800   7.132 -1.3680 -1.5600 -1.9545
24632SOL    HW275338   4.146   0.910   7.029 -0.9661 -1.1766 -1.5994
24633SOL     OW75339   2.617   4.632  10.710  0.2568 -0.0724 -0.0439
24633SOL    HW175340   2.693   4.619  10.654  0.8741  0.3465  0.6773
24633SOL    HW275341   2.644   4.598  10.795 -0.2172  0.4605  0.3264
24634SOL     OW75342   5.033   3.861   2.407  0.2891 -0.3293 -0.3860
24634SOL    HW175343   4.963   3.796   2.416 -1.5911  1.4078 -1.5527
24634SOL    HW275344   5.054   3.860   2.314 -0.9080  1.7404 -0.7450
24635SOL     OW75345   7.292   3.135  10.016 -0.1902 -0.1667  0.0210
24635SOL    HW175346   7.297   3.165  10.107  0.8065 -0.3424  0.0429
24635SOL    HW275347   7.353   3.192   9.969  1.4823 -1.8783  0.0045
24636SOL     OW75348   3.112   1.720  11.444 -0.4041 -0.2746 -0.1355
24636SOL    HW175349   3.187   1.756  11.396  1.0524 -0.8927  1.5782
24636SOL    HW275350   3.126   1.748  11.534 -1.7456 -1.2037  0.3827
24637SOL     OW75351   4.261   5.794   1.135 -0.7701 -0.5814 -0.0784
24637SOL    HW175352   4.170   5.788   1.164 -0.4405 -0.9397  0.9327
24637SOL    HW275353   4.298   5.865   1.188 -0.9994  1.1047 -2.0378
24638SOL     OW75354   4.716   7.742   5.435  0.5258  0.6635  0.5933
24638SOL    HW175355   4.688   7.673   5.495  1.5457  0.9954  1.4978
24638SOL    HW275356   4.635   7.773   5.394  0.1445 -1.7888 -0.6878
24639SOL     OW75357   7.769   4.602   2.253 -0.2732 -0.1063  0.8257
24639SOL    HW175358   7.716   4.591   2.331 -1.4670  0.0087  0.0521
24639SOL    HW275359   7.749   4.526   2.199  0.0554  0.1353  0.3546
24640SOL     OW75360   2.500   6.623   6.315  0.2231  0.3541  0.6122
24640SOL    HW175361   2.457   6.622   6.229 -1.4163  3.8630  1.2273
24640SOL    HW275362   2.592   6.644   6.296 -0.1190  1.0677 -0.3000
24641SOL     OW75363   7.424   1.473   2.022 -0.3482  0.0027 -0.0357
24641SOL    HW175364   7.426   1.556   1.975  2.3835  0.3560  0.5130
24641SOL    HW275365   7.416   1.497   2.114 -1.5069 -0.4711  0.0022
24642SOL     OW75366   3.613   5.922   9.642 -0.6584 -0.0987 -0.0420
24642SOL    HW175367   3.573   5.978   9.709 -0.2156 -0.4946  0.5626
24642SOL    HW275368   3.706   5.946   9.644 -0.9195  1.2405 -1.8419
24643SOL     OW75369   2.101   1.232   7.686 -0.3662  0.2445  0.0534
24643SOL    HW175370   2.027   1.287   7.711 -2.0150 -1.4368 -0.8726
24643SOL    HW275371   2.157   1.290   7.634 -0.4955  1.8100  1.5473
24644SOL     OW75372   0.370   4.202   8.901 -0.0315 -0.1331  0.5033
24644SOL    HW175373   0.297   4.183   8.960  0.0373 -1.4144  0.2156
24644SOL    HW275374   0.372   4.127   8.841 -0.8419  1.6601 -1.9100
24645SOL     OW75375   1.205   0.245   4.459  0.1070  0.2118 -0.0148
24645SOL    HW175376   1.296   0.228   4.483  0.1076  0.8612  0.4687
24645SOL    HW275377   1.156   0.174   4.500  0.2730  0.4803  0.6557
24646SOL     OW75378   6.634   4.085   4.397 -0.4751 -0.4748  0.1208
24646SOL    HW175379   6.663   4.091   4.306 -0.2535  1.1329  0.2572
24646SOL    HW275380   6.672   4.004   4.429  0.1010 -0.6711 -0.9999
24647SOL     OW75381   6.188   0.424   1.086 -0.2474 -0.4305 -0.1434
24647SOL    HW175382   6.159   0.496   1.030 -1.7814 -0.7479  0.2002
24647SOL    HW275383   6.180   0.346   1.030 -0.4124 -0.5675  0.0702
24648SOL     OW75384   1.282   0.766   1.863 -0.1355  0.0498 -0.3703
24648SOL    HW175385   1.215   0.708   1.899  1.3469 -1.2677  0.4193
24648SOL    HW275386   1.298   0.731   1.775  0.3286 -0.3664 -0.1224
24649SOL     OW75387   0.503   0.822  11.890 -0.0482 -0.0527  0.5644
24649SOL    HW175388   0.599   0.820  11.892  0.0394  1.3461 -0.5740
24649SOL    HW275389   0.482   0.867  11.808 -1.6521  0.7727  1.3853
24650SOL     OW75390   5.849   7.131  10.717  1.0452  0.3403  0.3301
24650SOL    HW175391   5.882   7.189  10.648 -0.4522 -0.1125 -0.8160
24650SOL    HW275392   5.859   7.043  10.681  1.1037  0.0366  1.0794
24651SOL     OW75393   1.926   2.182   4.946  0.7594 -0.4244  0.2276
24651SOL    HW175394   1.920   2.250   5.012  0.4152 -1.0553  0.8588
24651SOL    HW275395   1.992   2.214   4.885 -0.7030  1.3347 -0.5259
24652SOL     OW75396   1.967   5.801  10.358  0.2898  0.1898  0.0687
24652SOL    HW175397   1.909   5.788  10.433  0.6035  0.8742  0.4376
24652SOL    HW275398   1.975   5.896  10.350 -0.1895  0.1368 -1.1881
24653SOL     OW75399   7.189   3.382   4.354  0.1145  0.3064 -0.1605
24653SOL    HW175400   7.207   3.352   4.265 -1.8034 -0.6150 -0.3017
24653SOL    HW275401   7.239   3.463   4.363  0.7862  0.1172 -1.8776
24654SOL     OW75402   3.421   1.770   5.823  0.0763  0.5342 -0.1978
24654SOL    HW175403   3.455   1.727   5.901 -0.3675 -0.2791 -0.4311
24654SOL    HW275404   3.376   1.848   5.855 -0.4074  0.0233  0.3986
24655SOL     OW75405   7.093   0.333  12.445 -0.3056  0.1009  0.6696
24655SOL    HW175406   7.007   0.371  12.428 -0.5940 -0.4565  0.8612
24655SOL    HW275407   7.087   0.296  12.533  0.8575  2.0477  1.6269
24656SOL     OW75408   1.709   1.788   2.619  0.6483 -0.2491  0.0237
24656SOL    HW175409   1.636   1.782   2.681  0.2158  0.9157 -0.3403
24656SOL    HW275410   1.708   1.705   2.572 -0.5172 -0.2136 -0.0370
24657SOL     OW75411   5.331   1.176   9.115 -0.3680  0.6928 -0.7933
24657SOL    HW175412   5.288   1.091   9.127 -1.2527  0.9946 -1.7599
24657SOL    HW275413   5.334   1.214   9.203  0.7837 -0.6738 -0.1997
24658SOL     OW75414   7.767   0.581   7.956 -0.0982  0.3539  0.1313
24658SOL    HW175415   7.689   0.635   7.945 -0.0901  0.1378 -1.1141
24658SOL    HW275416   7.734   0.491   7.957  0.0023  0.3181  1.0596
24659SOL     OW75417   0.529   3.857   0.343  0.0671 -0.0894  0.0639
24659SOL    HW175418   0.535   3.873   0.437 -1.7974 -2.3001  0.6607
24659SOL    HW275419   0.469   3.924   0.310  0.5986  0.5887  0.4498
24660SOL     OW75420   4.391   7.898   5.577  0.7376  0.2716 -0.5570
24660SOL    HW175421   4.416   7.946   5.656 -2.3258  0.7778  0.2083
24660SOL    HW275422   4.375   7.809   5.607  0.5978  0.2061 -0.8251
24661SOL     OW75423   6.134   0.393   8.245 -0.0230 -0.2802 -0.2690
24661SOL    HW175424   6.060   0.346   8.284  0.7849 -1.4570 -0.0751
24661SOL    HW275425   6.198   0.400   8.315  0.1527  0.5215 -0.4988
24662SOL     OW75426   6.786   6.126   5.225  0.4412  0.7113  0.5742
24662SOL    HW175427   6.733   6.145   5.148 -1.4378 -0.7149  1.4178
24662SOL    HW275428   6.723   6.128   5.298  1.9268  0.8402  1.8895
24663SOL     OW75429   4.382   7.231   5.370  0.5107 -0.9242  0.0962
24663SOL    HW175430   4.312   7.169   5.349 -0.6030 -0.4975  2.2201
24663SOL    HW275431   4.458   7.176   5.391 -0.0940 -1.5532  0.7065
24664SOL     OW75432   2.675   6.297   1.893  0.1299 -0.1285  0.3134
24664SOL    HW175433   2.693   6.316   1.985 -0.4915  2.1867  0.0182
24664SOL    HW275434   2.600   6.237   1.896 -1.1351  1.4346  1.3298
24665SOL     OW75435   7.283   0.508   9.839  0.0303 -0.2759  0.0889
24665SOL    HW175436   7.203   0.487   9.790 -0.0175 -0.3246  0.1882
24665SOL    HW275437   7.353   0.461   9.792 -0.0964 -0.7651  0.3874
24666SOL     OW75438   7.913   5.458   9.073 -0.1423  0.0771 -0.1146
24666SOL    HW175439   7.983   5.414   9.121 -0.6216  0.9957  1.5082
24666SOL    HW275440   7.956   5.493   8.995  0.4631 -2.3080 -0.9646
24667SOL     OW75441   5.551   6.143   6.425 -0.6756  0.4420  0.2309
24667SOL    HW175442   5.637   6.182   6.407 -1.3574  1.5760 -0.6887
24667SOL    HW275443   5.570   6.070   6.484  1.0245  0.1502 -0.6108
24668SOL     OW75444   7.748   2.174  10.449 -0.1046 -0.1050  0.5502
24668SOL    HW175445   7.763   2.173  10.543  1.1532 -0.1444  0.3708
24668SOL    HW275446   7.762   2.083  10.422 -1.3441 -0.2795  0.4323
24669SOL     OW75447   3.278   6.290   9.752 -0.0181 -0.0294  0.0851
24669SOL    HW175448   3.269   6.195   9.744 -1.3459 -0.0535  1.4152
24669SOL    HW275449   3.232   6.311   9.834 -0.6230  1.8816 -0.7044
24670SOL     OW75450   5.210   6.645   1.614  0.2727  0.4151  0.0456
24670SOL    HW175451   5.124   6.679   1.591  0.1135  0.7812  1.1198
24670SOL    HW275452   5.259   6.722   1.643  0.3875 -0.0358  1.0836
24671SOL     OW75453   0.092   1.424   9.228  0.4827  0.2725 -0.7174
24671SOL    HW175454   0.013   1.371   9.219  0.5286  0.2404 -0.9387
24671SOL    HW275455   0.158   1.377   9.179  0.1889  1.2149 -2.0844
24672SOL     OW75456   6.273   5.452  10.145 -0.4103 -0.4521  0.7359
24672SOL    HW175457   6.296   5.362  10.120  0.9103  0.1440 -0.3015
24672SOL    HW275458   6.357   5.497  10.155 -1.0347  1.2346 -0.9789
24673SOL     OW75459   1.054   6.947   0.618  0.1014 -0.5331  0.2540
24673SOL    HW175460   1.042   6.884   0.547  0.6868 -0.1695 -0.1932
24673SOL    HW275461   0.984   7.012   0.605  0.1488 -0.5197  0.0630
24674SOL     OW75462   5.205   7.546   7.340 -0.2095 -0.2491  0.5834
24674SOL    HW175463   5.144   7.576   7.273 -0.3936 -1.7385  0.0541
24674SOL    HW275464   5.287   7.592   7.320 -0.6197  0.2932  0.1185
24675SOL     OW75465   1.154   6.088  10.236  0.2440 -0.0538  0.2513
24675SOL    HW175466   1.074   6.058  10.280 -0.5003  0.5342 -0.6378
24675SOL    HW275467   1.156   6.038  10.154  1.7789 -1.3702  1.0587
24676SOL     OW75468   5.072   5.271   4.772  0.0107  0.4342  0.0108
24676SOL    HW175469   5.045   5.188   4.811  0.9669  0.2977  0.4220
24676SOL    HW275470   5.145   5.248   4.714 -0.7982  0.7690 -1.1618
24677SOL     OW75471   4.337   3.463   4.708 -0.7715 -0.0812 -0.0221
24677SOL    HW175472   4.376   3.466   4.795 -0.2583  1.0725 -0.2773
24677SOL    HW275473   4.412   3.470   4.648 -0.9572 -2.2122 -0.6164
24678SOL     OW75474   2.509   0.698  11.834  0.0493  0.1780  0.5418
24678SOL    HW175475   2.535   0.790  11.836  1.1573 -0.1162  0.5278
24678SOL    HW275476   2.585   0.652  11.797 -0.2805 -0.8008  1.0327
24679SOL     OW75477   0.579   7.281  11.763 -0.1976  0.1919 -0.2419
24679SOL    HW175478   0.533   7.201  11.736  0.2607  0.5885 -2.3705
24679SOL    HW275479   0.562   7.288  11.857 -0.7048 -2.1028 -0.1032
24680SOL     OW75480   1.022   1.058   6.019  0.4635  0.0504  0.4968
24680SOL    HW175481   1.068   1.132   5.979  2.9812 -2.2384 -1.3144
24680SOL    HW275482   1.071   1.040   6.100  0.2396  0.0195  0.6258
24681SOL     OW75483   4.630   6.596   1.333  0.4919  0.5824 -0.2031
24681SOL    HW175484   4.654   6.503   1.341 -2.1747 -0.3815 -1.9516
24681SOL    HW275485   4.681   6.627   1.258  0.2652  0.0754 -0.5750
24682SOL     OW75486   2.784   5.321   0.745 -0.1066 -0.2467  0.1152
24682SOL    HW175487   2.879   5.318   0.732 -0.0357 -0.0591  0.5677
24682SOL    HW275488   2.749   5.352   0.662  0.3782  1.5019  0.5147
24683SOL     OW75489   2.870   0.678   4.394  0.6544  0.1554 -0.1555
24683SOL    HW175490   2.932   0.607   4.404  0.5395 -0.2701 -2.0852
24683SOL    HW275491   2.784   0.638   4.409  0.6065 -0.0613 -1.0004
24684SOL     OW75492   6.746   5.427   4.251  0.3051 -0.6878 -0.2984
24684SOL    HW175493   6.726   5.347   4.203 -1.5504 -0.1045 -0.5776
24684SOL    HW275494   6.819   5.466   4.204 -0.6382 -0.7906 -1.9158
24685SOL     OW75495   4.234   3.412   7.951  0.1462 -0.1723 -0.1753
24685SOL    HW175496   4.312   3.430   7.898  0.8371  1.9951  1.4418
24685SOL    HW275497   4.194   3.497   7.965 -2.4465 -1.2025 -0.7325
24686SOL     OW75498   3.412   7.822   7.301 -0.0448  0.4437 -0.3172
24686SOL    HW175499   3.412   7.918   7.308  0.0543  0.3789  0.6501
24686SOL    HW275500   3.430   7.792   7.389  0.1268 -0.4740 -0.6614
24687SOL     OW75501   0.064   4.564   7.313  0.0817  0.2499 -0.0286
24687SOL    HW175502   0.082   4.471   7.300 -0.5917  0.2868 -1.3628
24687SOL    HW275503   0.068   4.576   7.408  1.7281 -0.8018  0.0762
24688SOL     OW75504   4.427   5.503   1.599  0.2574 -0.3633  0.7054
24688SOL    HW175505   4.392   5.557   1.529 -0.2474  0.2390  1.4029
24688SOL    HW275506   4.489   5.444   1.556  0.9947  0.9143 -0.0354
24689SOL     OW75507   4.675   1.419   3.546 -0.0308 -0.5263  0.2363
24689SOL    HW175508   4.763   1.390   3.521  0.8346  3.0889 -1.5319
24689SOL    HW275509   4.689   1.481   3.617 -1.0236  0.7674 -0.6500
24690SOL     OW75510   4.083   2.518   5.662  0.1120 -0.5526  0.0640
24690SOL    HW175511   4.125   2.451   5.608  3.4524  1.0268  0.4694
24690SOL    HW275512   4.048   2.581   5.599 -1.0207 -1.4843 -0.2721
24691SOL     OW75513   5.272   7.227  11.976  0.2886  0.0284  0.1851
24691SOL    HW175514   5.353   7.262  12.012  0.3209 -0.3097  0.4528
24691SOL    HW275515   5.262   7.141  12.019  0.4862 -0.5235 -0.8389
24692SOL     OW75516   2.890   0.869   7.328 -0.6848  0.3431 -0.5915
24692SOL    HW175517   2.963   0.921   7.295  0.5837 -1.7172 -1.1920
24692SOL    HW275518   2.905   0.781   7.294 -2.6367 -0.5021  0.5351
24693SOL     OW75519   4.176   4.792   2.246  0.1317 -0.1388 -0.9717
24693SOL    HW175520   4.113   4.798   2.175 -0.5221  1.1615 -0.3093
24693SOL    HW275521   4.127   4.753   2.319  0.8838 -1.7842 -1.2848
24694SOL     OW75522   5.911   3.617   7.903  0.0158  0.0058  0.1954
24694SOL    HW175523   5.870   3.530   7.895  1.5523 -0.5428 -3.1745
24694SOL    HW275524   5.853   3.675   7.853  1.0570  0.0705 -0.9722
24695SOL     OW75525   7.929   0.092   2.171  0.0922 -0.1039 -0.3737
24695SOL    HW175526   7.967   0.166   2.126 -1.2665  0.0916 -1.2440
24695SOL    HW275527   7.862   0.058   2.111 -0.3821 -1.0668  0.6503
24696SOL     OW75528   2.270   6.832   5.277  0.2325  0.6045 -0.1527
24696SOL    HW175529   2.227   6.773   5.339 -1.0072  0.8878 -0.7190
24696SOL    HW275530   2.240   6.803   5.191  0.6834  1.2146 -0.5214
24697SOL     OW75531   3.788   0.809   1.846 -0.0623 -0.3082  1.1834
24697SOL    HW175532   3.719   0.852   1.794  0.4369 -1.5877 -0.6130
24697SOL    HW275533   3.773   0.716   1.834  1.9889 -0.6227  0.7393
24698SOL     OW75534   7.327   3.018  10.821  0.1304  0.5789 -0.0923
24698SOL    HW175535   7.413   3.002  10.782 -0.5142  1.2543 -1.9077
24698SOL    HW275536   7.272   3.046  10.747 -1.9888 -1.0380  0.7706
24699SOL     OW75537   7.353   7.621   5.220 -0.2890  0.4318  0.3246
24699SOL    HW175538   7.350   7.613   5.124 -0.0945  0.6840  0.2960
24699SOL    HW275539   7.415   7.692   5.236  0.7692 -0.5464  0.6861
24700SOL     OW75540   2.616   2.077   2.375 -0.4287 -0.0171 -0.2407
24700SOL    HW175541   2.565   2.061   2.455  0.4355  0.0012  0.3216
24700SOL    HW275542   2.671   1.999   2.366  0.5844  0.6586  0.0415
24701SOL     OW75543   7.820   1.102   0.322 -0.4420 -0.3466  0.0874
24701SOL    HW175544   7.842   1.099   0.415 -0.5675 -0.4647  0.1138
24701SOL    HW275545   7.785   1.015   0.303  2.2532 -1.3200 -0.7481
24702SOL     OW75546   6.930   5.362   8.250  0.0710 -0.0828 -0.3532
24702SOL    HW175547   6.897   5.300   8.315 -0.9091  0.2331 -0.5430
24702SOL    HW275548   6.868   5.357   8.178 -0.1161  1.2397 -0.3070
24703SOL     OW75549   6.627   0.003   3.725  0.1096  0.4280 -0.0303
24703SOL    HW175550   6.600  -0.048   3.802 -1.4504  1.0157 -0.1570
24703SOL    HW275551   6.665  -0.062   3.665 -1.4461 -0.5342 -0.0194
24704SOL     OW75552   7.034   7.484   0.071  0.0455 -0.5264 -0.3446
24704SOL    HW175553   7.124   7.503   0.098  0.7749 -1.9038 -1.6617
24704SOL    HW275554   7.012   7.404   0.119  1.5177 -3.2748 -3.8419
24705SOL     OW75555   5.975   2.505   1.766 -0.1843  0.2606  0.7515
24705SOL    HW175556   5.884   2.475   1.763 -0.0125 -0.2121 -0.9101
24705SOL    HW275557   5.970   2.597   1.741 -0.0664 -0.2756 -1.4914
24706SOL     OW75558   2.420   3.475   6.064  0.2872 -0.0337 -0.2412
24706SOL    HW175559   2.391   3.407   6.123  0.0725  2.3416  2.6035
24706SOL    HW275560   2.489   3.434   6.011  0.8941 -2.1653  2.0529
24707SOL     OW75561   2.468   7.178   2.021  0.7837 -0.9386  0.0014
24707SOL    HW175562   2.513   7.133   1.950  0.4953 -1.7824  0.3505
24707SOL    HW275563   2.376   7.156   2.010  0.8677 -2.0546  1.3224
24708SOL     OW75564   3.820   6.238   8.636 -0.5672 -0.8577 -0.0309
24708SOL    HW175565   3.788   6.315   8.588  1.6148 -0.6386 -1.2882
24708SOL    HW275566   3.798   6.164   8.579 -0.8845 -0.9547  0.2157
24709SOL     OW75567   2.815   2.537   3.123 -0.1798  0.2312 -0.0558
24709SOL    HW175568   2.843   2.625   3.147 -0.6991  0.5062 -0.4270
24709SOL    HW275569   2.851   2.522   3.035 -0.5487  0.2944 -0.2225
24710SOL     OW75570   3.425   3.258   1.527  0.2466 -0.3227  0.4901
24710SOL    HW175571   3.483   3.296   1.461 -0.9382  1.1963  0.2832
24710SOL    HW275572   3.466   3.282   1.611  0.6959 -0.5383  0.3354
24711SOL     OW75573   7.554   6.697   9.418 -0.0132  0.5549 -0.1334
24711SOL    HW175574   7.616   6.766   9.394  0.5718 -0.8264 -3.0317
24711SOL    HW275575   7.588   6.619   9.376 -2.0662 -0.9617  0.8628
24712SOL     OW75576   3.519   5.309   5.958  0.0941 -0.3086 -0.5874
24712SOL    HW175577   3.524   5.325   5.864 -0.0419  2.1631 -0.2437
24712SOL    HW275578   3.430   5.277   5.973  0.0026 -0.3812 -1.2637
24713SOL     OW75579   0.535   5.186   0.610 -0.0135  0.1278 -0.3074
24713SOL    HW175580   0.594   5.159   0.539  0.4206  1.5313 -0.5133
24713SOL    HW275581   0.594   5.214   0.680 -0.4450 -0.7889  0.4550
24714SOL     OW75582   3.560   2.182   6.370  1.0199  0.4324  0.1408
24714SOL    HW175583   3.622   2.126   6.323 -0.1398 -0.6715 -0.1140
24714SOL    HW275584   3.571   2.158   6.462  1.5905  0.8792  0.1940
24715SOL     OW75585   0.527   3.728   7.235 -0.0686 -0.0133 -0.0842
24715SOL    HW175586   0.472   3.659   7.199  0.2535 -0.4907  0.3406
24715SOL    HW275587   0.478   3.809   7.218  0.7235 -0.0332 -2.9450
24716SOL     OW75588   1.439   4.522   3.557  0.0782  0.5144 -0.4262
24716SOL    HW175589   1.527   4.548   3.586  0.0239 -0.2253  0.4497
24716SOL    HW275590   1.455   4.461   3.485  0.3428 -0.7420  0.6638
24717SOL     OW75591   6.119   7.187   6.231  0.1194 -0.2309  0.2358
24717SOL    HW175592   6.092   7.276   6.209  2.7849  0.4580 -0.4817
24717SOL    HW275593   6.163   7.196   6.316  2.1856 -0.4658 -0.7696
24718SOL     OW75594   3.696   1.716   8.492  0.4628  0.5332 -0.0754
24718SOL    HW175595   3.691   1.628   8.530  1.2951  0.4034 -0.2574
24718SOL    HW275596   3.651   1.708   8.408  1.4905 -0.0066 -0.5913
24719SOL     OW75597   7.660   6.736   5.229 -0.0827  0.4806 -0.3038
24719SOL    HW175598   7.672   6.825   5.195  2.0406  0.0308 -0.8481
24719SOL    HW275599   7.703   6.680   5.166  1.1729 -0.6665  1.4984
24720SOL     OW75600   5.190   3.944   5.434  0.2364  0.1106  0.2770
24720SOL    HW175601   5.125   3.944   5.363  2.0512  1.8200 -1.5340
24720SOL    HW275602   5.151   3.998   5.503 -0.2234  1.2913 -0.8605
24721SOL     OW75603   3.794   5.856   6.197 -0.3981 -0.2638  0.2685
24721SOL    HW175604   3.772   5.790   6.262  1.0839 -0.5710  0.4848
24721SOL    HW275605   3.884   5.836   6.171 -0.7549  0.1878 -1.4639
24722SOL     OW75606   7.631   4.954  12.028  0.5019 -0.0398 -0.2159
24722SOL    HW175607   7.690   4.881  12.010  1.8484  0.6923  0.9804
24722SOL    HW275608   7.634   5.007  11.948  0.4348 -0.6786 -0.6514
24723SOL     OW75609   6.805   1.660   7.290 -0.1560 -0.3423  0.5420
24723SOL    HW175610   6.874   1.682   7.353 -0.5537  0.0478  0.8473
24723SOL    HW275611   6.780   1.745   7.253  0.9579 -0.6775 -1.0873
24724SOL     OW75612   1.316   2.343   5.064 -0.2533  0.4282 -0.5469
24724SOL    HW175613   1.404   2.379   5.075 -0.6985  1.4186 -0.0897
24724SOL    HW275614   1.265   2.381   5.135 -0.9381 -0.5307 -0.5066
24725SOL     OW75615   6.489   4.698   7.622 -0.3876 -0.0924 -0.1139
24725SOL    HW175616   6.550   4.629   7.649  0.1552  0.1152 -0.7869
24725SOL    HW275617   6.478   4.752   7.700  1.4570  0.7205 -0.3517
24726SOL     OW75618   1.865   2.326  11.246 -0.2679  0.6768  0.0314
24726SOL    HW175619   1.872   2.401  11.187 -0.3319 -0.3952 -1.3904
24726SOL    HW275620   1.949   2.280  11.236 -0.1205  0.6905  1.0935
24727SOL     OW75621   1.754   5.332   2.605 -0.8150 -0.3287  0.4563
24727SOL    HW175622   1.725   5.421   2.626 -0.3959 -0.0108 -0.2559
24727SOL    HW275623   1.729   5.280   2.680  0.5439  0.7282  1.7085
24728SOL     OW75624   2.038   7.923   7.144 -0.7622  0.0589 -0.3934
24728SOL    HW175625   2.023   8.005   7.097  0.6751 -0.2193 -1.3980
24728SOL    HW275626   2.121   7.890   7.109 -0.1672 -0.7042  1.6052
24729SOL     OW75627   6.872   3.079   4.690  0.0964  0.2364  0.2142
24729SOL    HW175628   6.928   3.020   4.640  2.3766  0.1379  2.6334
24729SOL    HW275629   6.830   3.022   4.755  1.2368  0.9843  1.6721
24730SOL     OW75630   2.621   2.793   4.605  0.2447 -0.1508  0.0785
24730SOL    HW175631   2.611   2.881   4.642 -0.2030 -0.2494  0.1894
24730SOL    HW275632   2.613   2.735   4.680 -0.4151 -0.3397 -0.1343
24731SOL     OW75633   5.376   4.273   8.527  0.1927 -0.4563  0.5004
24731SOL    HW175634   5.469   4.295   8.524 -0.0981  0.7798 -0.6639
24731SOL    HW275635   5.333   4.349   8.489 -1.1138 -1.9521 -1.2046
24732SOL     OW75636   3.667   3.579   5.019 -0.0095  0.4314 -0.4942
24732SOL    HW175637   3.637   3.625   4.940 -0.2019  0.6546 -0.2901
24732SOL    HW275638   3.646   3.487   5.002  2.9333 -0.0641 -2.1545
24733SOL     OW75639   1.281   1.117   7.638 -0.6966  0.1090  0.2282
24733SOL    HW175640   1.297   1.136   7.546  0.1424  0.6900  0.4805
24733SOL    HW275641   1.197   1.071   7.639 -0.6238 -0.0649 -0.8358
24734SOL     OW75642   0.258   7.537   1.537 -0.2228 -0.8282  0.8050
24734SOL    HW175643   0.305   7.561   1.457  2.8323  1.1615  3.0016
24734SOL    HW275644   0.172   7.508   1.506  0.7538 -0.0625 -3.1560
24735SOL     OW75645   4.231   6.786   8.973 -0.6413 -0.0547  0.1759
24735SOL    HW175646   4.199   6.810   9.060 -0.1107  0.6274  0.1956
24735SOL    HW275647   4.281   6.706   8.987  0.5155  0.7383  0.7391
24736SOL     OW75648   1.837   3.600  10.222 -1.2078 -0.0006  0.1824
24736SOL    HW175649   1.832   3.665  10.152 -1.4830 -0.1027  0.1024
24736SOL    HW275650   1.893   3.639  10.289 -0.3507 -0.1873 -0.4006
24737SOL     OW75651   6.298   6.104  10.848 -1.1033 -0.4493 -0.2602
24737SOL    HW175652   6.299   6.120  10.942  1.1444 -4.5299  0.6522
24737SOL    HW275653   6.237   6.032  10.836  0.8759 -2.0406 -1.3683
24738SOL     OW75654   1.369   1.493  12.107  0.2062 -0.0638 -0.2701
24738SOL    HW175655   1.374   1.578  12.150 -1.3395 -0.9408  1.7944
24738SOL    HW275656   1.291   1.498  12.052  1.0516  0.3660 -1.4830
24739SOL     OW75657   1.751   7.102   5.959  0.0900  0.2031 -0.0810
24739SOL    HW175658   1.715   7.044   6.026  1.4072  1.3929  1.7387
24739SOL    HW275659   1.715   7.188   5.979 -0.0271  0.4590 -1.3279
24740SOL     OW75660   0.573   6.376   9.540  0.2517 -0.0637 -0.0494
24740SOL    HW175661   0.485   6.375   9.577 -0.3056 -1.9289 -1.3181
24740SOL    HW275662   0.619   6.306   9.586  0.5231 -0.2704 -0.6334
24741SOL     OW75663   4.994   4.668   4.738  0.5921  0.0854  0.1141
24741SOL    HW175664   5.078   4.667   4.783  0.7291 -0.1270 -0.1474
24741SOL    HW275665   4.996   4.748   4.686  0.5666  0.1602  0.2265
24742SOL     OW75666   5.159   5.592   2.663 -0.2702  0.1927  0.1480
24742SOL    HW175667   5.124   5.517   2.615  0.4816 -0.8704  1.1897
24742SOL    HW275668   5.252   5.570   2.675  0.1952  1.7463 -0.3415
24743SOL     OW75669   1.889   4.426   8.372 -0.3571  0.2652  0.3783
24743SOL    HW175670   1.959   4.451   8.313 -0.3925  0.8214  0.5664
24743SOL    HW275671   1.889   4.330   8.371 -1.1026  0.2525 -1.3976
24744SOL     OW75672   1.575   0.342   4.714 -0.1003  0.2721 -0.0558
24744SOL    HW175673   1.664   0.374   4.695  0.3675 -1.4229 -1.0315
24744SOL    HW275674   1.524   0.366   4.637 -0.4754  1.1278  0.4475
24745SOL     OW75675   0.116   1.564   8.977 -0.4706 -0.3230 -0.2791
24745SOL    HW175676   0.128   1.524   9.063 -1.4709  0.1237  0.0829
24745SOL    HW275677   0.193   1.620   8.966 -0.5680 -0.0176  0.5464
24746SOL     OW75678   2.075   4.732   1.914 -0.1578 -0.1987 -0.3763
24746SOL    HW175679   2.112   4.806   1.866 -0.6490 -1.1089 -2.2497
24746SOL    HW275680   2.151   4.681   1.942  0.2090  1.2239  1.3850
24747SOL     OW75681   3.981   3.664   2.888  0.3845 -0.0523 -0.0438
24747SOL    HW175682   4.038   3.676   2.812  0.0648  0.0626 -0.2665
24747SOL    HW275683   4.040   3.633   2.957  0.5010 -1.2749 -0.6547
24748SOL     OW75684   0.294   2.959  10.836 -0.1065  0.1559 -0.4685
24748SOL    HW175685   0.229   3.023  10.863  0.1124 -0.0126  0.4942
24748SOL    HW275686   0.249   2.906  10.770 -2.0926 -1.9368  2.3165
24749SOL     OW75687   5.908   3.632   7.198  0.2198 -0.4402  0.4341
24749SOL    HW175688   5.948   3.636   7.285 -0.8189  0.9957  0.8709
24749SOL    HW275689   5.814   3.628   7.215  0.0549 -1.8339 -0.6191
24750SOL     OW75690   0.996   6.029   1.427  0.8056  0.4340 -0.0661
24750SOL    HW175691   1.059   6.055   1.493  0.1111  1.8089  0.0909
24750SOL    HW275692   1.037   6.051   1.343  0.5729  1.2650  0.0334
24751SOL     OW75693   2.678   4.752  11.085 -0.1261 -0.0384 -0.2362
24751SOL    HW175694   2.675   4.748  11.181  0.4132  1.8005 -0.1000
24751SOL    HW275695   2.713   4.667  11.058  0.0355 -0.4573  1.2232
24752SOL     OW75696   4.975   0.459   9.454 -0.0964 -0.3321  0.4096
24752SOL    HW175697   4.888   0.421   9.458  0.0320 -0.5044  2.1131
24752SOL    HW275698   4.974   0.529   9.519  0.7644  0.2687 -0.1920
24753SOL     OW75699   7.087   6.276   7.206 -0.2387 -0.3422  0.1452
24753SOL    HW175700   7.037   6.239   7.133 -1.2500  0.6333  0.3280
24753SOL    HW275701   7.178   6.272   7.176 -0.3388 -2.4267 -0.0633
24754SOL     OW75702   6.193   1.056   7.606  0.0302  0.7795 -0.2170
24754SOL    HW175703   6.183   1.000   7.529  0.4393  0.4226 -0.0179
24754SOL    HW275704   6.106   1.060   7.644 -0.4939  2.1017 -1.4644
24755SOL     OW75705   1.657   7.886   1.988  0.1644 -0.2353  0.6267
24755SOL    HW175706   1.586   7.823   2.001 -0.5562  0.3331 -0.4117
24755SOL    HW275707   1.633   7.960   2.043  0.2990 -0.3162  0.7934
24756SOL     OW75708   7.710   4.123   3.421  0.6581  0.2004 -0.3214
24756SOL    HW175709   7.692   4.065   3.495  2.1029 -1.1219 -0.9454
24756SOL    HW275710   7.781   4.080   3.373  2.0774  2.6596 -0.6274
24757SOL     OW75711   5.715   4.042  12.477  0.0365 -0.1962  0.3974
24757SOL    HW175712   5.641   3.984  12.496 -0.1082  0.9885  4.5211
24757SOL    HW275713   5.688   4.127  12.512  3.6886 -0.0153  3.4703
24758SOL     OW75714   0.301   5.518   9.818 -0.2246 -0.5279  0.3445
24758SOL    HW175715   0.280   5.565   9.737  1.3680 -0.8259 -0.2792
24758SOL    HW275716   0.277   5.427   9.801  1.0105 -0.7805 -0.1995
24759SOL     OW75717   3.449   1.837   2.893 -0.1141 -0.0415 -0.0736
24759SOL    HW175718   3.381   1.818   2.829 -1.5120 -0.7438  1.5467
24759SOL    HW275719   3.500   1.756   2.900 -0.1751 -0.0755 -0.0295
24760SOL     OW75720   2.268   7.028   9.046 -0.6452  0.1710 -0.1988
24760SOL    HW175721   2.274   7.114   9.005 -1.1683 -0.1228 -0.9283
24760SOL    HW275722   2.225   7.044   9.130 -1.1650  0.5668 -0.5336
24761SOL     OW75723   6.998   2.143   4.289 -0.0604 -0.4146 -0.3704
24761SOL    HW175724   7.067   2.177   4.346 -1.5781  0.5767  0.9875
24761SOL    HW275725   6.919   2.145   4.344 -1.2681 -1.0336 -1.9990
24762SOL     OW75726   6.954   6.014   4.353 -0.3480  0.1777 -0.2321
24762SOL    HW175727   7.035   6.060   4.374  0.2116 -0.4899 -0.8857
24762SOL    HW275728   6.886   6.081   4.359  0.4963  1.1929 -1.5299
24763SOL     OW75729   5.767   2.543   3.570 -0.2801 -0.4170  0.1839
24763SOL    HW175730   5.792   2.567   3.659  0.9222 -2.4692  0.4477
24763SOL    HW275731   5.846   2.557   3.518 -0.9264  0.5966 -0.5653
24764SOL     OW75732   6.658   4.809  11.952 -0.4574 -0.3906  0.4798
24764SOL    HW175733   6.754   4.807  11.958 -0.4987 -0.6724  1.1066
24764SOL    HW275734   6.628   4.789  12.041 -1.1299 -2.8231 -0.2269
24765SOL     OW75735   5.810   6.426  10.034  0.4991  0.0937 -0.2835
24765SOL    HW175736   5.884   6.449  10.090 -0.3857  1.7839  0.2513
24765SOL    HW275737   5.782   6.340  10.065  2.9469 -1.1653 -1.3009
24766SOL     OW75738   6.066   0.333   1.696  1.1632  0.5262  0.5649
24766SOL    HW175739   6.051   0.392   1.770 -1.0168 -1.0257  1.4764
24766SOL    HW275740   6.060   0.389   1.619  0.1036  1.6620  1.4273
24767SOL     OW75741   3.929   1.106   4.345  0.2629 -0.3702 -0.4520
24767SOL    HW175742   3.943   1.138   4.434 -0.3995  3.3542 -1.5137
24767SOL    HW275743   3.846   1.145   4.318  0.0218 -2.0901 -2.4558
24768SOL     OW75744   5.958   2.324   0.706 -0.3491  0.2903  0.6160
24768SOL    HW175745   5.969   2.373   0.624 -0.1224 -0.2297  0.3274
24768SOL    HW275746   5.873   2.351   0.739 -0.8172 -0.0935 -0.2182
24769SOL     OW75747   4.716   1.116  10.917  0.0641 -0.4454 -0.5693
24769SOL    HW175748   4.657   1.151  10.851  0.3523  1.6596  0.1894
24769SOL    HW275749   4.796   1.095  10.869 -0.2322 -0.3321 -1.1178
24770SOL     OW75750   4.916   6.790   5.592  0.1653  0.1773  0.1078
24770SOL    HW175751   4.930   6.696   5.584 -0.6009  0.1365 -1.0563
24770SOL    HW275752   4.947   6.812   5.680  0.2549 -1.1693  0.4321
24771SOL     OW75753   3.512   3.766   8.874 -0.1843  0.3082 -0.5903
24771SOL    HW175754   3.531   3.788   8.783  2.9320  1.4640  0.1955
24771SOL    HW275755   3.510   3.851   8.919 -2.0234 -0.2106  0.4155
24772SOL     OW75756   1.148   1.919   7.430 -0.5004 -0.3701 -0.2340
24772SOL    HW175757   1.059   1.935   7.462 -0.5794 -0.9723 -0.1559
24772SOL    HW275758   1.184   2.007   7.415 -1.3593 -0.1365 -0.9717
24773SOL     OW75759   4.392   4.452   6.435 -0.0647  0.0919  0.4963
24773SOL    HW175760   4.449   4.515   6.479  1.8150 -1.1761  0.0186
24773SOL    HW275761   4.412   4.369   6.477 -2.0483 -0.3327  0.6968
24774SOL     OW75762   2.623   3.028   0.275 -0.2043 -0.3272 -0.3041
24774SOL    HW175763   2.637   3.024   0.369 -0.8692 -2.0962 -0.2415
24774SOL    HW275764   2.704   3.065   0.240  0.5914 -0.9163  0.8531
24775SOL     OW75765   5.110   6.746   5.012 -0.3584 -0.1542  0.0254
24775SOL    HW175766   5.141   6.665   4.971  2.5281  1.7928 -2.0823
24775SOL    HW275767   5.137   6.738   5.104  1.7308 -0.8521 -0.5844
24776SOL     OW75768   1.981   4.796  10.739 -0.2413  0.2331  0.7544
24776SOL    HW175769   2.018   4.883  10.724  1.2771 -0.6546 -0.8611
24776SOL    HW275770   2.031   4.761  10.813 -0.7388  0.6246  1.2937
24777SOL     OW75771   7.232   5.682  11.348 -0.1337 -0.1221 -0.0884
24777SOL    HW175772   7.270   5.596  11.367  0.4431  0.1611  0.0617
24777SOL    HW275773   7.308   5.740  11.336 -0.4389 -0.1169 -2.5991
24778SOL     OW75774   4.430   5.202  10.109  0.7418  0.6441  0.0010
24778SOL    HW175775   4.494   5.131  10.107 -0.2594 -0.3438  1.5220
24778SOL    HW275776   4.482   5.280  10.129  1.7445  0.2418 -0.9190
24779SOL     OW75777   2.914   1.538   4.925  0.0274  0.0559 -0.2810
24779SOL    HW175778   2.977   1.483   4.878 -1.0433  0.4473 -2.3035
24779SOL    HW275779   2.832   1.525   4.878 -1.4095 -0.3008  2.1852
24780SOL     OW75780   4.594   2.184   1.576  0.5045 -0.4560 -1.0132
24780SOL    HW175781   4.608   2.151   1.488 -0.4801 -2.4841 -0.4788
24780SOL    HW275782   4.612   2.109   1.633 -0.6194  0.2821  0.3874
24781SOL     OW75783   1.167   5.504   8.743  0.3410  0.3297  0.1116
24781SOL    HW175784   1.150   5.587   8.697 -2.3855 -1.7880 -3.1202
24781SOL    HW275785   1.115   5.510   8.822  0.7874  1.9496  0.3273
24782SOL     OW75786   1.461   5.011   4.291  0.3738 -0.2852 -0.0506
24782SOL    HW175787   1.507   4.927   4.287  0.0299 -0.4867  0.1089
24782SOL    HW275788   1.381   4.997   4.240 -0.0894 -0.3216  0.6660
24783SOL     OW75789   2.708   5.653  11.668 -0.1268 -0.7399 -0.5516
24783SOL    HW175790   2.655   5.698  11.603 -0.2253 -0.9326 -0.6070
24783SOL    HW275791   2.727   5.718  11.734 -2.0150 -1.1392  0.4383
24784SOL     OW75792   0.878   3.908   7.348  0.4682 -0.1871 -0.2764
24784SOL    HW175793   0.909   3.976   7.408  1.5510 -2.3411  1.7976
24784SOL    HW275794   0.817   3.952   7.290 -1.0450  1.9859  2.7295
24785SOL     OW75795   0.143   2.299   2.387  0.0763  0.0020  0.1627
24785SOL    HW175796   0.197   2.379   2.381 -0.7468  0.4853 -1.6434
24785SOL    HW275797   0.113   2.285   2.297 -4.8876  1.2283  1.3494
24786SOL     OW75798   0.122   6.163  11.672  0.1122  0.1496 -0.0544
24786SOL    HW175799   0.107   6.208  11.589 -0.2292  0.0154 -0.0654
24786SOL    HW275800   0.043   6.111  11.686 -0.9815  2.1013  1.6116
24787SOL     OW75801   1.676   0.825  12.331  0.4968  0.0462 -0.1501
24787SOL    HW175802   1.745   0.809  12.267  0.4687  0.9431 -0.4215
24787SOL    HW275803   1.677   0.920  12.344  0.2505 -0.0837  0.9014
24788SOL     OW75804   6.896   7.655   3.910 -0.2259 -0.2906 -0.5802
24788SOL    HW175805   6.893   7.673   4.004  0.5264 -2.3524 -0.1293
24788SOL    HW275806   6.901   7.742   3.870 -0.4484  0.6266  1.2737
24789SOL     OW75807   6.768   1.220   4.053  0.7725 -0.8220  0.5661
24789SOL    HW175808   6.754   1.168   4.132 -2.3886 -1.7028 -0.4153
24789SOL    HW275809   6.781   1.155   3.984 -2.0661 -0.4391 -0.4802
24790SOL     OW75810   0.813   5.260   3.465 -0.1677  0.0233  0.3916
24790SOL    HW175811   0.747   5.205   3.423 -0.8230  1.5314 -0.6473
24790SOL    HW275812   0.768   5.342   3.483  0.3290 -0.2190  3.3433
24791SOL     OW75813   3.905   6.425   6.599  0.5066 -0.2199 -0.0153
24791SOL    HW175814   3.906   6.520   6.595  1.6755  0.0720  3.5948
24791SOL    HW275815   3.813   6.401   6.587 -0.2143  1.5920  1.4007
24792SOL     OW75816   2.187   0.654   5.200  0.3714 -0.3530 -0.3347
24792SOL    HW175817   2.176   0.650   5.105 -1.5176 -1.2539 -0.1502
24792SOL    HW275818   2.262   0.598   5.218 -1.0208 -2.6468 -1.1446
24793SOL     OW75819   4.262   3.888   7.166  0.4542 -0.1509  0.0095
24793SOL    HW175820   4.291   3.912   7.078 -2.4906  0.4114 -0.9099
24793SOL    HW275821   4.257   3.971   7.213 -3.8551  0.5711 -1.3085
24794SOL     OW75822   1.673   3.257   6.969  0.6801  0.1266 -0.3495
24794SOL    HW175823   1.600   3.242   6.909  1.5494  0.0678 -1.4294
24794SOL    HW275824   1.662   3.347   6.999 -0.8592 -0.4707  0.9647
24795SOL     OW75825   3.442   1.458   7.302  0.5975 -0.1855  0.1014
24795SOL    HW175826   3.407   1.513   7.232 -0.4099 -0.3078  0.5039
24795SOL    HW275827   3.499   1.516   7.352  0.9673  0.0181 -0.5381
24796SOL     OW75828   3.380   2.337   4.572 -0.2300 -0.3109  0.4202
24796SOL    HW175829   3.387   2.410   4.511  1.8530 -0.7317  0.0684
24796SOL    HW275830   3.318   2.366   4.639 -3.1816 -0.1200 -2.2133
24797SOL     OW75831   5.794   7.826   3.525 -0.8061  0.2610  0.1743
24797SOL    HW175832   5.849   7.868   3.590  0.5040 -0.8169 -0.1858
24797SOL    HW275833   5.855   7.800   3.455 -1.7410 -1.0620 -0.1922
24798SOL     OW75834   0.233   5.499   7.197  0.0037 -0.0565  0.1164
24798SOL    HW175835   0.235   5.404   7.189 -0.3568 -0.0162 -0.4946
24798SOL    HW275836   0.314   5.529   7.155  0.3899 -0.1182  0.7966
24799SOL     OW75837   5.180   7.653   0.564 -0.3603 -0.0817  0.8990
24799SOL    HW175838   5.251   7.604   0.521 -0.8140 -0.2676  0.3425
24799SOL    HW275839   5.220   7.688   0.644  1.0636  1.8345 -0.5406
24800SOL     OW75840   0.145   3.961   7.752  0.1479  0.6144  0.8906
24800SOL    HW175841   0.103   3.974   7.667  0.8330 -2.9144 -0.1574
24800SOL    HW275842   0.170   4.049   7.781 -1.2930  2.0547 -1.8961
24801SOL     OW75843   0.797   2.427   2.103  0.5865  0.0841 -0.3348
24801SOL    HW175844   0.748   2.442   2.184  1.6819  1.8525  0.0692
24801SOL    HW275845   0.878   2.385   2.131  0.4100 -0.5026 -0.6855
24802SOL     OW75846   7.853   1.700   4.942  0.0374 -0.1245 -0.4026
24802SOL    HW175847   7.759   1.684   4.933 -0.1022  0.5691 -0.2715
24802SOL    HW275848   7.892   1.613   4.949 -0.7929 -0.3801  1.5378
24803SOL     OW75849   0.737   6.223   2.127 -0.1706  0.2200  0.0103
24803SOL    HW175850   0.766   6.288   2.063  0.1093  0.4300  0.3448
24803SOL    HW275851   0.777   6.252   2.209 -1.1810  0.4102  0.4411
24804SOL     OW75852   4.974   7.373   3.509  0.1225  0.0285 -0.0533
24804SOL    HW175853   4.882   7.391   3.527 -0.4077 -1.3767 -1.2448
24804SOL    HW275854   4.981   7.369   3.414  1.4305  0.1343  0.0082
24805SOL     OW75855   1.306   0.419   6.470 -0.0978  0.4897  0.1086
24805SOL    HW175856   1.398   0.439   6.486 -0.4563  1.5831  0.9295
24805SOL    HW275857   1.261   0.448   6.549 -1.1790  0.1188 -0.3464
24806SOL     OW75858   5.334   3.614   0.519 -0.4562 -0.5527  0.1881
24806SOL    HW175859   5.339   3.553   0.592 -0.6555  1.7310  2.2230
24806SOL    HW275860   5.240   3.629   0.507 -0.4337 -1.0297 -0.6757
24807SOL     OW75861   2.763   7.701   3.681 -0.3121  0.2641 -0.8369
24807SOL    HW175862   2.727   7.767   3.622 -0.7033  1.3455  0.5549
24807SOL    HW275863   2.842   7.742   3.717 -0.7735  0.1488  0.3406
24808SOL     OW75864   5.987   2.959   7.415  0.5284 -0.3270 -0.5394
24808SOL    HW175865   5.970   2.868   7.438 -0.1427  0.3855  2.1963
24808SOL    HW275866   5.901   3.000   7.415  1.0470  0.8713  1.3067
24809SOL     OW75867   6.047   4.849   2.236 -0.2202 -0.5682  0.1664
24809SOL    HW175868   6.076   4.928   2.281 -1.4458 -0.7104  1.2765
24809SOL    HW275869   5.974   4.879   2.181  0.4684 -0.6262 -0.8160
24810SOL     OW75870   2.200   4.338   9.949  0.1174  0.0356  0.1196
24810SOL    HW175871   2.155   4.340  10.033  1.1801 -0.3824  0.7304
24810SOL    HW275872   2.163   4.263   9.903  0.3307 -0.4371  0.7041
24811SOL     OW75873   4.796   4.014   8.483 -0.4526 -0.1285  0.1819
24811SOL    HW175874   4.801   3.954   8.558  1.0623  1.8549  1.8045
24811SOL    HW275875   4.802   4.101   8.522 -0.8117  1.0329 -2.1930
24812SOL     OW75876   6.355   5.453   8.199  0.1642 -0.5423  0.2405
24812SOL    HW175877   6.274   5.493   8.169  0.5247  0.2982  0.3712
24812SOL    HW275878   6.416   5.463   8.127  0.5270 -0.0402  0.6126
24813SOL     OW75879   0.404   4.306  10.089  0.2766  0.0896 -0.6849
24813SOL    HW175880   0.328   4.300  10.147 -0.6147 -1.2603 -1.9135
24813SOL    HW275881   0.411   4.219  10.049  2.9452 -0.0607 -0.0678
24814SOL     OW75882   0.666   5.677   7.768 -0.0003 -0.1781 -0.1235
24814SOL    HW175883   0.571   5.673   7.766 -0.0153 -1.1849  1.2271
24814SOL    HW275884   0.691   5.630   7.848  1.5977  0.7363 -0.0359
24815SOL     OW75885   2.101   0.503   1.755  0.0194 -0.6358 -0.4028
24815SOL    HW175886   2.112   0.499   1.660  0.2765  0.1538 -0.4184
24815SOL    HW275887   2.162   0.572   1.782 -0.3588 -0.5706  0.2832
24816SOL     OW75888   7.130   5.258   9.551 -0.2625  0.0866 -0.1423
24816SOL    HW175889   7.104   5.348   9.571  2.2668  0.6577  0.9026
24816SOL    HW275890   7.165   5.262   9.462 -0.9481 -0.0699 -0.4262
24817SOL     OW75891   0.299   1.678   7.199 -0.0272 -0.1672 -0.8766
24817SOL    HW175892   0.367   1.623   7.161  0.8467 -0.5847  1.1311
24817SOL    HW275893   0.312   1.764   7.160  2.3831  0.0252  0.2117
24818SOL     OW75894   1.952   3.838   7.177 -0.0613 -0.0629 -0.4225
24818SOL    HW175895   1.961   3.748   7.209  1.5170  0.2708  0.1935
24818SOL    HW275896   1.885   3.833   7.109 -0.6650 -1.5302  0.2402
24819SOL     OW75897   2.788   1.531   0.825 -0.2784  0.3759 -0.7060
24819SOL    HW175898   2.823   1.554   0.910 -1.2197  1.4015 -0.5712
24819SOL    HW275899   2.850   1.568   0.762  0.0980  0.1347 -0.4831
24820SOL     OW75900   3.363   1.856  11.954  0.2539  0.2708  0.0017
24820SOL    HW175901   3.353   1.895  11.868 -0.4043  1.9132  0.7814
24820SOL    HW275902   3.429   1.910  11.997 -1.1590  1.0184  1.3442
24821SOL     OW75903   5.841   0.127   3.454 -0.4102 -0.5072  0.5538
24821SOL    HW175904   5.758   0.150   3.413 -0.5260 -0.6068  0.7333
24821SOL    HW275905   5.821   0.119   3.547 -0.5722 -2.2311  0.3994
24822SOL     OW75906   4.505   6.388   7.898 -0.6053 -0.2952 -0.5746
24822SOL    HW175907   4.514   6.450   7.825 -2.1266 -0.0614 -0.6037
24822SOL    HW275908   4.548   6.432   7.971  1.0393 -0.5751 -1.3224
24823SOL     OW75909   6.225   6.831   8.806  0.0509  0.1761  0.7247
24823SOL    HW175910   6.199   6.842   8.714  0.2559  1.2330  0.7865
24823SOL    HW275911   6.209   6.916   8.846 -0.5379 -0.4195  1.8038
24824SOL     OW75912   4.461   5.414   5.577  0.2725  0.1221 -0.4102
24824SOL    HW175913   4.512   5.492   5.555 -0.3069  0.3298 -1.0457
24824SOL    HW275914   4.432   5.380   5.493 -0.8863  0.1736 -0.0442
24825SOL     OW75915   5.909   5.775   5.661  0.4838 -0.5212  0.6602
24825SOL    HW175916   5.946   5.858   5.689  0.6685 -0.9714  1.8012
24825SOL    HW275917   5.815   5.791   5.653  0.6633  0.1138 -0.3681
24826SOL     OW75918   0.795   2.992   8.585 -0.5291 -0.1197 -0.0411
24826SOL    HW175919   0.885   3.021   8.599  0.1540 -1.6474 -0.9631
24826SOL    HW275920   0.765   3.045   8.511  0.0026 -0.3242 -0.4183
24827SOL     OW75921   2.788   4.738   8.251 -0.4866  0.3140 -0.1523
24827SOL    HW175922   2.751   4.795   8.183  0.6022  0.2608 -0.8167
24827SOL    HW275923   2.781   4.790   8.332 -2.0803  0.2534 -0.2288
24828SOL     OW75924   1.701   1.388  11.126  0.2774 -0.5590  0.0753
24828SOL    HW175925   1.659   1.407  11.042 -0.5344 -1.0390  0.3565
24828SOL    HW275926   1.782   1.439  11.125  0.5505 -0.9807 -1.2226
24829SOL     OW75927   1.510   7.217   7.301  0.0074  0.4702 -0.5365
24829SOL    HW175928   1.585   7.236   7.357  0.5140  0.5028 -1.2085
24829SOL    HW275929   1.481   7.303   7.270 -1.0556  0.5692  0.6339
24830SOL     OW75930   1.014   0.748   6.831  0.2918  0.0100  0.1812
24830SOL    HW175931   1.004   0.826   6.776  1.6668  0.3969  0.4251
24830SOL    HW275932   1.109   0.738   6.840  0.1165 -1.2814  0.7456
24831SOL     OW75933   4.842   0.167   7.346  0.2216  1.1376  0.4602
24831SOL    HW175934   4.867   0.165   7.439  0.2992 -0.4170  0.4324
24831SOL    HW275935   4.896   0.236   7.308  0.3599  1.6326  1.5326
24832SOL     OW75936   5.889   3.389   3.010  0.1706 -0.4728  0.1238
24832SOL    HW175937   5.830   3.335   2.958  0.3928  0.3999 -1.0877
24832SOL    HW275938   5.974   3.380   2.967  0.9211 -1.5957  1.7568
24833SOL     OW75939   2.997   6.507  12.155  0.2712 -0.2064 -0.0587
24833SOL    HW175940   2.979   6.581  12.213 -1.1945 -0.6983  0.1564
24833SOL    HW275941   3.024   6.546  12.072 -0.6713  0.5781 -0.0016
24834SOL     OW75942   2.340   7.205   8.053 -0.3032  0.5888  0.5755
24834SOL    HW175943   2.281   7.161   7.992 -0.1775 -0.9154  1.4913
24834SOL    HW275944   2.291   7.208   8.135  0.9382 -0.8937  1.4157
24835SOL     OW75945   5.356   1.447   9.885 -0.0525 -0.1645  0.6841
24835SOL    HW175946   5.350   1.497   9.804  0.1953 -0.4432  0.4923
24835SOL    HW275947   5.282   1.478   9.938 -0.1972  0.0399  0.3659
24836SOL     OW75948   0.760   3.731  10.618 -0.0701  0.3500 -0.1818
24836SOL    HW175949   0.799   3.812  10.653 -0.4937  0.9253 -1.0258
24836SOL    HW275950   0.691   3.709  10.681  1.8857 -0.9915  1.6507
24837SOL     OW75951   3.750   4.500   3.655  0.2196  0.2492 -0.1610
24837SOL    HW175952   3.669   4.533   3.617 -0.1928 -0.7537 -0.1642
24837SOL    HW275953   3.767   4.418   3.610  1.3028  0.4977 -0.2376
24838SOL     OW75954   2.374   3.148   1.554  0.0554 -0.1972  0.3581
24838SOL    HW175955   2.374   3.075   1.493  0.1390  0.6758 -0.7126
24838SOL    HW275956   2.315   3.212   1.515 -0.5305  0.0468  1.6086
24839SOL     OW75957   7.248   6.255   2.343  0.0482  0.3059  0.0541
24839SOL    HW175958   7.295   6.324   2.296  2.6291  1.0340  3.3655
24839SOL    HW275959   7.189   6.302   2.401  0.7920 -0.2731  1.3150
24840SOL     OW75960   5.294   6.657   2.291  0.1300 -0.1489  0.7093
24840SOL    HW175961   5.314   6.743   2.252  0.5694  0.0678  1.3850
24840SOL    HW275962   5.307   6.671   2.385 -1.9776 -0.3495  1.0780
24841SOL     OW75963   0.411   2.222   8.913 -0.1409  0.1369 -0.1559
24841SOL    HW175964   0.349   2.209   8.984 -0.1248 -0.9109 -0.3245
24841SOL    HW275965   0.446   2.310   8.928 -0.8614  0.3127  0.5560
24842SOL     OW75966   0.740   5.452   3.214  0.6012  0.4726  0.2838
24842SOL    HW175967   0.766   5.360   3.211 -0.5761  0.0517  1.7610
24842SOL    HW275968   0.805   5.494   3.271  1.4560  0.6946 -0.8264
24843SOL     OW75969   1.499   6.990   8.616  0.0061 -0.5968 -0.0325
24843SOL    HW175970   1.473   6.911   8.664 -2.4878 -0.6209 -1.2809
24843SOL    HW275971   1.558   7.036   8.676 -0.6381 -2.0863  1.8369
24844SOL     OW75972   7.867   7.950  10.137 -0.3502 -0.0501  0.0797
24844SOL    HW175973   7.814   7.990  10.068  1.5552 -1.3235 -2.2606
24844SOL    HW275974   7.906   8.025  10.183 -0.4610  0.8360 -1.2097
24845SOL     OW75975   5.209   0.728   1.699  0.6553 -0.0226  0.2002
24845SOL    HW175976   5.290   0.751   1.655 -0.1193  0.6483 -0.9066
24845SOL    HW275977   5.217   0.767   1.786  1.9330 -0.8316  0.4677
24846SOL     OW75978   7.689   2.162  11.213 -0.3656  0.4018  0.7414
24846SOL    HW175979   7.628   2.102  11.170  0.2526 -0.3448  0.8760
24846SOL    HW275980   7.775   2.121  11.200  0.2769  2.0377 -0.5117
24847SOL     OW75981   5.004   3.220   4.053  0.0223 -0.1995  0.4849
24847SOL    HW175982   4.978   3.285   4.119  0.8120  1.2583 -0.5735
24847SOL    HW275983   5.088   3.186   4.084 -0.2533 -0.5185  0.8944
24848SOL     OW75984   2.476   0.404   9.981 -0.1635  0.0409  0.1729
24848SOL    HW175985   2.465   0.497  10.001 -0.1924  0.3739 -1.2305
24848SOL    HW275986   2.561   0.381  10.018  1.1727  1.3935 -1.8557
24849SOL     OW75987   4.893   7.703   2.496 -0.5686 -0.1826  0.5214
24849SOL    HW175988   4.852   7.700   2.410 -0.9916 -0.6553  0.7303
24849SOL    HW275989   4.961   7.770   2.489  0.6439 -1.4863 -0.7236
24850SOL     OW75990   7.627   7.573   3.776 -0.3771 -0.6645  0.2289
24850SOL    HW175991   7.722   7.584   3.780 -0.3164 -0.7082 -0.8435
24850SOL    HW275992   7.595   7.603   3.861  0.5329  0.0464  0.3282
24851SOL     OW75993   3.174   4.564   2.611 -0.1736 -0.9699  0.4740
24851SOL    HW175994   3.090   4.519   2.605 -0.4020 -0.5601  0.5256
24851SOL    HW275995   3.225   4.512   2.673 -0.4191 -1.1781  0.5021
24852SOL     OW75996   6.785   5.986   7.772 -0.5722  0.1185  0.6915
24852SOL    HW175997   6.812   5.901   7.739 -1.7517 -0.7198  1.7892
24852SOL    HW275998   6.866   6.038   7.774  0.0382 -0.7221 -0.6573
24853SOL     OW75999   5.143   3.076   3.680  0.7558  0.1495 -0.6963
24853SOL    HW176000   5.205   3.014   3.641  0.6184 -1.1167  0.9685
24853SOL    HW276001   5.194   3.156   3.692  1.2862 -0.0068 -1.7872
24854SOL     OW76002   2.847   4.347   7.678  0.0504  0.5797  0.1930
24854SOL    HW176003   2.759   4.319   7.655  0.9426 -0.6614 -2.0466
24854SOL    HW276004   2.872   4.292   7.752 -0.8390  0.5832  0.5049
24855SOL     OW76005   0.967   3.128   9.693  0.7161 -0.7547  0.1099
24855SOL    HW176006   0.943   3.220   9.680  1.3634 -0.6759 -0.6428
24855SOL    HW276007   0.973   3.118   9.788 -0.3797 -0.2949  0.2443
24856SOL     OW76008   3.412   0.626  10.664 -0.7451  0.7563 -0.2888
24856SOL    HW176009   3.463   0.617  10.744 -1.0656  2.0653  0.0889
24856SOL    HW276010   3.444   0.706  10.623 -1.9723  1.2065 -0.4137
24857SOL     OW76011   4.114   3.024   9.922  0.0624  0.0282 -0.0582
24857SOL    HW176012   4.162   3.107   9.914  1.5246 -0.7803  0.0720
24857SOL    HW276013   4.095   3.016  10.015  0.2430  0.0316 -0.0214
24858SOL     OW76014   6.011   5.839   7.372  0.0864 -0.3223  0.1756
24858SOL    HW176015   6.058   5.921   7.383 -0.8263  0.1533  0.6549
24858SOL    HW276016   5.919   5.862   7.381 -0.2081 -1.3432 -0.0201
24859SOL     OW76017   4.814   2.495   4.823 -0.2125  0.0900  0.6282
24859SOL    HW176018   4.891   2.451   4.859 -0.2835  0.1001  0.7915
24859SOL    HW276019   4.758   2.511   4.899 -0.5157 -0.1919  0.4643
24860SOL     OW76020   2.182   5.543   0.805  0.0923 -0.3509 -0.8139
24860SOL    HW176021   2.195   5.589   0.723  0.8756 -0.0611 -0.5309
24860SOL    HW276022   2.090   5.559   0.827  0.2277  0.6748 -0.9623
24861SOL     OW76023   1.282   7.704   2.358 -0.1322 -0.0507 -0.1536
24861SOL    HW176024   1.321   7.774   2.307 -0.6317  0.3465 -0.0012
24861SOL    HW276025   1.208   7.745   2.403  0.4553 -0.3269  1.1059
24862SOL     OW76026   4.714   0.876   2.503  0.3112 -0.5051 -0.2583
24862SOL    HW176027   4.676   0.940   2.563  1.5548  0.2524 -0.2446
24862SOL    HW276028   4.699   0.913   2.416  1.2980 -0.0159 -0.2356
24863SOL     OW76029   5.804   2.189   3.417  0.2236 -0.1743 -0.5663
24863SOL    HW176030   5.879   2.132   3.403  0.5646  0.5202 -1.7359
24863SOL    HW276031   5.810   2.216   3.509 -0.3221 -2.4894  0.2131
24864SOL     OW76032   3.474   3.377   0.005  0.6072 -0.1764  0.5829
24864SOL    HW176033   3.476   3.385   0.100  0.7043 -1.9802  0.7642
24864SOL    HW276034   3.383   3.353  -0.015  0.7150 -0.3357  0.2780
24865SOL     OW76035   7.338   7.958  11.928  0.1189 -0.1986 -0.0075
24865SOL    HW176036   7.282   7.883  11.907  0.0090 -0.3974  0.9308
24865SOL    HW276037   7.296   7.999  12.004  0.8382  0.0854  0.2491
24866SOL     OW76038   2.242   2.977   2.109 -0.5679 -0.1850  0.0990
24866SOL    HW176039   2.186   3.047   2.142 -2.0484 -1.3664  0.1875
24866SOL    HW276040   2.263   3.005   2.020 -1.1960  0.3551  0.1058
24867SOL     OW76041   3.712   1.805   6.484 -0.8635  0.1699 -0.2973
24867SOL    HW176042   3.718   1.833   6.575  2.5235 -0.0686 -0.3274
24867SOL    HW276043   3.633   1.751   6.481 -1.2369  0.4278  2.4074
24868SOL     OW76044   3.456   5.466   0.634 -0.1959  0.2925  0.0297
24868SOL    HW176045   3.401   5.542   0.655 -0.4032 -0.1172  1.0089
24868SOL    HW276046   3.457   5.463   0.538 -0.6607  1.1851 -0.0139
24869SOL     OW76047   0.697   5.822   0.439 -0.1697 -0.3528 -0.4575
24869SOL    HW176048   0.666   5.911   0.424 -0.3356  0.5350  3.9420
24869SOL    HW276049   0.774   5.813   0.382 -1.5183  1.6506 -2.7708
24870SOL     OW76050   7.516   1.195   2.469 -0.4261  0.4228  0.0526
24870SOL    HW176051   7.502   1.195   2.375 -1.1359 -0.9860  0.1400
24870SOL    HW276052   7.604   1.159   2.480  0.1469  1.7091 -0.1023
24871SOL     OW76053   0.318   7.721  10.700  0.2781 -0.4314  0.1315
24871SOL    HW176054   0.342   7.813  10.685 -1.0900  0.2683  1.8788
24871SOL    HW276055   0.224   7.724  10.716 -0.2853 -2.5083 -2.2011
24872SOL     OW76056   0.921   1.518   2.316 -0.1631 -0.3883  0.5084
24872SOL    HW176057   0.916   1.475   2.231  1.5405  0.0928  0.1337
24872SOL    HW276058   0.937   1.447   2.378  0.9076 -0.4968  0.1197
24873SOL     OW76059   6.945   1.157   3.309  0.0888 -0.0539  0.3451
24873SOL    HW176060   6.855   1.183   3.292 -1.2328 -1.9620  3.5518
24873SOL    HW276061   6.992   1.240   3.324 -1.6690  0.8906  0.8805
24874SOL     OW76062   3.130   1.656   6.643 -0.7647 -0.4012  0.2291
24874SOL    HW176063   3.151   1.745   6.670 -2.7548  0.5164 -0.9881
24874SOL    HW276064   3.160   1.601   6.715  0.4419  1.2411  1.0472
24875SOL     OW76065   0.259   2.443   3.382 -0.5042  0.6018 -0.4702
24875SOL    HW176066   0.195   2.379   3.414 -0.8757  0.4252 -1.4982
24875SOL    HW276067   0.275   2.501   3.456 -1.5013  0.3550 -0.0397
24876SOL     OW76068   1.520   3.581   0.472  0.6065 -0.0283  0.2260
24876SOL    HW176069   1.575   3.531   0.412  1.0538 -3.1795  2.9545
24876SOL    HW276070   1.435   3.537   0.469  0.4995  0.0568  1.4751
24877SOL     OW76071   4.467   0.133   8.374 -0.2444  0.6043 -0.2715
24877SOL    HW176072   4.410   0.074   8.325  0.7823 -0.1579 -0.6004
24877SOL    HW276073   4.412   0.168   8.444 -0.9864 -0.4822 -0.2868
24878SOL     OW76074   7.336   6.879  10.807  0.1913 -0.6216  0.0841
24878SOL    HW176075   7.324   6.900  10.714  0.9154 -0.0703  0.1085
24878SOL    HW276076   7.277   6.805  10.822 -0.1684 -0.5165 -0.7382
24879SOL     OW76077   7.922   3.872  12.328  0.0369  0.2088 -0.2241
24879SOL    HW176078   7.909   3.855  12.421 -0.8865  1.3295 -0.1289
24879SOL    HW276079   7.982   3.803  12.299 -0.6730 -0.9276  0.9193
24880SOL     OW76080   3.440   1.846   2.407 -0.0925  0.4794  0.2154
24880SOL    HW176081   3.524   1.802   2.420  0.1166  0.9319  0.4084
24880SOL    HW276082   3.410   1.816   2.321  1.3170  2.0204 -0.8691
24881SOL     OW76083   6.311   5.646   1.425  0.3242 -0.2658  0.1716
24881SOL    HW176084   6.376   5.612   1.365 -0.1877  0.2612 -0.7030
24881SOL    HW276085   6.252   5.573   1.442  0.3540 -0.3587 -0.1324
24882SOL     OW76086   0.790   7.017   7.680 -0.1142  0.2298  0.0573
24882SOL    HW176087   0.796   7.105   7.719 -0.2732 -0.1806  1.0321
24882SOL    HW276088   0.879   6.997   7.653  0.1641  0.1807  0.9867
24883SOL     OW76089   5.373   7.619   6.243 -0.8437  0.1851 -0.2101
24883SOL    HW176090   5.352   7.686   6.308 -1.4788 -0.8541  0.7130
24883SOL    HW276091   5.288   7.578   6.223 -0.2307 -1.6747  0.8044
24884SOL     OW76092   6.091   7.772   0.265 -0.1304  0.3612  0.0116
24884SOL    HW176093   6.005   7.760   0.225 -0.0379 -0.7367  0.1129
24884SOL    HW276094   6.073   7.806   0.353 -0.4912 -0.4517  0.2570
24885SOL     OW76095   5.913   6.582   1.044  0.3167  0.1263  0.2706
24885SOL    HW176096   5.993   6.546   1.084  0.2260 -0.9915 -0.5066
24885SOL    HW276097   5.873   6.508   0.999  0.4500  1.3128 -1.9554
24886SOL     OW76098   4.824   3.917  11.127  0.3317 -0.4873  0.4499
24886SOL    HW176099   4.735   3.937  11.097  0.9754  0.6448 -0.7973
24886SOL    HW276100   4.823   3.822  11.141 -0.4746 -0.8482 -1.6585
24887SOL     OW76101   5.620   3.212   2.125  0.2500  0.0053 -0.6002
24887SOL    HW176102   5.663   3.277   2.181 -1.0812  1.9906 -1.7802
24887SOL    HW276103   5.599   3.259   2.044 -1.7400 -1.5698 -1.0964
24888SOL     OW76104   7.115   6.340  10.189 -0.3600  0.1351  0.5207
24888SOL    HW176105   7.040   6.282  10.204 -0.7626  0.1356 -1.2514
24888SOL    HW276106   7.076   6.423  10.163  0.2073 -0.2538 -1.7711
24889SOL     OW76107   5.957   6.949   9.878  0.2571 -0.3061  0.0417
24889SOL    HW176108   5.991   6.871   9.922 -0.3319 -1.0054 -0.7160
24889SOL    HW276109   5.907   6.995   9.945  0.3540 -0.7310  0.4105
24890SOL     OW76110   3.564   2.055   2.988 -0.6738  0.1349  0.1352
24890SOL    HW176111   3.625   1.997   3.033 -0.5803  0.2660  0.1767
24890SOL    HW276112   3.507   1.995   2.939 -0.8746 -0.0141  0.5500
24891SOL     OW76113   7.384   7.811  10.647  0.4999  0.4615  0.1899
24891SOL    HW176114   7.455   7.875  10.658  1.2286 -0.1471 -0.8105
24891SOL    HW276115   7.326   7.852  10.582  0.7334  0.3157 -0.1159
24892SOL     OW76116   3.275   4.793   5.151 -0.9093  0.1354  0.2524
24892SOL    HW176117   3.324   4.874   5.166  0.9637 -0.8318 -0.3183
24892SOL    HW276118   3.287   4.775   5.058 -1.3130 -0.7854  0.3679
24893SOL     OW76119   2.843   5.568  10.900  0.3396 -0.0961 -0.2308
24893SOL    HW176120   2.749   5.584  10.908  0.1510 -1.5807  1.1599
24893SOL    HW276121   2.854   5.534  10.811 -0.8887 -2.2725  0.3692
24894SOL     OW76122   1.884   2.996   6.535  0.0018  0.2175  0.1175
24894SOL    HW176123   1.830   3.040   6.600 -1.8695 -0.9390 -0.5563
24894SOL    HW276124   1.954   2.955   6.586 -1.5043 -0.7950  1.4704
24895SOL     OW76125   6.377   6.864   9.203  0.1367  0.5541 -0.5783
24895SOL    HW176126   6.467   6.880   9.233 -0.7596  0.0981  2.8509
24895SOL    HW276127   6.330   6.944   9.227 -0.8711 -0.2647  0.2882
24896SOL     OW76128   5.099   1.306   7.069  0.3553  0.1060  0.1304
24896SOL    HW176129   5.072   1.324   6.979  1.0225  0.0246 -0.0893
24896SOL    HW276130   5.165   1.372   7.088  0.1429  0.1902  0.6032
24897SOL     OW76131   6.889   3.524   9.855  0.0982 -0.7226 -0.3194
24897SOL    HW176132   6.821   3.534   9.788 -0.0957  0.6043  0.0517
24897SOL    HW276133   6.963   3.575   9.823  0.3496 -0.8518  0.0384
24898SOL     OW76134   1.915   4.012   4.747  0.2426  0.2259  0.1781
24898SOL    HW176135   1.999   3.997   4.702  0.6456 -0.8887  1.2649
24898SOL    HW276136   1.850   3.974   4.688  0.6670 -0.3004  0.0334
24899SOL     OW76137   6.070   7.221  12.374 -0.0084  0.2200  0.2104
24899SOL    HW176138   6.138   7.226  12.442 -0.7945  1.8111  0.9521
24899SOL    HW276139   6.019   7.143  12.397 -0.2778  0.7479  1.4951
24900SOL     OW76140   0.984   0.224   4.981 -0.0470 -0.4003  0.0258
24900SOL    HW176141   0.993   0.141   5.028 -1.5581 -0.4538  0.2933
24900SOL    HW276142   0.936   0.201   4.901 -0.1826  0.1598 -0.0598
24901SOL     OW76143   4.901   3.417   7.061  0.3429 -0.0659 -0.0428
24901SOL    HW176144   4.887   3.333   7.019 -0.5960  0.0895 -0.0674
24901SOL    HW276145   4.813   3.449   7.080  0.6306  1.4315 -1.0552
24902SOL     OW76146   7.515   4.015   2.262 -0.2812 -0.1026 -0.0224
24902SOL    HW176147   7.470   4.068   2.196 -1.3803  0.2815  1.0079
24902SOL    HW276148   7.563   4.079   2.315  1.6681 -0.5133 -1.1760
24903SOL     OW76149   5.254   0.734   2.025  0.1202 -0.0274 -0.1508
24903SOL    HW176150   5.187   0.667   2.013  0.4440 -0.3028 -0.4346
24903SOL    HW276151   5.248   0.757   2.118 -0.5932  0.1956 -0.2503
24904SOL     OW76152   5.794   6.550   8.073 -0.7790  0.0429 -0.2030
24904SOL    HW176153   5.814   6.543   8.166  0.4832 -1.6170 -0.5425
24904SOL    HW276154   5.699   6.553   8.069 -0.8400  1.1005  1.1697
24905SOL     OW76155   0.606   3.547  11.205  0.4723  0.5158 -0.1972
24905SOL    HW176156   0.656   3.475  11.168 -0.3821  0.2539 -0.8853
24905SOL    HW276157   0.610   3.534  11.299  0.1682 -0.5512 -0.3204
24906SOL     OW76158   0.762   6.548   0.178 -0.3991 -0.0712  0.5190
24906SOL    HW176159   0.852   6.567   0.206 -0.5075  0.3501  0.5895
24906SOL    HW276160   0.768   6.464   0.132  0.6277  1.4964 -2.4523
24907SOL     OW76161   2.308   0.743   3.312  0.5051 -0.4705 -0.7040
24907SOL    HW176162   2.287   0.833   3.287  0.5794 -0.1438  0.3968
24907SOL    HW276163   2.242   0.690   3.267 -0.1635  0.2151 -0.5481
24908SOL     OW76164   0.155   7.080   6.215  0.3659 -0.3712  0.0670
24908SOL    HW176165   0.174   7.066   6.122  1.0702  1.1619 -0.0621
24908SOL    HW276166   0.103   7.161   6.216  2.6825  1.2150  1.1401
24909SOL     OW76167   0.141   1.331   7.959 -0.1096  0.1592  0.5369
24909SOL    HW176168   0.198   1.254   7.959  1.6833  1.4370  0.6453
24909SOL    HW276169   0.167   1.381   8.037 -0.6039  1.3322 -0.0246
24910SOL     OW76170   7.085   4.697   4.187 -0.0710 -0.3252 -0.1820
24910SOL    HW176171   7.101   4.711   4.280 -0.5186 -0.3201 -0.1033
24910SOL    HW276172   6.993   4.673   4.182 -0.5210  1.3697 -0.7853
24911SOL     OW76173   2.160   5.575   6.295  0.2873  0.1205 -0.6057
24911SOL    HW176174   2.213   5.499   6.319  0.5001  0.0724 -1.2171
24911SOL    HW276175   2.214   5.650   6.318  0.2257  0.0839 -0.3379
24912SOL     OW76176   7.871   5.923  10.613  0.1978  0.0435 -0.0395
24912SOL    HW176177   7.808   5.955  10.678  1.0752  0.8427  0.4334
24912SOL    HW276178   7.834   5.840  10.583 -0.2123 -0.3687  1.5047
24913SOL     OW76179   3.328   4.337   4.060 -0.0301  0.5216 -0.5029
24913SOL    HW176180   3.318   4.363   3.969  1.4079  1.5181 -0.4029
24913SOL    HW276181   3.364   4.414   4.103 -1.2465  0.2754  1.0597
24914SOL     OW76182   7.307   4.129   3.580  0.0455 -0.3892 -0.4719
24914SOL    HW176183   7.387   4.171   3.611  0.5628 -0.7348 -1.2825
24914SOL    HW276184   7.302   4.152   3.487 -1.0333 -0.0178 -0.3349
24915SOL     OW76185   3.545   7.141   0.280 -0.0655 -0.2262 -0.0251
24915SOL    HW176186   3.544   7.148   0.185 -1.9837  0.2059 -0.0046
24915SOL    HW276187   3.547   7.047   0.297 -2.3860 -0.4296 -0.5545
24916SOL     OW76188   1.544   1.455   6.712 -0.3946 -0.5218  0.3012
24916SOL    HW176189   1.619   1.426   6.659  0.5171  0.1698  1.1562
24916SOL    HW276190   1.473   1.467   6.649  0.8586  0.9738 -0.9070
24917SOL     OW76191   3.118   4.488   1.722 -0.5444  0.6275 -0.6262
24917SOL    HW176192   3.181   4.539   1.671 -0.1175  0.3307 -0.4017
24917SOL    HW276193   3.169   4.416   1.759 -0.5675  1.4865  1.1966
24918SOL     OW76194   1.811   6.247   3.465  0.3492  0.2132  0.2084
24918SOL    HW176195   1.783   6.157   3.477 -0.0663 -0.0629 -2.2434
24918SOL    HW276196   1.896   6.253   3.510  1.6560 -2.1903 -1.6872
24919SOL     OW76197   7.406   7.195   4.636  0.5471 -0.2597  0.1957
24919SOL    HW176198   7.391   7.192   4.730 -0.4352 -0.6730  0.0373
24919SOL    HW276199   7.437   7.283   4.619 -0.8932  0.3763  0.6915
24920SOL     OW76200   0.442   5.710   5.065 -0.3191 -0.2416  0.1584
24920SOL    HW176201   0.372   5.773   5.050 -1.3005 -0.8700  1.7812
24920SOL    HW276202   0.416   5.632   5.015 -1.7711 -1.1011  2.1085
24921SOL     OW76203   5.037   6.166   6.787 -0.0554 -0.0088 -0.2487
24921SOL    HW176204   5.048   6.141   6.878  1.2185 -0.1431 -0.4232
24921SOL    HW276205   5.083   6.249   6.779  2.7551 -1.5409 -1.4553
24922SOL     OW76206   7.109   3.926   1.475  0.3532 -0.0854 -0.3476
24922SOL    HW176207   7.078   3.919   1.565 -0.1797 -2.1655 -0.6411
24922SOL    HW276208   7.053   3.993   1.435  0.3935  0.6274  0.7624
24923SOL     OW76209   5.640   3.114   1.735 -0.0287 -0.3667 -0.2954
24923SOL    HW176210   5.615   3.048   1.799 -1.2933 -1.2773 -1.6607
24923SOL    HW276211   5.707   3.072   1.681  2.6719  1.1341  1.6550
24924SOL     OW76212   5.634   5.767   1.030 -0.1233 -0.0290 -0.5922
24924SOL    HW176213   5.690   5.823   1.083 -2.4474  0.8974  1.0583
24924SOL    HW276214   5.613   5.693   1.086 -2.7795  1.0581  0.0062
24925SOL     OW76215   6.176   6.404   4.679 -0.3590  0.2966  0.5472
24925SOL    HW176216   6.152   6.453   4.757  0.5847  1.4180  0.1584
24925SOL    HW276217   6.096   6.400   4.627 -0.3700  1.7472  0.4338
24926SOL     OW76218   3.599   4.039   8.027  0.0635  0.2476 -0.1811
24926SOL    HW176219   3.690   4.041   7.996  0.1014  2.6456 -0.1086
24926SOL    HW276220   3.549   4.009   7.951  0.7168  0.9185 -0.9003
24927SOL     OW76221   5.603   6.812   8.781 -0.3718 -0.0098  0.6418
24927SOL    HW176222   5.618   6.897   8.823  1.3185 -0.3014  0.7245
24927SOL    HW276223   5.672   6.756   8.817  0.2409 -0.6630 -1.4091
24928SOL     OW76224   2.516   2.877   1.899  0.1276 -0.4553  0.0577
24928SOL    HW176225   2.535   2.929   1.977  1.4807 -0.0391 -0.5227
24928SOL    HW276226   2.600   2.872   1.853 -0.1993 -2.3043 -0.4138
24929SOL     OW76227   5.099   5.510   4.951 -0.1254  0.6505  0.3804
24929SOL    HW176228   5.116   5.498   5.044 -2.1487  0.7376  0.7985
24929SOL    HW276229   5.116   5.424   4.912  0.0064  0.4163  0.9518
24930SOL     OW76230   5.614   0.575  10.315  0.7075 -0.0500 -0.0034
24930SOL    HW176231   5.619   0.503  10.378  1.6174  0.7035  0.8253
24930SOL    HW276232   5.660   0.648  10.358 -0.9586  1.3199 -0.4145
24931SOL     OW76233   2.109   5.290   1.507 -0.3215  0.6693 -0.6610
24931SOL    HW176234   2.135   5.290   1.416  0.7249  0.0728 -0.3731
24931SOL    HW276235   2.059   5.371   1.518 -0.6116  0.6555 -1.7896
24932SOL     OW76236   6.489   2.678   1.178  0.0839 -0.3431 -0.3459
24932SOL    HW176237   6.482   2.686   1.083 -1.1944  0.9518 -0.1810
24932SOL    HW276238   6.582   2.670   1.195  0.7974  3.5316 -1.4857
24933SOL     OW76239   6.260   3.507   7.534 -0.8919 -0.2441 -0.1119
24933SOL    HW176240   6.172   3.536   7.512 -0.9916 -0.6709 -0.2724
24933SOL    HW276241   6.254   3.412   7.541 -0.6555 -0.1998  0.8287
24934SOL     OW76242   5.587   0.917   7.669 -0.5097  0.0009 -0.4633
24934SOL    HW176243   5.610   0.913   7.576  0.4808 -0.3796 -0.2166
24934SOL    HW276244   5.602   0.828   7.701 -0.3823  0.2451  0.1700
24935SOL     OW76245   3.220   0.011   5.868 -0.1654  0.2783  0.1831
24935SOL    HW176246   3.209  -0.006   5.961 -1.0568  1.3105  0.2839
24935SOL    HW276247   3.240   0.104   5.862  3.2215 -0.3483 -0.4512
24936SOL     OW76248   6.826   1.055   9.484 -0.0988  1.3273 -0.0762
24936SOL    HW176249   6.913   1.095   9.482 -0.2509  1.7049  0.6593
24936SOL    HW276250   6.840   0.966   9.452  0.3259  1.8017 -1.2552
24937SOL     OW76251   4.546   4.707   3.023  0.1543  0.3486  0.2400
24937SOL    HW176252   4.512   4.721   2.934  1.1122 -0.2299 -0.2371
24937SOL    HW276253   4.525   4.616   3.043  1.1498  0.0632  0.0423
24938SOL     OW76254   6.126   5.325  11.234  0.6270  0.4101 -0.2811
24938SOL    HW176255   6.063   5.346  11.165 -0.1061  0.0187  0.2543
24938SOL    HW276256   6.093   5.244  11.273  3.4589 -1.9973 -2.4168
24939SOL     OW76257   4.746   2.185  10.275 -0.2748 -0.0340 -0.3186
24939SOL    HW176258   4.669   2.240  10.266 -1.4934 -1.6660 -0.2485
24939SOL    HW276259   4.806   2.236  10.330 -2.1258  0.4361  1.3658
24940SOL     OW76260   0.339   4.257   2.093  0.2384  0.2381  0.3587
24940SOL    HW176261   0.373   4.274   2.180 -0.2060  0.7251  0.4397
24940SOL    HW276262   0.327   4.162   2.090  3.1447 -0.1961 -0.2564
24941SOL     OW76263   2.634   5.925   4.984  0.6956  0.3944  0.2630
24941SOL    HW176264   2.700   5.873   4.939 -0.3496  0.5543 -1.5655
24941SOL    HW276265   2.680   6.006   5.007  1.0466  0.7070 -1.4122
24942SOL     OW76266   2.966   7.726   6.810  0.0033 -0.6880  0.6139
24942SOL    HW176267   2.930   7.754   6.726  0.3412  0.4907  0.8382
24942SOL    HW276268   2.903   7.663   6.844 -1.7915  1.1405  0.8963
24943SOL     OW76269   3.712   3.001  10.172  0.2447  0.8144 -0.8091
24943SOL    HW176270   3.625   3.002  10.133 -0.2157  0.8865  0.1864
24943SOL    HW276271   3.763   3.063  10.120 -0.7356  1.9625 -0.4537
24944SOL     OW76272   6.114   5.796   9.684  0.1289  0.5398  0.3144
24944SOL    HW176273   6.056   5.850   9.739  0.5103  0.4364  0.8326
24944SOL    HW276274   6.088   5.706   9.703  1.0034  0.4536  1.1960
24945SOL     OW76275   6.751   0.613   0.997  0.4949 -0.1881 -1.1582
24945SOL    HW176276   6.768   0.707   1.006  0.4792 -0.2376 -0.5744
24945SOL    HW276277   6.704   0.605   0.915 -2.7005  0.7412  0.4220
24946SOL     OW76278   4.844   1.436   4.756 -0.3494  0.0019 -0.2837
24946SOL    HW176279   4.776   1.480   4.807  0.9377  2.7805 -0.7375
24946SOL    HW276280   4.797   1.387   4.689 -1.9670 -1.5801  1.8856
24947SOL     OW76281   7.161   1.483   8.075 -0.6921  0.5216 -0.1010
24947SOL    HW176282   7.254   1.504   8.068 -0.5035  0.6970  2.2703
24947SOL    HW276283   7.136   1.512   8.163 -2.7286 -0.5514 -0.2677
24948SOL     OW76284   0.361   7.518   3.645 -0.1354 -0.2241  0.8231
24948SOL    HW176285   0.286   7.526   3.586  0.3394 -0.1144  0.2302
24948SOL    HW276286   0.378   7.424   3.651  0.6093 -0.1821 -0.2442
24949SOL     OW76287   1.680   3.100  12.364  0.2693 -0.2941 -0.5265
24949SOL    HW176288   1.660   3.180  12.315  0.9345  0.0261 -0.2795
24949SOL    HW276289   1.746   3.055  12.311  0.7893 -0.0810 -0.0646
24950SOL     OW76290   7.660   0.937   8.304 -0.6064 -0.4030 -0.4274
24950SOL    HW176291   7.697   0.989   8.375 -1.8792  1.7913 -1.2824
24950SOL    HW276292   7.721   0.864   8.293  0.2165 -0.1938  2.1225
24951SOL     OW76293   0.787   4.074   0.284  0.0510  0.2071  0.2353
24951SOL    HW176294   0.709   4.068   0.339  0.5286 -1.4648  0.7802
24951SOL    HW276295   0.754   4.064   0.195 -0.4621  0.5131  0.3893
24952SOL     OW76296   4.802   4.532   6.475 -0.1981 -0.5794 -0.2285
24952SOL    HW176297   4.779   4.533   6.568  0.9411  2.9175  0.1409
24952SOL    HW276298   4.892   4.499   6.473 -0.0402 -0.1648 -0.0278
24953SOL     OW76299   1.947   6.211   4.578 -0.3529 -0.1443 -0.1251
24953SOL    HW176300   1.866   6.201   4.628 -1.4968  1.1041 -1.6184
24953SOL    HW276301   2.004   6.261   4.635 -0.8723 -0.4663  0.6994
24954SOL     OW76302   6.992   3.963   4.009  0.4277 -0.5126  0.0921
24954SOL    HW176303   7.070   3.936   3.960 -0.6342 -0.2576 -1.8271
24954SOL    HW276304   6.919   3.922   3.963 -0.7546  1.0747  0.4702
24955SOL     OW76305   1.562   6.626  11.150  0.1835 -0.4055  0.3027
24955SOL    HW176306   1.578   6.713  11.114  1.8375 -0.2797  1.2737
24955SOL    HW276307   1.523   6.642  11.236  0.9751 -0.5998  0.7042
24956SOL     OW76308   5.094   2.919  10.111  0.2377  0.0320 -0.3841
24956SOL    HW176309   5.038   2.933  10.035 -0.7845  1.5442  0.5976
24956SOL    HW276310   5.180   2.953  10.084 -0.3717  1.5230 -0.5599
24957SOL     OW76311   2.672   0.434  11.879  0.1201 -0.7438 -0.0017
24957SOL    HW176312   2.680   0.447  11.785  1.2018 -1.7848 -0.0779
24957SOL    HW276313   2.747   0.481  11.917 -2.2035  2.7811  0.7333
24958SOL     OW76314   3.174   2.217   2.776  0.4232 -0.5046 -0.2569
24958SOL    HW176315   3.237   2.248   2.711 -1.1422 -0.3768 -1.7778
24958SOL    HW276316   3.205   2.254   2.859  1.5926  0.6514 -1.1707
24959SOL     OW76317   4.470   0.979   6.528 -0.6187 -0.1894  0.0375
24959SOL    HW176318   4.398   0.988   6.591 -1.5513  1.4851 -1.1933
24959SOL    HW276319   4.524   1.056   6.542  2.6317 -2.6988  2.8227
24960SOL     OW76320   7.015   6.697   5.703 -0.8397  0.4121 -1.0840
24960SOL    HW176321   7.035   6.606   5.683  1.1586  0.3282  0.9077
24960SOL    HW276322   6.953   6.693   5.775 -1.6362  0.6750 -1.7332
24961SOL     OW76323   2.208   0.899   1.090 -0.3681 -0.4242  0.2139
24961SOL    HW176324   2.209   0.850   1.008 -2.0793 -0.7970  0.3772
24961SOL    HW276325   2.156   0.977   1.071 -0.3391 -0.2498  0.8209
24962SOL     OW76326   3.345   3.566   1.826  0.3944 -0.3733  0.0969
24962SOL    HW176327   3.293   3.489   1.850  1.0234 -0.6502  0.5852
24962SOL    HW276328   3.359   3.612   1.909 -0.0485  0.3226 -0.2036
24963SOL     OW76329   5.195   0.698   9.929 -0.3633 -0.1153 -0.2059
24963SOL    HW176330   5.138   0.766   9.965 -0.6707  0.1617 -1.1986
24963SOL    HW276331   5.182   0.623   9.987 -0.7917  0.3440  0.3046
24964SOL     OW76332   1.213   1.608   2.693 -0.0343  0.1797 -0.2516
24964SOL    HW176333   1.161   1.659   2.630 -0.3650  0.5982  0.3447
24964SOL    HW276334   1.147   1.561   2.745  0.2563 -0.5709 -0.5488
24965SOL     OW76335   7.698   3.176  11.457 -0.2186  0.2470 -0.0232
24965SOL    HW176336   7.674   3.178  11.364  1.6696  0.5312 -0.5536
24965SOL    HW276337   7.700   3.083  11.479 -1.4999  0.2032 -0.0033
24966SOL     OW76338   7.674   5.315  10.169  0.3352  0.4001  0.7871
24966SOL    HW176339   7.603   5.258  10.200 -0.3369  1.1816  0.7370
24966SOL    HW276340   7.640   5.353  10.088  1.8200 -1.1437 -0.6382
24967SOL     OW76341   3.911   5.763   4.565  0.4110 -0.1139  0.0289
24967SOL    HW176342   3.817   5.749   4.569  0.1571  1.3176 -0.4158
24967SOL    HW276343   3.928   5.790   4.475  1.2712 -0.4820  0.0678
24968SOL     OW76344   1.432   7.490   1.299 -0.0217  0.2383  0.6646
24968SOL    HW176345   1.501   7.511   1.363 -0.5427  0.1078  1.2741
24968SOL    HW276346   1.421   7.395   1.306  2.5719 -0.4866 -2.3214
24969SOL     OW76347   6.418   4.603   5.998 -0.5622  0.2697  0.2568
24969SOL    HW176348   6.438   4.694   5.978  1.2156 -0.4638 -1.7213
24969SOL    HW276349   6.371   4.571   5.921 -0.3659 -0.6946  0.5193
24970SOL     OW76350   0.183   4.109  12.408 -0.1839 -0.5843 -0.1738
24970SOL    HW176351   0.088   4.110  12.410 -0.1666 -0.0265  1.5012
24970SOL    HW276352   0.208   4.030  12.455  0.2013 -1.3463 -1.5931
24971SOL     OW76353   6.561   2.940   6.371 -0.0074 -0.0096 -0.1252
24971SOL    HW176354   6.473   2.906   6.353 -0.5307  1.9457 -1.6685
24971SOL    HW276355   6.559   2.964   6.463 -1.5214  1.0849 -0.4059
24972SOL     OW76356   4.581   1.054   8.290 -0.1939 -0.5056  0.1944
24972SOL    HW176357   4.627   1.059   8.206  1.1241 -3.0457  0.6678
24972SOL    HW276358   4.492   1.025   8.267 -0.2801  0.1973 -0.4042
24973SOL     OW76359   3.841   6.489  11.520  0.8936 -0.9482  0.1966
24973SOL    HW176360   3.907   6.438  11.473  1.3433 -0.1896 -0.0228
24973SOL    HW276361   3.884   6.573  11.536 -0.8394  0.5435 -2.2367
24974SOL     OW76362   7.638   2.355   0.791  0.0587 -0.3741 -0.2132
24974SOL    HW176363   7.716   2.362   0.736  1.4718 -1.8131  1.4737
24974SOL    HW276364   7.610   2.264   0.782 -0.2532 -0.3784  0.7096
24975SOL     OW76365   6.470   4.114   3.123 -0.3898  0.6063  0.1897
24975SOL    HW176366   6.510   4.168   3.191 -0.2931  1.1004 -0.2604
24975SOL    HW276367   6.409   4.172   3.079  1.6070  1.1708 -2.0421
24976SOL     OW76368   7.887   3.618  10.221 -0.2131  0.1723 -0.2390
24976SOL    HW176369   7.966   3.656  10.261  1.3257 -2.3820 -0.6059
24976SOL    HW276370   7.834   3.591  10.295  1.2141 -1.7767  0.1463
24977SOL     OW76371   6.648   0.038   5.371  0.0556 -0.2710 -0.1604
24977SOL    HW176372   6.584   0.017   5.303 -0.1186  0.0447 -0.0982
24977SOL    HW276373   6.615   0.120   5.410  0.4763 -0.1290 -0.1024
24978SOL     OW76374   5.619   1.652   8.290 -0.4874  0.5342 -0.7510
24978SOL    HW176375   5.632   1.735   8.335  0.5747 -0.4304  0.7863
24978SOL    HW276376   5.545   1.611   8.334  0.1604 -0.1415 -0.2760
24979SOL     OW76377   3.069   7.645  10.053  0.1868  0.4078  0.2869
24979SOL    HW176378   3.157   7.608  10.058  0.1690  0.4535  1.1011
24979SOL    HW276379   3.062   7.677   9.964  1.2331  0.9820  0.3873
24980SOL     OW76380   5.289   0.522   7.879  0.2532 -0.5528  0.5651
24980SOL    HW176381   5.381   0.506   7.855  0.9669  4.4761 -1.0795
24980SOL    HW276382   5.289   0.609   7.918 -3.8127 -0.6611  1.2078
24981SOL     OW76383   7.238   5.080   6.838  0.6589 -0.2000  0.3623
24981SOL    HW176384   7.241   4.985   6.851 -1.6810 -0.2987  0.5949
24981SOL    HW276385   7.206   5.115   6.922  0.5054  0.6821 -0.0509
24982SOL     OW76386   6.891   5.905   0.254  0.8210 -0.1135 -0.2300
24982SOL    HW176387   6.901   5.902   0.159  0.9478 -0.7827 -0.2009
24982SOL    HW276388   6.796   5.912   0.268  0.4274 -3.4804 -0.3846
24983SOL     OW76389   0.026   0.044   5.709  0.3219  0.6334  0.5482
24983SOL    HW176390   0.102   0.023   5.654 -0.2549 -1.9159  0.6002
24983SOL    HW276391  -0.049   0.017   5.656 -0.5389  2.2786  0.8687
24984SOL     OW76392   3.666   6.261   6.497  0.5930  0.2018  0.4873
24984SOL    HW176393   3.670   6.308   6.413  0.8851 -1.2894 -0.3599
24984SOL    HW276394   3.737   6.198   6.493  0.8064  0.3062  2.0149
24985SOL     OW76395   4.133   0.608  10.868  0.0847  0.3142  0.1861
24985SOL    HW176396   4.157   0.685  10.816  1.2356  0.9664  1.5933
24985SOL    HW276397   4.156   0.633  10.958 -2.1749 -0.6047  1.0879
24986SOL     OW76398   6.480   2.491  10.236  0.8472  0.0435  0.2596
24986SOL    HW176399   6.429   2.411  10.246  1.1102 -0.2643 -0.6810
24986SOL    HW276400   6.497   2.521  10.325  1.3737 -1.3682  0.6575
24987SOL     OW76401   7.455   7.246   6.742  0.1174 -0.5458 -0.5583
24987SOL    HW176402   7.521   7.231   6.810  0.9639 -2.4661 -1.6926
24987SOL    HW276403   7.372   7.224   6.784  0.2408  1.2478  0.6983
24988SOL     OW76404   0.422   2.364  11.419 -0.3931  0.6111  0.6125
24988SOL    HW176405   0.516   2.349  11.429 -0.3325  0.2575 -0.4034
24988SOL    HW276406   0.414   2.459  11.409 -0.0480  0.5672 -0.1581
24989SOL     OW76407   1.104   3.096   0.360  0.0853 -0.0818 -0.4383
24989SOL    HW176408   1.165   3.065   0.426 -0.4851  0.8676  0.5644
24989SOL    HW276409   1.043   3.023   0.348  1.5696 -1.1793 -1.7201
24990SOL     OW76410   1.185   5.514   9.690 -0.5621  0.5566 -0.0762
24990SOL    HW176411   1.092   5.508   9.667 -0.2074 -0.3741 -1.3801
24990SOL    HW276412   1.187   5.500   9.784 -1.5934 -1.4339 -0.2914
24991SOL     OW76413   6.849   7.011   0.346  0.0878  0.0834 -0.0643
24991SOL    HW176414   6.815   6.923   0.365 -2.5550  1.3992  1.9596
24991SOL    HW276415   6.933   7.015   0.392  1.3981 -2.0355 -2.0626
24992SOL     OW76416   2.587   5.643   2.376  0.0145 -0.4788 -0.1495
24992SOL    HW176417   2.666   5.593   2.354 -0.0250 -0.9901  0.7990
24992SOL    HW276418   2.619   5.723   2.417  0.0606 -0.8526  0.5774
24993SOL     OW76419   5.586   0.393   2.888 -0.0851 -0.0003  0.4983
24993SOL    HW176420   5.589   0.443   2.806  0.1579 -0.1292  0.4258
24993SOL    HW276421   5.672   0.408   2.927 -1.2153  2.6339  2.2764
24994SOL     OW76422   7.893   4.358   5.298 -0.2368 -0.2129  0.2252
24994SOL    HW176423   7.871   4.449   5.319 -2.4534 -0.9409  1.3276
24994SOL    HW276424   7.853   4.343   5.213 -1.0843 -0.5399  0.6729
24995SOL     OW76425   3.541   2.026   0.671 -0.1849  0.0235  0.1967
24995SOL    HW176426   3.636   2.038   0.664  0.0799 -1.1140  1.4933
24995SOL    HW276427   3.505   2.112   0.649  1.2479  1.0290  1.4966
24996SOL     OW76428   0.745   5.582   0.621  0.1823  1.1312  0.1049
24996SOL    HW176429   0.727   5.668   0.584 -2.1950  0.9753  0.7692
24996SOL    HW276430   0.756   5.597   0.714  1.1140  0.8574  0.0536
24997SOL     OW76431   1.300   1.500   5.950 -0.1968 -0.5720  0.3768
24997SOL    HW176432   1.304   1.482   6.044  0.4617 -2.5373  0.0142
24997SOL    HW276433   1.383   1.543   5.929  0.4260 -1.7489  0.3986
24998SOL     OW76434   0.258   6.391   9.647 -0.5199  0.2419  0.0584
24998SOL    HW176435   0.182   6.382   9.590 -0.7251  2.0741 -0.0272
24998SOL    HW276436   0.221   6.397   9.735 -0.6917  2.7806 -0.1052
24999SOL     OW76437   3.891   3.896   1.345  0.0661  0.0037 -0.0842
24999SOL    HW176438   3.920   3.981   1.378  0.4446 -0.8662  1.9542
24999SOL    HW276439   3.938   3.885   1.262  1.3539  1.0166  0.4824
25000SOL     OW76440   7.585   4.478   0.431 -0.0101 -0.2001 -0.1869
25000SOL    HW176441   7.521   4.477   0.360 -1.6707 -1.7241  1.2159
25000SOL    HW276442   7.648   4.546   0.406 -1.0498 -0.0189 -2.6032
25001SOL     OW76443   6.320   7.242   0.713  0.1236  0.0855  0.0177
25001SOL    HW176444   6.370   7.323   0.706  2.4410 -1.2725 -0.2455
25001SOL    HW276445   6.241   7.257   0.662  0.5943  2.0957 -0.1817
25002SOL     OW76446   1.109   7.566   8.277 -0.1146  0.2716  0.0660
25002SOL    HW176447   1.066   7.629   8.219 -1.3159  0.3756  1.0219
25002SOL    HW276448   1.189   7.610   8.305 -0.4784  1.0040 -0.0117
25003SOL     OW76449   7.714   2.205   1.895 -0.1406  0.1814  0.4822
25003SOL    HW176450   7.793   2.152   1.888  0.1966  0.7806 -0.4266
25003SOL    HW276451   7.644   2.142   1.915  0.2638 -0.6049 -0.4829
25004SOL     OW76452   4.126   2.127   3.104 -0.9952 -0.3536 -0.1461
25004SOL    HW176453   4.172   2.104   3.024 -0.9734 -0.3988 -0.1205
25004SOL    HW276454   4.049   2.070   3.104 -1.3226  0.0778 -0.4472
25005SOL     OW76455   1.516   0.072  11.706  0.0973 -0.2766 -0.0833
25005SOL    HW176456   1.487   0.020  11.780  0.9215  0.8371  1.0720
25005SOL    HW276457   1.445   0.065  11.642 -1.6395  0.4547  1.6746
25006SOL     OW76458   3.512   6.090   6.278  0.1028  0.0318  0.2089
25006SOL    HW176459   3.568   6.109   6.352 -1.0153 -0.4860  1.2219
25006SOL    HW276460   3.444   6.157   6.281  0.1689  0.1350 -0.4750
25007SOL     OW76461   4.006   1.584  10.020 -0.0637 -0.3040 -0.1900
25007SOL    HW176462   4.022   1.509  10.077 -0.5147  0.0465  0.4196
25007SOL    HW276463   3.945   1.552   9.954 -1.0341 -0.2400  0.6442
25008SOL     OW76464   6.244   7.480   9.580 -0.3028  0.1952 -0.1882
25008SOL    HW176465   6.272   7.553   9.635  1.0476 -0.2896 -0.1794
25008SOL    HW276466   6.226   7.409   9.642  3.0756 -0.9683 -0.3348
25009SOL     OW76467   3.210   0.157  10.372  0.6480  0.2826 -0.3294
25009SOL    HW176468   3.214   0.062  10.382  0.1211  0.2079 -0.7513
25009SOL    HW276469   3.133   0.172  10.317 -0.6586  1.0822  1.5791
25010SOL     OW76470   3.949   6.665   5.612  0.2401 -0.6580 -0.2452
25010SOL    HW176471   3.910   6.657   5.699 -1.0695  0.8315 -0.6431
25010SOL    HW276472   4.006   6.589   5.604 -1.5222 -2.2096  0.9503
25011SOL     OW76473   1.342   6.629   7.145 -0.3950  0.0687 -0.1121
25011SOL    HW176474   1.258   6.628   7.098 -0.0523 -1.3289 -0.7395
25011SOL    HW276475   1.339   6.552   7.202  0.5640 -0.1720 -0.3619
25012SOL     OW76476   0.860   6.810   9.486 -0.4780  0.3148 -0.0240
25012SOL    HW176477   0.839   6.766   9.404  0.0030 -0.2515  0.1469
25012SOL    HW276478   0.791   6.875   9.497 -0.5484  0.3987 -0.8751
25013SOL     OW76479   2.045   5.677   0.141  0.1488  0.3036  0.4512
25013SOL    HW176480   2.048   5.664   0.047 -1.7598  0.0779  0.3827
25013SOL    HW276481   2.036   5.589   0.178  1.0706  0.3710  0.8759
25014SOL     OW76482   2.362   5.266   0.162 -0.4798 -0.4325  0.3386
25014SOL    HW176483   2.440   5.233   0.207 -0.4545  0.3675  0.9002
25014SOL    HW276484   2.361   5.359   0.181 -1.9840 -0.5428  0.9425
25015SOL     OW76485   3.058   1.150   7.892 -0.1490  0.2137  0.0164
25015SOL    HW176486   3.042   1.111   7.978 -0.2045  0.9056  0.3252
25015SOL    HW276487   3.128   1.213   7.907 -1.4878  1.7746 -0.0145
25016SOL     OW76488   1.370   2.061   5.386  0.3283  0.2282  0.7019
25016SOL    HW176489   1.413   2.049   5.471 -0.3134 -2.0567  0.7798
25016SOL    HW276490   1.428   2.019   5.323  0.7063  1.7439  0.0139
25017SOL     OW76491   3.179   1.537   7.823 -0.1161 -0.3262 -0.2471
25017SOL    HW176492   3.243   1.579   7.765 -0.6004  0.8554  0.0534
25017SOL    HW276493   3.119   1.608   7.847  0.2489 -0.7207  1.9465
25018SOL     OW76494   6.253   5.804   5.515 -0.6500 -0.0841 -0.5042
25018SOL    HW176495   6.251   5.735   5.582 -1.4355  1.3107  0.9776
25018SOL    HW276496   6.177   5.786   5.460 -2.1359  0.7575  1.1584
25019SOL     OW76497   2.478   6.704   9.659 -0.1990 -0.2739 -0.1505
25019SOL    HW176498   2.492   6.799   9.666  0.4894 -0.2195 -1.7739
25019SOL    HW276499   2.513   6.669   9.741  0.2563  0.8112  0.1481
25020SOL     OW76500   7.683   5.518   7.591  0.6379 -0.3739  0.3775
25020SOL    HW176501   7.662   5.461   7.665 -0.1656 -1.2118 -0.4659
25020SOL    HW276502   7.684   5.606   7.629 -0.0921 -0.7470  1.3171
25021SOL     OW76503   2.171   3.081   2.674 -0.4059 -0.2656 -0.3501
25021SOL    HW176504   2.256   3.123   2.684 -1.2936  1.4957  0.3458
25021SOL    HW276505   2.152   3.089   2.580 -1.3342  2.6890 -0.0159
25022SOL     OW76506   3.379   1.109   7.484  0.4996  0.0163  0.1454
25022SOL    HW176507   3.367   1.187   7.537  0.4894  0.9740 -1.2046
25022SOL    HW276508   3.457   1.067   7.519 -0.5168 -0.3778  2.0518
25023SOL     OW76509   0.909   6.717   6.062  0.4103 -0.1206  0.0498
25023SOL    HW176510   0.910   6.763   5.978  2.7746 -1.2348 -0.6304
25023SOL    HW276511   0.863   6.776   6.122 -0.3557  1.1979 -1.7523
25024SOL     OW76512   3.788   6.978   9.996  0.7431 -0.2614 -0.4238
25024SOL    HW176513   3.807   6.935  10.080  1.3688  0.1827 -0.3319
25024SOL    HW276514   3.708   6.936   9.965  2.3029 -2.8160 -1.2482
25025SOL     OW76515   4.639   7.262  11.072 -0.1749 -0.7991 -0.5782
25025SOL    HW176516   4.716   7.227  11.115  0.1436 -0.2980 -0.7241
25025SOL    HW276517   4.577   7.279  11.143 -1.3524 -3.9775 -0.6875
25026SOL     OW76518   7.890   2.451   9.413  0.4941  0.5725 -0.4255
25026SOL    HW176519   7.941   2.524   9.448  0.1683  0.6381 -0.0770
25026SOL    HW276520   7.810   2.493   9.379  0.7252  0.4892 -1.0873
25027SOL     OW76521   1.406   1.359  11.752 -0.2749  0.7049  0.3065
25027SOL    HW176522   1.362   1.291  11.803  0.2604  0.5063  0.5209
25027SOL    HW276523   1.351   1.372  11.675 -1.0444  0.9480  0.8967
25028SOL     OW76524   6.100   1.392   0.741  0.0244 -0.6016 -0.0449
25028SOL    HW176525   6.019   1.399   0.690  0.0706  0.4618 -0.0021
25028SOL    HW276526   6.107   1.477   0.785  1.3319 -0.5463 -0.3195
25029SOL     OW76527   2.920   1.740   1.585  0.0619 -0.4815 -0.4513
25029SOL    HW176528   2.890   1.809   1.644  0.3803 -1.1656  0.5409
25029SOL    HW276529   2.958   1.787   1.510 -2.2960  0.4067 -1.1909
25030SOL     OW76530   1.908   2.950   3.892 -0.1243  0.4163  0.6411
25030SOL    HW176531   1.940   2.975   3.805  0.1318  0.3516  0.7181
25030SOL    HW276532   1.939   3.020   3.950 -0.9474  0.8740  0.5617
25031SOL     OW76533   2.640   7.468   3.356  0.0011 -0.2817 -0.8611
25031SOL    HW176534   2.689   7.398   3.314  0.9709  0.6783 -1.3974
25031SOL    HW276535   2.657   7.456   3.450  1.1478 -0.0771 -1.0248
25032SOL     OW76536   7.831   5.018   7.723 -0.0548  0.4403  0.7500
25032SOL    HW176537   7.753   4.973   7.755 -1.2335  1.5930 -0.3859
25032SOL    HW276538   7.893   4.948   7.703 -1.5820 -0.6536 -0.3373
25033SOL     OW76539   5.690   7.540   4.327  0.1030 -0.8540  0.5040
25033SOL    HW176540   5.617   7.547   4.389 -1.2610 -0.2238 -1.1085
25033SOL    HW276541   5.655   7.572   4.244  2.4031  0.0369 -0.2143
25034SOL     OW76542   0.918   3.766   6.746  0.0613  0.1381 -0.3752
25034SOL    HW176543   0.935   3.847   6.794 -2.0758 -0.6090  1.8777
25034SOL    HW276544   0.914   3.699   6.814 -1.3070 -1.3185 -1.8188
25035SOL     OW76545   3.055   0.769   1.516  0.0081 -0.1396  0.1397
25035SOL    HW176546   3.051   0.827   1.440 -0.9417 -2.0591 -1.3562
25035SOL    HW276547   3.138   0.791   1.558  0.1767  1.5388 -0.9621
25036SOL     OW76548   3.274   5.471   4.962 -0.2774 -0.3375  0.0643
25036SOL    HW176549   3.339   5.400   4.957 -0.3390 -0.5394  1.6932
25036SOL    HW276550   3.263   5.487   5.056 -0.7604  1.3920 -0.2591
25037SOL     OW76551   2.583   7.146  10.877  0.3267 -0.0608 -0.0772
25037SOL    HW176552   2.597   7.065  10.827 -0.5494 -0.0736 -0.3211
25037SOL    HW276553   2.496   7.135  10.915  0.2426  0.7282 -0.0320
25038SOL     OW76554   7.279   2.781   2.238 -0.3525  0.2964 -0.2635
25038SOL    HW176555   7.218   2.849   2.211 -2.2044 -1.3601 -0.4979
25038SOL    HW276556   7.269   2.776   2.333  1.1620  1.5637 -0.0097
25039SOL     OW76557   6.130   3.417   6.291  0.1875 -0.1622 -0.0216
25039SOL    HW176558   6.075   3.339   6.287  1.0098 -0.7167 -1.0268
25039SOL    HW276559   6.217   3.384   6.314  0.8154  0.2786 -1.6122
25040SOL     OW76560   3.196   3.629   7.323 -0.1383 -0.4648 -0.0265
25040SOL    HW176561   3.201   3.539   7.352  0.1425 -0.0395  1.2958
25040SOL    HW276562   3.258   3.635   7.250  2.0502 -0.6745  1.7154
25041SOL     OW76563   6.773   5.429   0.005 -0.0740 -0.0780 -0.2215
25041SOL    HW176564   6.829   5.495  -0.035  0.5234 -0.9454 -0.8655
25041SOL    HW276565   6.698   5.422  -0.054 -0.7771  0.9394  0.5342
25042SOL     OW76566   6.587   3.623   4.836 -0.0815 -0.6182 -0.6902
25042SOL    HW176567   6.578   3.568   4.913 -0.9933 -0.2447 -0.5107
25042SOL    HW276568   6.678   3.612   4.808 -0.0425 -1.6020 -0.2107
25043SOL     OW76569   1.860   1.280  12.257 -0.6020  0.0351 -0.0289
25043SOL    HW176570   1.842   1.315  12.170  0.4642  0.7626  0.0194
25043SOL    HW276571   1.955   1.268  12.259 -0.3292  1.9413  1.7116
25044SOL     OW76572   4.886   4.543   2.373 -0.0619 -0.1874 -0.1113
25044SOL    HW176573   4.957   4.485   2.346  0.9581  0.9442  0.0371
25044SOL    HW276574   4.809   4.510   2.327  0.4378 -1.7483  0.1013
25045SOL     OW76575   0.881   1.269   4.034  0.0874  0.0443  0.1933
25045SOL    HW176576   0.793   1.278   3.996  0.4307 -0.2435 -0.6922
25045SOL    HW276577   0.939   1.263   3.959  1.0874  2.0952  0.7320
25046SOL     OW76578   2.308   5.493   6.578 -0.4792 -0.2400 -0.1820
25046SOL    HW176579   2.376   5.547   6.538 -0.9962  0.4964 -0.0910
25046SOL    HW276580   2.351   5.410   6.598  0.2363  0.0156 -0.6501
25047SOL     OW76581   5.971   0.208   8.341  0.2796 -0.2145 -0.2654
25047SOL    HW176582   5.958   0.238   8.432  1.2125  0.9426 -0.4881
25047SOL    HW276583   5.883   0.190   8.309 -0.2494  1.2478  0.2703
25048SOL     OW76584   3.874   3.178   5.553 -0.4446 -0.1146  0.2801
25048SOL    HW176585   3.792   3.228   5.559 -0.6330 -0.4423  0.5053
25048SOL    HW276586   3.916   3.192   5.638  0.3276  1.0476 -0.2701
25049SOL     OW76587   3.528   1.600   1.806  0.0670 -0.6637  0.0341
25049SOL    HW176588   3.611   1.647   1.797  0.7952 -2.2989 -2.7320
25049SOL    HW276589   3.462   1.661   1.772  0.8563 -1.1037 -2.4689
25050SOL     OW76590   6.785   6.160   6.609  0.2388  0.4963  0.4478
25050SOL    HW176591   6.750   6.243   6.644 -0.2950  0.4973 -0.0696
25050SOL    HW276592   6.737   6.092   6.657 -1.0071  0.4959 -0.7377
25051SOL     OW76593   4.717   2.097   2.430  0.3270 -0.4841  1.2127
25051SOL    HW176594   4.716   2.149   2.511 -0.4311 -0.6776  1.3399
25051SOL    HW276595   4.797   2.045   2.436  0.1150 -0.7382  2.0089
25052SOL     OW76596   4.947   7.046  12.038 -1.1685 -0.6616 -0.3007
25052SOL    HW176597   5.027   7.081  12.078 -0.7960 -1.1410 -0.6009
25052SOL    HW276598   4.943   7.087  11.952 -1.2988 -0.5581 -0.2439
25053SOL     OW76599   1.565   5.993   1.855 -0.2694 -0.1981 -0.0310
25053SOL    HW176600   1.645   5.968   1.809  0.2464  1.7416 -0.2983
25053SOL    HW276601   1.595   6.033   1.936 -0.8474  1.8280 -0.7568
25054SOL     OW76602   3.229   0.285  10.793 -0.1657 -0.5525  0.1569
25054SOL    HW176603   3.146   0.237  10.795 -0.0640 -0.8660 -1.6158
25054SOL    HW276604   3.208   0.373  10.824 -1.1810 -0.6229 -0.3118
25055SOL     OW76605   1.508   4.403   9.957  0.2264  0.3370  0.4878
25055SOL    HW176606   1.439   4.466   9.937 -0.4626 -0.2839  0.8615
25055SOL    HW276607   1.501   4.389  10.052  1.8599  1.4107  0.8154
25056SOL     OW76608   0.863   4.704  10.231  0.2686  0.0593  0.2800
25056SOL    HW176609   0.803   4.778  10.237  0.3002  0.2517 -1.2252
25056SOL    HW276610   0.813   4.629  10.260 -0.7958  0.1888 -1.0989
25057SOL     OW76611   1.551   4.484   0.217 -0.3430  0.7137 -0.2691
25057SOL    HW176612   1.545   4.421   0.289 -1.9312 -0.7350 -1.5913
25057SOL    HW276613   1.644   4.492   0.200 -0.0666 -0.8514  0.3389
25058SOL     OW76614   6.977   1.259   9.692  0.3841  0.4757 -0.1028
25058SOL    HW176615   6.966   1.272   9.786 -0.7738  0.1100 -0.1757
25058SOL    HW276616   6.901   1.208   9.665  0.5917  0.7499 -1.2821
25059SOL     OW76617   4.747   0.601   3.166 -0.1677 -0.0448  0.3441
25059SOL    HW176618   4.752   0.672   3.102  0.6567 -0.3448  0.0684
25059SOL    HW276619   4.820   0.617   3.225  1.4204 -1.8706 -1.0048
25060SOL     OW76620   0.544   1.072   7.307 -0.3852  0.2294  0.1066
25060SOL    HW176621   0.615   1.027   7.352 -1.5275 -1.1335  0.6233
25060SOL    HW276622   0.584   1.105   7.226  0.7335 -0.9176  0.1556
25061SOL     OW76623   1.625   6.280   0.874  0.3758 -0.7925 -0.0960
25061SOL    HW176624   1.606   6.365   0.836  0.8222 -0.5179  0.2852
25061SOL    HW276625   1.721   6.277   0.880  0.4616 -1.9371 -1.5270
25062SOL     OW76626   3.010   6.103   5.403  0.5726 -0.1369 -0.1848
25062SOL    HW176627   3.050   6.030   5.356  1.0121 -1.2776  1.8555
25062SOL    HW276628   3.060   6.180   5.375  1.5289 -0.9339 -0.7376
25063SOL     OW76629   2.033   6.644   3.205 -0.1793  0.1973  0.1836
25063SOL    HW176630   2.081   6.574   3.250  0.4792 -0.0955 -0.9468
25063SOL    HW276631   1.977   6.598   3.143  1.2044  0.6736 -1.4941
25064SOL     OW76632   1.953   6.993  11.452 -0.4946  0.2894 -0.5340
25064SOL    HW176633   2.039   7.000  11.411 -0.0597 -0.8176  0.1331
25064SOL    HW276634   1.897   7.052  11.401  0.4205  0.2733 -1.6043
25065SOL     OW76635   2.096   2.650   6.388  0.4284 -0.0224 -0.1074
25065SOL    HW176636   2.124   2.723   6.443 -0.5803 -1.1421  1.9987
25065SOL    HW276637   2.148   2.576   6.418  0.4328 -0.4995 -1.2479
25066SOL     OW76638   6.059   3.874  10.979  0.6742 -0.2077 -0.2874
25066SOL    HW176639   6.081   3.805  11.041 -0.2593  1.4721  2.0609
25066SOL    HW276640   6.133   3.934  10.982  0.5152  0.0133 -0.6317
25067SOL     OW76641   5.451   3.582   9.471 -0.1505  0.0886 -0.2113
25067SOL    HW176642   5.527   3.524   9.471 -0.3367 -0.1575  0.1445
25067SOL    HW276643   5.380   3.528   9.435 -0.1616  0.3130 -0.5277
25068SOL     OW76644   2.331   5.902   9.731 -1.0762 -0.0790  0.2614
25068SOL    HW176645   2.397   5.833   9.732 -0.0544  0.8754  0.4124
25068SOL    HW276646   2.253   5.860   9.694 -0.9128 -1.6772  1.6018
25069SOL     OW76647   4.539   1.167   0.687  0.0202 -0.4585  0.7468
25069SOL    HW176648   4.458   1.191   0.643  0.1920  1.0238  1.1825
25069SOL    HW276649   4.593   1.247   0.682  1.4589 -1.4142  0.4458
25070SOL     OW76650   3.724   1.237   9.596 -0.1461 -0.2320  0.0239
25070SOL    HW176651   3.752   1.170   9.534 -0.5065  0.2821 -0.7091
25070SOL    HW276652   3.755   1.319   9.559  0.8688 -0.0299  1.2478
25071SOL     OW76653   1.991   6.504   4.347 -0.0494 -0.8030  0.5463
25071SOL    HW176654   2.034   6.423   4.319  0.7125 -0.5930  1.0817
25071SOL    HW276655   1.962   6.486   4.437  0.8524 -0.2283  0.9744
25072SOL     OW76656   3.224   0.664  11.303 -0.3993 -0.0986 -0.0781
25072SOL    HW176657   3.267   0.729  11.247 -1.2527  1.7036  1.2439
25072SOL    HW276658   3.134   0.660  11.271 -0.9691  1.1546  1.2421
25073SOL     OW76659   6.701   6.271   2.747  0.0375  0.3687  0.6019
25073SOL    HW176660   6.791   6.240   2.756 -0.3780 -0.5216  2.0111
25073SOL    HW276661   6.650   6.191   2.734 -0.7861  0.6559  1.9465
25074SOL     OW76662   0.091   5.660  11.077  0.0792  0.1705  0.0716
25074SOL    HW176663   0.023   5.621  11.023 -0.1294  0.7293 -0.0643
25074SOL    HW276664   0.117   5.589  11.137  0.0536 -0.3327 -0.5051
25075SOL     OW76665   4.943   2.737   1.315 -0.0918  0.2040  0.0548
25075SOL    HW176666   4.886   2.677   1.267  1.1883  0.1182 -1.4147
25075SOL    HW276667   5.031   2.719   1.281  0.7840  0.6106  1.9784
25076SOL     OW76668   1.943   1.201   9.643  0.2883  0.1212  0.2137
25076SOL    HW176669   1.903   1.137   9.585 -0.2507  0.7397 -0.1042
25076SOL    HW276670   1.877   1.269   9.654  0.3784  0.0307  1.5438
25077SOL     OW76671   6.788   1.107   0.909  0.3124  0.6150 -0.0618
25077SOL    HW176672   6.730   1.171   0.868  1.8280  0.5344 -2.5148
25077SOL    HW276673   6.849   1.159   0.960 -0.0830  0.9149  0.1144
25078SOL     OW76674   3.072   6.590   6.445 -0.7017  0.7140 -0.3155
25078SOL    HW176675   3.150   6.538   6.422 -2.4025 -1.5155 -1.3796
25078SOL    HW276676   3.087   6.674   6.403  1.6987  0.8304  0.5763
25079SOL     OW76677   2.662   0.727   2.656 -0.4162  0.2024  0.1553
25079SOL    HW176678   2.653   0.776   2.738  0.1145 -1.6048  1.3416
25079SOL    HW276679   2.602   0.653   2.665  0.1185 -0.3715 -0.8030
25080SOL     OW76680   7.418   7.203   2.623 -0.4737  0.1875 -0.0066
25080SOL    HW176681   7.509   7.177   2.637  0.3954  2.1104 -1.5661
25080SOL    HW276682   7.366   7.128   2.651  1.6798 -1.8376 -1.1416
25081SOL     OW76683   4.103   0.611   0.889  0.0204 -0.0511 -0.1703
25081SOL    HW176684   4.158   0.641   0.962  0.3626 -2.2031  0.5228
25081SOL    HW276685   4.150   0.639   0.811  1.6103 -0.9259  0.4194
25082SOL     OW76686   4.538   0.020  11.846 -0.5100 -0.9951  0.2865
25082SOL    HW176687   4.481  -0.043  11.890 -0.6178 -0.5882  0.7324
25082SOL    HW276688   4.481   0.063  11.782 -0.6512 -0.7299  0.5923
25083SOL     OW76689   1.416   0.597   2.839  0.8176 -0.1979 -0.1528
25083SOL    HW176690   1.455   0.658   2.775  1.9597 -1.0191 -0.2815
25083SOL    HW276691   1.326   0.626   2.848  1.5278  2.0664  0.4500
25084SOL     OW76692   7.720   7.026   8.501 -0.1331  0.4947  1.0464
25084SOL    HW176693   7.751   6.943   8.464 -1.6767  0.3796 -0.0682
25084SOL    HW276694   7.656   7.000   8.568 -0.9566  0.7786  0.3812
25085SOL     OW76695   4.405   6.171   3.012 -0.3554  0.0663 -0.8630
25085SOL    HW176696   4.480   6.188   3.069 -0.3967 -0.3067 -0.6958
25085SOL    HW276697   4.406   6.243   2.949 -0.7526  0.9121  0.0726
25086SOL     OW76698   4.206   1.773   9.570  0.2126 -0.3093 -0.2318
25086SOL    HW176699   4.262   1.829   9.624 -0.1799 -0.1313 -0.0032
25086SOL    HW276700   4.239   1.785   9.481 -0.0373  0.5120 -0.2275
25087SOL     OW76701   3.916   0.036  12.208 -0.3140 -0.5563 -0.3417
25087SOL    HW176702   3.863   0.011  12.132 -0.5444 -1.1106 -0.0084
25087SOL    HW276703   3.981  -0.034  12.215  1.2564  0.7223 -1.4652
25088SOL     OW76704   3.597   4.879   6.040 -0.5685 -0.2407 -0.2327
25088SOL    HW176705   3.588   4.851   5.949 -1.5491  2.7978 -1.1913
25088SOL    HW276706   3.510   4.908   6.066 -0.1957 -0.5575  1.5351
25089SOL     OW76707   4.835   7.124   6.792 -0.4095 -0.1749  0.2939
25089SOL    HW176708   4.768   7.186   6.821  0.7029  1.1826  0.0659
25089SOL    HW276709   4.898   7.177   6.744  0.6303 -1.4880  0.1441
25090SOL     OW76710   4.085   7.767   9.125 -0.2379 -0.1204 -0.1527
25090SOL    HW176711   4.025   7.727   9.062  1.5918 -3.9407  0.2016
25090SOL    HW276712   4.172   7.744   9.093  0.9614  2.3930  1.0560
25091SOL     OW76713   4.611   0.457   9.783 -0.3290  0.4056  0.1736
25091SOL    HW176714   4.524   0.465   9.823 -0.6840  3.8078 -0.9368
25091SOL    HW276715   4.595   0.433   9.692 -0.0407  0.1518  0.1867
25092SOL     OW76716   0.143   5.195   3.215  0.4206  0.3572  0.1927
25092SOL    HW176717   0.144   5.102   3.239  1.0959  0.6930  1.5207
25092SOL    HW276718   0.066   5.230   3.260 -0.0361  0.4047 -0.5854
25093SOL     OW76719   6.548   0.368   4.029  0.0840 -0.0041  0.1035
25093SOL    HW176720   6.482   0.396   3.965 -0.1481 -0.9657 -0.1003
25093SOL    HW276721   6.602   0.305   3.982  0.2905 -0.2648  0.6767
25094SOL     OW76722   7.936   5.971   3.323  0.8242 -0.6070  0.8104
25094SOL    HW176723   7.986   6.051   3.309  1.4636 -0.8972  1.3708
25094SOL    HW276724   7.879   5.991   3.397 -0.2103 -0.1442 -0.0758
25095SOL     OW76725   5.798   4.916  12.073  0.0810  0.0971 -0.0262
25095SOL    HW176726   5.788   5.006  12.042 -1.2119 -0.4430 -1.3045
25095SOL    HW276727   5.740   4.864  12.016  1.2983 -1.6420  0.2274
25096SOL     OW76728   3.647   6.309  10.235  0.6039 -0.4632 -0.0164
25096SOL    HW176729   3.566   6.354  10.259  0.1493 -2.2061  1.9073
25096SOL    HW276730   3.710   6.336  10.302  1.4631  0.3081 -1.0902
25097SOL     OW76731   1.157   3.777   7.701 -0.2744 -0.2492  0.0505
25097SOL    HW176732   1.175   3.683   7.704  1.1197  0.0134  0.7721
25097SOL    HW276733   1.238   3.816   7.667 -1.2410  0.6013 -1.3420
25098SOL     OW76734   3.832   5.380   7.083 -0.6285 -0.1847  0.0846
25098SOL    HW176735   3.788   5.403   7.165 -0.2409  0.8251  0.0269
25098SOL    HW276736   3.916   5.424   7.088 -0.5561 -0.2017 -0.8115
25099SOL     OW76737   2.821   2.897  10.875 -0.1315 -0.2223  0.6126
25099SOL    HW176738   2.759   2.825  10.885  1.1715 -1.4876 -0.0255
25099SOL    HW276739   2.854   2.913  10.963  0.2934 -1.1024  0.6263
25100SOL     OW76740   0.970   4.101   9.793  0.8297  0.4820  0.1172
25100SOL    HW176741   0.963   4.139   9.705  0.1783  1.9617  0.7674
25100SOL    HW276742   1.007   4.014   9.779  0.2428  0.4801 -1.6648
25101SOL     OW76743   1.435   0.669   2.151  0.2180  0.4117  0.0043
25101SOL    HW176744   1.380   0.701   2.080  1.2455 -1.1397 -1.5693
25101SOL    HW276745   1.401   0.712   2.229 -2.1587  0.7526 -1.1372
25102SOL     OW76746   6.540   1.293   1.868  0.2416 -0.1437 -0.7464
25102SOL    HW176747   6.475   1.286   1.798 -0.7511 -0.4721  0.1878
25102SOL    HW276748   6.513   1.228   1.933  3.0676 -2.2753 -1.5119
25103SOL     OW76749   7.795   5.262   1.809 -0.5822  0.0692  0.7457
25103SOL    HW176750   7.883   5.296   1.818  0.2236 -1.6230 -0.2262
25103SOL    HW276751   7.739   5.339   1.802  1.0898  1.1974 -0.9632
25104SOL     OW76752   3.743   4.696   8.431  0.0596 -0.1824  0.2344
25104SOL    HW176753   3.660   4.672   8.388  1.2816 -0.7475 -1.9307
25104SOL    HW276754   3.807   4.699   8.361  2.1168 -0.6573  1.9717
25105SOL     OW76755   4.152   6.718   3.438 -0.1278  0.2494 -0.0931
25105SOL    HW176756   4.235   6.705   3.391 -0.2018  0.1146 -0.1882
25105SOL    HW276757   4.105   6.636   3.426 -0.4537  0.4784 -0.3952
25106SOL     OW76758   2.216   2.840   8.225  0.1869  0.2414 -0.0966
25106SOL    HW176759   2.310   2.822   8.233  0.1866  0.8457  1.8122
25106SOL    HW276760   2.207   2.879   8.138  1.8463  0.8637 -0.0448
25107SOL     OW76761   7.119   6.962   2.000  0.7632 -0.2836  0.0533
25107SOL    HW176762   7.210   6.983   1.976  1.1857 -1.3373  0.6653
25107SOL    HW276763   7.127   6.892   2.065 -0.3960  0.9914  1.6863
25108SOL     OW76764   7.075   5.088   5.877  0.3849  0.2029  0.1228
25108SOL    HW176765   7.157   5.093   5.926 -0.2029 -1.3350  1.3501
25108SOL    HW276766   7.080   5.160   5.814  3.7056 -1.1831 -1.4556
25109SOL     OW76767   0.973   5.805   0.726  0.4209  0.1585  0.3205
25109SOL    HW176768   0.928   5.797   0.810 -0.6700  0.1792 -0.2570
25109SOL    HW276769   0.956   5.895   0.698  1.8174  0.5568  0.6400
25110SOL     OW76770   7.945   5.561  11.718 -0.2219  0.3855 -0.0089
25110SOL    HW176771   7.870   5.554  11.658 -0.6555 -1.3704  0.6869
25110SOL    HW276772   7.983   5.473  11.719  0.7234  0.7920  1.0957
25111SOL     OW76773   0.374   1.998   3.081 -0.2964 -0.2305 -0.0174
25111SOL    HW176774   0.394   1.907   3.056  0.2451 -0.3316  0.7487
25111SOL    HW276775   0.299   1.990   3.140  0.3757 -0.2704  0.8346
25112SOL     OW76776   7.307   1.677  11.841  0.2465  0.0866 -0.7519
25112SOL    HW176777   7.351   1.690  11.757 -0.2350  0.8481 -0.8998
25112SOL    HW276778   7.220   1.716  11.829  0.5118  1.1273  0.3982
25113SOL     OW76779   1.182   2.713  12.136 -0.2965  0.5148  0.2204
25113SOL    HW176780   1.271   2.715  12.172 -0.3421  1.7901  0.3212
25113SOL    HW276781   1.185   2.772  12.061 -0.9728  0.3113  0.0290
25114SOL     OW76782   6.569   6.243   0.086  0.2609 -0.4627  0.3208
25114SOL    HW176783   6.504   6.174   0.101  0.5307 -0.6415  0.6757
25114SOL    HW276784   6.652   6.196   0.078  0.4411 -0.1833  0.5272
25115SOL     OW76785   1.462   2.533   0.719  0.0150  0.1380 -0.0583
25115SOL    HW176786   1.505   2.496   0.796 -1.0169  0.9456  0.9176
25115SOL    HW276787   1.524   2.599   0.687  1.2102 -1.3349 -0.9628
25116SOL     OW76788   3.604   1.562   6.962  0.0588  0.0377  0.0250
25116SOL    HW176789   3.681   1.542   7.016  0.8494  2.0471 -0.2736
25116SOL    HW276790   3.552   1.621   7.016 -1.0057 -0.8236 -0.0228
25117SOL     OW76791   0.367   4.991  12.386 -0.3874 -0.2757 -0.3683
25117SOL    HW176792   0.302   4.932  12.349 -0.6722 -0.3960  0.2990
25117SOL    HW276793   0.437   4.994  12.321  0.2516 -2.3853  0.1144
25118SOL     OW76794   6.529   3.555   5.876 -0.5044 -0.6298 -0.1375
25118SOL    HW176795   6.537   3.604   5.958  1.2802 -0.1156 -0.5741
25118SOL    HW276796   6.560   3.467   5.898  0.0087 -0.4816 -0.2749
25119SOL     OW76797   6.743   7.491   3.518  0.8838 -0.0050  0.1376
25119SOL    HW176798   6.755   7.522   3.608 -1.1495 -0.4044  0.5749
25119SOL    HW276799   6.767   7.399   3.521  1.7070  0.1964  0.0422
25120SOL     OW76800   4.167   3.272   3.690  0.5438  0.3943  0.2519
25120SOL    HW176801   4.113   3.245   3.765 -0.6535  1.9241 -0.0146
25120SOL    HW276802   4.216   3.348   3.722  2.3973 -0.8136  0.4047
25121SOL     OW76803   4.753   5.663  11.448 -0.0247 -0.2895 -0.3096
25121SOL    HW176804   4.726   5.649  11.358  0.4883 -0.5709 -0.4273
25121SOL    HW276805   4.680   5.631  11.501  0.2991 -1.5984 -0.6096
25122SOL     OW76806   3.347   3.729   6.090 -0.1611 -0.1071  0.1914
25122SOL    HW176807   3.404   3.735   6.013  0.1660  0.6763  0.4859
25122SOL    HW276808   3.286   3.659   6.069  0.3512 -0.3589 -0.5036
25123SOL     OW76809   7.384   2.343   3.962  0.2048  0.1394  0.5900
25123SOL    HW176810   7.290   2.342   3.983  0.2776  0.7979  0.9697
25123SOL    HW276811   7.413   2.430   3.988  1.3539 -0.7168  2.3878
25124SOL     OW76812   0.484   6.478   9.255  0.3951  0.4361 -0.1495
25124SOL    HW176813   0.435   6.403   9.222  1.8460 -0.1297 -1.0877
25124SOL    HW276814   0.531   6.445   9.331 -0.5660  0.9564  0.6955
25125SOL     OW76815   7.771   4.629  10.577 -0.0872  0.4084  0.1850
25125SOL    HW176816   7.760   4.615  10.483  1.0269  3.6634 -0.5294
25125SOL    HW276817   7.683   4.652  10.608  0.1535  3.0441 -0.8716
25126SOL     OW76818   4.981   0.424  10.151 -0.2172  0.1197  0.0512
25126SOL    HW176819   4.975   0.329  10.164 -0.1020 -0.0221 -0.8388
25126SOL    HW276820   4.894   0.449  10.120  0.1391  0.0682 -1.0384
25127SOL     OW76821   7.458   1.377   4.492 -0.1230 -0.0111 -0.3870
25127SOL    HW176822   7.511   1.447   4.529  0.7119 -0.6725 -0.2966
25127SOL    HW276823   7.451   1.398   4.399  1.5617 -0.6784 -0.6910
25128SOL     OW76824   7.492   5.547   7.083 -0.2082 -0.0237  0.5361
25128SOL    HW176825   7.480   5.642   7.073  0.1828 -0.1212 -1.2094
25128SOL    HW276826   7.587   5.534   7.075 -0.3164 -0.6155  0.1512
25129SOL     OW76827   0.127   2.178   9.257 -0.4065  0.2417 -0.8479
25129SOL    HW176828   0.175   2.149   9.334 -2.0460 -0.4684 -0.0519
25129SOL    HW276829   0.111   2.271   9.272  0.6226  0.4713 -1.0936
25130SOL     OW76830   2.598   2.290   9.116 -0.4363 -0.0712 -0.1959
25130SOL    HW176831   2.677   2.250   9.152 -1.0783 -1.6413 -0.4379
25130SOL    HW276832   2.629   2.341   9.042  0.2716 -1.5991 -1.0083
25131SOL     OW76833   2.593   2.388   3.053  0.0255 -0.1687  0.0550
25131SOL    HW176834   2.622   2.316   2.998 -0.0531 -1.1245  1.2332
25131SOL    HW276835   2.664   2.452   3.048 -0.2893  0.0882 -1.6981
25132SOL     OW76836   6.710   7.610   7.993  0.0699  0.2568 -0.0734
25132SOL    HW176837   6.660   7.567   7.924  0.2165 -0.3124  0.1717
25132SOL    HW276838   6.706   7.549   8.067  3.6593 -1.2777 -0.9471
25133SOL     OW76839   0.219   6.990  12.065  0.2120  0.4258  0.2934
25133SOL    HW176840   0.124   6.979  12.075  0.3043 -1.0067 -0.1431
25133SOL    HW276841   0.256   6.943  12.140  0.5874  0.3424  0.0567
25134SOL     OW76842   5.060   1.206   0.550  0.1826 -0.0404 -0.1251
25134SOL    HW176843   5.018   1.292   0.557 -1.7028 -0.6986 -2.0560
25134SOL    HW276844   4.990   1.148   0.517  1.4346 -2.2832  0.9555
25135SOL     OW76845   0.970   1.298   1.017 -0.2278  0.0940  0.5385
25135SOL    HW176846   1.041   1.335   0.963 -0.1163 -1.1899 -0.2192
25135SOL    HW276847   1.012   1.228   1.066 -0.7996 -0.1098  0.7404
25136SOL     OW76848   1.414   5.330   8.438  0.0220 -0.4017 -0.2296
25136SOL    HW176849   1.381   5.413   8.403  1.1308 -1.3243 -3.9941
25136SOL    HW276850   1.508   5.345   8.449 -0.1014 -0.5718  1.1158
25137SOL     OW76851   5.408   0.439  10.815 -0.7774 -0.2743 -0.2725
25137SOL    HW176852   5.441   0.365  10.765 -1.3734 -1.2885  0.7547
25137SOL    HW276853   5.328   0.405  10.857 -0.5310  0.6426  1.0005
25138SOL     OW76854   7.463   5.575   2.870  0.2050  0.6605  0.5195
25138SOL    HW176855   7.427   5.650   2.918  0.7632  0.3808  1.4056
25138SOL    HW276856   7.402   5.504   2.886 -0.1450  0.8309 -0.0389
25139SOL     OW76857   2.356   0.478  11.901 -0.0433 -0.4211  0.9661
25139SOL    HW176858   2.417   0.527  11.845 -0.7620 -0.4326  0.1526
25139SOL    HW276859   2.327   0.542  11.965  0.0467 -0.1401  0.7311
25140SOL     OW76860   7.148   5.236  12.002  0.8218  0.1720  0.0435
25140SOL    HW176861   7.203   5.159  11.986  0.5915 -0.0350  0.2388
25140SOL    HW276862   7.140   5.240  12.097  2.1746  1.3792  0.1589
25141SOL     OW76863   6.951   0.371   8.077  0.5766 -0.1201 -0.2361
25141SOL    HW176864   6.999   0.346   8.156  0.0471  1.1369  0.5008
25141SOL    HW276865   6.968   0.464   8.068 -0.9369  0.1402 -0.5208
25142SOL     OW76866   2.708   0.326   1.460 -0.2730 -0.4933  0.3452
25142SOL    HW176867   2.759   0.256   1.420  1.2293 -0.1955  1.6819
25142SOL    HW276868   2.700   0.393   1.391  0.2317 -0.9916 -0.2000
25143SOL     OW76869   7.401   2.905   8.184  0.2183  0.2741 -0.1227
25143SOL    HW176870   7.443   2.892   8.099  2.1610  0.2335  0.7940
25143SOL    HW276871   7.329   2.842   8.184  1.0879 -0.7776 -1.1612
25144SOL     OW76872   5.230   2.433   1.780 -0.4940 -0.0470 -0.2407
25144SOL    HW176873   5.289   2.495   1.823 -0.3213  0.2399 -0.8854
25144SOL    HW276874   5.280   2.351   1.778 -1.3583 -0.6997  2.1397
25145SOL     OW76875   1.096   1.380  11.424 -0.6296 -0.1373  0.0566
25145SOL    HW176876   1.085   1.301  11.477 -0.2482  0.6561  1.3502
25145SOL    HW276877   1.154   1.435  11.475  0.5715  0.2611 -1.6485
25146SOL     OW76878   0.781   7.035   1.016 -0.4761 -0.0983  0.4151
25146SOL    HW176879   0.725   6.997   1.083 -0.7570 -1.5223 -0.5802
25146SOL    HW276880   0.733   7.114   0.988 -0.8566 -0.0598  1.1393
25147SOL     OW76881   5.800   4.187  11.543  0.1709 -0.1757  0.8938
25147SOL    HW176882   5.856   4.264  11.541 -0.7485  0.6739  3.4219
25147SOL    HW276883   5.736   4.201  11.473 -0.3633  1.7134  1.7016
25148SOL     OW76884   3.843   2.690   5.948  0.0861 -0.4159  0.3051
25148SOL    HW176885   3.782   2.676   5.876 -0.6059 -1.1676  1.0094
25148SOL    HW276886   3.926   2.653   5.918  0.1737  0.4902 -0.6111
25149SOL     OW76887   4.525   3.050  10.594 -0.2993 -0.4519  0.0220
25149SOL    HW176888   4.517   3.078  10.686 -1.3543 -1.7430  0.3627
25149SOL    HW276889   4.462   3.104  10.547  0.9765  0.9407 -0.1487
25150SOL     OW76890   3.672   6.210  11.638  0.1171 -0.6265 -0.2004
25150SOL    HW176891   3.745   6.210  11.576  0.2669  0.1759 -0.0385
25150SOL    HW276892   3.633   6.297  11.629 -0.3800 -0.7988  0.2262
25151SOL     OW76893   6.041   5.565  10.003  0.1875  0.0850 -0.2562
25151SOL    HW176894   6.081   5.548   9.918  0.5548 -2.3098  0.3390
25151SOL    HW276895   6.092   5.513  10.065 -1.3850  0.1055  1.1277
25152SOL     OW76896   1.540   0.361   9.775 -0.6235  0.1587 -0.4787
25152SOL    HW176897   1.518   0.396   9.688  0.2456 -0.2509 -0.8761
25152SOL    HW276898   1.471   0.395   9.832 -0.2255  1.9273 -0.9781
25153SOL     OW76899   3.401   1.514  11.363  0.1577  0.0368 -0.1459
25153SOL    HW176900   3.459   1.489  11.291 -0.5858 -2.3397  0.0087
25153SOL    HW276901   3.391   1.609  11.353  0.1809 -0.1788 -3.0867
25154SOL     OW76902   5.973   3.288  11.891  0.0629 -0.1913 -0.2015
25154SOL    HW176903   5.928   3.332  11.963 -0.3389  1.5315 -1.4412
25154SOL    HW276904   6.061   3.324  11.892  0.1001 -0.2738 -0.4703
25155SOL     OW76905   5.844   2.390   9.326  0.3626 -0.2738 -0.1623
25155SOL    HW176906   5.845   2.326   9.397  2.6625  1.0472  1.1111
25155SOL    HW276907   5.787   2.460   9.357  0.7238 -0.0681  0.0453
25156SOL     OW76908   7.029   6.566  10.068  0.0078 -1.0310 -0.2390
25156SOL    HW176909   7.096   6.613  10.120  1.0093 -2.2927 -0.3509
25156SOL    HW276910   7.042   6.599   9.979 -0.9026  0.2320  0.0651
25157SOL     OW76911   3.298   7.697   7.876  0.3942  0.2104 -0.1226
25157SOL    HW176912   3.367   7.760   7.854 -0.5252  0.9962 -0.8088
25157SOL    HW276913   3.262   7.729   7.958  0.8079 -0.1847  0.2208
25158SOL     OW76914   1.333   7.927   9.296 -0.1649 -0.1193  0.1015
25158SOL    HW176915   1.395   7.961   9.361 -0.5812  0.9663 -0.0495
25158SOL    HW276916   1.387   7.872   9.238  0.1795 -1.2595  1.4385
25159SOL     OW76917   1.538   6.354   1.463  0.3140  0.4614  0.8929
25159SOL    HW176918   1.567   6.390   1.380  0.0669  0.3692  0.7631
25159SOL    HW276919   1.495   6.271   1.439 -1.8259  1.5106  0.8344
25160SOL     OW76920   2.235   2.842   7.179 -0.3838  0.0423  0.0729
25160SOL    HW176921   2.322   2.821   7.212  0.0774 -0.2901 -1.3176
25160SOL    HW276922   2.206   2.761   7.135 -1.3863  0.1560  0.4842
25161SOL     OW76923   7.123   0.444   1.211 -0.3062  0.1769  0.1313
25161SOL    HW176924   7.042   0.437   1.262 -1.0718 -0.2401 -1.0841
25161SOL    HW276925   7.166   0.359   1.222 -1.4655 -0.6769 -1.4648
25162SOL     OW76926   5.510   3.879   9.339  0.2372 -0.0885  0.2447
25162SOL    HW176927   5.462   3.955   9.307  0.6364 -0.2176 -0.6840
25162SOL    HW276928   5.441   3.816   9.362 -0.0512 -0.2879 -1.1176
25163SOL     OW76929   6.065   1.724   1.359 -0.6280  0.3337 -0.1946
25163SOL    HW176930   6.065   1.649   1.299 -0.4446  0.1304  0.0597
25163SOL    HW276931   6.080   1.800   1.302  0.4369  0.0581 -0.3070
25164SOL     OW76932   3.654   5.717   2.086 -0.4256 -0.0799  0.0366
25164SOL    HW176933   3.684   5.808   2.080 -0.8583  0.0190 -0.7839
25164SOL    HW276934   3.734   5.665   2.080 -0.2997  0.2088 -0.9881
25165SOL     OW76935   0.382   1.686   8.951  0.0737 -0.0923  0.4119
25165SOL    HW176936   0.462   1.719   8.992 -0.0945  0.3206  0.4013
25165SOL    HW276937   0.412   1.653   8.866  0.3782 -0.7206  0.7479
25166SOL     OW76938   6.148   4.554  12.082  0.4768 -0.0089 -0.1509
25166SOL    HW176939   6.223   4.496  12.070 -0.4207 -0.9730 -1.4455
25166SOL    HW276940   6.091   4.506  12.143  0.9655  0.8013  0.9735
25167SOL     OW76941   2.026   1.778   6.805  0.1388  0.2000  0.0810
25167SOL    HW176942   2.022   1.733   6.889  1.3480 -1.2201 -0.5727
25167SOL    HW276943   2.083   1.853   6.820  0.8045 -0.3629  0.4150
25168SOL     OW76944   5.401   1.559   8.427 -0.5961 -0.0411 -0.1741
25168SOL    HW176945   5.329   1.580   8.487 -0.3862 -0.6302  0.2931
25168SOL    HW276946   5.363   1.497   8.365 -0.3921 -0.6363  0.2956
25169SOL     OW76947   5.683   3.203   9.033 -0.1995 -0.5624 -0.0935
25169SOL    HW176948   5.717   3.115   9.021  1.2431 -0.1038  0.4809
25169SOL    HW276949   5.681   3.240   8.944  2.4054 -0.0575 -0.0139
25170SOL     OW76950   4.348   6.270   0.407  0.0234 -0.7311  0.1032
25170SOL    HW176951   4.276   6.310   0.457 -1.4413 -1.5602 -1.2518
25170SOL    HW276952   4.412   6.244   0.473 -0.5462  0.7432  1.2886
25171SOL     OW76953   5.613   1.150   3.104  0.2189  0.6870  0.1907
25171SOL    HW176954   5.689   1.169   3.051  0.6412  1.0055  0.8967
25171SOL    HW276955   5.543   1.132   3.041  1.5395 -2.5734 -0.5295
25172SOL     OW76956   5.847   6.102   9.970 -0.1492 -0.8853  0.7522
25172SOL    HW176957   5.858   6.067  10.059 -1.0737  0.6457  1.5146
25172SOL    HW276958   5.756   6.083   9.948 -0.3317 -0.0291  0.7175
25173SOL     OW76959   0.152   3.634   6.085 -0.2158  0.3625  0.7055
25173SOL    HW176960   0.161   3.539   6.094  0.8304  0.4501  0.7679
25173SOL    HW276961   0.152   3.650   5.990 -0.9533  0.2617  0.6847
25174SOL     OW76962   0.234   4.259   3.097  0.0855 -0.6833 -0.9767
25174SOL    HW176963   0.202   4.348   3.081  0.5298 -0.5514 -1.1439
25174SOL    HW276964   0.330   4.268   3.098  0.1366 -0.6625  1.6723
25175SOL     OW76965   2.007   1.505   9.042 -0.7735  0.0534 -0.1938
25175SOL    HW176966   2.054   1.559   9.106  0.9273 -0.1509 -1.1887
25175SOL    HW276967   2.019   1.415   9.072 -1.3131  0.0589  0.0369
25176SOL     OW76968   4.779   0.064   0.527 -0.0647  0.0546 -0.6912
25176SOL    HW176969   4.723   0.107   0.591  1.1710 -0.3699  0.7147
25176SOL    HW276970   4.837   0.007   0.578  2.3005  1.1754 -1.9339
25177SOL     OW76971   6.111   1.545   6.705  0.0823  0.0010 -0.1217
25177SOL    HW176972   6.055   1.544   6.627  1.4567 -2.8148 -1.2252
25177SOL    HW276973   6.125   1.453   6.725 -0.2408  0.5957  3.5808
25178SOL     OW76974   2.412   7.131   9.666 -0.3143 -0.1674  0.0533
25178SOL    HW176975   2.482   7.193   9.686 -0.3175  0.4097 -1.5759
25178SOL    HW276976   2.430   7.056   9.723  0.0034  1.0769  1.6551
25179SOL     OW76977   1.643   1.301   8.835  0.9503 -0.5233 -0.1465
25179SOL    HW176978   1.669   1.278   8.745  0.8861  0.2150 -0.3626
25179SOL    HW276979   1.697   1.377   8.856  1.4665 -1.0993  0.7091
25180SOL     OW76980   2.559   2.894   8.498 -0.1768  0.5093 -0.2246
25180SOL    HW176981   2.632   2.898   8.435  1.2966  2.5257  1.4580
25180SOL    HW276982   2.526   2.983   8.501 -0.8772  0.2187  1.1284
25181SOL     OW76983   1.511   6.714   9.775 -0.0838  0.4652 -0.1601
25181SOL    HW176984   1.451   6.682   9.841  0.2931  1.7739  0.8565
25181SOL    HW276985   1.598   6.693   9.809  0.0893 -0.5104 -1.1412
25182SOL     OW76986   6.165   1.469   2.947  0.2470 -0.6364  0.2523
25182SOL    HW176987   6.250   1.468   2.990  0.5899 -2.7393 -0.3613
25182SOL    HW276988   6.103   1.450   3.018  0.4325 -0.4659  0.4617
25183SOL     OW76989   6.870   5.739   7.668  0.1841  0.0151 -0.2114
25183SOL    HW176990   6.884   5.684   7.591  1.3366  0.6327 -0.4596
25183SOL    HW276991   6.947   5.725   7.722  0.2178  0.9447 -0.0033
25184SOL     OW76992   5.387   7.258   2.606 -0.1754 -0.3342 -0.1325
25184SOL    HW176993   5.429   7.343   2.590  0.3613 -0.5568  0.0844
25184SOL    HW276994   5.426   7.200   2.540 -0.6209 -0.3903 -0.3492
25185SOL     OW76995   0.665   7.485   1.255  0.2854  0.0933 -0.0963
25185SOL    HW176996   0.700   7.409   1.302  0.1268  0.6332  0.9406
25185SOL    HW276997   0.743   7.531   1.223  0.4841  0.4955  0.9196
25186SOL     OW76998   5.715   3.302   5.907 -0.4535 -0.0717 -0.5312
25186SOL    HW176999   5.633   3.311   5.858 -1.4254 -1.4339  0.7497
25186SOL    HW277000   5.717   3.210   5.934  2.1690 -0.4374 -1.6249
25187SOL     OW77001   0.396   3.761   2.002  0.3674  0.4484 -0.2236
25187SOL    HW177002   0.409   3.740   1.909  1.3278 -1.8215  0.3423
25187SOL    HW277003   0.468   3.820   2.023  1.4967 -0.7977 -0.4496
25188SOL     OW77004   7.297   7.136   0.078 -0.4921 -0.3465 -0.0513
25188SOL    HW177005   7.360   7.093   0.136 -0.6309 -0.0231  0.3445
25188SOL    HW277006   7.214   7.089   0.092 -0.6789  0.1395  0.4898
25189SOL     OW77007   2.754   5.510   9.960 -0.2175  0.6132  0.1288
25189SOL    HW177008   2.743   5.478   9.870  1.8301 -0.8064  0.3330
25189SOL    HW277009   2.796   5.595   9.950  0.8477  0.0590 -0.2680
25190SOL     OW77010   5.266   4.866   4.858 -0.4011 -0.6524  0.2006
25190SOL    HW177011   5.297   4.878   4.948  3.2480 -0.2680 -0.9644
25190SOL    HW277012   5.245   4.773   4.852 -1.9237 -0.4641  1.6988
25191SOL     OW77013   4.861   3.123   6.059  0.0762 -0.0227 -0.1350
25191SOL    HW177014   4.817   3.115   6.144  0.8317  3.7030  0.8048
25191SOL    HW277015   4.930   3.057   6.062 -1.3251 -1.5484  1.1056
25192SOL     OW77016   0.848   6.535  12.175 -0.2409  0.0036 -0.2217
25192SOL    HW177017   0.865   6.514  12.083  1.8982  0.1938  0.0710
25192SOL    HW277018   0.921   6.592  12.200 -0.3779 -0.6252  1.7749
25193SOL     OW77019   2.369   3.724  10.770 -0.2042 -0.0328  0.4004
25193SOL    HW177020   2.360   3.725  10.865  2.6606  0.6935  0.7658
25193SOL    HW277021   2.389   3.815  10.747 -1.2484 -0.1216 -0.9752
25194SOL     OW77022   0.853   1.414   9.080 -0.1073 -0.2327 -0.1616
25194SOL    HW177023   0.866   1.471   9.005  1.0694 -0.4624 -0.1461
25194SOL    HW277024   0.934   1.364   9.087  0.0326  0.1972  1.6117
25195SOL     OW77025   0.584   1.860  10.343  0.6440 -0.5262 -0.3069
25195SOL    HW177026   0.629   1.781  10.314 -0.0741 -0.9477 -0.2883
25195SOL    HW277027   0.551   1.839  10.430 -1.4171 -1.0067 -1.1337
25196SOL     OW77028   2.213   1.064  11.691 -0.3479 -0.6749  0.0338
25196SOL    HW177029   2.194   0.985  11.741  1.0557  0.6703  2.9048
25196SOL    HW277030   2.308   1.064  11.680 -0.1088  1.3469  1.5433
25197SOL     OW77031   1.056   3.089  10.307 -0.4323 -0.3231 -0.5073
25197SOL    HW177032   1.132   3.145  10.323  1.4570 -3.0204  0.7052
25197SOL    HW277033   1.045   3.040  10.389 -0.2885 -3.5056 -2.2154
25198SOL     OW77034   0.221   0.659   1.095  1.0427  0.2878 -0.2976
25198SOL    HW177035   0.245   0.715   1.021  2.0441 -0.5414 -0.6325
25198SOL    HW277036   0.226   0.570   1.060  0.8007 -0.0796  0.5762
25199SOL     OW77037   7.272   2.153   4.814 -0.4719  0.3178 -0.0656
25199SOL    HW177038   7.367   2.140   4.816 -0.6269 -0.9632  1.9923
25199SOL    HW277039   7.260   2.248   4.823  0.6002  0.4951 -0.3887
25200SOL     OW77040   3.850   7.669   8.956  0.5538 -0.1457  0.0199
25200SOL    HW177041   3.814   7.755   8.976  0.3096 -0.0579 -0.7829
25200SOL    HW277042   3.811   7.644   8.872  0.8920 -0.8836  0.0671
25201SOL     OW77043   3.453   4.044   2.144  0.3063  0.5069  0.3681
25201SOL    HW177044   3.435   4.071   2.054  4.2632  1.3060 -0.3753
25201SOL    HW277045   3.419   4.116   2.197  1.0709  1.8252 -0.8385
25202SOL     OW77046   7.177   2.812   4.097  0.0312 -0.0820 -0.0234
25202SOL    HW177047   7.163   2.766   4.180 -0.5314  0.7573  0.3601
25202SOL    HW277048   7.189   2.742   4.033 -0.7498 -0.7695  0.5542
25203SOL     OW77049   6.310   0.108   5.079  0.8568  0.2561  0.2344
25203SOL    HW177050   6.384   0.049   5.064  1.4805  0.9626  0.4758
25203SOL    HW277051   6.348   0.196   5.075 -0.0444  0.6438 -0.0269
25204SOL     OW77052   0.330   3.610   7.027 -0.2209 -0.4821 -0.2184
25204SOL    HW177053   0.301   3.543   7.088 -0.6332 -0.3932 -0.3124
25204SOL    HW277054   0.292   3.692   7.061  1.2430 -0.0909  0.5614
25205SOL     OW77055   1.284   0.817   3.451  0.3592 -0.3330 -0.3556
25205SOL    HW177056   1.273   0.729   3.414  2.6907 -1.0263  0.4053
25205SOL    HW277057   1.370   0.845   3.420  0.6881  0.6706  1.3457
25206SOL     OW77058   6.033   4.403   2.882  0.5557  0.7628  0.6924
25206SOL    HW177059   5.945   4.420   2.849 -0.5467  2.2765  3.9161
25206SOL    HW277060   6.092   4.431   2.812 -1.4829 -0.1835 -1.5036
25207SOL     OW77061   5.061   2.654   0.244 -0.0365 -0.3373 -0.1800
25207SOL    HW177062   5.097   2.566   0.256 -0.2745 -0.4947 -0.6040
25207SOL    HW277063   4.967   2.643   0.256 -0.0622 -0.1308 -0.1896
25208SOL     OW77064   0.411   5.839   4.160 -0.2182 -0.4785 -0.1823
25208SOL    HW177065   0.382   5.818   4.249  1.1734  0.1684  0.4565
25208SOL    HW277066   0.344   5.898   4.126  0.1722  0.8370  1.1881
25209SOL     OW77067   5.044   7.900   4.213 -0.3253  0.0082  0.0532
25209SOL    HW177068   4.980   7.970   4.222 -0.7742 -0.5926  1.9653
25209SOL    HW277069   5.040   7.874   4.121  0.4126  2.9716 -0.9053
25210SOL     OW77070   4.818   2.739   5.142 -0.7712  0.1052  0.0307
25210SOL    HW177071   4.733   2.749   5.186 -0.2885 -0.2891  1.0998
25210SOL    HW277072   4.814   2.652   5.103 -0.2632 -0.6447  1.5375
25211SOL     OW77073   7.887   4.144  12.450 -0.6360  0.0697 -0.2077
25211SOL    HW177074   7.831   4.082  12.403  0.7280  0.3037 -2.2766
25211SOL    HW277075   7.829   4.185  12.515 -2.3036 -1.1761 -0.8586
25212SOL     OW77076   7.014   2.458   1.067 -0.1651 -0.0274  0.2652
25212SOL    HW177077   7.073   2.498   1.130  1.4854 -0.8210 -0.7180
25212SOL    HW277078   7.033   2.504   0.985 -1.3550  0.1034  0.0446
25213SOL     OW77079   3.992   4.668   9.244 -0.1413 -0.4157 -0.2183
25213SOL    HW177080   3.908   4.691   9.202 -0.5591 -1.0140  0.2678
25213SOL    HW277081   4.015   4.584   9.207 -0.3085 -0.7605  0.4427
25214SOL     OW77082   7.306   7.364   1.632  0.3296  0.1484 -0.3496
25214SOL    HW177083   7.366   7.315   1.575  0.2879 -0.5073  0.1633
25214SOL    HW277084   7.329   7.337   1.721 -0.7275 -0.1181 -0.1415
25215SOL     OW77085   6.155   3.518   9.660  0.3015 -0.6194 -0.0806
25215SOL    HW177086   6.081   3.567   9.696  0.4880 -0.3692 -0.0317
25215SOL    HW277087   6.116   3.463   9.592 -0.1331 -1.4574  0.8152
25216SOL     OW77088   4.056   0.238   2.485 -0.1028 -0.2675  0.6594
25216SOL    HW177089   4.132   0.295   2.494  0.6544 -1.3501  1.3533
25216SOL    HW277090   3.996   0.267   2.553  0.2282 -0.2176  0.9311
25217SOL     OW77091   3.051   5.425   2.420 -0.2693  0.3109 -0.7582
25217SOL    HW177092   3.107   5.486   2.468 -1.2964 -0.0687  1.0196
25217SOL    HW277093   3.112   5.373   2.367  0.8536  1.1452 -0.3294
25218SOL     OW77094   3.039   4.562   3.427 -0.6407 -0.6271  0.0462
25218SOL    HW177095   2.954   4.520   3.417 -1.3165  0.9105 -1.3049
25218SOL    HW277096   3.083   4.549   3.342 -1.5725  2.6397 -1.1065
25219SOL     OW77097   4.089   6.517   1.750 -0.2867 -0.3737  0.1214
25219SOL    HW177098   4.018   6.511   1.815  0.2965  0.4173  0.8594
25219SOL    HW277099   4.061   6.460   1.679 -2.3036  0.9285 -0.2136
25220SOL     OW77100   5.253   0.275   5.097 -0.4994  0.0927 -0.0477
25220SOL    HW177101   5.337   0.233   5.114 -1.0853 -0.6291  1.2019
25220SOL    HW277102   5.275   0.352   5.044  0.8101 -0.6698 -0.6605
25221SOL     OW77103   2.466   6.171   3.278  0.2118  0.2000  0.1003
25221SOL    HW177104   2.434   6.129   3.357 -0.9375 -3.8962 -2.2491
25221SOL    HW277105   2.555   6.138   3.268 -0.2034 -0.5999 -1.0855
25222SOL     OW77106   3.104   7.976   9.889  0.1027  0.3257  0.0176
25222SOL    HW177107   3.053   7.966   9.969 -0.2609  1.6599 -0.0236
25222SOL    HW277108   3.059   7.921   9.825 -2.5329  2.8443 -0.5349
25223SOL     OW77109   4.782   5.096   2.861 -0.5109 -0.0606  0.2095
25223SOL    HW177110   4.821   5.176   2.827 -2.2982  1.4246  1.3960
25223SOL    HW277111   4.800   5.099   2.955  0.9954 -2.0694  0.0535
25224SOL     OW77112   7.504   6.985  10.342  0.3955 -0.6084  0.5095
25224SOL    HW177113   7.482   7.017  10.254  2.6518  0.0798  0.1290
25224SOL    HW277114   7.505   6.890  10.333  0.5409 -0.5477 -0.2069
25225SOL     OW77115   4.327   7.274  11.986 -0.0537  0.3875  0.0809
25225SOL    HW177116   4.380   7.256  12.063  0.8310 -0.4439 -0.6906
25225SOL    HW277117   4.369   7.349  11.944  0.2459  0.0202 -0.2835
25226SOL     OW77118   1.888   7.921   9.649  0.2325 -0.1755 -0.0120
25226SOL    HW177119   1.809   7.889   9.692  1.2913 -0.8053  1.5625
25226SOL    HW277120   1.885   8.016   9.661 -0.5901 -0.1242 -0.5461
25227SOL     OW77121   5.026   4.665   2.823 -0.3298  0.2024 -1.3588
25227SOL    HW177122   4.969   4.669   2.900  0.9975  2.9168 -0.3833
25227SOL    HW277123   4.967   4.678   2.748 -1.3392 -0.0939 -0.6260
25228SOL     OW77124   4.751   7.194   0.120 -0.0256 -0.3169  0.1759
25228SOL    HW177125   4.708   7.123   0.166 -0.4928 -1.2605 -1.6036
25228SOL    HW277126   4.680   7.254   0.095  0.3276  0.6469  1.3989
25229SOL     OW77127   1.552   2.196   2.228 -0.2199 -0.5392 -0.0423
25229SOL    HW177128   1.554   2.280   2.183  1.0845  0.0343  0.9919
25229SOL    HW277129   1.462   2.166   2.220 -0.2938  0.0910 -1.9616
25230SOL     OW77130   5.866   3.452   2.136  0.4358  0.5481 -0.3359
25230SOL    HW177131   5.797   3.447   2.203  0.4888 -0.9468 -0.3557
25230SOL    HW277132   5.867   3.544   2.110 -0.3574  0.9413  0.9134
25231SOL     OW77133   0.592   1.390   8.375 -0.1305  0.0953 -0.1341
25231SOL    HW177134   0.658   1.459   8.383 -0.8561  0.8959 -0.8575
25231SOL    HW277135   0.641   1.309   8.389  1.2930  0.5624 -2.0242
25232SOL     OW77136   7.749   0.843   0.317  0.2940  0.0416  0.6540
25232SOL    HW177137   7.662   0.808   0.296 -0.2749  1.7961 -0.1347
25232SOL    HW277138   7.805   0.766   0.323 -0.5374 -0.9768 -2.5565
25233SOL     OW77139   7.808   4.786  11.280  0.3965 -0.3331 -0.5558
25233SOL    HW177140   7.842   4.697  11.295  0.3406 -0.4144 -0.9103
25233SOL    HW277141   7.713   4.776  11.283  0.3947 -0.2426 -0.3508
25234SOL     OW77142   0.540   6.713  10.658  0.1575 -0.0042 -0.5140
25234SOL    HW177143   0.518   6.733  10.567 -1.3620  1.3897  0.1096
25234SOL    HW277144   0.494   6.780  10.709 -1.9226 -2.7244  1.5214
25235SOL     OW77145   5.966   4.679   9.970 -0.5385 -0.3079 -0.0914
25235SOL    HW177146   5.900   4.622   9.929 -0.2024 -1.6088  1.0943
25235SOL    HW277147   5.914   4.743  10.019 -0.9966 -1.7900  1.4659
25236SOL     OW77148   2.041   0.818   8.104 -1.0069  0.3887  0.4912
25236SOL    HW177149   2.065   0.884   8.170  2.1849  1.2620 -1.3441
25236SOL    HW277150   2.060   0.734   8.146 -0.0621  0.8768  1.0704
25237SOL     OW77151   1.388   3.813  11.817  0.8797 -0.3673 -0.2771
25237SOL    HW177152   1.307   3.853  11.849  1.4450  0.8904 -0.3568
25237SOL    HW277153   1.362   3.726  11.786 -0.5017  0.1460 -0.6015
25238SOL     OW77154   3.118   2.587   1.475  0.1313  0.0803  0.0514
25238SOL    HW177155   3.075   2.502   1.470 -1.3605  0.7017  1.5326
25238SOL    HW277156   3.185   2.576   1.543 -1.6801  0.6901  2.0321
25239SOL     OW77157   3.094   2.825  10.758 -0.2955 -0.1183 -0.9583
25239SOL    HW177158   3.141   2.788  10.833 -0.8088 -0.8116 -0.9631
25239SOL    HW277159   3.007   2.844  10.792 -0.3455  0.1366 -1.2280
25240SOL     OW77160   0.360   3.712   2.947  0.1899 -1.0825 -0.4235
25240SOL    HW177161   0.346   3.759   3.029  1.8291  0.5823 -1.0326
25240SOL    HW277162   0.450   3.680   2.953  0.9107  0.4230 -2.1527
25241SOL     OW77163   0.444   2.366   4.082 -0.0132  0.3402 -0.2164
25241SOL    HW177164   0.513   2.357   4.016  0.3678  0.5706  0.1397
25241SOL    HW277165   0.371   2.316   4.047 -0.3274  1.6151 -1.4739
25242SOL     OW77166   5.862   5.254  11.368  0.1041  0.3511  0.4180
25242SOL    HW177167   5.884   5.341  11.335 -0.3794  0.7739  1.1861
25242SOL    HW277168   5.857   5.265  11.463  1.1378 -0.7650  0.6233
25243SOL     OW77169   3.555   1.961   8.532 -0.1702  0.3622 -0.0923
25243SOL    HW177170   3.477   1.908   8.518  0.4459 -0.8178  0.6821
25243SOL    HW277171   3.624   1.897   8.549  1.0818  1.3556 -1.2429
25244SOL     OW77172   0.408   7.194   7.518 -0.0680  0.5645 -0.4786
25244SOL    HW177173   0.470   7.145   7.465  0.8494 -0.9660  1.8880
25244SOL    HW277174   0.441   7.187   7.608 -2.1990  2.0022  0.5018
25245SOL     OW77175   6.203   2.873   5.742  0.0784 -0.4854  0.0093
25245SOL    HW177176   6.205   2.923   5.660  2.2193 -0.0232  0.2984
25245SOL    HW277177   6.162   2.790   5.717 -0.9368  0.3013 -1.1084
25246SOL     OW77178   4.253   0.182   2.879  0.1481  0.0172 -0.2683
25246SOL    HW177179   4.347   0.194   2.892  0.1773  1.2576 -1.3432
25246SOL    HW277180   4.239   0.204   2.787 -1.0604 -1.1225 -0.3772
25247SOL     OW77181   5.326   5.422   1.046  0.7737  0.6061  0.5197
25247SOL    HW177182   5.322   5.377   1.131 -0.1864 -1.7844 -0.6952
25247SOL    HW277183   5.295   5.511   1.064 -0.9568 -0.3005  2.4036
25248SOL     OW77184   4.931   1.228   3.867 -0.0169  0.6370  0.5307
25248SOL    HW177185   4.985   1.174   3.808 -2.1011 -0.7724 -0.2101
25248SOL    HW277186   4.970   1.315   3.863  1.7665 -0.1635 -0.4919
25249SOL     OW77187   1.515   4.490   1.001  0.4703  0.1080  0.0041
25249SOL    HW177188   1.585   4.554   0.988  2.2494 -1.5495  0.8317
25249SOL    HW277189   1.535   4.420   0.938 -2.1330  0.8165 -1.7682
25250SOL     OW77190   6.304   4.391   3.534  0.4127  0.5047  0.2052
25250SOL    HW177191   6.248   4.321   3.501  1.4505  0.9145 -2.7685
25250SOL    HW277192   6.275   4.405   3.624 -2.4026 -1.1124 -0.3371
25251SOL     OW77193   3.134   6.287   2.326  0.1778  0.1134 -0.2239
25251SOL    HW177194   3.172   6.295   2.238 -0.1053  0.3940 -0.3221
25251SOL    HW277195   3.200   6.326   2.384  0.3914 -0.1242 -0.3035
25252SOL     OW77196   0.719   7.200  11.501  0.2890 -0.5129 -0.1256
25252SOL    HW177197   0.781   7.244  11.559  0.1252  0.3836 -0.6108
25252SOL    HW277198   0.694   7.120  11.548 -0.3316  0.4965  1.3044
25253SOL     OW77199   1.930   5.506   1.569 -0.3525 -1.0016  0.4044
25253SOL    HW177200   1.858   5.484   1.510  0.8283  0.6989 -1.8240
25253SOL    HW277201   1.887   5.539   1.648 -2.0235 -0.5308 -0.6533
25254SOL     OW77202   6.445   5.110   9.178 -0.1525  0.5953 -0.2143
25254SOL    HW177203   6.431   5.016   9.168 -0.4482  0.2132  2.7712
25254SOL    HW277204   6.357   5.147   9.186 -0.0578  1.2350 -1.7582
25255SOL     OW77205   0.881   4.257  11.636  0.3404 -0.1696  0.1521
25255SOL    HW177206   0.836   4.190  11.585 -1.7260  1.3725 -0.1617
25255SOL    HW277207   0.848   4.340  11.602  1.2103  0.9893  1.9616
25256SOL     OW77208   3.003   3.078   5.651 -0.5630 -0.6994 -0.4585
25256SOL    HW177209   3.034   3.152   5.600 -0.7125  0.8184  1.5364
25256SOL    HW277210   3.022   3.101   5.742  1.2042 -3.9835  0.1894
25257SOL     OW77211   6.809   5.194   6.585  0.5200  0.8494  0.1865
25257SOL    HW177212   6.821   5.272   6.531  0.4220 -0.6797 -2.1927
25257SOL    HW277213   6.825   5.121   6.525 -0.5106 -0.9809  2.0237
25258SOL     OW77214   2.527   2.955   3.406  0.2183 -0.1267 -0.2596
25258SOL    HW177215   2.492   2.866   3.401  0.2928 -0.2069  0.5116
25258SOL    HW277216   2.621   2.945   3.395  0.1454 -0.0526 -0.9885
25259SOL     OW77217   5.228   4.676  11.355  0.7937  0.2073  0.3729
25259SOL    HW177218   5.303   4.734  11.363  0.7744  0.2096  0.5336
25259SOL    HW277219   5.256   4.594  11.395  1.4857 -0.5273 -1.5027
25260SOL     OW77220   4.509   1.206   2.976 -0.4075  0.7672  0.0702
25260SOL    HW177221   4.528   1.283   3.030 -1.9280  1.9788 -1.0558
25260SOL    HW277222   4.420   1.220   2.944  0.1723 -0.2355 -2.1837
25261SOL     OW77223   0.538   3.965  12.257  0.5045  0.6582 -0.2634
25261SOL    HW177224   0.454   3.937  12.296  0.8062  0.3047  0.1475
25261SOL    HW277225   0.575   3.884  12.221  0.6996  0.8023 -0.3850
25262SOL     OW77226   7.130   4.956   1.859 -0.0669 -0.0601  0.2808
25262SOL    HW177227   7.204   4.894   1.852 -0.1943 -0.1313 -0.5431
25262SOL    HW277228   7.083   4.928   1.937  1.6361  0.9340  1.7247
25263SOL     OW77229   2.945   4.066   5.726 -0.4713 -0.1913 -0.3534
25263SOL    HW177230   2.930   4.160   5.740  0.6351 -0.1517  0.6958
25263SOL    HW277231   2.892   4.024   5.794 -0.8995 -0.3257 -0.7697
25264SOL     OW77232   4.633   1.503  10.567 -0.2043 -0.3162 -0.3383
25264SOL    HW177233   4.690   1.526  10.493  0.6439  0.1259  0.4355
25264SOL    HW277234   4.581   1.582  10.582  0.6314  0.1026  0.4349
25265SOL     OW77235   0.831   2.443   5.340  0.1753  0.0516 -0.1764
25265SOL    HW177236   0.838   2.433   5.436  2.0623 -0.4998 -0.3168
25265SOL    HW277237   0.754   2.498   5.327 -1.4978 -1.7245  1.5400
25266SOL     OW77238   6.883   0.300   8.454 -0.2806 -0.5024  0.0560
25266SOL    HW177239   6.824   0.225   8.466 -1.4666  0.5075  0.6430
25266SOL    HW277240   6.825   0.375   8.447  0.9636  0.5733  0.9908
25267SOL     OW77241   2.577   4.196  12.478  0.0598 -0.2352  0.3271
25267SOL    HW177242   2.592   4.263  12.544 -0.6616 -1.1051  1.4093
25267SOL    HW277243   2.556   4.245  12.398 -0.0977  0.8215  1.0014
25268SOL     OW77244   3.812   4.196   5.599  0.3652 -0.2638  0.5528
25268SOL    HW177245   3.812   4.252   5.521  1.2554 -1.4559 -0.3333
25268SOL    HW277246   3.889   4.226   5.649 -0.0039  0.2639  0.8178
25269SOL     OW77247   4.412   2.231   1.243 -0.9750 -0.4089 -0.6961
25269SOL    HW177248   4.477   2.289   1.282 -1.1137 -0.5140 -0.3035
25269SOL    HW277249   4.450   2.206   1.158 -0.4844 -0.5034 -0.4541
25270SOL     OW77250   6.417   1.172  10.824  0.2554  0.2308 -0.3934
25270SOL    HW177251   6.495   1.191  10.877 -1.0046 -1.3770  2.2216
25270SOL    HW277252   6.344   1.184  10.884 -1.3742 -0.3156 -2.1933
25271SOL     OW77253   1.563   4.594   0.578  0.6712 -0.4607 -0.2650
25271SOL    HW177254   1.578   4.509   0.536  3.9657 -0.0242 -0.2509
25271SOL    HW277255   1.563   4.656   0.505 -1.2616 -0.3515 -0.2272
25272SOL     OW77256   7.392   6.732   3.852 -0.9004  0.3519 -0.2488
25272SOL    HW177257   7.367   6.753   3.762 -1.0938  0.4553 -0.1712
25272SOL    HW277258   7.345   6.796   3.906 -2.9395 -1.3525  0.1416
25273SOL     OW77259   5.604   6.820   0.497 -0.2311  0.6417 -0.1271
25273SOL    HW177260   5.569   6.731   0.488 -1.4398  1.2621 -2.5286
25273SOL    HW277261   5.526   6.875   0.498  0.5145  1.7182  1.1563
25274SOL     OW77262   5.298   4.095   3.355  0.0789  0.4205  0.0311
25274SOL    HW177263   5.357   4.139   3.417 -1.0810  0.2837  1.2785
25274SOL    HW277264   5.247   4.035   3.409 -1.0101  0.3392 -1.0529
25275SOL     OW77265   3.555   5.469   7.931  0.6790 -0.0762  0.3535
25275SOL    HW177266   3.498   5.395   7.906  1.1554 -0.0801 -0.8002
25275SOL    HW277267   3.495   5.537   7.960  0.2453 -1.0151  1.7352
25276SOL     OW77268   5.279   2.278   8.798  0.0587  0.2561  0.3534
25276SOL    HW177269   5.330   2.345   8.844  0.7508 -0.0416  0.0247
25276SOL    HW277270   5.335   2.201   8.799  1.0981  0.8182 -2.9333
25277SOL     OW77271   4.329   3.254   0.059 -0.1646 -0.2482  0.1948
25277SOL    HW177272   4.245   3.210   0.040  0.0802 -0.0737 -1.4484
25277SOL    HW277273   4.308   3.317   0.128 -1.1976 -0.7815  0.3963
25278SOL     OW77274   7.860   7.885  11.943  0.4927  0.1694  0.3507
25278SOL    HW177275   7.866   7.930  11.860  1.5555 -0.3631  0.1185
25278SOL    HW277276   7.767   7.884  11.964  0.2740  0.7531 -0.5760
25279SOL     OW77277   3.023   4.506  11.760 -0.3458  0.3632  0.2296
25279SOL    HW177278   3.041   4.417  11.732  0.3479  0.4365  0.4200
25279SOL    HW277279   3.028   4.503  11.855 -2.5631  0.1438  0.3755
25280SOL     OW77280   5.527   2.557  10.496 -0.1717 -0.5468 -0.1205
25280SOL    HW177281   5.493   2.595  10.577  1.1330  2.4888 -0.8362
25280SOL    HW277282   5.450   2.530  10.447 -1.3625  2.1255  0.1148
25281SOL     OW77283   7.766   1.358   4.004  0.3728 -0.3583  0.5917
25281SOL    HW177284   7.852   1.320   4.020  0.3370 -0.2225  1.1192
25281SOL    HW277285   7.708   1.283   3.992  0.6864 -0.4471 -0.4547
25282SOL     OW77286   4.122   2.098  12.230  1.4884 -0.7264 -0.0756
25282SOL    HW177287   4.124   2.148  12.311  0.1750 -1.3532  0.3740
25282SOL    HW277288   4.100   2.009  12.257  1.6628 -1.0837 -1.0603
25283SOL     OW77289   4.381   7.950   0.288  0.2364 -0.2327  0.3453
25283SOL    HW177290   4.451   7.979   0.229  0.1281  1.0477  0.8008
25283SOL    HW277291   4.300   7.977   0.245  0.0865 -0.5654  0.4140
25284SOL     OW77292   6.359   3.759   6.415  0.6522 -0.1487 -0.2882
25284SOL    HW177293   6.369   3.851   6.437 -0.3279  0.7612 -3.1970
25284SOL    HW277294   6.449   3.727   6.402  1.2953 -0.6822  4.0026
25285SOL     OW77295   1.064   3.913   9.533  0.5444  0.4759 -0.0437
25285SOL    HW177296   1.035   4.004   9.522  0.2182  0.2195 -1.6312
25285SOL    HW277297   1.138   3.904   9.473  0.0742 -0.4942 -0.5171
25286SOL     OW77298   1.758   5.237   1.131 -0.6246  0.2806 -0.0651
25286SOL    HW177299   1.724   5.252   1.219 -0.2628  2.5543 -0.2356
25286SOL    HW277300   1.845   5.200   1.144  0.1724  2.2359  0.6643
25287SOL     OW77301   2.038   0.031   2.409 -0.6530 -0.1611  0.1291
25287SOL    HW177302   2.061   0.103   2.351 -0.0472  0.2898  0.9081
25287SOL    HW277303   1.947   0.047   2.433  0.1499  1.7934  2.2710
25288SOL     OW77304   0.050   2.581   5.232  0.5509  0.3444  1.0261
25288SOL    HW177305  -0.006   2.539   5.297  1.5283  0.7677  2.1551
25288SOL    HW277306   0.074   2.509   5.173  0.7707 -0.3359  1.9199
25289SOL     OW77307   3.574   6.537   5.808  0.3105 -0.1115 -0.2803
25289SOL    HW177308   3.578   6.466   5.872 -1.2258 -0.2352 -0.2913
25289SOL    HW277309   3.488   6.577   5.821 -0.5058 -0.7761 -2.9048
25290SOL     OW77310   7.229   5.727   9.508 -0.8238 -0.1282  0.1215
25290SOL    HW177311   7.305   5.783   9.492  0.4144 -1.9083 -0.6462
25290SOL    HW277312   7.246   5.686   9.593  0.8838 -3.0204 -1.4174
25291SOL     OW77313   6.282   2.130  11.285 -0.3707 -0.1917 -0.4170
25291SOL    HW177314   6.279   2.203  11.223  1.1761 -1.7850 -2.5227
25291SOL    HW277315   6.350   2.155  11.348 -1.3713  1.0734  0.2224
25292SOL     OW77316   5.687   3.174   4.852  0.3165 -0.0237 -0.4577
25292SOL    HW177317   5.768   3.167   4.901  1.0628  0.2728 -1.6145
25292SOL    HW277318   5.688   3.263   4.815 -0.1357 -0.2918 -1.1462
25293SOL     OW77319   4.838   6.222   6.455  0.1962 -0.7719  0.0375
25293SOL    HW177320   4.754   6.215   6.410  1.7475 -0.2372 -3.2500
25293SOL    HW277321   4.854   6.134   6.490 -0.2648 -1.8386 -2.2447
25294SOL     OW77322   6.548   7.240   3.736 -0.2633 -0.0935 -0.1517
25294SOL    HW177323   6.583   7.320   3.775 -1.5333  1.1196 -1.4474
25294SOL    HW277324   6.617   7.210   3.677 -0.3003  0.7444 -0.6185
25295SOL     OW77325   3.512   0.804   0.586 -0.4238  0.2070  0.4491
25295SOL    HW177326   3.591   0.857   0.590 -1.7707  2.4036 -0.2771
25295SOL    HW277327   3.505   0.777   0.494  0.2372 -1.2694  0.8074
25296SOL     OW77328   1.120   2.438   8.913  0.9000  0.5055  0.6143
25296SOL    HW177329   1.140   2.357   8.961  0.7883 -0.5892 -1.1051
25296SOL    HW277330   1.030   2.459   8.940  0.3209 -0.8845 -0.1451
25297SOL     OW77331   2.485   0.146   1.015  0.6759  0.1557  0.3278
25297SOL    HW177332   2.450   0.084   1.079 -0.0194  2.1907  2.0491
25297SOL    HW277333   2.407   0.179   0.969  0.8932  0.7515  0.3838
25298SOL     OW77334   2.280   7.389   8.580  0.2661 -0.3183  0.0667
25298SOL    HW177335   2.316   7.376   8.668  0.0990 -2.2775 -0.1073
25298SOL    HW277336   2.264   7.300   8.548 -2.2493  0.4088 -0.8900
25299SOL     OW77337   4.720   2.561   7.107  0.1216  0.4175 -0.0410
25299SOL    HW177338   4.688   2.505   7.178 -0.0600  1.0108  0.3462
25299SOL    HW277339   4.682   2.647   7.124  2.5494  1.3821  0.8893
25300SOL     OW77340   2.661   0.834   2.911  0.1027  0.1144  0.0646
25300SOL    HW177341   2.666   0.929   2.918  3.4888  0.1055 -0.5436
25300SOL    HW277342   2.621   0.806   2.993  2.0688  1.9506  1.8049
25301SOL     OW77343   7.877   3.568  10.943 -0.3101  0.1842 -0.4041
25301SOL    HW177344   7.948   3.594  10.885 -1.2543  0.1201 -1.6302
25301SOL    HW277345   7.895   3.476  10.965  0.3825  0.3946 -0.0713
25302SOL     OW77346   0.569   6.794  11.956 -0.1688 -0.2196  0.1132
25302SOL    HW177347   0.628   6.727  11.923  2.0014  1.1870  0.8892
25302SOL    HW277348   0.585   6.796  12.051 -0.6635  0.9196  0.1970
25303SOL     OW77349   1.235   5.860   8.763 -0.1743  0.9334  0.0742
25303SOL    HW177350   1.183   5.812   8.699  0.6248 -0.2117  0.2771
25303SOL    HW277351   1.174   5.875   8.836  0.1146 -1.6519  0.9274
25304SOL     OW77352   7.773   1.605   0.947 -0.1860 -0.1628  0.2304
25304SOL    HW177353   7.691   1.593   0.996 -0.1250  1.4366  0.8160
25304SOL    HW277354   7.842   1.584   1.011 -0.1081 -1.6864 -0.3157
25305SOL     OW77355   0.460   0.047   1.791 -0.1832  0.1157  1.0328
25305SOL    HW177356   0.454  -0.042   1.756 -0.5786  0.5826 -0.1409
25305SOL    HW277357   0.542   0.081   1.755 -0.1623  0.3099  1.2647
25306SOL     OW77358   7.775   4.716   0.347  0.3881 -0.1193  0.5127
25306SOL    HW177359   7.751   4.796   0.302  2.6088  0.1733 -0.2699
25306SOL    HW277360   7.774   4.739   0.440 -0.7310  0.2906  0.4087
25307SOL     OW77361   3.439   3.116   0.613  0.1248 -0.3867  0.2593
25307SOL    HW177362   3.516   3.120   0.557  0.1241 -1.2976  0.1763
25307SOL    HW277363   3.467   3.155   0.696  0.0574  1.1859 -0.4236
25308SOL     OW77364   1.950   3.366   9.986 -0.0414  0.2494  0.4687
25308SOL    HW177365   1.864   3.388   9.949  0.0673  1.2588  0.7980
25308SOL    HW277366   1.964   3.432  10.054  0.9727  0.0517  0.4569
25309SOL     OW77367   7.203   5.054  12.463 -0.1978 -0.0713  0.1127
25309SOL    HW177368   7.224   5.120  12.529  0.8548  2.0423 -2.1570
25309SOL    HW277369   7.288   5.032  12.423 -0.6921 -1.8724 -0.0623
25310SOL     OW77370   1.419   3.438  12.406 -0.0136 -0.5038 -0.5234
25310SOL    HW177371   1.385   3.371  12.465  0.4156 -1.2537 -1.0998
25310SOL    HW277372   1.454   3.506  12.464 -1.2432 -0.3520  0.0709
25311SOL     OW77373   3.430   5.854   6.119  0.0986 -0.3068 -0.0425
25311SOL    HW177374   3.459   5.929   6.171  0.6415  0.2454 -1.1060
25311SOL    HW277375   3.334   5.856   6.127  0.2049 -1.3473  2.4048
25312SOL     OW77376   4.869   5.425  10.759 -0.6008  0.0403 -0.5132
25312SOL    HW177377   4.941   5.471  10.714 -0.0541  1.5702  1.7579
25312SOL    HW277378   4.892   5.332  10.752  0.7079  0.3930 -1.2592
25313SOL     OW77379   1.488   0.810   5.789 -0.0046  0.0367  0.0959
25313SOL    HW177380   1.430   0.845   5.857 -0.9981  0.0954 -0.7590
25313SOL    HW277381   1.516   0.725   5.822 -1.0973 -0.2776  0.2577
25314SOL     OW77382   3.406   4.380   0.816  0.4677 -0.7025 -0.0999
25314SOL    HW177383   3.382   4.471   0.802  1.2929 -0.3805  0.4728
25314SOL    HW277384   3.382   4.336   0.734  2.6214  0.5656 -1.5144
25315SOL     OW77385   6.108   3.033   8.934 -0.5393 -0.3178 -0.3008
25315SOL    HW177386   6.063   2.966   8.986  1.1583 -1.5509 -0.3325
25315SOL    HW277387   6.098   3.004   8.844 -2.8699  1.4460 -0.7065
25316SOL     OW77388   3.810   6.055   2.818 -0.3032  0.2398 -0.3953
25316SOL    HW177389   3.902   6.083   2.810 -1.0425  2.6919 -1.3735
25316SOL    HW277390   3.799   5.992   2.747  0.9001 -0.9941  0.4725
25317SOL     OW77391   1.579   3.494   6.256 -0.3026  0.4763 -0.6578
25317SOL    HW177392   1.619   3.579   6.239  0.8633  0.0958  0.0707
25317SOL    HW277393   1.506   3.489   6.195  0.3172  1.5046 -1.5113
25318SOL     OW77394   2.150   7.093   7.887 -0.4743  0.3860  0.4325
25318SOL    HW177395   2.126   7.159   7.822 -0.0506  2.1554  1.9783
25318SOL    HW277396   2.068   7.046   7.904 -0.0838 -2.0458 -3.2610
25319SOL     OW77397   2.917   0.012   0.218 -0.1632 -0.2089 -0.6977
25319SOL    HW177398   2.945  -0.007   0.308 -0.1135  1.3135 -0.3549
25319SOL    HW277399   2.847  -0.051   0.201 -0.5987 -0.1277  0.6436
25320SOL     OW77400   1.775   4.537   7.442  0.5683  0.4861  0.2508
25320SOL    HW177401   1.706   4.585   7.398  0.4610 -0.6040 -0.8024
25320SOL    HW277402   1.849   4.599   7.446  0.5775  0.6118 -1.4610
25321SOL     OW77403   0.737   4.845  12.249  0.3104  0.1763  0.2324
25321SOL    HW177404   0.675   4.917  12.254  0.4473  0.4294 -1.1335
25321SOL    HW277405   0.811   4.882  12.200  0.2204 -0.9783 -0.8200
25322SOL     OW77406   2.751   0.321  10.486 -0.0687 -0.0602  0.0988
25322SOL    HW177407   2.763   0.415  10.498  1.8868 -0.3329  0.4752
25322SOL    HW277408   2.657   0.311  10.471 -0.4241  1.8637  0.8009
25323SOL     OW77409   7.342   1.271   0.301 -0.8772  0.3616 -0.1153
25323SOL    HW177410   7.313   1.182   0.324 -0.5797 -0.3866 -2.3748
25323SOL    HW277411   7.412   1.257   0.238  0.0080  2.2281  0.3964
25324SOL     OW77412   7.039   2.297   5.271  0.5270 -0.1304 -0.1198
25324SOL    HW177413   7.011   2.318   5.361 -1.6266  0.0594 -0.7732
25324SOL    HW277414   7.054   2.203   5.272 -0.8671 -0.3841  0.1529
25325SOL     OW77415   2.350   1.842   0.957 -0.2937 -0.2450 -0.2575
25325SOL    HW177416   2.286   1.806   0.896  0.0134  1.9917 -2.0443
25325SOL    HW277417   2.428   1.787   0.944 -0.2018  0.2420 -2.0170
25326SOL     OW77418   4.271   4.160   7.217 -0.0224  0.0689 -0.5433
25326SOL    HW177419   4.257   4.220   7.144  2.3610  1.6251  0.1560
25326SOL    HW277420   4.231   4.205   7.292  0.0427 -0.1616 -0.3715
25327SOL     OW77421   1.801   4.611  12.436  0.3301 -0.0335  0.9530
25327SOL    HW177422   1.865   4.646  12.374  0.2801 -0.9687  0.3541
25327SOL    HW277423   1.734   4.680  12.443 -0.6558 -0.6109 -1.5180
25328SOL     OW77424   0.959   2.303   1.746  0.6083 -0.6768  0.1287
25328SOL    HW177425   0.893   2.358   1.788  1.7209 -0.0543  1.1198
25328SOL    HW277426   0.952   2.324   1.652 -0.7543 -0.8266  0.1768
25329SOL     OW77427   4.691   5.926   4.070 -0.1890  0.4711 -0.2796
25329SOL    HW177428   4.713   5.911   3.978 -1.3979 -0.9915 -0.3710
25329SOL    HW277429   4.726   5.851   4.116  0.7443  1.3871  0.5421
25330SOL     OW77430   7.167   3.556  10.707  0.2418 -0.4578  0.7463
25330SOL    HW177431   7.153   3.644  10.743  0.2363  0.1566 -0.7000
25330SOL    HW277432   7.096   3.544  10.645  1.9393 -0.2086 -1.3479
25331SOL     OW77433   6.177   7.443   0.877  0.0234  0.3333 -0.2495
25331SOL    HW177434   6.112   7.378   0.850  0.3072  0.1025 -0.3769
25331SOL    HW277435   6.133   7.527   0.865  0.5628  0.3510 -2.7801
25332SOL     OW77436   7.942   2.026   1.840 -0.0113  0.2338 -0.4540
25332SOL    HW177437   8.032   2.048   1.862  0.6230 -0.7004 -1.9586
25332SOL    HW277438   7.948   1.944   1.790 -1.8098 -0.5693  0.5301
25333SOL     OW77439   6.944   4.367   5.124  0.5751  0.1405  0.5802
25333SOL    HW177440   6.902   4.386   5.040  0.2470 -1.0123  0.4636
25333SOL    HW277441   6.872   4.352   5.185  0.8107 -0.2686  0.7651
25334SOL     OW77442   4.600   6.220  10.881 -0.1398 -0.4255  0.3475
25334SOL    HW177443   4.582   6.133  10.845 -0.6159 -0.1216 -0.1717
25334SOL    HW277444   4.694   6.233  10.866  0.1520 -1.2589  1.3529
25335SOL     OW77445   3.750   5.893   7.483  0.0789 -0.2578  0.3693
25335SOL    HW177446   3.714   5.917   7.397  0.2311 -0.6591  0.1883
25335SOL    HW277447   3.767   5.799   7.475  0.9358 -0.1194  0.5423
25336SOL     OW77448   3.591   2.597   4.636  0.0013 -0.1434 -0.1216
25336SOL    HW177449   3.513   2.570   4.685  0.2725 -1.3471 -0.3214
25336SOL    HW277450   3.663   2.548   4.677  0.3599 -0.5211 -1.1776
25337SOL     OW77451   7.576   3.774  11.890 -0.0350  0.2146 -0.8163
25337SOL    HW177452   7.557   3.860  11.852  0.5921  1.1707  0.9155
25337SOL    HW277453   7.494   3.726  11.883 -0.2173  0.7064 -2.3872
25338SOL     OW77454   4.750   7.198   0.964 -0.3387  0.0101 -0.1683
25338SOL    HW177455   4.709   7.275   1.005  1.5333  0.1253  1.6425
25338SOL    HW277456   4.744   7.215   0.870 -2.2001  1.1469  0.0862
25339SOL     OW77457   5.538   5.888   7.600  0.2918 -0.0506 -0.9031
25339SOL    HW177458   5.475   5.848   7.540 -0.9261 -0.9234  0.8745
25339SOL    HW277459   5.497   5.969   7.629 -0.2536 -0.8415  0.6066
25340SOL     OW77460   1.177   6.136   3.513  0.3441  1.1976 -0.0958
25340SOL    HW177461   1.266   6.169   3.525  0.4437  1.1282 -0.6254
25340SOL    HW277462   1.120   6.209   3.537  0.4449  0.4473  2.9372
25341SOL     OW77463   6.763   5.263   5.443 -0.3500 -0.1363  0.4868
25341SOL    HW177464   6.747   5.344   5.492 -2.3341 -0.4740  0.4606
25341SOL    HW277465   6.705   5.267   5.368  3.0620  0.6488 -2.3775
25342SOL     OW77466   7.644   2.132   6.357 -0.3765 -0.2319 -0.5282
25342SOL    HW177467   7.580   2.173   6.416 -0.9391  0.5456 -1.6292
25342SOL    HW277468   7.726   2.132   6.406 -1.1023 -0.7907  0.7304
25343SOL     OW77469   2.990   6.150  11.410  0.2428  0.4731 -0.0559
25343SOL    HW177470   3.004   6.057  11.427  1.2823  0.8809  1.5418
25343SOL    HW277471   3.028   6.164  11.323  0.3126 -0.5204 -0.2050
25344SOL     OW77472   5.980   1.559   9.946  0.1456 -0.0564 -0.2000
25344SOL    HW177473   5.937   1.603  10.019 -0.6729  0.9549 -1.2512
25344SOL    HW277474   5.966   1.617   9.871  0.9253 -1.0777 -1.1798
25345SOL     OW77475   3.166   3.610   9.984 -0.0479 -0.8855 -0.0814
25345SOL    HW177476   3.186   3.700  10.011 -0.8906  0.0368 -2.2709
25345SOL    HW277477   3.154   3.562  10.066  0.0660  1.0777  1.1514
25346SOL     OW77478   0.470   7.512   8.374 -0.0094  0.3687  0.6193
25346SOL    HW177479   0.445   7.430   8.330 -0.3064 -1.1669  3.4321
25346SOL    HW277480   0.395   7.533   8.428  0.0130  2.6634 -0.1604
25347SOL     OW77481   5.153   2.698   4.873  0.2957  0.4321  0.1418
25347SOL    HW177482   5.233   2.652   4.899 -0.0007  0.6104  1.4205
25347SOL    HW277483   5.161   2.785   4.912 -0.7238  0.2922  0.7043
25348SOL     OW77484   7.197   7.109   0.870  0.4226 -0.1710 -0.1552
25348SOL    HW177485   7.162   7.039   0.814  0.0685  0.8561 -1.2414
25348SOL    HW277486   7.212   7.066   0.954 -2.6906 -0.8541  0.1577
25349SOL     OW77487   6.138   0.647   4.366  0.3336 -0.3847 -0.3109
25349SOL    HW177488   6.131   0.620   4.274 -1.3583 -1.0805 -0.0029
25349SOL    HW277489   6.062   0.607   4.409  2.1134 -1.7049  1.8146
25350SOL     OW77490   5.924   1.019   3.209 -0.0284 -0.0790  0.5694
25350SOL    HW177491   5.970   1.103   3.208 -0.1856  0.0434  1.9137
25350SOL    HW277492   5.916   0.994   3.117  0.5093  1.1116  0.1932
25351SOL     OW77493   7.650   1.584   3.324  0.6513 -0.4127 -0.4212
25351SOL    HW177494   7.629   1.555   3.235  0.4016 -0.3942 -0.3700
25351SOL    HW277495   7.569   1.624   3.356  1.3401  1.5297 -0.9533
25352SOL     OW77496   1.571   2.026  11.967  0.3591  0.1332  0.4495
25352SOL    HW177497   1.620   2.102  12.000 -0.9781  0.8865  0.7666
25352SOL    HW277498   1.485   2.061  11.945  0.1369 -1.0544 -0.6530
25353SOL     OW77499   4.220   0.326   3.448 -0.4342 -0.1538  0.2801
25353SOL    HW177500   4.302   0.357   3.486  0.5988 -1.2111 -0.9993
25353SOL    HW277501   4.233   0.332   3.354 -1.3315 -1.5279  0.0359
25354SOL     OW77502   1.761   6.290   7.325  0.0475  0.0284  0.3559
25354SOL    HW177503   1.825   6.282   7.396 -0.4664 -0.5918  0.7604
25354SOL    HW277504   1.701   6.358   7.356 -1.0702 -1.2944  1.2537
25355SOL     OW77505   6.933   0.600   3.086  0.4121 -0.2723 -0.1729
25355SOL    HW177506   6.849   0.638   3.113  0.4734  0.3997 -0.8986
25355SOL    HW277507   6.930   0.511   3.119 -0.1880  0.0322  0.6435
25356SOL     OW77508   3.320   6.633   9.914  0.5138  0.2295 -0.1039
25356SOL    HW177509   3.274   6.550   9.929 -0.5590  1.0581  1.5653
25356SOL    HW277510   3.388   6.635   9.981  1.0277  0.3822 -0.6210
25357SOL     OW77511   4.771   1.572   3.766 -0.2273 -0.3071  0.2868
25357SOL    HW177512   4.842   1.611   3.714 -1.2028  0.4884 -0.4834
25357SOL    HW277513   4.768   1.624   3.846  0.1806 -0.4713  0.4124
25358SOL     OW77514   1.572   3.338   1.326 -0.3152  0.2891 -0.2753
25358SOL    HW177515   1.652   3.376   1.289 -0.5183  0.2040 -0.8131
25358SOL    HW277516   1.586   3.340   1.420  0.9691 -1.1559 -0.4049
25359SOL     OW77517   0.435   6.593   7.300  0.1176  0.1607  0.0576
25359SOL    HW177518   0.450   6.687   7.290 -0.3096  0.1179 -1.0669
25359SOL    HW277519   0.340   6.585   7.310 -0.0033 -0.2555 -1.2736
25360SOL     OW77520   5.212   1.076   7.137 -0.4793 -0.3038 -1.2740
25360SOL    HW177521   5.160   1.151   7.109 -1.0871 -0.6071 -0.9774
25360SOL    HW277522   5.291   1.115   7.175 -0.2771  0.1451 -2.1376
25361SOL     OW77523   1.832   0.688   7.504  0.2432  0.3684  0.0253
25361SOL    HW177524   1.923   0.693   7.535  0.0713 -1.7534  1.0528
25361SOL    HW277525   1.819   0.596   7.482 -1.9542  0.3990  0.9074
25362SOL     OW77526   5.096   6.161   4.721  0.5120  0.3323  0.9898
25362SOL    HW177527   5.191   6.165   4.718  0.5612 -0.5089 -2.6826
25362SOL    HW277528   5.067   6.248   4.694  0.2863  0.0132  0.1868
25363SOL     OW77529   2.569   0.183   3.748 -0.3737 -0.1102 -0.2116
25363SOL    HW177530   2.611   0.134   3.678  0.5541  1.3734 -0.7500
25363SOL    HW277531   2.477   0.188   3.722  0.1928  1.7698 -2.2487
25364SOL     OW77532   3.485   7.850   2.214 -0.4321 -0.0459  0.0765
25364SOL    HW177533   3.404   7.830   2.262 -0.6351  0.4812 -0.0318
25364SOL    HW277534   3.481   7.794   2.137 -0.3009 -0.6039  0.4717
25365SOL     OW77535   3.372   4.686   2.180 -0.0398  0.0137 -0.0937
25365SOL    HW177536   3.389   4.732   2.263 -1.4391  0.0115  0.2200
25365SOL    HW277537   3.282   4.709   2.158  0.4987  0.5069 -1.9572
25366SOL     OW77538   1.257   7.232   5.635 -0.2656  0.0124  0.2151
25366SOL    HW177539   1.352   7.235   5.623 -0.0633  2.9426  1.8014
25366SOL    HW277540   1.223   7.301   5.578 -1.5742 -1.3233 -0.7141
25367SOL     OW77541   7.658   5.623   4.468  0.0143 -0.3697  0.1020
25367SOL    HW177542   7.697   5.689   4.525 -0.2728 -0.6798  0.6633
25367SOL    HW277543   7.630   5.672   4.390 -1.6280  0.4699  1.1660
25368SOL     OW77544   5.986   5.882   8.288  0.3299  0.2339  0.7598
25368SOL    HW177545   6.004   5.968   8.324  0.4172  0.7595 -0.5057
25368SOL    HW277546   5.921   5.897   8.220 -1.1849 -0.9831  1.8699
25369SOL     OW77547   5.406   7.548   8.206 -0.1844 -0.5838  0.0266
25369SOL    HW177548   5.471   7.585   8.145 -0.9792  0.7726 -0.0523
25369SOL    HW277549   5.324   7.551   8.157 -0.3366 -2.3193  0.1149
25370SOL     OW77550   3.727   6.982   9.550  0.2429 -0.3511 -0.9068
25370SOL    HW177551   3.644   6.942   9.524 -0.4647 -0.9895  1.9609
25370SOL    HW277552   3.763   6.921   9.615  2.6117  0.2937 -1.5273
25371SOL     OW77553   2.698   3.560   6.877  0.1349 -0.4363  0.1652
25371SOL    HW177554   2.706   3.630   6.812  2.1273 -0.1225  0.6784
25371SOL    HW277555   2.697   3.479   6.825 -1.4171 -0.1020 -0.3848
25372SOL     OW77556   4.836   5.402   7.395 -0.7333  0.6866  0.6939
25372SOL    HW177557   4.899   5.465   7.431 -0.2583  0.7946 -0.2726
25372SOL    HW277558   4.767   5.457   7.358 -0.1654  0.6809 -0.4282
25373SOL     OW77559   1.441   7.513   0.542 -0.1954  0.4194  0.2575
25373SOL    HW177560   1.439   7.426   0.581 -3.0737  0.7071  0.9662
25373SOL    HW277561   1.528   7.519   0.501 -0.2431 -3.1186 -0.6888
25374SOL     OW77562   1.848   6.001   5.362  0.2943  0.4361  0.1854
25374SOL    HW177563   1.939   5.994   5.390  0.2820  1.2775  0.4314
25374SOL    HW277564   1.811   6.070   5.415 -0.2194  0.7944 -0.6212
25375SOL     OW77565   2.800   5.878   9.754 -0.3337  0.0463 -0.3807
25375SOL    HW177566   2.790   5.959   9.804  0.8694  0.6839 -1.1284
25375SOL    HW277567   2.772   5.901   9.665 -0.8831 -0.6257 -0.3909
25376SOL     OW77568   1.048   0.656   4.060  0.0907  0.3353 -0.1171
25376SOL    HW177569   0.997   0.641   4.140  0.7947 -0.0764  0.2675
25376SOL    HW277570   0.991   0.711   4.005 -1.4715 -1.4968 -0.4338
25377SOL     OW77571   4.857   6.323  10.374  0.1854  0.0600  0.4645
25377SOL    HW177572   4.854   6.310  10.279  1.2562 -0.8969  0.5334
25377SOL    HW277573   4.816   6.244  10.410 -1.4589  1.0253  0.8031
25378SOL     OW77574   3.913   2.541   6.931 -0.6856  0.4972  0.0304
25378SOL    HW177575   3.954   2.456   6.916 -0.8635  0.2396  0.9562
25378SOL    HW277576   3.914   2.552   7.026  0.3044  2.0089 -0.1029
25379SOL     OW77577   7.361   1.882   1.410 -0.2729  0.3700 -0.5106
25379SOL    HW177578   7.337   1.888   1.318 -1.8268  1.0918 -0.1080
25379SOL    HW277579   7.408   1.799   1.419  0.5005  0.6146 -2.0526
25380SOL     OW77580   3.043   4.393   4.710 -0.1755 -0.0388 -0.3933
25380SOL    HW177581   3.072   4.302   4.716  0.7599  0.2925  0.3978
25380SOL    HW277582   2.984   4.404   4.784  2.3847  0.8911  1.6684
25381SOL     OW77583   7.507   1.604  10.869 -0.4819 -0.1364 -0.0808
25381SOL    HW177584   7.422   1.635  10.899 -0.8046 -0.1452 -0.9606
25381SOL    HW277585   7.530   1.663  10.797 -1.2431 -2.0844 -2.0139
25382SOL     OW77586   1.544   2.454   1.022  0.1253 -0.1431 -0.1900
25382SOL    HW177587   1.471   2.412   0.977  0.8713 -0.4814 -1.1159
25382SOL    HW277588   1.601   2.381   1.047 -0.6083 -0.0545  2.0061
25383SOL     OW77589   1.067   0.738   6.122 -0.3460  0.0301 -0.5029
25383SOL    HW177590   1.065   0.765   6.030 -0.6920 -0.8814 -0.7779
25383SOL    HW277591   1.072   0.820   6.171  2.0761  0.4900 -1.3755
25384SOL     OW77592   5.228   4.775   7.427  0.2821 -0.0853  0.4845
25384SOL    HW177593   5.148   4.811   7.389  1.6538  0.2968 -2.2048
25384SOL    HW277594   5.222   4.681   7.410  1.2737  0.1811 -1.5720
25385SOL     OW77595   4.552   7.406   1.571  0.4208 -0.2942 -0.0892
25385SOL    HW177596   4.515   7.374   1.489  0.0190  0.6301 -0.2861
25385SOL    HW277597   4.514   7.493   1.582  1.3524  0.0559  0.4987
25386SOL     OW77598   7.610   0.299   1.490 -0.0436  0.3073  0.1357
25386SOL    HW177599   7.655   0.371   1.446 -2.4324  2.4307  0.9366
25386SOL    HW277600   7.566   0.251   1.420 -1.0192  1.5784 -0.1498
25387SOL     OW77601   5.261   3.745   9.640  0.3371  0.1636  0.4102
25387SOL    HW177602   5.272   3.760   9.546  0.2440  0.0543  0.3814
25387SOL    HW277603   5.350   3.733   9.673  0.3536 -0.0218  0.2978
25388SOL     OW77604   5.158   0.779   6.308  0.0190  0.1550  0.0463
25388SOL    HW177605   5.109   0.848   6.263 -1.4177 -1.2369 -0.6015
25388SOL    HW277606   5.233   0.761   6.251 -0.2179  0.3935 -0.3441
25389SOL     OW77607   7.943   6.104   7.859  0.4480 -0.1357 -0.7440
25389SOL    HW177608   7.998   6.180   7.843  1.3126 -0.2049  1.5393
25389SOL    HW277609   7.950   6.052   7.779 -0.8353  2.4897 -2.7328
25390SOL     OW77610   7.675   5.055   4.895 -0.6306  0.6235  0.4350
25390SOL    HW177611   7.616   5.087   4.963 -0.4485  0.1273  0.8320
25390SOL    HW277612   7.624   5.062   4.814 -0.7854  1.3807  0.5957
25391SOL     OW77613   4.884   2.706   4.646  0.3021 -0.0298 -0.0119
25391SOL    HW177614   4.891   2.780   4.706 -0.5354  0.3160 -0.3263
25391SOL    HW277615   4.902   2.629   4.701 -3.0121  0.0267  1.3704
25392SOL     OW77616   1.760   7.624   0.328 -0.0094  0.1615 -0.1070
25392SOL    HW177617   1.723   7.681   0.260 -0.3734 -0.0819 -0.1122
25392SOL    HW277618   1.708   7.544   0.324  2.3428 -1.4068 -2.1152
25393SOL     OW77619   7.398   2.527   7.809 -0.1987  0.5021 -0.0963
25393SOL    HW177620   7.422   2.612   7.772 -1.1733  0.4484 -0.9145
25393SOL    HW277621   7.420   2.534   7.902 -0.8799  1.9035 -0.0118
25394SOL     OW77622   1.403   2.861   9.468 -0.5981 -0.1692  0.0990
25394SOL    HW177623   1.394   2.901   9.381  0.4303  0.8217  0.4230
25394SOL    HW277624   1.329   2.896   9.518 -1.3057 -0.8916 -0.4001
25395SOL     OW77625   2.812   2.081   2.152 -0.1666 -0.1296 -0.6785
25395SOL    HW177626   2.890   2.127   2.181 -0.6690 -0.2792  0.9720
25395SOL    HW277627   2.741   2.113   2.208 -1.4188  0.3529 -2.4433
25396SOL     OW77628   6.596   1.927   8.664  0.3991 -0.9186  0.3996
25396SOL    HW177629   6.517   1.897   8.710  0.4414  0.0987  1.1586
25396SOL    HW277630   6.631   1.997   8.719 -0.8666  2.0734 -2.3495
25397SOL     OW77631   2.991   3.310   8.650 -0.0729  0.6201 -0.1103
25397SOL    HW177632   2.966   3.365   8.725 -0.3338 -0.7312  0.8500
25397SOL    HW277633   3.056   3.250   8.686 -1.0165 -0.7810 -0.6529
25398SOL     OW77634   7.958   2.816   1.624  0.2072 -0.7019 -0.1556
25398SOL    HW177635   8.051   2.835   1.635  0.1135 -1.3352  2.0823
25398SOL    HW277636   7.926   2.794   1.711 -2.5005  1.3361 -0.4758
25399SOL     OW77637   1.667   2.113   9.664  0.3419 -0.2149  0.3021
25399SOL    HW177638   1.610   2.157   9.600 -3.7394 -1.9674  2.3448
25399SOL    HW277639   1.678   2.177   9.734 -0.2273 -0.2645  0.4448
25400SOL     OW77640   5.181   6.039  10.117  0.1412  0.1961 -0.1285
25400SOL    HW177641   5.179   5.950  10.083 -1.3146  0.2039 -0.1286
25400SOL    HW277642   5.184   6.095  10.040  1.9475  0.1628 -0.1175
25401SOL     OW77643   3.701   0.062   6.909 -0.6919 -0.0388  0.1674
25401SOL    HW177644   3.612   0.034   6.929  0.0277 -2.7359  0.0460
25401SOL    HW277645   3.693   0.119   6.832 -2.2446 -0.7890 -0.2472
25402SOL     OW77646   3.201   0.035   3.829  0.6547  0.4047  0.0858
25402SOL    HW177647   3.264  -0.021   3.785 -0.4241 -1.4688  0.7883
25402SOL    HW277648   3.254   0.102   3.872  2.3391 -1.7056  1.5627
25403SOL     OW77649   2.806   0.411   2.752 -0.1259  0.3422 -0.3614
25403SOL    HW177650   2.717   0.408   2.716 -0.0327 -0.1929 -0.5498
25403SOL    HW277651   2.797   0.374   2.840 -0.0749  0.2127 -0.4107
25404SOL     OW77652   7.497   6.566   6.938 -0.1627  0.6635  0.8714
25404SOL    HW177653   7.586   6.598   6.927  0.0126 -0.5742 -2.3515
25404SOL    HW277654   7.441   6.643   6.926  0.4146  0.8112 -1.3454
25405SOL     OW77655   1.736   6.780   4.094  0.1182 -0.1989 -0.3589
25405SOL    HW177656   1.739   6.730   4.176 -1.6777  0.9613  0.4838
25405SOL    HW277657   1.733   6.713   4.026 -1.3138 -1.2693  0.6835
25406SOL     OW77658   5.993   2.312   1.560  0.2162  0.0389 -0.0928
25406SOL    HW177659   6.007   2.376   1.490 -1.9178  0.5340 -0.1156
25406SOL    HW277660   5.998   2.363   1.641 -0.0871 -0.0302 -0.0312
25407SOL     OW77661   2.757   7.969   4.966  0.0780 -0.2536  0.2284
25407SOL    HW177662   2.797   7.924   4.891  0.9174 -1.3190  1.2775
25407SOL    HW277663   2.831   7.999   5.018 -0.4300 -1.6553  1.8533
25408SOL     OW77664   0.626   5.698   9.452 -0.3046  0.1311 -0.4782
25408SOL    HW177665   0.599   5.643   9.378  0.4963 -1.4871  0.3736
25408SOL    HW277666   0.721   5.705   9.443 -0.1950 -0.0998  0.3852
25409SOL     OW77667   4.515   1.195   9.795 -0.3474 -0.0490  0.1781
25409SOL    HW177668   4.602   1.156   9.799 -0.8236 -1.0458  1.1054
25409SOL    HW277669   4.517   1.249   9.716  1.0371 -0.2193  0.0720
25410SOL     OW77670   7.499   2.744   0.605 -0.2448  0.2457  0.7446
25410SOL    HW177671   7.413   2.706   0.589 -0.4040  0.5642  0.8453
25410SOL    HW277672   7.512   2.805   0.531  0.8737 -1.4776 -0.5572
25411SOL     OW77673   1.996   0.650   5.709 -0.6602  0.2492 -0.2849
25411SOL    HW177674   1.927   0.621   5.649 -0.3915 -0.3717 -0.2980
25411SOL    HW277675   2.076   0.650   5.655 -0.1800 -1.5565  0.3830
25412SOL     OW77676   1.969   5.902  12.184  0.3161 -0.1832  0.2814
25412SOL    HW177677   1.998   5.920  12.094  0.0593  0.5697  0.3402
25412SOL    HW277678   2.008   5.817  12.205  0.4314 -0.3402 -0.5186
25413SOL     OW77679   1.207   1.148   6.936  0.2047 -0.0257  0.3573
25413SOL    HW177680   1.199   1.241   6.956  0.5049  0.3252 -0.9937
25413SOL    HW277681   1.232   1.107   7.019 -2.9316  0.6068  1.7285
25414SOL     OW77682   2.630   7.755   7.176 -0.2002  0.5370  0.0923
25414SOL    HW177683   2.707   7.736   7.122 -0.6200 -0.7521 -0.0909
25414SOL    HW277684   2.667   7.777   7.262  0.3898  0.3515 -0.1050
25415SOL     OW77685   1.744   0.461   1.017 -0.1964  0.2969 -0.2182
25415SOL    HW177686   1.742   0.377   0.970 -2.9714  0.3612 -0.3623
25415SOL    HW277687   1.728   0.527   0.949 -1.5311  0.6151  0.3754
25416SOL     OW77688   3.812   5.658   4.285 -0.9822  0.3655  0.5756
25416SOL    HW177689   3.814   5.753   4.292 -1.0686  0.2953  1.8000
25416SOL    HW277690   3.900   5.630   4.311 -0.8177  0.1210 -0.2067
25417SOL     OW77691   6.063   4.511  11.030 -0.0666  0.0638  0.1607
25417SOL    HW177692   6.077   4.421  11.058 -1.5050 -0.4193 -0.6027
25417SOL    HW277693   5.968   4.523  11.030  0.1098  1.7308  0.6932
25418SOL     OW77694   5.757   0.316   4.874 -0.7602  0.3376 -0.0931
25418SOL    HW177695   5.818   0.364   4.929 -0.0401  0.5927 -1.0869
25418SOL    HW277696   5.810   0.251   4.829 -0.9068  1.4962 -2.0540
25419SOL     OW77697   2.982   2.317   4.401  0.4222 -0.5585 -0.7920
25419SOL    HW177698   2.893   2.287   4.383 -0.5415  0.6001  1.6270
25419SOL    HW277699   3.005   2.372   4.326 -1.2307 -0.1885 -1.0663
25420SOL     OW77700   4.869   5.155   0.366 -0.1480  0.0394 -0.0891
25420SOL    HW177701   4.883   5.239   0.409 -1.5390 -0.9446  2.5077
25420SOL    HW277702   4.793   5.169   0.310  0.2155  0.7371 -0.4120
25421SOL     OW77703   5.981   0.736   2.107 -0.1276 -0.2168  0.5666
25421SOL    HW177704   5.912   0.693   2.057  0.6737 -1.6676  0.6417
25421SOL    HW277705   5.941   0.817   2.138 -0.8446  0.4174 -1.8394
25422SOL     OW77706   1.922   0.424   5.411  0.1890  0.2633  0.5290
25422SOL    HW177707   1.887   0.447   5.325 -0.0868  0.4621  0.6894
25422SOL    HW277708   2.014   0.402   5.395  0.2458  0.6918  0.2431
25423SOL     OW77709   5.943   7.583   7.693  0.0536 -0.2603 -0.4101
25423SOL    HW177710   5.867   7.639   7.683  0.7768  0.6343 -1.1515
25423SOL    HW277711   5.969   7.561   7.603  0.4753 -0.8262 -0.1627
25424SOL     OW77712   6.095   7.261   0.583  0.1985  0.6201  0.2489
25424SOL    HW177713   6.078   7.355   0.572 -0.1477  0.8238  2.1544
25424SOL    HW277714   6.009   7.220   0.575  0.2279  0.5601  0.2437
25425SOL     OW77715   1.547   1.733   4.663  0.6129 -0.6942 -0.0606
25425SOL    HW177716   1.518   1.668   4.599  0.3290 -1.2906  0.6410
25425SOL    HW277717   1.625   1.773   4.625 -0.6880  0.4266 -1.6805
25426SOL     OW77718   7.813   5.959   6.066  0.0254  0.2780 -0.1527
25426SOL    HW177719   7.872   5.973   6.140  1.4292  1.0138 -1.3437
25426SOL    HW277720   7.871   5.957   5.989 -1.6108  2.6313 -1.5794
25427SOL     OW77721   4.948   5.382   2.757  0.3859 -0.6596  0.2848
25427SOL    HW177722   5.041   5.397   2.771  0.3960 -0.3660 -0.0581
25427SOL    HW277723   4.941   5.362   2.663  0.0842 -0.4665  0.2630
25428SOL     OW77724   6.925   5.866   6.410  0.0032  0.0630 -0.2635
25428SOL    HW177725   6.989   5.926   6.372  0.9122 -1.0970 -0.6199
25428SOL    HW277726   6.841   5.897   6.377  0.4354  1.2473 -0.2840
25429SOL     OW77727   6.607   4.365   3.775 -0.1612 -0.0650 -0.7467
25429SOL    HW177728   6.652   4.448   3.793  1.0536 -1.3312  3.0447
25429SOL    HW277729   6.624   4.349   3.682  1.7921  2.6655 -1.0009
25430SOL     OW77730   4.657   0.391   4.920  0.1677 -0.2554  0.2183
25430SOL    HW177731   4.682   0.304   4.952  1.3370  0.0818  0.2995
25430SOL    HW277732   4.682   0.450   4.991  1.0988  0.3227 -0.5592
25431SOL     OW77733   4.141   0.755   3.963 -0.5652 -0.0692  0.0401
25431SOL    HW177734   4.106   0.679   4.009  0.2307  0.0651  0.8936
25431SOL    HW277735   4.236   0.744   3.967 -0.4528 -0.2191 -1.8741
25432SOL     OW77736   0.701   7.660   0.426  0.1329 -0.0385 -0.5437
25432SOL    HW177737   0.607   7.643   0.421 -0.5260  2.8669 -0.3473
25432SOL    HW277738   0.732   7.653   0.336 -0.4490 -0.2367 -0.7343
25433SOL     OW77739   4.811   3.593   7.384 -0.4945  0.1843  0.1086
25433SOL    HW177740   4.855   3.509   7.370  1.0790  1.2179 -1.6859
25433SOL    HW277741   4.881   3.658   7.376 -1.7845  1.7226  0.7656
25434SOL     OW77742   1.003   7.406   0.262  0.2177  0.3725 -0.7603
25434SOL    HW177743   0.950   7.427   0.185 -0.7136  0.6356 -0.0586
25434SOL    HW277744   1.047   7.488   0.284 -0.3940  0.5964 -0.3471
25435SOL     OW77745   5.461   2.450   8.949  0.1107  0.0747 -0.6110
25435SOL    HW177746   5.479   2.527   9.003 -0.4697 -0.3590  0.2182
25435SOL    HW277747   5.494   2.376   9.000 -0.7192 -0.3723 -0.6948
25436SOL     OW77748   0.291   2.420   8.118 -0.1347  0.5856  0.4140
25436SOL    HW177749   0.336   2.468   8.048  1.1508  0.2568  0.9815
25436SOL    HW277750   0.203   2.457   8.120  0.4413  2.0301 -0.0042
25437SOL     OW77751   7.243   7.593  12.108 -0.4594  0.1100 -0.0565
25437SOL    HW177752   7.200   7.555  12.185  1.9426  0.2400  1.4272
25437SOL    HW277753   7.285   7.520  12.065 -0.7011  0.2443 -0.5304
25438SOL     OW77754   6.637   7.079   1.775 -0.9519 -0.1137 -0.2271
25438SOL    HW177755   6.664   7.125   1.854 -0.0672  0.5836 -0.9045
25438SOL    HW277756   6.602   6.996   1.806 -0.1572 -0.0703  0.8648
25439SOL     OW77757   2.738   5.053   8.193  0.1321 -0.4870 -0.1901
25439SOL    HW177758   2.755   5.144   8.169 -0.0866 -0.2122  0.6395
25439SOL    HW277759   2.765   5.003   8.117 -0.1172  0.2988 -0.8120
25440SOL     OW77760   3.255   6.535   7.076  0.3329  0.9785 -0.4080
25440SOL    HW177761   3.166   6.545   7.107  0.4510  0.8568 -0.0267
25440SOL    HW277762   3.306   6.598   7.127  0.6567  0.2380  0.1926
25441SOL     OW77763   2.519   1.108  11.715  0.2665 -0.6768  0.2902
25441SOL    HW177764   2.540   1.059  11.794 -0.6184  1.6156  2.0446
25441SOL    HW277765   2.585   1.177  11.712 -0.7564  0.3059  0.0099
25442SOL     OW77766   0.485   6.782   8.912  0.0679  0.6617 -0.1431
25442SOL    HW177767   0.574   6.789   8.876  1.0782 -1.1923  1.7464
25442SOL    HW277768   0.456   6.694   8.888 -0.9408  0.9704 -0.0770
25443SOL     OW77769   5.337   1.854  10.523 -0.2493  0.0193  0.2370
25443SOL    HW177770   5.328   1.877  10.615 -0.8602  1.3025 -0.1153
25443SOL    HW277771   5.386   1.927  10.485 -2.3455  0.8961 -0.9497
25444SOL     OW77772   1.233   5.407   3.340 -0.4040  0.2988 -0.1158
25444SOL    HW177773   1.198   5.496   3.350  0.2778  0.5392  0.1685
25444SOL    HW277774   1.317   5.419   3.296  1.3764  0.1448  2.9957
25445SOL     OW77775   5.408   6.564   3.284 -0.0625  0.1733  0.0531
25445SOL    HW177776   5.452   6.646   3.307  0.9674 -0.0833 -0.9471
25445SOL    HW277777   5.450   6.498   3.338  1.4657 -0.2191 -1.5395
25446SOL     OW77778   3.083   0.445   0.406 -0.0424  0.2030 -0.6910
25446SOL    HW177779   3.115   0.432   0.317  0.4756  2.2431 -0.8626
25446SOL    HW277780   3.157   0.485   0.452 -0.2633 -0.9167  0.7143
25447SOL     OW77781   1.576   2.239   0.793 -0.0823  0.3564 -0.3101
25447SOL    HW177782   1.504   2.235   0.856 -0.7193 -2.9815 -1.0558
25447SOL    HW277783   1.532   2.237   0.708  0.8595  1.3027 -0.8361
25448SOL     OW77784   7.972   7.489   9.502  0.3359  0.5181  0.7571
25448SOL    HW177785   7.994   7.490   9.595 -0.3184  0.5898  0.9126
25448SOL    HW277786   7.948   7.398   9.484 -0.4099  0.6885  0.8691
25449SOL     OW77787   4.543   4.078  12.057  0.0866 -0.1148  0.1531
25449SOL    HW177788   4.473   4.017  12.032 -0.8054  0.3026  1.4683
25449SOL    HW277789   4.545   4.073  12.153  1.0285  0.7992  0.1974
25450SOL     OW77790   5.319   5.487   3.248 -0.3660 -0.1391 -0.0952
25450SOL    HW177791   5.407   5.483   3.285  0.2637 -0.0932 -1.5393
25450SOL    HW277792   5.277   5.406   3.278  0.7493 -0.9928 -0.7532
25451SOL     OW77793   4.342   7.082  10.920 -0.1494 -0.3523  0.3264
25451SOL    HW177794   4.434   7.103  10.903 -0.7302  0.9347 -1.3676
25451SOL    HW277795   4.295   7.165  10.911 -1.7305 -1.3058 -0.7069
25452SOL     OW77796   0.802   7.671  11.355 -0.4149  0.4224  0.2596
25452SOL    HW177797   0.714   7.706  11.368  0.2496  2.0708  0.5830
25452SOL    HW277798   0.850   7.698  11.433  0.2132 -1.1132  0.4488
25453SOL     OW77799   0.090   6.076  10.010 -0.9506  0.5262 -0.4538
25453SOL    HW177800   0.111   5.986   9.986  1.8685  1.4346 -1.8568
25453SOL    HW277801   0.112   6.082  10.103 -0.0988  0.0155 -0.6107
25454SOL     OW77802   6.599   2.439   3.356  0.6981  0.5685 -0.4130
25454SOL    HW177803   6.689   2.469   3.344  0.0893  2.8209  0.2406
25454SOL    HW277804   6.547   2.499   3.302 -0.4466 -0.5682 -0.6149
25455SOL     OW77805   5.851   7.940  11.185 -0.2042 -0.7858 -0.0292
25455SOL    HW177806   5.862   8.024  11.140 -0.7415 -0.8046 -0.2014
25455SOL    HW277807   5.757   7.924  11.182 -0.0932 -1.4316 -0.0628
25456SOL     OW77808   1.505   0.118   8.101  0.4725  0.3839  0.2960
25456SOL    HW177809   1.576   0.167   8.059  0.6441  0.6391  0.8691
25456SOL    HW277810   1.514   0.029   8.067  0.5253  0.6155 -0.2993
25457SOL     OW77811   0.440   2.625   5.376 -0.1374  0.2540 -0.2716
25457SOL    HW177812   0.479   2.539   5.391  0.5246  0.9552  2.7805
25457SOL    HW277813   0.507   2.674   5.328  0.5880 -0.1553  0.2982
25458SOL     OW77814   3.326   5.427  12.268  0.7130 -0.4241  0.3409
25458SOL    HW177815   3.368   5.510  12.246 -0.0863 -0.7442 -2.8524
25458SOL    HW277816   3.325   5.378  12.186 -1.5902 -2.3429  1.4023
25459SOL     OW77817   5.755   1.188  10.906 -0.2993  0.5018 -0.1253
25459SOL    HW177818   5.749   1.247  10.830 -1.4701 -1.8032 -1.9525
25459SOL    HW277819   5.665   1.160  10.922  0.0914  0.0281  1.4206
25460SOL     OW77820   7.184   0.445   3.753  0.3622 -0.1046  0.4804
25460SOL    HW177821   7.157   0.401   3.673 -0.6627 -0.6892  1.1207
25460SOL    HW277822   7.230   0.523   3.724 -0.1720 -0.2067 -0.6746
25461SOL     OW77823   7.950   4.522   1.049 -0.1341 -0.0091  0.2756
25461SOL    HW177824   7.990   4.596   1.093  0.5393 -0.1939 -0.0126
25461SOL    HW277825   7.856   4.536   1.058 -0.0050  0.5211  0.8100
25462SOL     OW77826   5.765   2.920   4.950  0.2937 -0.1725  0.0810
25462SOL    HW177827   5.838   2.858   4.943  0.5632  0.1233  0.2701
25462SOL    HW277828   5.749   2.948   4.860 -1.1926 -2.0672 -0.3275
25463SOL     OW77829   7.106   2.537   7.402 -0.1247  0.2821 -0.6785
25463SOL    HW177830   7.131   2.629   7.414  0.3131  0.4755 -2.7047
25463SOL    HW277831   7.013   2.540   7.381  0.0836  0.3799 -1.6512
25464SOL     OW77832   0.125   4.649   4.633  0.1664  0.2260 -0.1421
25464SOL    HW177833   0.125   4.554   4.643 -0.8582  0.3490  1.3532
25464SOL    HW277834   0.129   4.683   4.722  0.1126  1.5800 -0.6310
25465SOL     OW77835   7.050   3.517   3.805  0.0635  0.1568  0.1649
25465SOL    HW177836   6.995   3.550   3.733  2.0296 -0.1699 -1.5777
25465SOL    HW277837   7.114   3.586   3.821  0.4849 -0.3368  0.6639
25466SOL     OW77838   4.318   7.310   2.184  0.0154  0.2387 -0.2189
25466SOL    HW177839   4.372   7.382   2.216  0.9710 -0.0189 -1.1778
25466SOL    HW277840   4.379   7.237   2.172 -0.6522 -0.2529 -0.7214
25467SOL     OW77841   4.419   4.828   1.391 -0.2954  0.2291  0.4163
25467SOL    HW177842   4.467   4.745   1.395 -0.9004 -0.2405 -1.3542
25467SOL    HW277843   4.483   4.893   1.421  1.3404 -0.4383 -1.3427
25468SOL     OW77844   4.576   1.796   2.551  0.5421 -0.0445  0.3663
25468SOL    HW177845   4.534   1.717   2.516  1.2066 -0.3824  0.3135
25468SOL    HW277846   4.539   1.868   2.500  0.7131 -0.4296 -0.3181
25469SOL     OW77847   3.674   0.140   4.262 -0.0167  0.2364  0.6841
25469SOL    HW177848   3.665   0.045   4.274  0.6368 -0.0065 -0.6067
25469SOL    HW277849   3.689   0.173   4.351 -1.3512 -0.7216  1.2947
25470SOL     OW77850   7.393   7.443   0.904  0.8499 -0.4407  0.0024
25470SOL    HW177851   7.298   7.430   0.895  0.9593 -0.5798 -1.1391
25470SOL    HW277852   7.402   7.534   0.932  0.4438  0.5663 -2.8038
25471SOL     OW77853   1.740   2.872   5.022 -0.1132 -0.1460 -0.5120
25471SOL    HW177854   1.653   2.911   5.016 -0.2976 -0.4483  0.1737
25471SOL    HW277855   1.799   2.947   5.033 -0.4970 -0.0554  1.1233
25472SOL     OW77856   3.726   6.496  12.175 -0.2848 -0.2850  0.1247
25472SOL    HW177857   3.777   6.448  12.240 -0.2732 -0.2891  0.1124
25472SOL    HW277858   3.730   6.442  12.096 -0.3469 -0.3089  0.1366
25473SOL     OW77859   1.259   0.886  11.928 -0.0913  0.4375  0.1412
25473SOL    HW177860   1.279   0.857  11.839  0.0484  0.6907  0.0895
25473SOL    HW277861   1.226   0.807  11.972  0.3641  0.1755  0.0268
25474SOL     OW77862   2.965   4.349   3.688 -0.3672 -0.0049  0.0927
25474SOL    HW177863   3.011   4.285   3.743  0.3929 -0.0720 -0.6114
25474SOL    HW277864   2.948   4.423   3.746  0.7881  0.0936  0.3185
25475SOL     OW77865   4.463   6.801   7.470  0.4494 -0.1057 -0.1863
25475SOL    HW177866   4.509   6.885   7.478  0.6497 -0.2413  0.0832
25475SOL    HW277867   4.434   6.781   7.558  0.3628 -0.3005 -0.2581
25476SOL     OW77868   3.623   4.465   9.854  0.1272  0.4660 -0.4439
25476SOL    HW177869   3.603   4.549   9.813 -1.2327  0.8211  0.8539
25476SOL    HW277870   3.540   4.436   9.891  1.2636  0.2573  2.1624
25477SOL     OW77871   3.997   2.863   6.107 -0.0350  0.0423  0.3492
25477SOL    HW177872   3.933   2.846   6.038 -0.4225 -1.4329  1.0341
25477SOL    HW277873   4.056   2.787   6.104  0.9956  0.8214  0.4929
25478SOL     OW77874   1.959   1.574   7.036  0.3354 -0.2211  0.4480
25478SOL    HW177875   1.980   1.493   6.989 -1.0706 -0.9456  1.0068
25478SOL    HW277876   2.035   1.590   7.092  1.4725 -0.0581 -1.0689
25479SOL     OW77877   2.129   0.239  10.937  0.3842  0.0529 -0.0210
25479SOL    HW177878   2.102   0.251  11.028  1.2562  0.1940  0.2256
25479SOL    HW277879   2.224   0.249  10.938  0.2233  2.5416 -1.3264
25480SOL     OW77880   6.274   2.324  12.024 -0.5363 -0.4594  0.3655
25480SOL    HW177881   6.205   2.273  12.066 -2.0499 -0.7298 -2.2591
25480SOL    HW277882   6.234   2.409  12.006  0.4302  0.0191  0.4068
25481SOL     OW77883   5.634   1.713   9.838 -0.1051  0.4096  0.6738
25481SOL    HW177884   5.574   1.743   9.906 -0.7034 -0.3036  0.4749
25481SOL    HW277885   5.699   1.782   9.831 -1.6338  1.8438 -0.0240
25482SOL     OW77886   5.424   0.150   1.337  0.2969 -0.1476 -0.0985
25482SOL    HW177887   5.356   0.213   1.360  2.1251  1.1635  2.0458
25482SOL    HW277888   5.377   0.067   1.328 -1.7868  0.9906 -0.3034
25483SOL     OW77889   5.468   6.509   2.115  0.1099  0.8623  0.6837
25483SOL    HW177890   5.429   6.459   2.044  0.0595 -1.4053  2.2115
25483SOL    HW277891   5.393   6.550   2.159 -0.0654  0.5919  0.6410
25484SOL     OW77892   2.850   1.486   8.574 -0.3416 -0.6062 -0.0538
25484SOL    HW177893   2.776   1.543   8.594 -0.4744 -0.9569  0.4627
25484SOL    HW277894   2.848   1.476   8.478  0.2453  1.0187 -0.2663
25485SOL     OW77895   6.259   5.559   2.637  0.6142 -0.0878  0.0581
25485SOL    HW177896   6.165   5.566   2.620  0.6141 -0.7754 -0.2600
25485SOL    HW277897   6.279   5.468   2.618  1.0078 -0.3988  1.8637
25486SOL     OW77898   3.228   5.618   7.884  0.0227 -0.1657 -0.3575
25486SOL    HW177899   3.294   5.614   7.954  0.3473 -0.2430 -0.6616
25486SOL    HW277900   3.177   5.696   7.904  0.5535  0.2046 -0.4214
25487SOL     OW77901   4.701   4.751  11.185  0.6691  0.2675 -0.1497
25487SOL    HW177902   4.620   4.701  11.201  0.0219  1.7203  1.4467
25487SOL    HW277903   4.762   4.719  11.250  0.6772  0.6393  0.0274
25488SOL     OW77904   1.515   2.415  11.235 -0.0762  0.2003 -0.2188
25488SOL    HW177905   1.575   2.352  11.195 -0.1027 -0.1224  0.2399
25488SOL    HW277906   1.570   2.490  11.256  0.0907  0.0703 -0.1817
25489SOL     OW77907   5.795   7.483   2.637  0.7522  0.1119  0.1097
25489SOL    HW177908   5.724   7.440   2.590  2.1822 -1.9084 -0.3126
25489SOL    HW277909   5.804   7.433   2.718  0.4023  1.6246  1.1391
25490SOL     OW77910   6.390   3.088  12.036  0.0294 -0.2209 -0.1279
25490SOL    HW177911   6.470   3.038  12.022  0.3991 -0.6990  2.9367
25490SOL    HW277912   6.408   3.174  11.997  2.7952  0.2495  1.8620
25491SOL     OW77913   1.334   2.269   0.893  0.2296  0.0948 -0.1394
25491SOL    HW177914   1.290   2.212   0.957 -0.7170  0.5642 -0.3617
25491SOL    HW277915   1.269   2.284   0.825 -0.0746  2.6522  0.6369
25492SOL     OW77916   7.930   1.794   0.818  0.2437  0.2043 -0.3154
25492SOL    HW177917   7.872   1.721   0.798 -1.0901  1.7329 -2.4058
25492SOL    HW277918   8.000   1.755   0.871 -0.9483 -2.3429 -0.4656
25493SOL     OW77919   2.386   1.388  11.310  0.2393  0.3706 -0.4972
25493SOL    HW177920   2.373   1.460  11.248  1.3518  3.3152  2.3942
25493SOL    HW277921   2.302   1.378  11.354 -0.0303 -0.4611 -1.1676
25494SOL     OW77922   3.132   7.099   1.723 -0.2370  0.3681  0.2804
25494SOL    HW177923   3.055   7.157   1.727 -0.2539  0.3396  0.3674
25494SOL    HW277924   3.206   7.159   1.719 -0.1898  0.4143  1.3892
25495SOL     OW77925   6.951   1.000  11.106  0.2856  0.1661  0.4805
25495SOL    HW177926   6.937   1.064  11.036 -0.6513 -2.4501 -1.9174
25495SOL    HW277927   7.044   1.008  11.127  0.5553  1.1963 -0.9060
25496SOL     OW77928   7.552   0.043   1.770  0.6182  0.1478  0.4102
25496SOL    HW177929   7.477   0.061   1.714  0.8301  1.6965  0.5945
25496SOL    HW277930   7.516   0.047   1.859  0.6167 -0.6798  0.4566
25497SOL     OW77931   7.212   6.418   7.887 -0.0913 -0.0166 -0.4584
25497SOL    HW177932   7.221   6.456   7.974  0.0737  0.1846 -0.5599
25497SOL    HW277933   7.149   6.475   7.842 -1.6195 -1.1950  0.1194
25498SOL     OW77934   4.152   2.310   1.051  0.2940 -0.2832  0.0351
25498SOL    HW177935   4.211   2.342   1.119  0.6696  0.0064 -0.4258
25498SOL    HW277936   4.165   2.370   0.978 -0.7904 -0.0311  0.0289
25499SOL     OW77937   3.246   6.916  11.113  0.1988  0.2088 -0.4340
25499SOL    HW177938   3.218   6.984  11.053  0.3451  0.5769 -0.0874
25499SOL    HW277939   3.174   6.909  11.177  1.0175  1.3895  0.6547
25500SOL     OW77940   0.286   1.786   1.454 -0.5053 -0.0025 -0.1801
25500SOL    HW177941   0.347   1.797   1.381  0.9815  0.7849  1.1160
25500SOL    HW277942   0.241   1.871   1.460  0.8586  0.6761  1.0542
25501SOL     OW77943   1.640   0.349   0.025  0.0751 -0.6286  0.2737
25501SOL    HW177944   1.582   0.322  -0.046 -0.1262  0.5641 -0.0478
25501SOL    HW277945   1.635   0.445   0.025  1.4280 -0.5263  0.7510
25502SOL     OW77946   2.627   1.812   3.690 -0.3073 -0.3123 -0.2927
25502SOL    HW177947   2.587   1.898   3.676 -0.1604 -0.0556  0.7913
25502SOL    HW277948   2.689   1.803   3.618 -0.3789  0.4600 -0.4647
25503SOL     OW77949   1.442   4.070   0.094  0.3781  0.0268 -0.2560
25503SOL    HW177950   1.441   4.043   0.002  1.1222  0.7412 -0.4857
25503SOL    HW277951   1.429   3.988   0.142 -2.5129 -0.0639 -0.9918
25504SOL     OW77952   6.115   6.613   6.497  0.1702 -1.1056 -0.4081
25504SOL    HW177953   6.156   6.636   6.414 -2.1398 -1.2081 -1.6314
25504SOL    HW277954   6.081   6.696   6.531  1.9724 -0.8723  1.0176
25505SOL     OW77955   4.153   6.266  11.534  0.0769  0.3074 -0.0563
25505SOL    HW177956   4.215   6.198  11.506  0.0588  0.5083 -0.5914
25505SOL    HW277957   4.176   6.283  11.625 -0.0842 -0.6067  0.1753
25506SOL     OW77958   7.728   3.237   5.557  0.3075 -0.1934  0.3889
25506SOL    HW177959   7.759   3.240   5.467  0.4555  2.4123  0.4626
25506SOL    HW277960   7.665   3.165   5.558  0.6179 -0.5609 -1.6620
25507SOL     OW77961   4.978   3.864   4.098  0.0989 -0.3785 -0.4438
25507SOL    HW177962   4.914   3.873   4.028  0.2997  1.3084 -0.4407
25507SOL    HW277963   4.929   3.882   4.178  0.5070  0.7240 -0.4266
25508SOL     OW77964   7.877   5.706  11.317  0.6254  0.0499 -0.4403
25508SOL    HW177965   7.818   5.759  11.264 -1.4494 -2.3368 -0.7101
25508SOL    HW277966   7.885   5.623  11.269  2.3677 -0.5572  0.7661
25509SOL     OW77967   6.474   7.258   4.167  0.4775  0.2803  0.4158
25509SOL    HW177968   6.522   7.184   4.129  0.3497  0.8695 -0.9423
25509SOL    HW277969   6.406   7.217   4.220  0.9664 -0.5774  0.4008
25510SOL     OW77970   4.731   6.703   7.553  0.7174  0.0598  0.6735
25510SOL    HW177971   4.646   6.734   7.523 -0.2515  0.0058  3.1512
25510SOL    HW277972   4.785   6.782   7.560  1.0958  0.0418 -1.3549
25511SOL     OW77973   5.036   1.070   9.384 -0.4927 -0.2715  0.3626
25511SOL    HW177974   5.122   1.035   9.408  0.1878 -0.2698 -1.8964
25511SOL    HW277975   4.974   1.004   9.416  0.4986 -1.3686  0.0844
25512SOL     OW77976   2.377   7.633   9.174  0.2123  0.1341  0.4539
25512SOL    HW177977   2.298   7.667   9.130  0.9761 -0.3137 -1.3750
25512SOL    HW277978   2.364   7.539   9.176  1.1028 -0.0449 -0.7905
25513SOL     OW77979   6.327   1.121   7.191 -0.5055  0.1162 -0.1437
25513SOL    HW177980   6.366   1.039   7.219 -0.0228  0.3293 -0.1865
25513SOL    HW277981   6.362   1.186   7.252  0.7901  0.6375 -1.4006
25514SOL     OW77982   5.010   0.782   1.270 -0.2711 -0.1822 -0.3503
25514SOL    HW177983   4.964   0.857   1.232  1.5556  0.6192 -1.0691
25514SOL    HW277984   4.974   0.776   1.359 -0.4108  1.6111 -0.2386
25515SOL     OW77985   7.126   6.964  12.038 -0.1650  0.1014 -0.4187
25515SOL    HW177986   7.094   7.044  12.079 -0.5460 -0.0281 -0.4610
25515SOL    HW277987   7.146   6.906  12.112  0.4253  0.3526 -0.3791
25516SOL     OW77988   4.610   6.987  10.179 -0.5914  0.3011 -0.3381
25516SOL    HW177989   4.698   7.024  10.169  0.8261 -2.6462  0.2938
25516SOL    HW277990   4.579   7.023  10.263 -0.6894  2.5059 -1.2366
25517SOL     OW77991   5.700   5.302   8.339 -0.1729 -0.2063  0.1666
25517SOL    HW177992   5.710   5.247   8.262  2.5737  1.1153 -0.5660
25517SOL    HW277993   5.704   5.392   8.306  0.5439  0.3967  1.7373
25518SOL     OW77994   6.381   7.666   7.675 -0.0372 -0.8707 -0.0290
25518SOL    HW177995   6.306   7.725   7.688  0.0046 -0.7199 -0.4673
25518SOL    HW277996   6.400   7.632   7.763 -2.2323 -2.8918 -0.2509
25519SOL     OW77997   2.023   5.581  11.936 -0.5009 -0.0590  0.0548
25519SOL    HW177998   2.033   5.521  12.010 -0.4086 -0.2777 -0.1332
25519SOL    HW277999   1.931   5.575  11.912 -0.4831 -0.1579  0.0099
25520SOL     OW78000   6.896   1.977   6.631  0.2265 -0.1216  0.3008
25520SOL    HW178001   6.898   2.018   6.544  1.0971 -2.3992 -0.8298
25520SOL    HW278002   6.868   1.887   6.614 -3.0148  0.2076  2.8254
25521SOL     OW78003   4.069   6.769   5.367 -0.4256 -0.4388  0.2116
25521SOL    HW178004   4.034   6.744   5.453  0.9126 -1.4706  0.4877
25521SOL    HW278005   4.124   6.695   5.341  1.5039  1.0731 -0.2298
25522SOL     OW78006   0.487   6.868   6.192 -0.1685  0.0338 -0.5041
25522SOL    HW178007   0.433   6.945   6.176  0.1051  0.2242 -0.5314
25522SOL    HW278008   0.511   6.836   6.105 -0.9755 -0.5828 -0.5019
25523SOL     OW78009   7.072   1.081   5.514  0.0757  0.2534 -0.0693
25523SOL    HW178010   7.165   1.084   5.492  0.3364  0.2966  0.9884
25523SOL    HW278011   7.038   1.167   5.489  0.3145  0.2290 -0.4752
25524SOL     OW78012   5.203   3.901   4.995 -0.2916  0.1130 -0.0940
25524SOL    HW178013   5.150   3.884   5.073  0.9660 -1.1172  0.5497
25524SOL    HW278014   5.290   3.867   5.018 -0.1769 -1.4055 -2.4468
25525SOL     OW78015   4.282   3.700  12.108  0.0298  0.3285  0.2588
25525SOL    HW178016   4.248   3.777  12.155 -2.3248 -0.5765  0.1790
25525SOL    HW278017   4.230   3.696  12.028  1.3614 -0.3644 -0.6092
25526SOL     OW78018   4.865   6.045   8.332  0.1633 -0.1369  0.3454
25526SOL    HW178019   4.808   6.069   8.259 -0.2457 -0.2863  0.6128
25526SOL    HW278020   4.886   6.128   8.374  1.6037  0.1283 -0.8011
25527SOL     OW78021   6.611   7.902   8.679  0.0292  0.0153  0.0006
25527SOL    HW178022   6.647   7.823   8.721  0.9568  1.2316  1.5809
25527SOL    HW278023   6.517   7.896   8.696  0.1209 -0.6168  0.3474
25528SOL     OW78024   5.950   6.118   1.701  0.1431  0.5950  0.1499
25528SOL    HW178025   6.045   6.129   1.706  0.5303 -2.1665  0.5194
25528SOL    HW278026   5.928   6.062   1.775 -1.7191  0.8244 -0.1791
25529SOL     OW78027   6.238   7.376   3.931  0.3008 -0.2909  0.1645
25529SOL    HW178028   6.196   7.340   4.009  0.3316 -1.2561 -0.2589
25529SOL    HW278029   6.235   7.305   3.867 -1.3121  1.0501 -1.3374
25530SOL     OW78030   7.254   0.777   7.121 -0.2668 -0.6906 -0.1103
25530SOL    HW178031   7.254   0.693   7.166 -0.3423 -1.7621 -2.0223
25530SOL    HW278032   7.273   0.841   7.190  0.1267 -2.2875  1.3288
25531SOL     OW78033   3.277   6.962  12.463  0.0965  0.5982  0.1905
25531SOL    HW178034   3.297   6.889  12.520  0.2840 -0.8968 -1.6900
25531SOL    HW278035   3.355   7.018  12.467  0.8087 -0.3630  0.0857
25532SOL     OW78036   0.517   3.440   5.937  0.4979  0.3664 -0.0610
25532SOL    HW178037   0.612   3.444   5.924  0.5923 -3.3178 -1.5276
25532SOL    HW278038   0.481   3.482   5.859  0.9266  0.3854 -0.2540
25533SOL     OW78039   1.337   0.626   6.301  0.0790 -0.2681 -0.3142
25533SOL    HW178040   1.292   0.683   6.362 -0.5669 -1.8615  0.7803
25533SOL    HW278041   1.331   0.539   6.340  2.1533 -0.9093 -1.2551
25534SOL     OW78042   5.341   3.629   3.651  0.6220 -0.2167 -0.0762
25534SOL    HW178043   5.307   3.710   3.689  0.6466 -0.1265 -0.2486
25534SOL    HW278044   5.377   3.655   3.567  0.8981 -0.3557 -0.0015
25535SOL     OW78045   2.742   2.699   8.621  0.6095  0.0653  0.0128
25535SOL    HW178046   2.726   2.696   8.716  1.2166  1.4730  0.1932
25535SOL    HW278047   2.692   2.775   8.592  2.6456  1.3599 -0.2881
25536SOL     OW78048   1.655   6.943   0.564  0.2760 -0.2384 -0.0647
25536SOL    HW178049   1.725   6.897   0.518 -1.2702 -1.5258 -1.2404
25536SOL    HW278050   1.604   6.874   0.606 -0.1307  0.6926  1.0160
25537SOL     OW78051   1.876   5.141   7.404 -0.0526 -0.6090  0.2365
25537SOL    HW178052   1.858   5.064   7.458 -0.2126 -1.2928 -0.7685
25537SOL    HW278053   1.880   5.108   7.314  0.4956  0.4539 -0.1583
25538SOL     OW78054   0.287   6.707  11.125  0.9257 -0.2410  0.3511
25538SOL    HW178055   0.289   6.614  11.104  0.8290 -0.1446 -0.0967
25538SOL    HW278056   0.370   6.741  11.093 -0.0363  0.2927 -1.7532
25539SOL     OW78057   3.573   3.697   4.802  0.4045  0.0014 -0.0061
25539SOL    HW178058   3.621   3.777   4.785  0.1843  0.4330  1.3274
25539SOL    HW278059   3.611   3.633   4.741  1.0479  0.9242 -0.5971
25540SOL     OW78060   4.131   1.236   2.584 -0.0743  0.0362  0.1359
25540SOL    HW178061   4.095   1.152   2.555 -0.2202  0.3672 -0.6612
25540SOL    HW278062   4.055   1.287   2.610  0.0646 -0.2948  1.2169
25541SOL     OW78063   6.662   3.282   6.632  0.1577 -0.4403  0.1917
25541SOL    HW178064   6.618   3.198   6.622  0.8669 -0.6724 -1.4244
25541SOL    HW278065   6.630   3.317   6.714 -0.7070 -1.9632  0.5377
25542SOL     OW78066   4.191   6.267   1.415 -0.0779  0.1113  0.2774
25542SOL    HW178067   4.105   6.245   1.379  0.5435 -2.5581  0.1772
25542SOL    HW278068   4.227   6.331   1.354 -2.1019  1.5860  0.5369
25543SOL     OW78069   7.220   5.965   7.830 -0.1618 -0.3199 -0.4705
25543SOL    HW178070   7.158   6.034   7.807  0.0305 -0.3612 -1.1335
25543SOL    HW278071   7.284   5.966   7.759  0.2630 -0.6759 -0.0944
25544SOL     OW78072   5.697   1.674  12.025 -0.0518 -0.4197  0.2528
25544SOL    HW178073   5.718   1.726  12.103 -0.4336  0.0420  0.0577
25544SOL    HW278074   5.634   1.728  11.978 -0.4139 -1.0490  0.0149
25545SOL     OW78075   6.362   0.871  10.503 -0.3186  0.0278 -0.6892
25545SOL    HW178076   6.456   0.891  10.503 -0.4154  0.5152 -0.1890
25545SOL    HW278077   6.320   0.954  10.525 -0.7119 -0.7469  1.8107
25546SOL     OW78078   7.803   3.164   3.291 -0.1101  0.1564 -0.5144
25546SOL    HW178079   7.785   3.080   3.250  0.5117 -0.5964  0.6933
25546SOL    HW278080   7.752   3.163   3.372 -0.3213  1.0760 -0.6206
25547SOL     OW78081   1.709   7.696   9.006  0.2356  0.2623  0.0713
25547SOL    HW178082   1.802   7.683   8.989  0.1302 -1.0860  0.3376
25547SOL    HW278083   1.674   7.734   8.926  1.2361  2.0461  0.4415
25548SOL     OW78084   5.485   4.065   6.556 -0.9061  0.0881  0.7494
25548SOL    HW178085   5.452   4.136   6.611 -0.8642  1.3304 -0.7683
25548SOL    HW278086   5.407   4.013   6.535 -1.2171  0.6581  0.4922
25549SOL     OW78087   6.961   1.830   8.290 -0.2546 -0.1324  0.5584
25549SOL    HW178088   6.970   1.783   8.207  1.6996  0.4718  0.3822
25549SOL    HW278089   6.873   1.809   8.320 -0.2927 -1.9617 -0.6814
25550SOL     OW78090   7.567   4.178   7.986  0.6857 -0.7875 -0.2924
25550SOL    HW178091   7.496   4.142   7.932 -0.6091 -1.4481  1.7495
25550SOL    HW278092   7.565   4.127   8.066  1.2627  1.3956  1.2114
25551SOL     OW78093   3.154   4.072   7.521 -0.1151 -0.1493 -0.1180
25551SOL    HW178094   3.134   4.106   7.608 -2.5831  0.7745 -0.9670
25551SOL    HW278095   3.194   3.986   7.538  2.1813  1.1729  1.9315
25552SOL     OW78096   5.449   5.518   6.886 -0.0630  0.0220  0.1876
25552SOL    HW178097   5.544   5.506   6.888 -0.1361 -1.1603 -1.4262
25552SOL    HW278098   5.434   5.578   6.813 -0.6789 -1.8602 -1.3149
25553SOL     OW78099   0.728   1.106   2.597 -0.4893 -0.2917  0.1322
25553SOL    HW178100   0.685   1.021   2.606  0.5805 -0.6678  2.1274
25553SOL    HW278101   0.814   1.085   2.560 -0.5617  0.0319 -0.2207
25554SOL     OW78102   6.460   0.974   3.396 -0.1573  0.2387  0.7193
25554SOL    HW178103   6.388   0.935   3.446  0.9493 -0.3343  1.9322
25554SOL    HW278104   6.537   0.962   3.452  0.7613  1.4840 -0.2241
25555SOL     OW78105   1.432   2.849  10.287 -0.1218  0.2026 -0.3358
25555SOL    HW178106   1.350   2.890  10.260  1.0013  0.9288 -2.9573
25555SOL    HW278107   1.484   2.920  10.325  0.7983  0.7341 -2.4432
25556SOL     OW78108   3.486   7.842  11.721  0.3535  0.5260 -0.6728
25556SOL    HW178109   3.437   7.902  11.664  2.0943  1.8252 -0.8777
25556SOL    HW278110   3.523   7.777  11.661  2.1718  1.8849 -1.1152
25557SOL     OW78111   6.064   4.039   8.618 -0.5982  0.1088  0.1142
25557SOL    HW178112   6.135   3.988   8.657 -1.1197 -0.2643  0.5790
25557SOL    HW278113   5.997   3.975   8.595 -1.0390  0.5186  0.2296
25558SOL     OW78114   3.257   3.334   1.955 -0.3010  0.0153 -0.1844
25558SOL    HW178115   3.204   3.269   1.909 -1.0295  1.4438 -1.4912
25558SOL    HW278116   3.209   3.353   2.035 -1.7743  1.1820 -1.2813
25559SOL     OW78117   2.088   0.627  10.704  0.1160 -0.2607 -0.0292
25559SOL    HW178118   2.103   0.618  10.610  0.5007  1.7202 -0.1997
25559SOL    HW278119   2.021   0.695  10.711  0.6025  0.1209  1.1374
25560SOL     OW78120   5.634   0.338  10.459  0.4014  0.5754 -0.0414
25560SOL    HW178121   5.645   0.244  10.447  2.3034  0.8022 -0.3238
25560SOL    HW278122   5.539   0.352  10.452  0.1779 -1.1607 -0.9796
25561SOL     OW78123   6.254   6.837  12.214  0.4057 -0.2067 -0.4139
25561SOL    HW178124   6.305   6.858  12.292 -1.8052  0.0672  1.0617
25561SOL    HW278125   6.266   6.743  12.201 -1.4628 -0.8909  2.0993
25562SOL     OW78126   7.419   4.995  11.323  0.3015  0.0829 -1.3071
25562SOL    HW178127   7.343   4.940  11.343  2.1317 -1.5470  1.8930
25562SOL    HW278128   7.476   4.939  11.271  0.0019  0.8252 -2.4879
25563SOL     OW78129   1.634   2.082  12.307  0.2452  0.1185 -0.1108
25563SOL    HW178130   1.539   2.080  12.291  0.5398 -0.2422 -2.1209
25563SOL    HW278131   1.647   2.160  12.361 -1.4354 -1.2383  2.4478
25564SOL     OW78132   4.975   7.832  10.501 -0.6023  0.0400 -0.1273
25564SOL    HW178133   4.951   7.789  10.582 -1.6453  0.6276 -0.1141
25564SOL    HW278134   4.946   7.772  10.432 -0.6889  0.0317 -0.0832
25565SOL     OW78135   6.213   7.529   7.128  0.9013  0.0175 -0.0032
25565SOL    HW178136   6.282   7.506   7.191  0.3404 -0.3987  0.4678
25565SOL    HW278137   6.218   7.624   7.121  0.3068  0.1703  1.4556
25566SOL     OW78138   4.116   2.300   4.923  0.4074 -0.0533  0.2710
25566SOL    HW178139   4.185   2.309   4.856  0.6856  0.7316  0.6499
25566SOL    HW278140   4.115   2.385   4.968 -0.9755  0.0361  0.1188
25567SOL     OW78141   5.700   5.265   2.484 -0.3395  0.2816  0.1725
25567SOL    HW178142   5.764   5.246   2.415 -0.2461 -0.8405  0.5369
25567SOL    HW278143   5.619   5.227   2.452 -0.1230 -0.9112  0.9815
25568SOL     OW78144   0.618   4.571  11.190 -0.5688  0.1145  0.0113
25568SOL    HW178145   0.563   4.602  11.119 -3.0095  1.8085  2.4454
25568SOL    HW278146   0.663   4.650  11.222  1.2359 -0.7789 -0.1883
25569SOL     OW78147   5.655   6.064   0.188  0.1269 -0.2896 -0.4548
25569SOL    HW178148   5.562   6.056   0.168  0.0863  2.0755 -1.6208
25569SOL    HW278149   5.693   5.981   0.160 -1.4627 -0.8389 -1.1077
25570SOL     OW78150   6.051   3.025   5.094 -0.5578 -0.4341 -0.0205
25570SOL    HW178151   6.133   3.050   5.137 -0.8881 -0.3447  0.5753
25570SOL    HW278152   5.984   3.036   5.162 -1.0350 -0.7032 -0.4374
25571SOL     OW78153   3.582   4.756   0.816  0.3079  0.4951  0.3249
25571SOL    HW178154   3.632   4.678   0.794  0.1025  0.5847 -0.4792
25571SOL    HW278155   3.491   4.726   0.819  0.1702  0.7986 -0.5090
25572SOL     OW78156   0.162   3.744  11.504 -0.0574  0.3067 -0.4977
25572SOL    HW178157   0.224   3.685  11.547 -0.2725  1.4170  1.4791
25572SOL    HW278158   0.112   3.688  11.445  0.9535 -1.1382 -0.0346
25573SOL     OW78159   6.512   4.689   7.281  0.4444 -0.1470  0.8228
25573SOL    HW178160   6.480   4.641   7.358  1.9355 -0.7130  1.1120
25573SOL    HW278161   6.560   4.624   7.230  1.1404  0.6839  0.3985
25574SOL     OW78162   3.657   1.891   6.033  0.0253  0.2493 -0.1962
25574SOL    HW178163   3.661   1.986   6.043  1.2250 -0.0089  2.6221
25574SOL    HW278164   3.572   1.867   6.069 -1.3840  0.3714 -3.1717
25575SOL     OW78165   2.129   5.490   8.203  0.5685  0.1176  0.1202
25575SOL    HW178166   2.154   5.399   8.192  1.0891  0.3782 -0.9658
25575SOL    HW278167   2.056   5.488   8.265  0.3297 -1.0606 -0.1818
25576SOL     OW78168   2.846   7.115  12.292 -0.0233  0.6134  0.3390
25576SOL    HW178169   2.906   7.070  12.351 -0.6311  1.1123  1.3622
25576SOL    HW278170   2.903   7.154  12.225  1.1593  3.2551  2.6806
25577SOL     OW78171   1.787   3.989   8.911  0.1039  0.0457 -0.0730
25577SOL    HW178172   1.806   4.077   8.879 -1.5257 -0.4492 -2.6900
25577SOL    HW278173   1.763   4.002   9.003 -0.3643  2.4009 -0.4584
25578SOL     OW78174   7.952   5.531   9.667 -0.3602  0.2044  0.0276
25578SOL    HW178175   7.966   5.474   9.591  0.6107 -0.0827  0.4036
25578SOL    HW278176   7.953   5.472   9.742  2.5383  0.8382  0.6066
25579SOL     OW78177   1.672   7.619   7.150 -0.5056 -0.0227  0.3843
25579SOL    HW178178   1.688   7.665   7.232 -0.4736 -0.3257  0.5508
25579SOL    HW278179   1.699   7.680   7.082 -0.5178  0.2247  0.6014
25580SOL     OW78180   0.165   7.570   2.840 -0.2708  0.4377 -0.1659
25580SOL    HW178181   0.169   7.663   2.819  0.1151  0.5833  0.5011
25580SOL    HW278182   0.256   7.542   2.842 -0.3477  0.2069  0.3007
25581SOL     OW78183   6.765   3.515   8.656  0.1466  0.1123  0.3313
25581SOL    HW178184   6.765   3.610   8.645  0.2302 -0.0976 -1.9614
25581SOL    HW278185   6.838   3.497   8.716  0.0100  1.4758  0.9303
25582SOL     OW78186   2.890   0.636  11.902  0.1868  0.1099  0.8112
25582SOL    HW178187   2.892   0.729  11.924  0.0861  0.3425 -0.1223
25582SOL    HW278188   2.920   0.632  11.811 -0.5581 -0.6871  0.5858
25583SOL     OW78189   7.888   4.642   1.331 -0.2442  0.0114  0.2684
25583SOL    HW178190   7.880   4.734   1.356  2.3351 -0.1655  2.1926
25583SOL    HW278191   7.820   4.629   1.264 -2.0549  2.7367  1.4048
25584SOL     OW78192   7.573   3.019  11.233  0.4947  0.1136  0.4122
25584SOL    HW178193   7.631   3.075  11.181  0.2013 -0.6317 -0.7725
25584SOL    HW278194   7.485   3.035  11.197  0.5064 -1.7044 -0.5816
25585SOL     OW78195   4.661   1.623  10.968  0.1173  0.2699 -0.1876
25585SOL    HW178196   4.617   1.607  11.052  1.6794  1.1008  0.8452
25585SOL    HW278197   4.718   1.698  10.986  0.2558  0.6605 -2.1010
25586SOL     OW78198   5.074   0.629   3.963  0.1739 -0.3611 -0.0705
25586SOL    HW178199   5.163   0.628   3.998 -0.2473 -2.3049  1.0891
25586SOL    HW278200   5.061   0.719   3.933  2.1486  0.2320  0.6943
25587SOL     OW78201   6.439   0.674  11.282  0.4441 -0.5646 -0.5534
25587SOL    HW178202   6.525   0.698  11.315 -0.6452  0.7542  1.5823
25587SOL    HW278203   6.403   0.755  11.245 -0.7941 -0.4316  0.8508
25588SOL     OW78204   1.998   0.461  11.148  0.0342  0.0620 -0.5741
25588SOL    HW178205   1.970   0.530  11.208  3.1077  0.9228  0.0811
25588SOL    HW278206   2.012   0.384  11.204 -1.3007 -0.4926 -0.9602
25589SOL     OW78207   7.213   4.092   0.187 -0.5384 -0.2992  0.0609
25589SOL    HW178208   7.131   4.043   0.181 -0.3882 -0.4782 -0.5668
25589SOL    HW278209   7.185   4.182   0.203 -0.8012 -0.6376  1.7475
25590SOL     OW78210   1.686   5.366   2.996  0.0248 -0.7813 -0.9122
25590SOL    HW178211   1.727   5.346   3.080 -1.7828 -0.2277  0.1459
25590SOL    HW278212   1.681   5.461   2.992 -1.7305 -0.8180 -0.6626
25591SOL     OW78213   2.971   4.756   0.610  0.0883 -0.2530  0.5071
25591SOL    HW178214   2.958   4.697   0.536 -0.2114 -0.0540  0.3982
25591SOL    HW278215   2.883   4.790   0.630  0.3187  0.5162  0.2699
25592SOL     OW78216   4.764   6.137   9.603  0.5414  0.2448  0.0173
25592SOL    HW178217   4.849   6.153   9.643  0.1460 -2.9205  2.6090
25592SOL    HW278218   4.710   6.212   9.630  1.0176 -0.5017  3.5835
25593SOL     OW78219   6.919   3.199   6.537  0.5020  0.3041  0.3275
25593SOL    HW178220   6.883   3.145   6.467 -0.7985  2.2068 -0.5754
25593SOL    HW278221   6.847   3.207   6.600  1.6139 -1.2856  1.8949
25594SOL     OW78222   1.994   0.836   5.272 -0.0101  0.5786 -0.4131
25594SOL    HW178223   2.070   0.787   5.239  0.2468  1.4404 -1.1421
25594SOL    HW278224   1.921   0.774   5.268  0.0527  0.5798 -2.4716
25595SOL     OW78225   7.208   6.245   0.555 -0.0388 -0.5645  0.1577
25595SOL    HW178226   7.254   6.322   0.521  0.5398 -0.3965  1.2503
25595SOL    HW278227   7.116   6.268   0.551 -0.0761 -0.8832 -2.0308
25596SOL     OW78228   5.386   0.077  12.426 -0.6912  0.1500 -0.9236
25596SOL    HW178229   5.384   0.135  12.350 -0.3560  1.6259  0.1674
25596SOL    HW278230   5.325   0.007  12.403  0.5930 -0.3282 -3.2187
25597SOL     OW78231   2.870   7.864  10.023 -0.6464  0.1881 -0.3538
25597SOL    HW178232   2.817   7.789   9.995 -1.1043  0.8921 -1.4701
25597SOL    HW278233   2.807   7.933  10.042 -0.2688  0.0615  1.4699
25598SOL     OW78234   3.786   1.396   5.432 -0.1250 -0.0674 -0.4438
25598SOL    HW178235   3.743   1.312   5.426 -0.8227  0.3421 -1.2808
25598SOL    HW278236   3.744   1.439   5.507  0.3100 -0.4918  0.0543
25599SOL     OW78237   1.202   4.122   0.661  0.4960 -0.5644  0.3362
25599SOL    HW178238   1.124   4.128   0.605  0.6288 -2.1552 -0.0801
25599SOL    HW278239   1.244   4.040   0.634  2.0511  0.0102  0.8976
25600SOL     OW78240   0.812   0.601  10.219 -0.2133 -0.0800  0.5883
25600SOL    HW178241   0.723   0.572  10.236 -0.4882 -0.2777 -1.0660
25600SOL    HW278242   0.802   0.687  10.179  0.3741  0.1696  0.9608
25601SOL     OW78243   6.551   7.124   6.881  0.7597 -0.1827 -0.2961
25601SOL    HW178244   6.581   7.211   6.905  2.7386 -0.5996 -1.0690
25601SOL    HW278245   6.513   7.088   6.961  3.3238  0.0305  1.1235
25602SOL     OW78246   5.309   1.393  11.108 -0.5435 -0.7843 -0.3403
25602SOL    HW178247   5.301   1.329  11.037  0.1751 -1.8394  0.5033
25602SOL    HW278248   5.402   1.395  11.129 -0.7204 -0.3550  0.4529
25603SOL     OW78249   2.344   3.443  12.289 -0.1326  0.0186 -0.0206
25603SOL    HW178250   2.390   3.455  12.207 -1.3641  0.6624 -0.6522
25603SOL    HW278251   2.305   3.529  12.307 -0.3927 -0.2776  0.9131
25604SOL     OW78252   3.141   2.595   3.846 -0.1243  0.4061  0.3334
25604SOL    HW178253   3.237   2.592   3.841 -0.0636 -0.1985  1.5001
25604SOL    HW278254   3.112   2.596   3.754  0.9866  0.3533 -0.0332
25605SOL     OW78255   4.460   6.313   8.986 -0.4118 -0.5899  0.2878
25605SOL    HW178256   4.507   6.234   9.014 -0.8242 -0.6864  0.7272
25605SOL    HW278257   4.453   6.366   9.066  0.8785  0.4253 -0.2525
25606SOL     OW78258   5.673   4.478   0.919  0.0632  0.3508  0.2425
25606SOL    HW178259   5.618   4.405   0.949  0.4090  0.6086  1.5875
25606SOL    HW278260   5.619   4.524   0.854 -0.3081 -0.8617 -0.3358
25607SOL     OW78261   7.864   1.418   5.107  0.4219 -0.4082  0.2389
25607SOL    HW178262   7.938   1.369   5.071 -0.0930 -1.0486  0.0349
25607SOL    HW278263   7.802   1.423   5.035  0.7023  1.0614  0.0771
25608SOL     OW78264   5.552   1.409   1.246  0.3641 -0.3488 -0.4839
25608SOL    HW178265   5.633   1.358   1.250  0.1766 -0.5551  1.2554
25608SOL    HW278266   5.543   1.446   1.334  0.8271  3.2399 -1.7769
25609SOL     OW78267   6.071   6.069   6.120  0.5454 -0.2720 -0.3775
25609SOL    HW178268   6.085   6.045   6.028 -2.2347  0.2252 -1.0307
25609SOL    HW278269   6.077   6.165   6.121 -1.3962 -0.1143 -0.5017
25610SOL     OW78270   4.305   0.430   9.845 -0.4564  0.0597  0.3982
25610SOL    HW178271   4.240   0.459   9.909  1.4148  0.8971  1.9993
25610SOL    HW278272   4.329   0.342   9.875 -1.2806 -0.5162 -0.5736
25611SOL     OW78273   6.312   0.462   0.706  0.0421  0.3126 -0.0408
25611SOL    HW178274   6.260   0.535   0.672 -0.0594  1.3474  2.1601
25611SOL    HW278275   6.321   0.402   0.632 -1.2211  1.8072 -1.4749
25612SOL     OW78276   2.879   6.236   9.240  0.0064  0.7351 -0.3320
25612SOL    HW178277   2.793   6.280   9.244 -0.5159 -0.2173 -0.8102
25612SOL    HW278278   2.942   6.307   9.252 -0.8599  1.3052  1.0733
25613SOL     OW78279   1.655   5.585   2.587 -0.0799 -0.1048 -1.0092
25613SOL    HW178280   1.593   5.654   2.559  0.8732  1.4861  0.6198
25613SOL    HW278281   1.734   5.633   2.613  0.3767 -1.7514  0.8589
25614SOL     OW78282   1.401   0.894   7.775 -0.0117 -0.1775 -0.9753
25614SOL    HW178283   1.497   0.898   7.770  0.1056  0.6640  0.9988
25614SOL    HW278284   1.371   0.973   7.730  0.2957  0.2957 -0.3595
25615SOL     OW78285   4.850   0.127   5.840 -0.5278  0.1306  0.7756
25615SOL    HW178286   4.903   0.056   5.877 -2.2536 -0.9723  1.2690
25615SOL    HW278287   4.852   0.112   5.745 -0.4246 -0.2434  0.8367
25616SOL     OW78288   6.573   1.450  10.511 -0.0140 -0.0444  0.0723
25616SOL    HW178289   6.623   1.421  10.435 -0.4657  0.0257 -0.2526
25616SOL    HW278290   6.482   1.430  10.489 -0.1937  0.4135  0.3975
25617SOL     OW78291   0.696   5.555   8.078 -0.5207  0.1319  0.4052
25617SOL    HW178292   0.683   5.644   8.110 -0.1599  0.0619  0.7590
25617SOL    HW278293   0.775   5.561   8.024 -1.6768  0.4641 -1.3441
25618SOL     OW78294   1.497   5.900  11.678 -0.0470  0.0767  0.3481
25618SOL    HW178295   1.540   5.827  11.633  1.5725  1.2727 -0.1236
25618SOL    HW278296   1.426   5.859  11.726 -0.6536 -1.5235 -1.7391
25619SOL     OW78297   2.829   3.954   5.956 -0.4392  0.5602  0.1247
25619SOL    HW178298   2.857   3.981   6.043  0.1563  2.1197 -0.4996
25619SOL    HW278299   2.741   3.920   5.968  0.0390 -0.2834  1.4861
25620SOL     OW78300   5.986   1.078  10.784 -0.6134 -0.2366  0.1103
25620SOL    HW178301   5.899   1.095  10.820 -0.7411  1.1967 -0.8362
25620SOL    HW278302   6.045   1.087  10.859 -1.1143  0.3976  0.4337
25621SOL     OW78303   0.901   3.225   0.203 -0.0454 -0.1014 -0.0782
25621SOL    HW178304   0.983   3.192   0.241  1.0472  1.6535 -0.8154
25621SOL    HW278305   0.919   3.317   0.183 -1.3814 -0.2932 -2.5483
25622SOL     OW78306   1.067   6.291   2.418  0.3287  0.4550  0.1985
25622SOL    HW178307   1.007   6.217   2.431  1.7490 -1.1735 -1.8255
25622SOL    HW278308   1.040   6.331   2.336  2.4104 -0.8789 -1.2520
25623SOL     OW78309   0.384   2.184   0.753  0.0143 -0.5455  0.2415
25623SOL    HW178310   0.476   2.210   0.751  0.1862 -1.1002 -2.3794
25623SOL    HW278311   0.335   2.267   0.753  0.5265 -0.2392 -0.0761
25624SOL     OW78312   2.285   5.055   5.429 -0.2107  0.1860  0.1955
25624SOL    HW178313   2.256   5.032   5.517  0.2852 -1.7013 -0.0864
25624SOL    HW278314   2.240   4.993   5.371  0.6151  0.3985 -0.7178
25625SOL     OW78315   1.777   0.957   3.171 -0.5497 -0.0569  0.4718
25625SOL    HW178316   1.826   1.011   3.109 -0.9332 -0.5183 -0.2500
25625SOL    HW278317   1.810   0.983   3.257  0.2654  0.3262  0.0550
25626SOL     OW78318   3.789   5.341   3.169 -0.6578  0.1881 -0.4076
25626SOL    HW178319   3.837   5.270   3.213 -2.2541 -0.4707  0.3722
25626SOL    HW278320   3.853   5.410   3.158  1.3399 -1.7884 -2.3194
25627SOL     OW78321   0.698   1.137   9.105 -1.0242  0.3252  0.1474
25627SOL    HW178322   0.750   1.207   9.146  0.1127  0.4126 -1.3483
25627SOL    HW278323   0.653   1.181   9.033  1.5399 -0.7995 -2.3278
25628SOL     OW78324   7.610   2.271   5.073  0.0073 -0.2753 -0.2813
25628SOL    HW178325   7.604   2.258   5.168 -0.3572 -0.5424 -0.3386
25628SOL    HW278326   7.561   2.198   5.036  0.1620 -0.1808 -0.6792
25629SOL     OW78327   3.265   5.492  10.050  0.3566 -0.1660  0.0175
25629SOL    HW178328   3.236   5.431  10.118  0.1833  0.1574  0.2339
25629SOL    HW278329   3.360   5.478  10.044  0.5778  0.6292  1.1600
25630SOL     OW78330   4.361   7.228   6.418 -0.0446 -0.0666 -0.0457
25630SOL    HW178331   4.372   7.283   6.341  0.1706 -0.0671 -0.0152
25630SOL    HW278332   4.279   7.180   6.401  1.4375 -2.2356 -1.6434
25631SOL     OW78333   5.706   5.472   2.660 -0.1971 -0.1560  0.1189
25631SOL    HW178334   5.613   5.481   2.641 -0.0227  0.1606 -0.6516
25631SOL    HW278335   5.735   5.400   2.604 -0.2306 -1.1449  1.3257
25632SOL     OW78336   2.570   3.975  11.337  0.6996 -0.2946 -0.4416
25632SOL    HW178337   2.550   3.895  11.290 -0.6203  0.1380 -0.6398
25632SOL    HW278338   2.612   4.031  11.272 -1.3299  0.3938 -1.2236
25633SOL     OW78339   1.988   6.301   7.082 -0.1570  0.4879  0.1298
25633SOL    HW178340   1.990   6.389   7.043  1.1679  0.9145  1.0991
25633SOL    HW278341   1.921   6.307   7.150 -0.0246  0.7713  0.2378
25634SOL     OW78342   7.866   7.746   1.889  0.0141 -0.2072  0.7445
25634SOL    HW178343   7.822   7.663   1.908 -0.9709 -0.2946 -1.6125
25634SOL    HW278344   7.958   7.723   1.881 -0.1929 -1.0032  0.5595
25635SOL     OW78345   7.495   1.629   6.656  0.0958  0.2789 -0.0436
25635SOL    HW178346   7.439   1.668   6.723 -0.6208 -2.3573  1.0309
25635SOL    HW278347   7.578   1.613   6.700  0.6273  1.1647 -0.6827
25636SOL     OW78348   0.346   7.366   1.726  0.1625 -0.0160  0.0657
25636SOL    HW178349   0.324   7.448   1.682  0.1882 -0.2869 -0.4609
25636SOL    HW278350   0.301   7.371   1.811 -0.9076 -0.0118 -0.4847
25637SOL     OW78351   6.364   5.886   1.581 -0.3407 -0.2797  0.2209
25637SOL    HW178352   6.340   5.795   1.563  0.4466 -0.6343  0.9323
25637SOL    HW278353   6.415   5.882   1.662  0.0910  0.7469  0.0072
25638SOL     OW78354   1.804   7.393  12.020  0.0443 -0.0930 -0.0403
25638SOL    HW178355   1.719   7.436  12.024  0.5232  0.8304  2.5034
25638SOL    HW278356   1.843   7.424  11.938 -0.7870  2.1241  0.3221
25639SOL     OW78357   6.307   7.768   2.732  0.1493 -0.5023  0.2427
25639SOL    HW178358   6.292   7.674   2.741  1.4943 -0.7529  0.0121
25639SOL    HW278359   6.278   7.805   2.815 -1.2886 -0.9778 -0.0073
25640SOL     OW78360   4.564   4.231   5.763 -0.0522  0.1072 -0.0460
25640SOL    HW178361   4.524   4.255   5.679 -0.8555  0.6597  0.4795
25640SOL    HW278362   4.633   4.169   5.740 -0.4191  0.0689 -1.0960
25641SOL     OW78363   2.750   6.312   5.241  0.3016 -0.5352 -0.0208
25641SOL    HW178364   2.793   6.353   5.316 -2.3262 -0.0178  1.2956
25641SOL    HW278365   2.706   6.384   5.196  0.2662 -1.1362 -0.9775
25642SOL     OW78366   4.237   6.821   6.797  0.0118 -0.3445 -0.1103
25642SOL    HW178367   4.227   6.844   6.890  0.3835 -0.7948  0.0401
25642SOL    HW278368   4.162   6.766   6.778  1.0227 -1.9971  0.4800
25643SOL     OW78369   1.867   2.177   7.375  0.2604 -0.3967 -0.5538
25643SOL    HW178370   1.864   2.085   7.401  1.3036 -0.2913 -0.0000
25643SOL    HW278371   1.818   2.223   7.444  0.5440 -0.4384 -0.3232
25644SOL     OW78372   5.957   5.516   5.672 -0.2438  0.1037 -0.6889
25644SOL    HW178373   5.990   5.498   5.584  2.1024  0.3084  0.0740
25644SOL    HW278374   5.929   5.608   5.669 -0.7873 -0.0738 -1.3627
25645SOL     OW78375   6.575   7.288   8.450 -0.3598 -0.0587 -0.5076
25645SOL    HW178376   6.647   7.228   8.433  0.1933 -0.5143  2.7805
25645SOL    HW278377   6.496   7.234   8.445 -0.0590 -0.5697  0.2073
25646SOL     OW78378   1.516   6.587   7.693  0.2077  0.1444 -0.3162
25646SOL    HW178379   1.461   6.657   7.659 -0.1158 -0.6130 -1.4102
25646SOL    HW278380   1.479   6.568   7.780 -0.9148  0.0330 -0.8004
25647SOL     OW78381   6.690   4.213   9.450  0.1438 -0.2543 -0.1635
25647SOL    HW178382   6.687   4.304   9.479 -1.2609 -0.5791  0.8308
25647SOL    HW278383   6.647   4.214   9.364 -2.8402 -0.3669  1.1876
25648SOL     OW78384   6.001   3.576   7.444  0.4499 -0.5575  0.0394
25648SOL    HW178385   5.943   3.616   7.508  0.1954 -1.2578  0.2568
25648SOL    HW278386   5.963   3.489   7.428  1.9746 -1.4481  0.9535
25649SOL     OW78387   0.351   3.274  11.061  0.3289 -0.4674  0.5465
25649SOL    HW178388   0.345   3.369  11.073 -0.1327 -0.5955  1.4364
25649SOL    HW278389   0.303   3.238  11.136 -0.2023 -1.3991 -0.2314
25650SOL     OW78390   7.613   6.852   1.189 -0.7921  0.1067  0.3426
25650SOL    HW178391   7.611   6.756   1.186 -1.1200  0.0739  1.3906
25650SOL    HW278392   7.565   6.879   1.111 -0.6592 -0.5747  0.0141
25651SOL     OW78393   0.256   6.498  11.965  0.7744  0.1283 -0.3370
25651SOL    HW178394   0.205   6.575  11.939 -0.3595 -0.2660  0.6260
25651SOL    HW278395   0.267   6.508  12.060  2.5865  0.2350 -0.5374
25652SOL     OW78396   2.189   3.157  10.649  0.0245 -0.3229  0.6876
25652SOL    HW178397   2.246   3.158  10.572  0.1308 -0.4772  0.7629
25652SOL    HW278398   2.110   3.203  10.621  0.1349 -0.2183  0.5432
25653SOL     OW78399   1.576   3.847  10.444  0.0674  0.6633  0.3403
25653SOL    HW178400   1.508   3.886  10.498 -0.0037  1.3275 -0.2124
25653SOL    HW278401   1.534   3.834  10.359  0.8674  1.8753 -0.2605
25654SOL     OW78402   3.084   6.741   2.183 -0.4504  0.1211 -0.4213
25654SOL    HW178403   3.049   6.782   2.104 -1.5868  0.4463  0.2238
25654SOL    HW278404   3.094   6.813   2.245 -2.2816 -0.4840  0.6572
25655SOL     OW78405   7.264   3.241   6.279 -0.3170 -0.7932  0.0233
25655SOL    HW178406   7.336   3.259   6.340 -1.6951 -1.4633  1.9502
25655SOL    HW278407   7.272   3.147   6.260 -1.4372 -1.1858  1.3469
25656SOL     OW78408   7.156   5.395   5.409  0.1455  0.4463  0.4111
25656SOL    HW178409   7.113   5.311   5.427  0.0368  0.7975  1.8949
25656SOL    HW278410   7.168   5.395   5.314 -1.8361 -0.2857  0.1055
25657SOL     OW78411   2.187   7.247   6.750 -0.4234 -0.0136 -0.2591
25657SOL    HW178412   2.113   7.250   6.809 -0.0680  2.1094  0.1364
25657SOL    HW278413   2.206   7.153   6.740 -1.0574 -0.4624  2.2323
25658SOL     OW78414   6.627   1.384   0.202 -0.3741 -0.3523  0.7778
25658SOL    HW178415   6.677   1.339   0.271  2.7288 -1.2793 -1.8398
25658SOL    HW278416   6.680   1.461   0.180 -0.2023 -1.1405 -1.8594
25659SOL     OW78417   2.099   1.595   5.721 -0.1576 -0.0974 -0.1132
25659SOL    HW178418   2.007   1.595   5.693 -0.3499 -0.7797  0.4802
25659SOL    HW278419   2.097   1.554   5.807  0.6095  0.6265  0.2577
25660SOL     OW78420   4.286   0.579   5.183  0.2992 -0.4634 -0.1373
25660SOL    HW178421   4.218   0.556   5.120 -0.0776  0.3114 -0.0346
25660SOL    HW278422   4.251   0.551   5.267 -0.2057  0.5380  0.0011
25661SOL     OW78423   2.749   7.847  12.426  0.0281  0.4755  0.3172
25661SOL    HW178424   2.727   7.847  12.333 -1.5015 -0.8814  0.6280
25661SOL    HW278425   2.743   7.755  12.452  0.5522  0.8134  1.7380
25662SOL     OW78426   0.127   4.576  10.650 -0.1594 -0.4806 -0.6792
25662SOL    HW178427   0.085   4.651  10.607  0.6219 -1.0355 -2.5354
25662SOL    HW278428   0.121   4.595  10.744  0.5033  2.1869 -1.0887
25663SOL     OW78429   7.590   7.915  12.050 -0.5797 -0.3286  0.0426
25663SOL    HW178430   7.562   7.829  12.081 -0.9098 -0.3536 -0.3184
25663SOL    HW278431   7.518   7.945  11.994 -0.3343  0.0501 -0.0736
25664SOL     OW78432   4.645   0.928   3.331 -0.2324 -0.2575 -0.0121
25664SOL    HW178433   4.629   0.837   3.353  1.8826 -0.4572  1.0236
25664SOL    HW278434   4.668   0.969   3.415  1.2841  0.6112 -0.8034
25665SOL     OW78435   5.369   0.254   3.252 -0.3171 -0.3634  0.2393
25665SOL    HW178436   5.357   0.220   3.340 -2.6051 -1.8347 -0.5559
25665SOL    HW278437   5.299   0.319   3.241  1.4010  1.5910  0.2593
25666SOL     OW78438   0.409   2.485   5.096 -0.0710 -0.5127  0.6803
25666SOL    HW178439   0.401   2.575   5.126 -0.7136 -0.3055 -0.0881
25666SOL    HW278440   0.369   2.433   5.166 -0.9472 -0.0898  0.5025
25667SOL     OW78441   3.678   4.529   9.484 -0.7920 -0.6376  0.2648
25667SOL    HW178442   3.596   4.483   9.504 -1.3071 -0.1338 -0.6254
25667SOL    HW278443   3.680   4.602   9.547 -1.6001  0.0056 -0.4362
25668SOL     OW78444   4.269   4.790   5.054 -0.0567  0.1466 -0.1233
25668SOL    HW178445   4.337   4.799   5.121  1.3495  2.7409 -1.7296
25668SOL    HW278446   4.279   4.700   5.022  2.5819  0.3692 -0.1718
25669SOL     OW78447   2.758   2.155   7.830  0.6937 -0.2595 -0.2002
25669SOL    HW178448   2.737   2.237   7.873  2.8978  0.8161 -1.0500
25669SOL    HW278449   2.727   2.167   7.740 -0.4261 -1.0142  0.0633
25670SOL     OW78450   7.092   2.933   3.283  0.4784  0.1497 -0.0072
25670SOL    HW178451   7.038   3.004   3.249  2.6689  1.5139 -0.8653
25670SOL    HW278452   7.120   2.963   3.369  0.7053 -0.0472 -0.0100
25671SOL     OW78453   3.707   1.350   0.442 -1.2249  0.2819 -0.7623
25671SOL    HW178454   3.724   1.427   0.497 -2.8316  0.4062 -0.4029
25671SOL    HW278455   3.754   1.369   0.360 -0.4595  1.0106 -0.1740
25672SOL     OW78456   3.250   0.199   7.084 -0.5010 -0.1110  0.2284
25672SOL    HW178457   3.320   0.191   7.019 -2.0865  1.0446 -1.7393
25672SOL    HW278458   3.252   0.291   7.111 -1.7381  0.1525 -0.4866
25673SOL     OW78459   3.285   5.026  11.302  0.1206 -0.1082 -0.0121
25673SOL    HW178460   3.280   5.106  11.250  1.4585  0.1720  0.2645
25673SOL    HW278461   3.289   5.056  11.392 -1.8688 -0.5850  0.2930
25674SOL     OW78462   4.391   6.643   7.252  0.0988 -0.8941 -0.5908
25674SOL    HW178463   4.451   6.570   7.268  1.4913 -0.1759 -2.2356
25674SOL    HW278464   4.426   6.715   7.304 -0.4992 -1.0084 -0.0181
25675SOL     OW78465   0.205   2.394   8.593 -0.1400  0.3821  0.5546
25675SOL    HW178466   0.154   2.373   8.671 -1.9186 -0.5580 -0.7895
25675SOL    HW278467   0.256   2.471   8.618 -0.8076  0.2201  2.5741
25676SOL     OW78468   5.232   2.688   5.673  0.7814 -0.6071  0.1608
25676SOL    HW178469   5.308   2.632   5.689  0.2904 -1.6356 -0.9625
25676SOL    HW278470   5.194   2.655   5.592 -0.2718  0.5614  0.1409
25677SOL     OW78471   4.140   6.909  11.154 -0.3180 -0.0386  0.0326
25677SOL    HW178472   4.168   6.837  11.210  3.4988  0.3143 -1.1358
25677SOL    HW278473   4.141   6.873  11.065 -1.5460  0.6612 -0.2963
25678SOL     OW78474   5.120   4.241   5.944  0.5193  0.1320  0.1153
25678SOL    HW178475   5.029   4.250   5.972  0.2268  0.6777 -0.9291
25678SOL    HW278476   5.124   4.156   5.902  0.6325 -0.1249  0.6402
25679SOL     OW78477   3.888   1.043   1.125  0.7073 -0.4054 -0.0926
25679SOL    HW178478   3.852   1.052   1.037 -1.1783  0.5193  0.7255
25679SOL    HW278479   3.960   1.106   1.128 -0.8654  1.4835 -0.2040
25680SOL     OW78480   4.732   5.063   0.761  0.1922  0.1832 -0.6651
25680SOL    HW178481   4.764   4.998   0.823 -0.0699 -1.1051 -1.8204
25680SOL    HW278482   4.811   5.092   0.715  0.3247  0.7886 -0.0674
25681SOL     OW78483   3.020   6.064   7.639  0.0189  0.2652 -0.1930
25681SOL    HW178484   2.929   6.036   7.653 -0.6880  2.3822 -0.2687
25681SOL    HW278485   3.013   6.156   7.615  2.0917  0.0307 -1.9717
25682SOL     OW78486   5.554   5.677   9.151  0.0762 -0.7176 -1.0943
25682SOL    HW178487   5.561   5.751   9.090 -1.8531  0.8879  0.5014
25682SOL    HW278488   5.603   5.705   9.229 -1.5202 -0.6319 -0.0840
25683SOL     OW78489   4.294   0.409   5.814 -0.3188 -0.3581  0.8176
25683SOL    HW178490   4.205   0.376   5.808 -0.4343 -0.1458  1.3215
25683SOL    HW278491   4.349   0.331   5.820 -0.3392 -0.5449 -0.8832
25684SOL     OW78492   1.671   6.908   7.393 -0.1861  0.2413  0.0197
25684SOL    HW178493   1.647   6.965   7.467 -0.9585  0.8130 -0.6555
25684SOL    HW278494   1.599   6.845   7.387 -0.1911  0.2796 -0.3273
25685SOL     OW78495   7.274   7.857   6.031  0.1296  0.1107  0.5449
25685SOL    HW178496   7.238   7.935   5.989 -0.2284 -0.0750  0.4963
25685SOL    HW278497   7.356   7.840   5.986 -1.1024 -1.1635 -1.4004
25686SOL     OW78498   4.811   2.463   1.586  0.5034  0.3877  0.0537
25686SOL    HW178499   4.856   2.418   1.514  0.6696 -0.0545  0.4280
25686SOL    HW278500   4.856   2.432   1.665 -1.5294 -1.4094  0.5975
25687SOL     OW78501   1.207   2.089   1.047 -0.2633 -0.0283 -0.1619
25687SOL    HW178502   1.136   2.059   1.103 -0.0661 -1.1133 -0.4561
25687SOL    HW278503   1.283   2.094   1.104 -0.0357 -1.2476 -0.3385
25688SOL     OW78504   2.266   7.516   1.493 -0.2576  0.2078 -0.0293
25688SOL    HW178505   2.239   7.593   1.544  0.2252  0.1286  0.3608
25688SOL    HW278506   2.296   7.454   1.559 -2.4132 -1.0863 -0.1716
25689SOL     OW78507   0.221   2.791   2.567 -0.0196 -0.0368  0.0549
25689SOL    HW178508   0.242   2.807   2.659 -2.5495 -0.0265  0.7074
25689SOL    HW278509   0.126   2.803   2.562  0.0961  0.3106 -2.6498
25690SOL     OW78510   5.122   6.416  12.302 -0.0807 -0.1131  0.2561
25690SOL    HW178511   5.154   6.368  12.226  1.0593 -0.1393  0.7255
25690SOL    HW278512   5.189   6.401  12.369 -0.7126  0.4856  1.0397
25691SOL     OW78513   7.257   5.993   6.659  0.4830 -0.3241  0.0540
25691SOL    HW178514   7.196   6.066   6.664  0.4931 -0.2716 -0.5467
25691SOL    HW278515   7.296   6.000   6.572 -0.5776 -1.8994 -0.5886
25692SOL     OW78516   3.363   0.553   4.772  0.2879 -0.1469  0.2725
25692SOL    HW178517   3.318   0.636   4.791 -0.7959 -0.7359  0.3624
25692SOL    HW278518   3.456   0.574   4.779  0.0401  1.1624 -0.1244
25693SOL     OW78519   6.227   3.906   4.384  0.0018  0.1023 -0.3873
25693SOL    HW178520   6.155   3.866   4.433 -0.7918 -0.1522 -1.7201
25693SOL    HW278521   6.185   3.945   4.307  1.1376  1.0080 -0.5810
25694SOL     OW78522   3.369   1.479   4.105  0.2331 -0.0954 -0.0600
25694SOL    HW178523   3.403   1.531   4.033 -0.4300 -0.1321 -0.4055
25694SOL    HW278524   3.337   1.543   4.168 -1.3365 -0.0584 -0.8458
25695SOL     OW78525   6.968   7.299   3.244 -0.4619 -0.4507 -0.5105
25695SOL    HW178526   7.035   7.319   3.178 -0.3439  0.0112 -0.2534
25695SOL    HW278527   7.008   7.324   3.327 -0.6298 -0.9891 -0.2686
25696SOL     OW78528   6.050   5.602   0.558  0.1490 -0.4367  0.9174
25696SOL    HW178529   6.051   5.613   0.653 -2.1183 -0.6162  1.0272
25696SOL    HW278530   6.001   5.521   0.544  0.8191 -0.6363 -0.4085
25697SOL     OW78531   4.795   6.679  11.844 -0.4944  0.1404 -0.1588
25697SOL    HW178532   4.882   6.719  11.851 -0.2216 -0.6227  1.1498
25697SOL    HW278533   4.737   6.740  11.889 -0.3870 -0.0574  0.2477
25698SOL     OW78534   7.061   7.129   6.497 -0.2316 -0.4403 -0.2527
25698SOL    HW178535   7.153   7.103   6.496 -0.2184 -0.7087  2.1835
25698SOL    HW278536   7.054   7.197   6.430  1.8481 -0.0269 -0.1057
25699SOL     OW78537   3.874   6.573   4.898  0.6118  0.1290 -1.1451
25699SOL    HW178538   3.936   6.526   4.842  1.4808  1.1408 -1.0626
25699SOL    HW278539   3.921   6.585   4.980 -0.3870 -0.6990 -0.4211
25700SOL     OW78540   7.877   4.468   7.076 -0.2460 -0.3428 -0.0203
25700SOL    HW178541   7.892   4.488   7.168 -1.2531  0.0004  0.0850
25700SOL    HW278542   7.936   4.395   7.057  1.4205  0.8352  0.3538
25701SOL     OW78543   5.207   0.882   0.368 -0.5297  0.2298 -0.0912
25701SOL    HW178544   5.163   0.871   0.452 -0.0109 -0.3819  0.1029
25701SOL    HW278545   5.135   0.886   0.304 -0.9410  1.1251  0.4158
25702SOL     OW78546   2.484   4.866   9.562  0.8452 -0.7720  0.0270
25702SOL    HW178547   2.577   4.842   9.559  1.3995  1.3389 -1.8454
25702SOL    HW278548   2.440   4.796   9.514  1.2970 -2.2006  1.5702
25703SOL     OW78549   1.656   3.011   7.401 -0.3892 -0.2042 -0.4123
25703SOL    HW178550   1.731   3.047   7.354 -1.2252  0.6803 -1.0985
25703SOL    HW278551   1.580   3.043   7.353 -1.2602  0.2894  1.2196
25704SOL     OW78552   6.388   0.362   1.504  0.1476  0.3644  0.1765
25704SOL    HW178553   6.412   0.332   1.415  0.9670  0.8112  0.2313
25704SOL    HW278554   6.295   0.342   1.512  0.2233 -0.3247 -0.5301
25705SOL     OW78555   4.669   4.641   4.097  0.0417  0.4891  0.3034
25705SOL    HW178556   4.625   4.698   4.161  1.6713  1.2512  0.8101
25705SOL    HW278557   4.759   4.636   4.129 -0.1266 -2.8643  0.5958
25706SOL     OW78558   6.616   6.783   8.558  0.3964 -0.1401  0.1953
25706SOL    HW178559   6.554   6.740   8.499  0.2531 -0.5193  0.6173
25706SOL    HW278560   6.608   6.876   8.537  0.5398 -0.2918 -0.5625
25707SOL     OW78561   5.801   4.696  10.905  0.3543 -0.3874 -0.0126
25707SOL    HW178562   5.756   4.622  10.946  2.0474 -3.0191 -2.4902
25707SOL    HW278563   5.731   4.747  10.864 -0.7287 -3.0883 -1.8402
25708SOL     OW78564   3.854   4.765   9.959 -0.2584 -0.7839  0.1261
25708SOL    HW178565   3.866   4.672   9.978  0.6980 -0.3579  1.8310
25708SOL    HW278566   3.939   4.795   9.930  0.3149  0.1304  2.4814
25709SOL     OW78567   3.803   6.686   9.739 -0.7152  0.1761 -0.2562
25709SOL    HW178568   3.708   6.674   9.736 -0.9446  1.7555 -0.1401
25709SOL    HW278569   3.825   6.678   9.832 -0.8226  0.3267 -0.2163
25710SOL     OW78570   1.412   3.708  10.240  0.5077 -0.0334 -0.1584
25710SOL    HW178571   1.388   3.658  10.319  2.8815  0.4451  0.9483
25710SOL    HW278572   1.470   3.650  10.192  0.0493  0.1588 -0.9553
25711SOL     OW78573   5.251   0.530   4.945 -0.3686 -0.4716 -0.2288
25711SOL    HW178574   5.273   0.619   4.972  1.2153 -0.8937 -0.0615
25711SOL    HW278575   5.157   0.523   4.961 -0.6124  1.3036 -0.6541
25712SOL     OW78576   1.373   0.461   2.479 -0.0191  0.0533 -0.2376
25712SOL    HW178577   1.376   0.556   2.472 -0.7808  0.1777  0.8390
25712SOL    HW278578   1.285   0.442   2.512  0.7838 -0.8789  1.5224
25713SOL     OW78579   6.112   5.746   2.926 -0.2399 -0.4934 -0.3707
25713SOL    HW178580   6.198   5.729   2.966 -0.5184  1.3370  1.1179
25713SOL    HW278581   6.073   5.813   2.981 -2.6330 -1.2341 -1.0666
25714SOL     OW78582   2.182   7.648   4.934  0.1473 -0.1933  0.4596
25714SOL    HW178583   2.231   7.655   4.851 -1.8421 -0.8564 -0.8504
25714SOL    HW278584   2.235   7.589   4.987  1.7516  0.6728 -0.1134
25715SOL     OW78585   1.068   2.914   0.634 -0.1240  0.1069  0.3606
25715SOL    HW178586   1.129   2.840   0.641 -0.4754 -0.0520  2.1431
25715SOL    HW278587   1.091   2.971   0.707  0.4660  2.0547 -1.2651
25716SOL     OW78588   7.782   0.671   9.195  0.0614 -0.5628 -0.3454
25716SOL    HW178589   7.709   0.671   9.256  0.3267  1.0139  0.0089
25716SOL    HW278590   7.741   0.669   9.108 -0.4035  0.0714 -0.1459
25717SOL     OW78591   3.907   2.168   2.062  0.3303 -0.0119 -0.3279
25717SOL    HW178592   3.874   2.091   2.108  1.0277 -1.7962 -2.6216
25717SOL    HW278593   3.834   2.198   2.008  0.8929 -0.9382 -1.6644
25718SOL     OW78594   6.842   5.541   3.848  0.2786 -0.3416  0.4538
25718SOL    HW178595   6.805   5.453   3.851  1.0824 -0.6795  0.7052
25718SOL    HW278596   6.818   5.575   3.762  2.7702 -2.0782 -1.0276
25719SOL     OW78597   6.047   5.959  10.579  0.7453  0.0434  0.4399
25719SOL    HW178598   5.952   5.944  10.580  0.5230  1.2037 -0.5722
25719SOL    HW278599   6.077   5.928  10.664 -0.1252 -2.8356 -0.1878
25720SOL     OW78600   4.887   6.489   7.667  0.3189 -0.4403  0.5484
25720SOL    HW178601   4.809   6.531   7.631  1.0598  0.3334 -0.2292
25720SOL    HW278602   4.933   6.454   7.591  1.0392 -0.3302  0.9205
25721SOL     OW78603   1.114   3.672   8.449 -0.2601  0.3810 -0.3939
25721SOL    HW178604   1.107   3.621   8.530  0.4057  1.1413  0.1539
25721SOL    HW278605   1.173   3.621   8.394 -1.4078 -0.5898 -0.7758
25722SOL     OW78606   7.633   7.538   0.163 -0.0212  0.4834  0.0370
25722SOL    HW178607   7.650   7.455   0.207 -1.0005 -0.2856 -0.9872
25722SOL    HW278608   7.547   7.565   0.195 -0.5249  0.1586 -0.9936
25723SOL     OW78609   1.729   1.195   1.862  0.1454  0.7260 -0.1678
25723SOL    HW178610   1.792   1.251   1.817  1.1206 -0.5449 -0.4292
25723SOL    HW278611   1.743   1.108   1.825 -0.4793  0.0501  1.1116
25724SOL     OW78612   5.639   2.925   1.344 -0.2590  0.0953 -0.3571
25724SOL    HW178613   5.581   2.999   1.321 -1.1763  0.2311  2.1239
25724SOL    HW278614   5.689   2.909   1.264 -0.8229  2.6767 -1.3428
25725SOL     OW78615   1.715   3.773   1.167  0.1197 -0.1396 -0.4310
25725SOL    HW178616   1.800   3.813   1.184  0.4152 -1.5454  1.7345
25725SOL    HW278617   1.655   3.817   1.227  0.2525 -2.0987  1.2480
25726SOL     OW78618   1.060   2.945   5.754  0.2082  0.1678  0.1005
25726SOL    HW178619   1.084   3.035   5.732  0.7274 -0.1802 -0.8284
25726SOL    HW278620   0.972   2.935   5.719  0.2949  0.2084 -0.1351
25727SOL     OW78621   5.017   3.047   6.459 -0.1292  0.1178 -0.4567
25727SOL    HW178622   5.102   3.039   6.416  0.1167 -0.1468  0.0702
25727SOL    HW278623   5.031   3.110   6.529  0.3129 -1.7283  1.2265
25728SOL     OW78624   2.919   5.980   9.197 -0.0827  0.1085  0.1835
25728SOL    HW178625   3.014   5.966   9.202 -0.0252  0.8115  3.1554
25728SOL    HW278626   2.906   6.067   9.236 -1.8776  0.4667 -1.1245
25729SOL     OW78627   6.742   6.197   6.057 -0.0342  0.1407 -0.7140
25729SOL    HW178628   6.820   6.142   6.047 -0.8268 -1.0944 -0.3514
25729SOL    HW278629   6.718   6.187   6.149 -0.9388  0.0662 -0.9533
25730SOL     OW78630   2.485   2.862   7.285 -0.2611  0.3202  0.7668
25730SOL    HW178631   2.540   2.784   7.294 -0.3809  0.1778  0.2885
25730SOL    HW278632   2.531   2.929   7.336 -1.0906 -0.5234  2.7216
25731SOL     OW78633   5.922   1.051   9.557 -0.0796 -0.7339  0.8041
25731SOL    HW178634   5.971   1.129   9.580  0.4274 -1.1692  1.2478
25731SOL    HW278635   5.890   1.067   9.469 -0.5428  0.2426  1.1411
25732SOL     OW78636   2.788   0.084   8.790  0.0500  0.3071  0.0263
25732SOL    HW178637   2.811   0.097   8.881  0.3092  2.7768 -0.3174
25732SOL    HW278638   2.811  -0.007   8.771  1.1140  0.1071  2.0740
25733SOL     OW78639   5.780   2.599   8.992 -0.4103 -0.1741  0.3456
25733SOL    HW178640   5.697   2.633   9.026 -1.3936 -2.4292  0.4344
25733SOL    HW278641   5.758   2.511   8.961  1.8055 -0.5337 -0.3691
25734SOL     OW78642   4.943   1.048  11.211 -0.4976  0.2880  0.0673
25734SOL    HW178643   5.020   0.998  11.239  0.4408  1.0700 -1.0581
25734SOL    HW278644   4.938   1.034  11.117 -1.1204  1.0970 -0.0238
25735SOL     OW78645   2.469   3.145   8.006  0.0910  0.1122 -0.5956
25735SOL    HW178646   2.468   3.204   8.082  0.7212  0.3909 -0.7996
25735SOL    HW278647   2.548   3.169   7.958  0.1172 -0.6066 -0.9164
25736SOL     OW78648   2.582   6.944   2.989 -0.2037  0.3292 -0.3439
25736SOL    HW178649   2.548   6.867   3.036 -2.3909  1.4967  0.1370
25736SOL    HW278650   2.561   6.925   2.897  1.3850 -0.6246 -0.5579
25737SOL     OW78651   4.937   7.003   9.606 -0.2922 -0.0038 -0.5798
25737SOL    HW178652   4.878   6.994   9.681  1.0357  2.2850  0.8821
25737SOL    HW278653   4.913   7.088   9.567  0.7831  0.0699 -1.1181
25738SOL     OW78654   0.227   1.222   1.411 -0.3663  0.6117  0.3816
25738SOL    HW178655   0.153   1.205   1.470 -1.7026 -1.6430 -1.7916
25738SOL    HW278656   0.190   1.278   1.342  0.4870  1.0390  0.2551
25739SOL     OW78657   1.667   6.565   5.381 -0.2113 -0.0950 -0.3292
25739SOL    HW178658   1.575   6.544   5.370 -0.4603 -0.2543  1.6256
25739SOL    HW278659   1.673   6.658   5.360 -0.7562 -0.1574 -0.7736
25740SOL     OW78660   2.485   6.245   5.364  0.1202 -0.0934 -0.2008
25740SOL    HW178661   2.579   6.255   5.381  0.8160 -0.7021 -3.1798
25740SOL    HW278662   2.468   6.301   5.289 -1.6570 -0.9441 -0.4814
25741SOL     OW78663   3.587   5.002   7.880  0.0434 -0.0261 -0.7451
25741SOL    HW178664   3.493   5.000   7.899  0.0546  2.6750 -0.0422
25741SOL    HW278665   3.611   4.910   7.870 -2.5120 -0.8376 -0.2094
25742SOL     OW78666   1.198   1.376   5.015 -0.5230 -0.1533  0.5191
25742SOL    HW178667   1.204   1.280   5.008 -0.9877 -0.2018  0.7596
25742SOL    HW278668   1.288   1.406   5.001 -0.4440 -0.5973 -0.0030
25743SOL     OW78669   3.463   4.518  12.156  0.0154 -0.3354  0.0729
25743SOL    HW178670   3.509   4.544  12.077 -1.1450 -0.7769 -0.7843
25743SOL    HW278671   3.531   4.507  12.222  0.8647  1.6789 -0.3814
25744SOL     OW78672   2.423   5.014   4.655  0.0675  0.2397  0.2312
25744SOL    HW178673   2.445   4.924   4.681  1.0054 -0.1361 -1.7535
25744SOL    HW278674   2.447   5.067   4.731  0.3850 -1.0702  1.0799
25745SOL     OW78675   6.847   2.652   5.462 -0.2838  0.3633 -0.5051
25745SOL    HW178676   6.800   2.573   5.490  0.2139 -0.4789 -1.9415
25745SOL    HW278677   6.911   2.667   5.532 -0.8886 -0.0564  0.1546
25746SOL     OW78678   2.501   7.983   6.051 -0.1001 -0.1949  0.0900
25746SOL    HW178679   2.438   7.925   6.093 -0.2506  0.5039  0.8452
25746SOL    HW278680   2.456   8.067   6.044 -0.2659 -0.4117 -1.9682
25747SOL     OW78681   2.087   1.323   0.499 -0.4390  0.1561  0.2704
25747SOL    HW178682   2.171   1.343   0.459 -0.0493  0.7920  1.3448
25747SOL    HW278683   2.092   1.230   0.522  0.0026  0.2040  0.3785
25748SOL     OW78684   1.968   4.689   0.535  0.8297 -0.0545  0.0591
25748SOL    HW178685   1.911   4.617   0.564  1.1318  0.7719  2.9589
25748SOL    HW278686   2.047   4.645   0.503  0.9676 -1.0771  1.6798
25749SOL     OW78687   4.434   7.650   1.644  0.1212 -0.5157 -0.3641
25749SOL    HW178688   4.450   7.722   1.583 -1.4344 -1.2853 -1.7765
25749SOL    HW278689   4.481   7.674   1.723  0.3200  1.6435 -1.0780
25750SOL     OW78690   4.745   1.878  12.078 -0.4776 -0.1073  0.5533
25750SOL    HW178691   4.824   1.824  12.081  0.7673  1.2348 -2.8141
25750SOL    HW278692   4.778   1.968  12.077 -2.1862  0.5630  1.0824
25751SOL     OW78693   5.704   0.476   3.304  0.2213 -0.2275 -0.3499
25751SOL    HW178694   5.696   0.547   3.240  0.1296 -0.5110 -0.6557
25751SOL    HW278695   5.794   0.484   3.336 -0.4557  1.4348  1.2942
25752SOL     OW78696   3.613   5.406   6.923  0.3520  0.1447  0.3740
25752SOL    HW178697   3.694   5.396   6.972  0.3252  1.3177  0.6968
25752SOL    HW278698   3.556   5.457   6.981 -0.4500 -0.2773 -0.0305
25753SOL     OW78699   2.553   3.863   4.997  0.4742 -0.2958 -0.0321
25753SOL    HW178700   2.543   3.781   4.949 -0.3633  0.2656 -0.8340
25753SOL    HW278701   2.573   3.929   4.930  0.9098  0.2020  0.5745
25754SOL     OW78702   0.727   0.872   8.037 -0.9329  0.0915  0.7866
25754SOL    HW178703   0.686   0.849   8.121  0.3239 -1.9363  0.8995
25754SOL    HW278704   0.721   0.792   7.985  1.5623  0.1557  0.2898
25755SOL     OW78705   7.682   5.860   0.020  0.3698  0.0787 -0.3054
25755SOL    HW178706   7.662   5.951  -0.001  1.9241  0.3209 -0.7906
25755SOL    HW278707   7.748   5.865   0.089  0.7323 -0.6783 -0.5886
25756SOL     OW78708   6.353   0.877  10.147 -0.1225  0.1116 -0.0296
25756SOL    HW178709   6.269   0.836  10.166  0.2371 -0.2189  0.9532
25756SOL    HW278710   6.356   0.952  10.206  0.7700 -0.5761  0.8358
25757SOL     OW78711   1.938   4.735   0.981 -0.5562 -0.4545  0.0423
25757SOL    HW178712   1.928   4.752   0.887 -0.5077  0.4655  0.1985
25757SOL    HW278713   1.850   4.716   1.012 -0.3949 -2.0968 -0.4314
25758SOL     OW78714   5.589   3.336  10.231 -0.1427  0.1042  0.3052
25758SOL    HW178715   5.508   3.385  10.222 -0.5002 -0.2380  1.4592
25758SOL    HW278716   5.595   3.316  10.324  1.9212  1.2350  0.4933
25759SOL     OW78717   6.506   0.062  10.785  0.0979  0.2530  0.6507
25759SOL    HW178718   6.516   0.155  10.764 -1.8371 -0.2211 -3.1226
25759SOL    HW278719   6.595   0.027  10.779  0.9826  1.8369  2.8523
25760SOL     OW78720   6.764   0.337  11.509 -0.0227 -0.0358 -0.4512
25760SOL    HW178721   6.786   0.250  11.542  0.5613  0.9303  1.9283
25760SOL    HW278722   6.841   0.363  11.458  0.6826 -0.1509  0.5212
25761SOL     OW78723   2.600   3.547   7.898  0.2630 -0.1389 -0.3954
25761SOL    HW178724   2.604   3.633   7.941 -1.9389  0.5225 -1.4025
25761SOL    HW278725   2.514   3.513   7.920  0.6556 -1.5995 -0.9967
25762SOL     OW78726   2.693   2.974   9.901 -0.1557  0.6764  0.5568
25762SOL    HW178727   2.764   2.994   9.962  0.1778  2.9515 -0.4742
25762SOL    HW278728   2.613   3.000   9.947  0.0132  1.4850  0.4083
25763SOL     OW78729   1.844   0.962   1.766 -0.2130 -0.5162 -0.4003
25763SOL    HW178730   1.932   0.981   1.797 -0.3673  0.6114 -0.6266
25763SOL    HW278731   1.845   0.868   1.747  1.0565 -0.4481 -0.7647
25764SOL     OW78732   5.692   2.208   0.973  0.2886 -0.1721 -0.4971
25764SOL    HW178733   5.773   2.184   1.018 -0.1724  0.2615  0.6121
25764SOL    HW278734   5.666   2.291   1.013 -1.1474 -0.7307 -0.2059
25765SOL     OW78735   1.376   4.390  10.991 -0.2595 -0.4710  0.1359
25765SOL    HW178736   1.290   4.421  11.018 -0.5415 -1.5093  0.4699
25765SOL    HW278737   1.395   4.439  10.910 -1.0288 -0.0340  0.2094
25766SOL     OW78738   7.084   4.291   6.754 -0.3690  0.3039 -0.7384
25766SOL    HW178739   7.004   4.296   6.703 -3.0765  0.6532  3.0888
25766SOL    HW278740   7.097   4.380   6.788 -0.2038 -0.3631  1.0969
25767SOL     OW78741   2.997   1.651   9.654 -0.7993  0.4998  0.1314
25767SOL    HW178742   3.000   1.702   9.573 -1.1316  0.1869 -0.0799
25767SOL    HW278743   3.010   1.716   9.724  1.2642  0.5424 -0.2406
25768SOL     OW78744   2.629   5.978  10.391 -0.4287 -0.6035 -0.7843
25768SOL    HW178745   2.724   5.974  10.380 -0.5555 -1.3837 -1.6552
25768SOL    HW278746   2.615   5.951  10.481  0.1649 -0.5890 -0.6784
25769SOL     OW78747   1.261   3.740  10.749  0.0731 -0.6917  0.4290
25769SOL    HW178748   1.224   3.812  10.698 -0.5163 -0.3158  1.3577
25769SOL    HW278749   1.349   3.770  10.772  0.1830 -0.6809 -0.0038
25770SOL     OW78750   2.137   3.515   5.890 -0.3436  0.3478 -0.1144
25770SOL    HW178751   2.195   3.579   5.932 -0.2647  0.8509 -0.9851
25770SOL    HW278752   2.151   3.435   5.941  1.3871  0.3654 -0.5008
25771SOL     OW78753   0.538   2.572   1.850 -0.3503 -0.7244 -0.3243
25771SOL    HW178754   0.507   2.634   1.916 -1.5942 -0.3182 -1.2413
25771SOL    HW278755   0.476   2.581   1.777  1.6339 -0.2816 -2.0710
25772SOL     OW78756   5.926   2.660   8.769  0.5891  0.4856 -0.0303
25772SOL    HW178757   5.967   2.574   8.762  0.5477  0.4425  0.2714
25772SOL    HW278758   5.871   2.655   8.846 -1.0741  0.1081 -1.1892
25773SOL     OW78759   5.899   7.423  12.361  0.1524 -0.2914 -0.0788
25773SOL    HW178760   5.957   7.348  12.373 -0.4313 -0.6286  0.6807
25773SOL    HW278761   5.916   7.479  12.437  0.5757  0.3454 -0.6360
25774SOL     OW78762   1.545   5.865   2.562  0.3144 -0.4500 -0.0941
25774SOL    HW178763   1.570   5.953   2.535  1.9812 -1.2380 -1.3190
25774SOL    HW278764   1.452   5.858   2.539  0.5818  0.4199 -1.5757
25775SOL     OW78765   3.095   6.795   3.903  0.3277 -0.2114  0.2258
25775SOL    HW178766   3.141   6.878   3.911 -0.1830  0.2693 -1.4252
25775SOL    HW278767   3.163   6.729   3.910  1.3291  0.4736 -2.0528
25776SOL     OW78768   1.414   5.390   4.272 -0.2211  1.0336  0.9447
25776SOL    HW178769   1.459   5.472   4.252 -0.9579  1.6085  1.5908
25776SOL    HW278770   1.425   5.336   4.194  0.6651  1.5696  0.6933
25777SOL     OW78771   4.555   4.821   7.233 -0.1553  0.3831 -0.0785
25777SOL    HW178772   4.509   4.785   7.157  3.8887 -2.0198 -1.7227
25777SOL    HW278773   4.574   4.744   7.287  2.0940  1.1667  0.3180
25778SOL     OW78774   6.227   4.020   1.470 -0.0910 -0.2091  0.0801
25778SOL    HW178775   6.211   3.998   1.562 -0.7824 -0.6560 -0.1384
25778SOL    HW278776   6.156   3.977   1.422  0.1722  0.1464 -0.6509
25779SOL     OW78777   3.966   0.459   6.899  0.0668 -0.1945 -0.6955
25779SOL    HW178778   3.988   0.435   6.809 -0.3977  0.6396 -1.0450
25779SOL    HW278779   4.039   0.512   6.929 -1.0970  2.0857 -1.6559
25780SOL     OW78780   5.691   0.319   2.586 -0.1568  0.5908  0.2498
25780SOL    HW178781   5.783   0.323   2.560 -0.4794  1.2399 -0.8521
25780SOL    HW278782   5.681   0.233   2.627  0.3581 -0.5721 -1.9286
25781SOL     OW78783   3.717   7.263   8.077 -0.1633  0.5040  0.1416
25781SOL    HW178784   3.697   7.309   8.159  2.9670 -0.0856  1.3763
25781SOL    HW278785   3.811   7.250   8.079 -0.3009 -1.8240 -2.3973
25782SOL     OW78786   5.927   0.247   3.225  0.2194 -0.1107  0.1959
25782SOL    HW178787   5.872   0.221   3.299 -1.4418  0.1737 -0.8929
25782SOL    HW278788   5.964   0.164   3.193 -2.1223 -0.8038 -0.9704
25783SOL     OW78789   4.809   2.831   3.059  0.6440 -0.7807 -0.2391
25783SOL    HW178790   4.779   2.764   2.997 -2.5163 -0.3240  0.6511
25783SOL    HW278791   4.731   2.858   3.106  1.8704  3.0768 -0.0369
25784SOL     OW78792   0.834   7.483  11.949  0.8850 -0.0241  0.4305
25784SOL    HW178793   0.914   7.512  11.993  0.3044 -1.1992  2.4328
25784SOL    HW278794   0.777   7.453  12.021 -1.1243  0.2189 -0.9730
25785SOL     OW78795   3.653   5.754  10.805  0.1435  0.4767 -0.0350
25785SOL    HW178796   3.713   5.702  10.857  0.3558  1.9107  1.2321
25785SOL    HW278797   3.644   5.836  10.853 -1.6311  0.8993 -0.9853
25786SOL     OW78798   7.156   1.706   9.338  0.5174  0.2679 -0.2697
25786SOL    HW178799   7.133   1.617   9.364  0.2119  0.3873 -0.1160
25786SOL    HW278800   7.071   1.750   9.329  0.6211  0.2551 -1.3973
25787SOL     OW78801   6.136   6.182  10.390 -0.4657 -0.1911  0.2696
25787SOL    HW178802   6.140   6.127  10.469  1.0131  1.5845  1.5257
25787SOL    HW278803   6.071   6.248  10.411 -0.3106  0.0887 -0.1326
25788SOL     OW78804   4.834   3.741  10.851 -0.1511  0.1899 -0.0303
25788SOL    HW178805   4.912   3.713  10.804 -0.3131 -0.0473 -0.1635
25788SOL    HW278806   4.819   3.672  10.916 -0.1090  0.3567  0.1568
25789SOL     OW78807   2.026   0.819  11.018  0.4128  0.2848 -0.2784
25789SOL    HW178808   1.958   0.775  10.968 -0.7583 -1.5309  2.6794
25789SOL    HW278809   2.089   0.750  11.039  2.9833  1.7969 -2.4080
25790SOL     OW78810   4.805   0.667  12.048  0.3728  0.0557  0.0218
25790SOL    HW178811   4.782   0.715  12.127 -0.1874  2.5197 -1.4965
25790SOL    HW278812   4.807   0.734  11.980  0.2606 -2.0314 -2.1743
25791SOL     OW78813   0.000   7.111   5.035 -0.2091  0.1526  0.2786
25791SOL    HW178814  -0.082   7.062   5.036 -0.5511  0.7170  1.7144
25791SOL    HW278815   0.044   7.087   5.117  1.0018 -0.0267 -0.4006
25792SOL     OW78816   2.716   2.111   8.155  0.0142 -0.3782  0.4206
25792SOL    HW178817   2.722   2.127   8.061 -0.3251 -1.2237  0.2429
25792SOL    HW278818   2.743   2.194   8.196 -1.5059  0.5565 -0.4171
25793SOL     OW78819   6.334   7.642  11.716 -0.4997 -0.1487  0.3836
25793SOL    HW178820   6.351   7.736  11.712 -0.9081 -0.0369  1.0919
25793SOL    HW278821   6.243   7.635  11.744 -0.2825 -0.7494  0.9761
25794SOL     OW78822   7.611   1.962   5.759 -0.6250 -0.0435 -0.2465
25794SOL    HW178823   7.618   1.873   5.727 -0.4173  0.4646 -1.6770
25794SOL    HW278824   7.698   2.000   5.747 -0.5992  0.2313  0.7336
25795SOL     OW78825   0.523   0.478   5.296  0.4576 -0.2131 -0.1087
25795SOL    HW178826   0.503   0.425   5.373 -0.7547 -2.2584 -1.7204
25795SOL    HW278827   0.507   0.419   5.222  1.7203  1.6158 -1.9314
25796SOL     OW78828   2.693   0.653   4.044  0.6969  0.2007 -0.0616
25796SOL    HW178829   2.614   0.602   4.058  0.7824  0.0533 -0.1116
25796SOL    HW278830   2.677   0.735   4.090  0.3368  0.3517 -0.4533
25797SOL     OW78831   4.092   6.215  12.306  0.4313  0.6596 -0.2409
25797SOL    HW178832   4.081   6.134  12.356  0.2883  2.0672  2.1258
25797SOL    HW278833   4.184   6.213  12.277  0.3923 -0.3922 -0.3400
25798SOL     OW78834   2.062   6.981   0.360  0.4589 -0.6688  0.1607
25798SOL    HW178835   1.991   7.037   0.329  1.1584  0.5195  0.6660
25798SOL    HW278836   2.105   6.950   0.281  1.1028  0.8795 -0.1225
25799SOL     OW78837   4.038   7.466   5.664 -0.9587 -0.1697  1.0537
25799SOL    HW178838   3.962   7.409   5.651 -1.2869  0.5429 -0.4764
25799SOL    HW278839   4.098   7.441   5.594 -0.6266  0.5744  1.0644
25800SOL     OW78840   2.000   6.277   8.865 -0.4500 -0.4037 -0.5113
25800SOL    HW178841   1.978   6.262   8.773  0.3917 -0.2900 -0.7396
25800SOL    HW278842   1.930   6.234   8.914 -0.5629 -1.0177 -1.2001
25801SOL     OW78843   0.549   6.095   2.728  0.4388  0.6475  0.1306
25801SOL    HW178844   0.543   6.117   2.821  0.3211  0.2666  0.2155
25801SOL    HW278845   0.548   5.999   2.726  2.2854  0.5936 -0.1333
25802SOL     OW78846   0.803   7.250   7.808 -0.4221  0.0848 -0.3144
25802SOL    HW178847   0.866   7.256   7.880 -0.3964 -0.9154 -0.2445
25802SOL    HW278848   0.811   7.334   7.763 -1.4714  1.3340  1.6766
25803SOL     OW78849   2.993   1.174   6.414  0.2423  0.0763 -0.4617
25803SOL    HW178850   2.959   1.195   6.501  1.5427  0.8427 -0.1178
25803SOL    HW278851   2.996   1.079   6.412 -1.8650 -0.0246 -0.5039
25804SOL     OW78852   5.159   4.413   3.481  0.1174  0.1399  0.5194
25804SOL    HW178853   5.089   4.470   3.513 -0.9009  0.1267 -1.5556
25804SOL    HW278854   5.145   4.408   3.387  2.6190 -0.2890  0.1021
25805SOL     OW78855   1.861   5.101   5.347  0.2822  0.4369 -0.1406
25805SOL    HW178856   1.884   5.108   5.254  0.5811  0.4520 -0.0665
25805SOL    HW278857   1.769   5.072   5.347 -0.2578  2.0349 -0.4386
25806SOL     OW78858   4.209   5.710   7.128 -0.0694 -0.4086  0.2969
25806SOL    HW178859   4.208   5.725   7.223 -0.2524  0.4588  0.1640
25806SOL    HW278860   4.121   5.734   7.099  0.2845  0.3024 -0.2264
25807SOL     OW78861   7.514   4.253   3.712 -0.2876  0.2175 -0.4471
25807SOL    HW178862   7.572   4.257   3.788  0.7248 -0.6678 -1.1419
25807SOL    HW278863   7.481   4.343   3.703  0.3350  0.5536  0.4606
25808SOL     OW78864   3.189   1.337   7.328 -0.2284  0.0157 -0.5354
25808SOL    HW178865   3.207   1.273   7.259 -1.8826 -2.0764  0.8464
25808SOL    HW278866   3.262   1.399   7.322  1.3338 -1.8109 -2.1536
25809SOL     OW78867   4.301   0.748   1.074 -0.1180  0.4358 -0.2792
25809SOL    HW178868   4.389   0.710   1.078 -0.2483  0.1421 -0.1100
25809SOL    HW278869   4.258   0.718   1.155 -1.1433 -1.3854 -1.4208
25810SOL     OW78870   7.256   3.322   5.901 -0.3070  0.1692 -0.1025
25810SOL    HW178871   7.330   3.267   5.924  0.2284  0.0148 -2.0047
25810SOL    HW278872   7.256   3.392   5.967 -0.0195 -1.1774  1.3741
25811SOL     OW78873   1.996   0.038   8.474 -0.0100  0.6074  0.3095
25811SOL    HW178874   1.927   0.096   8.508  0.3201 -0.1831  2.5311
25811SOL    HW278875   2.076   0.090   8.480 -0.0612  0.7058  0.1122
25812SOL     OW78876   3.219   7.702   8.961 -0.3795 -0.1583 -0.4101
25812SOL    HW178877   3.188   7.612   8.976  0.1498 -0.4285 -0.8888
25812SOL    HW278878   3.302   7.691   8.915 -0.2859  0.5825 -0.4271
25813SOL     OW78879   4.039   0.423   5.725 -0.7003 -0.6791 -0.1069
25813SOL    HW178880   4.002   0.465   5.803 -0.9057  0.5510 -0.8511
25813SOL    HW278881   4.098   0.488   5.688  0.2152 -1.6450 -0.4140
25814SOL     OW78882   0.186   6.627   8.040  0.1999  0.1654 -0.6233
25814SOL    HW178883   0.240   6.554   8.008 -1.6026 -1.2322 -0.6078
25814SOL    HW278884   0.102   6.615   7.996 -0.1070  2.3302 -0.6933
25815SOL     OW78885   7.646   5.908  10.227 -0.2175  0.2543  0.3990
25815SOL    HW178886   7.737   5.919  10.253  0.3741 -1.9499 -0.5110
25815SOL    HW278887   7.613   5.837  10.283 -0.6584 -0.5417 -0.8301
25816SOL     OW78888   5.029   6.366   1.821  0.1314 -0.2368  0.0875
25816SOL    HW178889   4.943   6.377   1.780 -0.3564  0.6703  1.3071
25816SOL    HW278890   5.091   6.376   1.749 -0.6921  1.2079 -0.4573
25817SOL     OW78891   4.154   7.446   6.338  0.3398 -0.1350  0.2867
25817SOL    HW178892   4.182   7.398   6.260  1.2889 -1.4628  1.3954
25817SOL    HW278893   4.065   7.475   6.317  0.8194  0.1442 -1.5433
25818SOL     OW78894   2.357   0.882  10.313  0.1437  0.3719  0.2503
25818SOL    HW178895   2.383   0.798  10.274 -0.3254 -1.0677  2.8050
25818SOL    HW278896   2.321   0.858  10.398  0.7926  3.2646  1.4409
25819SOL     OW78897   7.640   0.798   7.189  0.5099 -1.0972 -0.0578
25819SOL    HW178898   7.663   0.750   7.109 -1.6648 -0.1518 -1.3306
25819SOL    HW278899   7.658   0.889   7.169 -0.0947 -0.8416  0.5113
25820SOL     OW78900   5.791   7.955   7.919 -0.2539 -0.3690 -0.0647
25820SOL    HW178901   5.861   7.915   7.970  0.1937  0.5232  0.0423
25820SOL    HW278902   5.827   7.961   7.830  0.9396  2.5724  0.5021
25821SOL     OW78903   7.371   0.571   6.212  0.3943  0.2513  0.3691
25821SOL    HW178904   7.353   0.595   6.121 -0.6556  1.7145  0.9405
25821SOL    HW278905   7.461   0.600   6.227  0.3212  0.6632  0.0173
25822SOL     OW78906   0.628   1.500   7.505  0.4713  0.1112  0.5845
25822SOL    HW178907   0.603   1.500   7.598 -0.8661 -0.5111  0.2530
25822SOL    HW278908   0.689   1.427   7.497  0.1426 -0.2014  0.8687
25823SOL     OW78909   1.326   5.262   7.308 -0.5716 -0.1249  0.0069
25823SOL    HW178910   1.315   5.271   7.213  0.3616 -0.5195 -0.1468
25823SOL    HW278911   1.401   5.317   7.329 -2.2204  1.8865  0.9168
25824SOL     OW78912   6.527   5.370   5.900 -0.4209  0.1610  0.1721
25824SOL    HW178913   6.472   5.292   5.897 -0.3904  0.1660 -0.7842
25824SOL    HW278914   6.533   5.392   5.993 -1.0499 -0.5325  0.3819
25825SOL     OW78915   4.704   3.242   5.665  0.0739  0.4116 -0.3466
25825SOL    HW178916   4.626   3.187   5.651  0.0876  0.4891 -0.7641
25825SOL    HW278917   4.702   3.264   5.758 -1.1651  1.5427 -0.6003
25826SOL     OW78918   4.195   1.500   0.929  0.4080 -0.6873 -0.2609
25826SOL    HW178919   4.185   1.572   0.991  2.6182  1.2355 -1.9659
25826SOL    HW278920   4.139   1.523   0.856  1.1452 -0.6565 -0.8298
25827SOL     OW78921   1.860   3.430  11.800 -0.7191  0.0830 -0.2579
25827SOL    HW178922   1.811   3.349  11.814 -0.9308  0.3774  0.7380
25827SOL    HW278923   1.928   3.406  11.737  0.1132 -1.2289  1.0805
25828SOL     OW78924   1.143   5.179   8.954  0.6300  0.1007 -0.0546
25828SOL    HW178925   1.194   5.215   9.027 -0.6122  0.4842  0.6487
25828SOL    HW278926   1.179   5.091   8.942  1.3609  0.3059  0.5032
25829SOL     OW78927   7.151   4.414   3.014  0.3916  0.5087 -0.8787
25829SOL    HW178928   7.182   4.331   2.979  0.6941 -0.8152  2.1660
25829SOL    HW278929   7.066   4.428   2.973  0.6654 -0.9216 -1.9894
25830SOL     OW78930   2.090   1.045   2.796 -0.0731  0.1306  1.0785
25830SOL    HW178931   2.020   1.053   2.860 -0.4049 -4.3975  1.5847
25830SOL    HW278932   2.170   1.041   2.848  0.1110  0.7715  0.8517
25831SOL     OW78933   0.282   1.116  10.055  0.0874 -0.0025  0.2220
25831SOL    HW178934   0.267   1.198  10.102  0.4951 -0.5324  1.3148
25831SOL    HW278935   0.221   1.119   9.981  1.2670  2.0166 -0.7476
25832SOL     OW78936   5.731   6.942  11.135  0.1526  0.1020 -0.1770
25832SOL    HW178937   5.735   6.885  11.059  1.1930 -0.4131  0.2310
25832SOL    HW278938   5.823   6.951  11.162 -0.2992 -1.5535  2.3052
25833SOL     OW78939   0.956   1.928   9.041 -0.2284  0.5618  0.5163
25833SOL    HW178940   1.028   1.933   8.979  0.1934  2.6010  1.0718
25833SOL    HW278941   0.911   1.846   9.020  0.6761  0.5348 -1.5710
25834SOL     OW78942   2.189   4.776   0.959 -0.3561  0.0004 -0.0163
25834SOL    HW178943   2.226   4.720   0.891  1.6508  1.1154  0.0882
25834SOL    HW278944   2.097   4.749   0.965  0.5502 -3.3831  0.1855
25835SOL     OW78945   4.578   5.700   5.853 -0.0827 -0.4252  0.1052
25835SOL    HW178946   4.650   5.758   5.876  0.5677 -1.2458  0.2025
25835SOL    HW278947   4.619   5.614   5.843 -1.0173 -0.8668 -0.0461
25836SOL     OW78948   3.142   4.020   1.555 -0.2063 -0.1905  0.5116
25836SOL    HW178949   3.151   3.990   1.464  1.1399 -0.2255  0.6353
25836SOL    HW278950   3.159   3.941   1.607  1.1383  0.2713  0.8078
25837SOL     OW78951   6.659   5.547   4.818  0.0772 -0.0288  0.2545
25837SOL    HW178952   6.695   5.635   4.830 -0.4739  0.4498 -1.3618
25837SOL    HW278953   6.565   5.558   4.824  0.0048 -0.5334  0.1013
25838SOL     OW78954   2.084   2.354   2.429  0.2956 -0.3386  0.9395
25838SOL    HW178955   2.046   2.269   2.450  0.5416 -0.8688 -0.6240
25838SOL    HW278956   2.161   2.361   2.486 -0.0102 -0.9236  1.4351
25839SOL     OW78957   1.980   3.748   6.796  0.1821  0.3008  0.3346
25839SOL    HW178958   2.034   3.826   6.810  2.4231 -0.8923 -0.9566
25839SOL    HW278959   2.014   3.710   6.715 -3.3667 -0.0295 -1.1557
25840SOL     OW78960   4.360   7.608   5.570  0.0222 -0.1142 -0.0978
25840SOL    HW178961   4.434   7.570   5.522  0.0585 -0.1646 -0.0037
25840SOL    HW278962   4.282   7.572   5.527 -0.0112  1.7941 -1.7292
25841SOL     OW78963   2.921   5.266   6.761  0.3898 -0.4726 -0.0374
25841SOL    HW178964   2.918   5.217   6.843  1.5591  1.4435  1.2298
25841SOL    HW278965   2.870   5.345   6.778  1.6898  0.5478 -0.6804
25842SOL     OW78966   6.615   0.075   6.936 -0.0427 -0.4995  0.1259
25842SOL    HW178967   6.692   0.032   6.899 -1.4960 -1.5720 -1.8873
25842SOL    HW278968   6.638   0.168   6.937  0.6589 -0.5591 -2.2498
25843SOL     OW78969   2.204   0.395   9.615  0.2992  0.0151  0.2312
25843SOL    HW178970   2.284   0.420   9.662  1.0391  0.5886 -1.2836
25843SOL    HW278971   2.216   0.302   9.594 -0.3869 -0.4702  1.7843
25844SOL     OW78972   5.726   0.061   4.075  0.0005  0.2433 -0.3289
25844SOL    HW178973   5.675   0.078   4.155  1.1747  1.6343  0.1627
25844SOL    HW278974   5.717  -0.033   4.061  0.0667 -0.1002  1.6513
25845SOL     OW78975   7.226   1.419   4.025 -0.1923  0.2683  0.0836
25845SOL    HW178976   7.194   1.431   3.935 -0.2496  0.8253  0.1731
25845SOL    HW278977   7.180   1.342   4.057 -0.0608 -0.0216 -0.4196
25846SOL     OW78978   6.465   7.209   6.620  0.0404 -0.2024  0.1277
25846SOL    HW178979   6.486   7.145   6.552 -2.0351 -0.4018 -0.3783
25846SOL    HW278980   6.463   7.158   6.701 -1.0522 -0.7093 -0.1948
25847SOL     OW78981   0.496   2.360   4.355  0.1503  1.0163  0.3166
25847SOL    HW178982   0.458   2.377   4.268 -1.7312 -1.5456  0.5261
25847SOL    HW278983   0.586   2.335   4.338 -0.9454 -2.3399 -1.3316
25848SOL     OW78984   1.167   0.670  11.146 -0.3382 -0.2324 -0.0280
25848SOL    HW178985   1.257   0.640  11.130 -0.4290  0.4336 -2.0974
25848SOL    HW278986   1.165   0.759  11.112 -0.8623  1.1811  3.3432
25849SOL     OW78987   2.045   5.418   6.651 -0.3988 -0.7193  0.0121
25849SOL    HW178988   2.136   5.422   6.624 -0.6453 -1.8663 -1.0908
25849SOL    HW278989   2.030   5.500   6.698  1.4349 -0.9314  1.0566
25850SOL     OW78990   5.085   2.121  11.092  0.0566  0.1650 -0.3767
25850SOL    HW178991   5.060   2.065  11.019  2.5316  0.0318 -1.2410
25850SOL    HW278992   5.020   2.103  11.160 -0.9583 -1.4851 -1.6997
25851SOL     OW78993   3.666   7.017   5.732  0.6595  0.1032 -0.0217
25851SOL    HW178994   3.684   6.924   5.747  2.6348  0.2979 -0.8383
25851SOL    HW278995   3.582   7.018   5.685  0.0351 -1.1737  1.0149
25852SOL     OW78996   2.113   7.533   3.931  0.0742 -0.6647 -0.2008
25852SOL    HW178997   2.185   7.490   3.977 -0.8437 -0.8645  1.0862
25852SOL    HW278998   2.113   7.623   3.965  0.2540 -0.4090 -0.8513
25853SOL     OW78999   1.072   7.639   9.043  0.0952 -0.6292 -0.3302
25853SOL    HW179000   1.008   7.679   9.102 -0.5519 -0.3424 -1.2010
25853SOL    HW279001   1.052   7.675   8.957  0.4463 -1.7061 -0.8918
25854SOL     OW79002   1.500   6.963   9.770  0.8939 -0.7197 -0.0874
25854SOL    HW179003   1.507   6.983   9.677  1.2717 -1.7250 -0.2932
25854SOL    HW279004   1.504   6.867   9.774  0.5839 -0.7051  0.9397
25855SOL     OW79005   0.641   5.806   6.835  0.0018 -0.2349 -0.1231
25855SOL    HW179006   0.642   5.712   6.852 -0.4771 -0.5646 -1.6955
25855SOL    HW279007   0.551   5.832   6.852 -0.1448 -0.3024 -0.7536
25856SOL     OW79008   6.841   2.044   6.372  0.2379 -0.6311  0.1575
25856SOL    HW179009   6.855   2.130   6.333  0.6659 -1.0116 -0.5440
25856SOL    HW279010   6.755   2.016   6.339  1.5204 -1.9059 -2.3966
25857SOL     OW79011   4.573   0.724   2.262  0.4428 -0.3968 -0.2918
25857SOL    HW179012   4.554   0.776   2.184  2.0766  0.1453 -0.3875
25857SOL    HW279013   4.497   0.736   2.319 -0.2895  0.0824 -1.3566
25858SOL     OW79014   7.038   7.943  10.294  0.0757 -0.1074 -0.2895
25858SOL    HW179015   7.031   7.887  10.217  0.5241  0.8177 -1.0247
25858SOL    HW279016   6.963   8.002  10.288  0.1017 -0.0418  0.0035
25859SOL     OW79017   2.565   0.825  10.959 -0.0107  0.2964 -0.1980
25859SOL    HW179018   2.557   0.848  10.867 -0.7309  0.6411 -0.0541
25859SOL    HW279019   2.501   0.881  11.004  0.2679  0.0700  0.4972
25860SOL     OW79020   3.519   6.939   9.911 -0.7890 -0.1891 -0.4208
25860SOL    HW179021   3.440   6.963   9.862 -0.0975 -1.0510 -2.0453
25860SOL    HW279022   3.538   6.849   9.885 -0.1892 -0.5824  1.2287
25861SOL     OW79023   3.134   4.560  10.088 -0.7070 -0.1176 -0.7289
25861SOL    HW179024   3.106   4.537  10.177 -0.0661 -1.1777 -0.7904
25861SOL    HW279025   3.143   4.655  10.090  0.3689 -0.2173  0.6703
25862SOL     OW79026   0.743   2.698   2.523 -0.3698 -0.0016  0.1111
25862SOL    HW179027   0.838   2.708   2.531 -0.2513 -0.3627 -0.7131
25862SOL    HW279028   0.729   2.603   2.520 -0.8831  0.0186  1.5320
25863SOL     OW79029   6.126   2.195   3.933 -0.5819  0.1007 -0.4782
25863SOL    HW179030   6.162   2.279   3.904 -1.3683  0.1560 -1.3106
25863SOL    HW279031   6.157   2.132   3.869 -1.1785 -0.0011 -0.6756
25864SOL     OW79032   2.480   6.368  12.026  0.6663 -0.6607 -0.0349
25864SOL    HW179033   2.531   6.365  12.107  0.6940 -2.1448 -0.0726
25864SOL    HW279034   2.416   6.437  12.039  1.6716  0.1591  0.6373
25865SOL     OW79035   0.799   4.412   2.947  0.1388  0.1287 -0.2426
25865SOL    HW179036   0.837   4.395   3.034  0.4376 -1.3060 -0.6263
25865SOL    HW279037   0.864   4.378   2.886 -0.8701 -0.5474 -0.9694
25866SOL     OW79038   3.290   1.174  11.724 -0.2620  0.1085  0.1280
25866SOL    HW179039   3.380   1.156  11.749  0.2416  0.8001 -1.0902
25866SOL    HW279040   3.294   1.260  11.680 -1.7511  0.8963  1.4218
25867SOL     OW79041   5.171   2.305   7.459 -0.5428  0.0786  0.3188
25867SOL    HW179042   5.146   2.325   7.549  1.1674 -0.0510  0.8535
25867SOL    HW279043   5.207   2.217   7.463 -1.4166 -0.3536 -0.7124
25868SOL     OW79044   4.256   5.081   8.839 -0.2832  0.1865  0.4934
25868SOL    HW179045   4.224   5.170   8.855 -0.5639  0.2397 -0.3148
25868SOL    HW279046   4.346   5.093   8.810  0.0538  0.1228  1.4662
25869SOL     OW79047   4.564   3.966   4.964 -0.0940  0.2739  0.3083
25869SOL    HW179048   4.590   4.001   5.049  2.1531  0.5264 -0.4236
25869SOL    HW279049   4.584   3.873   4.968 -3.4778 -0.5390  1.2778
25870SOL     OW79050   6.989   3.843   8.403 -0.2809  0.5376 -0.0050
25870SOL    HW179051   7.018   3.893   8.327  1.1301 -0.5529 -0.2253
25870SOL    HW279052   7.067   3.795   8.432 -0.8934  0.5783  1.8607
25871SOL     OW79053   1.909   6.431   0.283 -0.3813 -0.6982  0.2733
25871SOL    HW179054   1.873   6.520   0.288 -0.5464 -0.7982  1.0204
25871SOL    HW279055   2.003   6.443   0.298 -0.5770 -0.7648  1.6958
25872SOL     OW79056   0.181   2.890   7.182  0.2232  0.0116 -0.3154
25872SOL    HW179057   0.087   2.907   7.169  0.2583 -0.1753 -0.8627
25872SOL    HW279058   0.224   2.972   7.157  0.1500  0.4596  0.9598
25873SOL     OW79059   7.685   3.608  10.436  0.2745  0.3768 -0.3343
25873SOL    HW179060   7.609   3.597  10.378 -0.4446 -1.9516  0.8977
25873SOL    HW279061   7.646   3.624  10.523  1.2783  1.6021 -0.0861
25874SOL     OW79062   1.060   7.144   6.500 -0.0792 -0.1365 -0.7554
25874SOL    HW179063   1.002   7.220   6.511  0.6135  0.2897 -0.0200
25874SOL    HW279064   1.027   7.101   6.421 -0.9996  0.4599 -0.7128
25875SOL     OW79065   1.270   1.784   5.570  0.4206  0.0997  0.2039
25875SOL    HW179066   1.224   1.857   5.612  2.3201  1.1090  0.6295
25875SOL    HW279067   1.234   1.782   5.481  1.0176  2.2660 -0.1548
25876SOL     OW79068   0.079   2.287   0.977 -0.6247 -0.4728  0.6021
25876SOL    HW179069   0.052   2.324   1.060 -0.1293 -1.3376  1.1692
25876SOL    HW279070   0.131   2.356   0.935  0.2707 -0.5082  1.6251
25877SOL     OW79071   6.699   0.742   7.112 -0.0039  0.4299  0.3669
25877SOL    HW179072   6.750   0.813   7.151  2.4668 -0.2441 -1.3522
25877SOL    HW279073   6.666   0.779   7.030  1.9369 -0.5058 -0.9174
25878SOL     OW79074   7.241   2.040   9.774 -0.2885  0.9667 -0.5775
25878SOL    HW179075   7.228   2.076   9.686 -0.2970  0.2536 -0.8710
25878SOL    HW279076   7.233   1.946   9.763  1.4831  0.7258 -0.1323
25879SOL     OW79077   3.245   5.163  12.461 -0.0010  0.4769  0.3372
25879SOL    HW179078   3.269   5.115  12.540  0.6880  0.4598  0.1313
25879SOL    HW279079   3.262   5.255  12.482  2.0173  0.3158 -0.3867
25880SOL     OW79080   1.698   6.209   4.235 -0.4911  0.0636  0.9043
25880SOL    HW179081   1.686   6.156   4.314  1.4927 -1.2707  0.3765
25880SOL    HW279082   1.734   6.292   4.267 -0.0399 -0.3350  1.4404
25881SOL     OW79083   4.909   5.561   8.513  0.4053 -0.1076 -0.7925
25881SOL    HW179084   4.834   5.604   8.553  1.3489  1.2504 -0.4161
25881SOL    HW279085   4.948   5.509   8.583 -1.2687 -2.4405 -1.4732
25882SOL     OW79086   7.545   5.546   9.385  0.1621 -0.2295  0.1197
25882SOL    HW179087   7.608   5.504   9.443 -0.1984 -0.2506  0.4992
25882SOL    HW279088   7.465   5.494   9.395  0.5545 -1.2514 -1.6453
25883SOL     OW79089   4.253   1.963   5.113 -0.3279 -0.5357 -0.2893
25883SOL    HW179090   4.318   2.022   5.151  0.2055  0.1526 -2.1885
25883SOL    HW279091   4.286   1.875   5.134  0.3967 -0.1871  0.0785
25884SOL     OW79092   5.912   6.207   6.516  0.3419  0.3457  0.6091
25884SOL    HW179093   5.857   6.202   6.594 -0.1056  1.3451  0.3615
25884SOL    HW279094   5.929   6.300   6.504  0.0548  0.2319 -0.7363
25885SOL     OW79095   7.912   7.783   9.670 -0.1591  0.0376 -0.2394
25885SOL    HW179096   7.826   7.768   9.710 -0.3877  0.5178 -0.5433
25885SOL    HW279097   7.907   7.739   9.585 -0.8746  1.8504 -1.1872
25886SOL     OW79098   7.935   6.698   4.393  0.2998 -0.4313  0.1215
25886SOL    HW179099   7.961   6.744   4.313  0.5815  1.8950  1.4367
25886SOL    HW279100   8.012   6.707   4.451 -0.6561 -0.1171  1.3900
25887SOL     OW79101   3.798   2.147   9.097 -0.0122 -0.3614 -0.1128
25887SOL    HW179102   3.892   2.126   9.105 -0.0590 -1.6129 -2.0882
25887SOL    HW279103   3.795   2.243   9.098  1.6041 -0.1981 -2.2420
25888SOL     OW79104   3.508   1.783   3.619 -0.3609 -0.2332  0.3178
25888SOL    HW179105   3.595   1.821   3.615 -0.0006 -1.1139 -0.4333
25888SOL    HW279106   3.462   1.819   3.543 -0.2682 -0.6824  0.0455
25889SOL     OW79107   4.398   4.481   0.617  0.4785  0.4617 -0.4335
25889SOL    HW179108   4.479   4.525   0.644  0.6571  0.5071 -1.0264
25889SOL    HW279109   4.416   4.452   0.528  0.0591 -0.0751 -0.3450
25890SOL     OW79110   4.874   4.097  10.162  0.9891 -0.1192 -0.6016
25890SOL    HW179111   4.815   4.172  10.174  1.2318 -0.1625  0.9729
25890SOL    HW279112   4.815   4.022  10.153  0.7578 -0.2483  1.5594
25891SOL     OW79113   5.079   5.745  12.284  0.3554  0.0128 -0.7116
25891SOL    HW179114   5.044   5.721  12.370  0.4405 -1.6346 -1.1031
25891SOL    HW279115   5.002   5.769  12.232  0.1169 -0.7444 -0.7071
25892SOL     OW79116   2.566   4.845   9.945  0.1161 -0.8186  0.1481
25892SOL    HW179117   2.521   4.929   9.929  0.1037 -0.5985  1.2167
25892SOL    HW279118   2.603   4.821   9.860  1.6380  1.1675  0.1656
25893SOL     OW79119   4.200   3.108  11.873  0.2552 -0.2520  0.2883
25893SOL    HW179120   4.128   3.171  11.866  1.0001  0.8286  1.7275
25893SOL    HW279121   4.161   3.024  11.852 -0.8180  0.6341 -1.5760
25894SOL     OW79122   4.264   2.342   1.527  0.2649  0.0557  0.4806
25894SOL    HW179123   4.300   2.273   1.471  2.6667 -0.8425  2.9135
25894SOL    HW279124   4.184   2.305   1.563  0.4148 -0.6163  0.1403
25895SOL     OW79125   3.816   7.321   5.558 -0.8060  0.4567 -0.4706
25895SOL    HW179126   3.849   7.250   5.503 -0.5588  0.9585 -0.9750
25895SOL    HW279127   3.724   7.330   5.532 -0.7242  0.6053 -0.7106
25896SOL     OW79128   5.690   7.116   7.678  0.6266  0.4287 -0.8322
25896SOL    HW179129   5.753   7.098   7.749 -0.2581  1.0602  0.1495
25896SOL    HW279130   5.685   7.211   7.674  2.2900  0.4996 -3.2712
25897SOL     OW79131   2.109   0.201   8.050  0.0392  0.9030 -0.3421
25897SOL    HW179132   2.204   0.187   8.046 -0.3292 -1.8144 -1.0690
25897SOL    HW279133   2.092   0.220   8.142  1.1883  0.4980 -0.0246
25898SOL     OW79134   4.592   3.494  11.099  0.2706  0.1744  0.3091
25898SOL    HW179135   4.558   3.451  11.178 -0.7804  2.1777  1.0039
25898SOL    HW279136   4.539   3.459  11.028  0.4609 -0.7989  0.6295
25899SOL     OW79137   0.767   0.228   4.516 -0.2470 -0.4831 -0.3367
25899SOL    HW179138   0.711   0.163   4.473 -1.5808  0.7905 -0.5831
25899SOL    HW279139   0.799   0.283   4.445  0.0820 -0.2676 -0.0222
25900SOL     OW79140   7.104   6.451   0.170  0.1838 -0.3519 -0.0939
25900SOL    HW179141   7.074   6.490   0.088  0.5091 -2.3915 -1.2682
25900SOL    HW279142   7.199   6.458   0.166  0.1952 -0.3546  0.1620
25901SOL     OW79143   0.900   4.351   1.228 -0.1080  0.0270 -0.0543
25901SOL    HW179144   0.858   4.325   1.146 -1.9421 -1.3693  1.2609
25901SOL    HW279145   0.837   4.411   1.269  0.1281 -0.4382  1.0009
25902SOL     OW79146   7.778   6.045   5.775  0.1922 -0.6973 -0.3863
25902SOL    HW179147   7.851   6.029   5.834  1.4237  0.8632 -1.4145
25902SOL    HW279148   7.710   6.084   5.830  1.6432  1.5842 -0.0878
25903SOL     OW79149   1.681   2.120  11.279  0.3147 -0.3848 -0.6751
25903SOL    HW179150   1.749   2.186  11.272  0.5768 -0.3793  1.3696
25903SOL    HW279151   1.633   2.143  11.358 -3.4428  0.8056 -3.0416
25904SOL     OW79152   1.318   3.290   0.151  0.0414 -0.0634 -0.2532
25904SOL    HW179153   1.361   3.239   0.219 -1.0605 -0.4821  0.1582
25904SOL    HW279154   1.280   3.365   0.197  0.1355  0.1774 -0.5667
25905SOL     OW79155   7.773   2.121   4.024  0.1517 -0.9462  0.3902
25905SOL    HW179156   7.834   2.053   4.053  1.4140  0.6750  1.7547
25905SOL    HW279157   7.765   2.108   3.930  0.7978 -2.6031  0.5335
25906SOL     OW79158   4.559   7.153   9.079 -0.4056 -0.1390 -0.2413
25906SOL    HW179159   4.626   7.112   9.134  0.2041 -0.5507 -1.2686
25906SOL    HW279160   4.479   7.104   9.098 -0.1348 -0.4710  0.0597
25907SOL     OW79161   2.573   4.066   6.097 -0.7336 -0.3738 -0.2131
25907SOL    HW179162   2.499   4.078   6.038 -1.1156  2.0170  0.6437
25907SOL    HW279163   2.632   4.138   6.076  0.5409 -1.2121  0.3433
25908SOL     OW79164   7.826   5.567  10.013 -0.1275 -0.0040 -0.2167
25908SOL    HW179165   7.865   5.487   9.977 -0.0830 -0.7294  1.3733
25908SOL    HW279166   7.750   5.537  10.062  0.2707  0.8551  0.9576
25909SOL     OW79167   3.811   4.245   3.566 -0.0104  0.3950 -0.2530
25909SOL    HW179168   3.813   4.189   3.489 -0.2398  1.3833 -0.9973
25909SOL    HW279169   3.888   4.219   3.617 -0.0551 -0.5090 -0.6248
25910SOL     OW79170   0.721   2.966   7.497  0.0696  0.4965  0.0518
25910SOL    HW179171   0.786   2.916   7.546 -1.8654 -0.0018  2.2842
25910SOL    HW279172   0.708   3.045   7.548 -3.0075 -0.6449  1.2723
25911SOL     OW79173   5.785   4.022   7.085  0.6558 -0.2168 -0.0437
25911SOL    HW179174   5.779   4.073   7.004  1.7069 -1.2303 -0.7980
25911SOL    HW279175   5.832   3.943   7.060  1.4582 -0.3354  1.6726
25912SOL     OW79176   7.372   2.688   3.561 -0.2665  0.5011 -0.3820
25912SOL    HW179177   7.439   2.718   3.500  0.1776 -1.2115 -0.8047
25912SOL    HW279178   7.326   2.619   3.513 -2.1024  1.3711  0.0509
25913SOL     OW79179   1.787   7.335   7.323  0.2877  0.0590 -0.6371
25913SOL    HW179180   1.830   7.268   7.271  1.5806  0.6639 -0.3819
25913SOL    HW279181   1.833   7.416   7.301  0.6508  0.3839  1.1655
25914SOL     OW79182   7.365   6.005   0.097 -0.2251  0.1842  0.1703
25914SOL    HW179183   7.308   6.032   0.168 -2.1928 -0.7293 -0.9782
25914SOL    HW279184   7.413   5.930   0.131 -0.5508  0.2512  0.7786
25915SOL     OW79185   2.708   7.756   2.968  0.1682 -0.2431  1.1278
25915SOL    HW179186   2.671   7.757   2.880  0.0795  0.4796  1.1670
25915SOL    HW279187   2.799   7.730   2.955 -0.0264 -0.8156  0.8976
25916SOL     OW79188   5.387   2.586   4.920 -0.1348 -0.9388 -0.4339
25916SOL    HW179189   5.410   2.507   4.871  1.4114  0.1345 -1.5279
25916SOL    HW279190   5.469   2.635   4.925 -0.7104 -0.0922  1.5697
25917SOL     OW79191   2.141   7.314   8.287  0.2623 -0.1401 -0.2306
25917SOL    HW179192   2.082   7.304   8.212  1.2485  3.2311 -1.6419
25917SOL    HW279193   2.082   7.330   8.361 -0.6919  0.6802 -1.1355
25918SOL     OW79194   0.637   5.729   1.520 -0.7659 -0.1763 -0.1636
25918SOL    HW179195   0.556   5.678   1.519 -2.1970  1.9916 -0.6855
25918SOL    HW279196   0.640   5.768   1.608 -0.0101 -0.6305  0.0208
25919SOL     OW79197   2.444   4.311   5.938 -0.6166 -0.0063 -0.1066
25919SOL    HW179198   2.536   4.333   5.951 -0.5422 -0.7442  0.7318
25919SOL    HW279199   2.425   4.337   5.848  0.7631 -1.0250 -0.7182
25920SOL     OW79200   7.304   7.323   1.917 -0.2826 -0.3335  0.0456
25920SOL    HW179201   7.319   7.228   1.922 -0.2860 -0.2738  1.5214
25920SOL    HW279202   7.392   7.361   1.911 -0.3290 -0.4812 -2.3810
25921SOL     OW79203   1.150   4.101   4.385  0.2127 -0.7815  0.0424
25921SOL    HW179204   1.193   4.175   4.427  1.5023 -0.1239 -2.2719
25921SOL    HW279205   1.059   4.129   4.374  0.3881 -0.0828  0.3259
25922SOL     OW79206   3.277   0.883   3.619  0.2393  0.7063  0.5020
25922SOL    HW179207   3.244   0.797   3.644  0.2541  0.1702 -1.1606
25922SOL    HW279208   3.372   0.873   3.620  0.2606  0.9388  1.0420
25923SOL     OW79209   7.557   6.063   8.874  0.2443 -0.3525 -0.5169
25923SOL    HW179210   7.589   6.057   8.784 -1.1532 -0.3243 -1.0346
25923SOL    HW279211   7.555   6.157   8.892  1.0038 -0.3777 -0.2638
25924SOL     OW79212   3.907   7.869   0.064  0.2847 -0.4744  0.1529
25924SOL    HW179213   3.864   7.805   0.008  1.5834 -1.5620  0.3643
25924SOL    HW279214   3.863   7.952   0.043  0.3878 -0.9394 -2.0832
25925SOL     OW79215   2.404   0.388  11.151  0.2028 -0.3793  0.5320
25925SOL    HW179216   2.358   0.465  11.186  1.1755 -0.0998  1.2254
25925SOL    HW279217   2.487   0.423  11.119  0.5595 -1.1157  0.6518
25926SOL     OW79218   5.486   2.907   5.332 -0.1426 -0.2156 -0.2651
25926SOL    HW179219   5.437   2.839   5.287 -2.2221  1.3007 -0.4125
25926SOL    HW279220   5.532   2.954   5.262 -1.3063  0.5164 -0.5695
25927SOL     OW79221   4.378   7.222   9.782 -0.3632 -0.1398  0.5858
25927SOL    HW179222   4.310   7.284   9.755  1.6843  1.0962 -2.4390
25927SOL    HW279223   4.448   7.278   9.817 -0.6868 -1.3472  3.3848
25928SOL     OW79224   2.588   4.145   8.750 -0.1846 -0.1969  0.4162
25928SOL    HW179225   2.601   4.239   8.741 -0.1002 -0.2856 -0.5929
25928SOL    HW279226   2.496   4.135   8.775 -0.0227  0.1710  1.1802
25929SOL     OW79227   4.696   5.312   2.607  0.1311  0.2928  0.1286
25929SOL    HW179228   4.621   5.263   2.641  0.0935  0.9212  0.9880
25929SOL    HW279229   4.743   5.249   2.553 -0.7838 -0.2287 -0.0914
25930SOL     OW79230   6.438   0.883   3.841  0.3311  0.3755  0.1223
25930SOL    HW179231   6.368   0.901   3.778  1.2506  0.5434 -0.8807
25930SOL    HW279232   6.397   0.827   3.907 -0.7438  0.4719 -0.4444
25931SOL     OW79233   2.961   4.266  12.217 -0.1481 -0.0925  0.2016
25931SOL    HW179234   2.920   4.258  12.304  0.6373 -1.1388  0.5089
25931SOL    HW279235   3.051   4.292  12.236 -0.4235  1.3831 -0.4149
25932SOL     OW79236   1.239   7.892   0.658 -0.0392  0.1162 -0.0421
25932SOL    HW179237   1.322   7.876   0.612  0.7231 -0.5380  1.4892
25932SOL    HW279238   1.174   7.844   0.607  0.7343 -0.3953 -0.5805
25933SOL     OW79239   5.810   6.661   8.917  0.2146 -0.3998 -0.1224
25933SOL    HW179240   5.904   6.654   8.905  0.4819  0.9366  0.9496
25933SOL    HW279241   5.784   6.579   8.959  1.1520 -0.1894  0.9048
25934SOL     OW79242   3.840   5.879   1.001 -0.0952  0.2514 -0.9030
25934SOL    HW179243   3.850   5.968   0.970  3.1085  0.2283 -0.2869
25934SOL    HW279244   3.913   5.831   0.961 -0.5125 -1.5809  0.3926
25935SOL     OW79245   0.738   2.984   4.994  0.0043  0.2341 -0.3899
25935SOL    HW179246   0.789   2.954   4.919 -0.1836 -0.5855 -0.1952
25935SOL    HW279247   0.673   2.915   5.009 -1.3307  1.3626 -0.7807
25936SOL     OW79248   3.010   0.356  11.841  0.5238 -0.1299  0.0513
25936SOL    HW179249   2.956   0.369  11.763  0.6729  0.7697  0.0862
25936SOL    HW279250   3.090   0.405  11.822  0.8089 -0.4177  0.5210
25937SOL     OW79251   4.285   7.147   2.840  0.2615 -0.5155 -0.1142
25937SOL    HW179252   4.210   7.105   2.798  0.1986 -0.6492  0.1304
25937SOL    HW279253   4.339   7.178   2.768  0.3862 -1.1500 -0.2977
25938SOL     OW79254   7.641   3.685  10.841  0.2633 -0.3008  0.0837
25938SOL    HW179255   7.697   3.629  10.896 -1.3170  1.6311  4.0329
25938SOL    HW279256   7.695   3.763  10.824  0.3875 -0.4513 -0.2205
25939SOL     OW79257   4.625   6.342   6.346 -0.2596  0.2873 -0.0947
25939SOL    HW179258   4.632   6.423   6.397 -1.1606  0.3798 -0.0913
25939SOL    HW279259   4.554   6.293   6.388  0.2517 -0.4980 -0.1182
25940SOL     OW79260   2.763   6.786   8.538 -0.0752  0.2634  0.1670
25940SOL    HW179261   2.842   6.801   8.486 -0.3258 -2.1920 -1.0245
25940SOL    HW279262   2.709   6.730   8.484 -2.8825  2.1541  0.7892
25941SOL     OW79263   4.107   2.921   0.956  0.3684  0.3640  0.7475
25941SOL    HW179264   4.014   2.901   0.965  0.5034 -0.5708  0.1723
25941SOL    HW279265   4.132   2.884   0.872  0.3124  4.3641 -1.2511
25942SOL     OW79266   0.393   0.206   6.108  0.1946 -0.6775 -0.1307
25942SOL    HW179267   0.376   0.143   6.178  1.2545  0.6809  1.4164
25942SOL    HW279268   0.479   0.181   6.073  3.0880  2.4527  3.7189
25943SOL     OW79269   4.582   2.444   6.112  0.4158 -0.5153 -0.1890
25943SOL    HW179270   4.505   2.394   6.085  0.5376 -1.0523  0.4548
25943SOL    HW279271   4.586   2.434   6.207  0.0755  1.2540  0.0455
25944SOL     OW79272   0.033   3.940   2.471  0.0546 -0.1192  0.3685
25944SOL    HW179273  -0.046   3.994   2.476  0.0155 -0.1701  0.2922
25944SOL    HW279274   0.057   3.939   2.378 -0.6689 -1.2767  0.1739
25945SOL     OW79275   0.767   6.327   7.327  0.0979  0.0668  0.2699
25945SOL    HW179276   0.853   6.319   7.286  0.5530  0.8036  1.0499
25945SOL    HW279277   0.707   6.339   7.253  0.3593 -2.4403 -0.4250
25946SOL     OW79278   3.167   4.377   5.030  0.2360  0.0718  0.1303
25946SOL    HW179279   3.093   4.434   5.052  0.5419  0.5629 -0.0961
25946SOL    HW279280   3.128   4.308   4.976 -0.1314  0.0801  0.3773
25947SOL     OW79281   0.631   1.751   8.340 -0.1471 -0.4275  0.7980
25947SOL    HW179282   0.695   1.790   8.280 -0.0145 -0.8551  0.6569
25947SOL    HW279283   0.588   1.826   8.381 -0.1544 -0.1290  0.2602
25948SOL     OW79284   3.916   4.206   7.815  0.2727 -0.3006 -0.2317
25948SOL    HW179285   3.971   4.186   7.890  1.7467 -0.1814 -1.2269
25948SOL    HW279286   3.859   4.129   7.805  2.2578 -1.7823 -0.8741
25949SOL     OW79287   0.578   4.926   7.378 -0.2928 -0.1804 -0.0045
25949SOL    HW179288   0.609   4.919   7.287 -0.9628  0.0630 -0.2660
25949SOL    HW279289   0.500   4.870   7.380 -0.9796  0.7614  0.0922
25950SOL     OW79290   0.392   1.332   6.367 -0.2972  0.8333  0.0774
25950SOL    HW179291   0.439   1.255   6.336  0.0081  0.7862  0.6504
25950SOL    HW279292   0.349   1.304   6.447 -0.3396  1.2022  0.1876
25951SOL     OW79293   6.020   5.057   5.892 -0.2711 -0.1975 -0.6559
25951SOL    HW179294   6.061   5.006   5.822 -1.7209 -0.9913 -0.9722
25951SOL    HW279295   6.037   5.148   5.869  2.0417 -0.4829 -0.2893
25952SOL     OW79296   6.049   3.635   1.204  0.6249  0.0825 -0.4116
25952SOL    HW179297   5.970   3.589   1.232 -0.1499  2.0096  0.7400
25952SOL    HW279298   6.119   3.571   1.217 -0.8422 -2.1783 -2.8648
25953SOL     OW79299   5.909   3.814   6.375 -0.3373 -0.5529  0.0212
25953SOL    HW179300   5.870   3.808   6.462  0.6173  0.2906  0.5283
25953SOL    HW279301   5.997   3.776   6.385  1.2330  2.8108  0.4135
25954SOL     OW79302   2.015   4.095   8.697 -0.1738  0.0635 -0.5261
25954SOL    HW179303   1.974   4.106   8.612  0.4244  0.3549 -0.7820
25954SOL    HW279304   2.017   4.183   8.734 -0.7993 -0.1214 -0.0343
25955SOL     OW79305   0.856   7.771   6.544 -0.0880  0.4022 -0.2481
25955SOL    HW179306   0.852   7.768   6.640  0.0723 -0.0904 -0.2577
25955SOL    HW279307   0.876   7.863   6.524  0.1511  0.4494  0.2004
25956SOL     OW79308   2.802   7.457   6.857  0.3873  0.2168  0.0930
25956SOL    HW179309   2.716   7.486   6.887  0.0753  1.5818 -1.9561
25956SOL    HW279310   2.794   7.362   6.851 -0.0639  0.0436  2.4913
25957NA      NA79311   3.612   2.044   8.998  0.3914 -0.0633 -0.5524
25958NA      NA79312   4.244   2.876   1.252  0.4190  0.1881 -0.1366
25959NA      NA79313   4.061   1.779  10.563 -0.6073 -0.2917 -0.2349
25960NA      NA79314   7.307   0.134  11.234 -0.5113 -0.3104 -0.1765
25961NA      NA79315   7.064   6.666   8.688  0.2167  0.0339  0.1194
25962NA      NA79316   2.734   4.205   7.363  0.6895  0.2654 -0.0529
25963NA      NA79317   4.833   2.978  11.872  0.3606 -0.5913  0.1386
25964NA      NA79318   2.527   0.283  11.994 -0.1386  0.1569  0.1902
25965NA      NA79319   1.590   6.081  10.101 -0.0248  0.1124 -0.3117
25966NA      NA79320   6.517   5.750   8.303 -0.3372  0.1016 -0.0830
25967NA      NA79321   4.996   4.234  10.320 -0.5267  0.4268  0.0475
25968NA      NA79322   5.321   3.840  11.062 -0.1393  0.2527  0.1801
25969NA      NA79323   4.971   5.578   8.294 -0.1478  0.3575 -0.1220
25970NA      NA79324   4.693   3.047  11.009 -0.0428  0.0997  0.4830
25971NA      NA79325   3.566   3.589  12.328 -0.4975 -0.0537  0.0746
25972NA      NA79326   4.489   3.391  12.418 -0.1716  0.1672  0.3381
25973NA      NA79327   6.072   3.096  10.063  0.2169  0.0828 -0.0925
25974NA      NA79328   5.690   6.778   4.273 -0.0507  0.0834 -0.3679
25975NA      NA79329   5.694   4.600  10.382 -0.4696  0.1946  0.0694
25976NA      NA79330   4.308   3.738   8.941  0.7282 -0.2195  0.1952
25977NA      NA79331   6.256   1.036   8.878  0.0183  0.2791 -0.1221
25978NA      NA79332   2.524   6.031   7.842 -0.3226  0.0086  0.1244
25979NA      NA79333   0.651   3.307   3.950 -0.1368 -0.1049  0.1956
25980NA      NA79334   4.106   2.440   7.243 -0.1822  0.3607 -0.2413
25981NA      NA79335   4.963   3.999   8.287  0.2417 -0.1483  0.2905
25982NA      NA79336   3.301   2.715   6.631  0.2986 -0.2061  0.2358
25983NA      NA79337   4.021   3.314   0.627 -0.0203  0.1694  0.0373
25984NA      NA79338   1.680   1.879  12.121  0.0449 -0.1140 -0.1878
25985NA      NA79339   7.721   2.474   7.458  0.1095 -0.3620  0.1193
25986NA      NA79340   5.892   3.467   5.875 -0.2917 -0.3781 -0.1785
25987NA      NA79341   5.116   1.488  11.215 -0.4156  0.5997 -0.1207
25988NA      NA79342   4.542   4.466   9.464  0.3084 -0.0754  0.1052
25989NA      NA79343   7.454   6.633  12.100 -0.3273 -0.3342  0.5109
25990NA      NA79344   1.009   7.596  10.624 -0.1675  0.4156 -0.4454
25991NA      NA79345   3.552   2.610  10.151 -0.4432  0.2366 -0.0425
25992NA      NA79346   3.561   2.176   8.405  0.4179  0.2057 -0.3479
25993NA      NA79347   4.840   2.274   8.600  0.1798  0.2294 -0.0318
25994NA      NA79348   3.661   2.388   9.896 -0.2048 -0.1547 -0.2695
25995NA      NA79349   5.711   2.892  12.095  0.3263 -0.8525 -0.6009
25996NA      NA79350   4.813   3.126   8.099 -0.3903 -0.6570  0.0846
25997NA      NA79351   2.191   6.165   1.477  0.2860  0.6300 -0.4858
25998NA      NA79352   0.738   1.444   1.924  0.2942  0.1397 -0.0362
25999NA      NA79353   4.949   2.916   3.744 -0.3049  0.0136  0.1827
26000NA      NA79354   2.292   5.747   3.915 -0.2222  0.1309  0.2623
26001NA      NA79355   2.173   7.753   9.957 -0.2325 -0.2476  0.3431
26002NA      NA79356   4.055   1.435  11.830 -0.1918  0.0397  0.0878
26003NA      NA79357   2.845   5.886   5.853 -0.6742 -0.1573  0.2836
26004NA      NA79358   3.525   3.682   9.422  0.0219 -0.2063  0.1222
   7.98618   7.98618  12.47841
